chitosan Film  in water:acetic acid 2%
11450
    1CHTO  H203    1   4.629   7.442   0.059 -0.7783  0.0568 -0.0226
    1CHTO   O82    2   4.606   7.396   0.137  0.1842 -0.3493  0.0263
    1CHTO  C123    3   4.728   7.361   0.195 -0.2189  0.4190 -0.5008
    1CHTO  H227    4   4.746   7.437   0.272 -0.5334  0.0601 -0.0683
    1CHTO   O77    5   4.705   7.229   0.259  0.2142 -0.2473  0.0229
    1CHTO  C118    6   4.812   7.180   0.341 -0.6120  0.7997 -1.5076
    1CHTO  H222    7   4.859   7.256   0.404  0.9674 -0.3440 -1.2874
    1CHTO  C125    8   4.764   7.064   0.441  0.5612  0.1272  0.0646
    1CHTO   O84    9   4.666   7.116   0.529  0.5878  0.0626  0.0179
    1CHTO  H205   10   4.686   7.087   0.616  0.4452 -1.3325 -0.3971
    1CHTO  C114   11   4.925   7.125   0.256 -0.0319  0.2749 -0.3823
    1CHTO  H218   12   4.883   7.048   0.191 -2.4679  3.3809 -2.6570
    1CHTO  C116   13   4.969   7.242   0.163  0.3547 -0.3380 -0.1041
    1CHTO  H220   14   5.025   7.317   0.223 -0.2733 -0.5500  0.7594
    1CHTO   O79   15   5.046   7.185   0.059  0.3085  0.1792  0.7349
    1CHTO  H201   16   5.001   7.182  -0.023  0.9824  3.3584  0.1969
    1CHTO  C120   17   4.853   7.330   0.099  0.8125  0.3334 -0.0876
    1CHTO  H224   18   4.807   7.275   0.015 -0.1407 -0.7440  1.1212
    1CHTO   N21   19   4.906   7.461   0.038  0.1013  0.8193  0.3077
    1CHTO  H211   20   4.937   7.438  -0.063  2.5578 -2.5066  1.7198
    1CHTO  H212   21   4.995   7.484   0.095  0.1349 -1.4989  1.2510
    1CHTO   O75   22   5.032   7.075   0.343  0.3281 -0.5455  0.4593
    1CHTO  C112   23   5.072   6.928   0.320  0.2969 -0.5380 -0.2290
    1CHTO  H216   24   5.092   6.915   0.213 -2.3507 -1.6309 -0.6368
    1CHTO   O73   25   4.974   6.841   0.372  0.4181  0.1251  0.1440
    1CHTO  C113   26   4.998   6.701   0.344 -0.0334  0.4089 -0.2271
    1CHTO  H217   27   5.015   6.698   0.234 -2.0142  0.0628 -0.5482
    1CHTO  C124   28   4.876   6.607   0.367 -0.0361 -0.1600  0.4085
    1CHTO   O83   29   4.763   6.653   0.289 -0.1479 -0.1335  0.6618
    1CHTO  H204   30   4.790   6.698   0.212  0.7897 -1.8413 -0.0401
    1CHTO  C109   31   5.121   6.652   0.419  0.4180  0.4240 -0.4922
    1CHTO  H213   32   5.105   6.658   0.528  0.3970 -1.7457 -0.3603
    1CHTO  C110   33   5.235   6.735   0.379 -0.1251  0.1970  0.2270
    1CHTO  H214   34   5.267   6.710   0.278 -1.2385  0.3514 -0.1770
    1CHTO   O78   35   5.344   6.694   0.469  0.4111  0.0735  0.2118
    1CHTO  H200   36   5.365   6.603   0.476 -2.9830 -0.8647 -0.8138
    1CHTO  C111   37   5.208   6.887   0.394 -0.0224  0.1879 -0.1224
    1CHTO  H215   38   5.200   6.909   0.501 -0.1424 -0.2193 -0.0489
    1CHTO   N19   39   5.322   6.974   0.342 -0.3115  0.0598  1.0614
    1CHTO  H207   40   5.340   6.955   0.238 -1.4607 -0.3032  0.9333
    1CHTO  H208   41   5.291   7.077   0.355  1.9422  0.8865  0.2447
    1CHTO   O74   42   5.141   6.515   0.383 -0.0065 -0.6539 -0.7613
    1CHTO  C115   43   5.185   6.418   0.489  0.0653  0.7308  0.3242
    1CHTO  H219   44   5.199   6.466   0.586  0.8043  0.5282  0.3244
    1CHTO   O76   45   5.078   6.305   0.510  0.2516  0.1216 -0.8064
    1CHTO  C122   46   5.037   6.232   0.397  0.2411 -0.8606 -0.3810
    1CHTO  H226   47   4.952   6.281   0.350  0.7921 -2.3117 -3.0370
    1CHTO  C126   48   4.983   6.096   0.446 -0.3637  0.4112  0.2320
    1CHTO   O85   49   5.044   6.014   0.546  0.2695  0.1245  0.0092
    1CHTO  H206   50   5.120   5.971   0.510  0.1356 -0.5127  0.4873
    1CHTO  C121   51   5.154   6.209   0.300 -0.1665  0.2131  0.2366
    1CHTO  H225   52   5.142   6.103   0.269  0.6369  0.5583 -1.2583
    1CHTO   O81   53   5.133   6.290   0.182 -0.2877  0.1232 -0.1386
    1CHTO  H202   54   5.120   6.378   0.212  0.0506 -0.5212  2.0071
    1CHTO  C119   55   5.302   6.230   0.362  0.4555  0.2621 -0.9439
    1CHTO  H223   56   5.314   6.149   0.434 -0.3409  0.3339 -0.7184
    1CHTO  C117   57   5.321   6.359   0.445  0.1019 -0.4332 -0.3275
    1CHTO  H221   58   5.363   6.440   0.386  0.7489 -0.3311  0.2632
    1CHTO   N20   59   5.429   6.332   0.550  0.5734 -0.3493  0.9170
    1CHTO  H209   60   5.396   6.341   0.652  0.1446  4.0271  0.4805
    1CHTO  H210   61   5.517   6.388   0.523  0.5971 -0.1474  1.4107
    1CHTO   O80   62   5.424   6.207   0.254 -0.0470 -0.4521  0.1837
    1CHTO  C103   63   5.520   6.085   0.260 -0.0863 -0.4020  1.3120
    1CHTO  H190   64   5.546   6.056   0.362 -4.2829 -0.9902  2.3046
    1CHTO  C101   65   5.476   5.952   0.177  0.2315 -0.0953 -0.5926
    1CHTO  H188   66   5.441   5.987   0.079 -2.0924  0.0492  0.2643
    1CHTO   O68   67   5.355   5.891   0.238  0.0614  0.4922  0.3059
    1CHTO  H168   68   5.336   5.802   0.213 -0.2008  1.0026 -1.3915
    1CHTO   C99   69   5.587   5.847   0.152 -0.0271  0.3681 -0.8356
    1CHTO  H186   70   5.592   5.785   0.243  0.1686  1.8158  0.1497
    1CHTO   N17   71   5.566   5.750   0.044  0.1759 -0.6861  0.2418
    1CHTO  H174   72   5.535   5.650   0.072  2.3628 -0.9262  1.9966
    1CHTO  H175   73   5.533   5.789  -0.052  3.5211  0.9003 -0.3461
    1CHTO   C97   74   5.732   5.910   0.137 -0.1847 -0.8642 -0.0523
    1CHTO  H184   75   5.753   5.921   0.029  2.1404 -1.0209  0.3569
    1CHTO   O64   76   5.751   6.035   0.206 -0.4445 -0.3941  0.4506
    1CHTO  C104   77   5.652   6.137   0.184 -0.6387  0.9663  0.2808
    1CHTO  H191   78   5.630   6.146   0.078  0.2422 -1.0167 -0.1083
    1CHTO  C108   79   5.715   6.269   0.234  0.0704 -0.2523 -0.1230
    1CHTO   O71   80   5.858   6.289   0.221 -0.2407  0.0409 -0.0688
    1CHTO  H171   81   5.889   6.335   0.297  0.9016 -1.2425  0.2827
    1CHTO   O62   82   5.835   5.822   0.194  0.3968 -0.6522  0.0180
    1CHTO   C91   83   5.922   5.745   0.103  0.1042 -0.0396 -0.2236
    1CHTO  H178   84   5.867   5.733   0.010  1.3523 -1.0373 -0.8426
    1CHTO   C92   85   5.942   5.592   0.163  0.6947 -0.5161  0.1557
    1CHTO  H179   86   5.936   5.596   0.273 -3.3408 -1.1386  0.0196
    1CHTO   O66   87   5.831   5.517   0.127  0.1125 -0.0722 -0.0891
    1CHTO  H166   88   5.829   5.428   0.155  0.0246  0.2761  1.0483
    1CHTO   C93   89   6.074   5.514   0.113 -0.0128  0.2007 -0.1746
    1CHTO  H180   90   6.057   5.484   0.009 -2.5606 -0.9080  0.5138
    1CHTO   N16   91   6.105   5.385   0.185 -0.0697 -0.4336  0.1315
    1CHTO  H172   92   6.048   5.364   0.274 -0.8796  0.6711 -0.1249
    1CHTO  H173   93   6.210   5.378   0.209  0.0049  0.7275  0.1497
    1CHTO   C94   94   6.193   5.616   0.108  0.0931 -0.2798 -0.3861
    1CHTO  H181   95   6.215   5.654   0.207  2.1719  0.7306 -1.2197
    1CHTO   O61   96   6.155   5.720   0.014  0.1422  0.1561  0.4572
    1CHTO   C95   97   6.062   5.807   0.076  0.1136 -0.1479 -0.1159
    1CHTO  H182   98   6.099   5.831   0.176 -1.0696 -1.7511  0.7186
    1CHTO  C106   99   6.057   5.941  -0.015 -0.0198  0.0445 -0.4846
    1CHTO   O69  100   6.187   6.006  -0.001 -0.0811 -0.1220  0.2308
    1CHTO  H169  101   6.250   5.956  -0.050  0.7022  0.1490  0.9480
    1CHTO   O63  102   6.327   5.530   0.045 -0.4673 -0.5182  0.9020
    1CHTO   C96  103   6.474   5.617   0.019  0.0187  0.2627  0.3403
    1CHTO  H183  104   6.509   5.650   0.117 -0.8441 -2.2050  1.5295
    1CHTO   C98  105   6.464   5.738  -0.081  0.2624  0.6028 -0.4085
    1CHTO  H185  106   6.387   5.809  -0.045  0.3535 -0.0881  1.2096
    1CHTO   O67  107   6.587   5.804  -0.073  0.0539  0.4687  0.3304
    1CHTO  H167  108   6.592   5.871  -0.138 -1.7690 -0.3652 -0.7083
    1CHTO  C102  109   6.435   5.691  -0.231 -0.6004  0.1220  0.2911
    1CHTO  H189  110   6.456   5.779  -0.293  2.6816 -0.5633  0.3650
    1CHTO   N18  111   6.293   5.651  -0.261  0.6389 -0.4617  0.1640
    1CHTO  H176  112   6.256   5.697  -0.352 -1.7293  0.6905  1.6709
    1CHTO  H177  113   6.267   5.547  -0.267 -1.3676 -0.0407  1.1187
    1CHTO  C105  114   6.541   5.581  -0.269  0.2577 -0.9168  0.7183
    1CHTO  H192  115   6.503   5.533  -0.359  0.6331 -1.7423  0.9926
    1CHTO   O65  116   6.555   5.481  -0.167  0.1597  0.0357  0.2932
    1CHTO  C100  117   6.570   5.506  -0.032  0.5994 -0.3446  0.2301
    1CHTO  H187  118   6.544   5.405   0.004  0.5085 -0.1334  0.7512
    1CHTO  C107  119   6.719   5.521   0.009 -0.8165  0.3622 -0.0674
    1CHTO   O70  120   6.799   5.401  -0.000 -0.2645 -0.5309  0.1568
    1CHTO  H170  121   6.889   5.423  -0.015 -0.4664  1.5395  1.6930
    1CHTO   O57  122   6.676   5.659  -0.295 -0.0546 -0.1698 -0.4904
    1CHTO   C85  123   6.736   5.666  -0.426 -0.2683 -0.3684 -0.1979
    1CHTO  H157  124   6.657   5.714  -0.487 -0.9578  1.5049  2.1083
    1CHTO   C83  125   6.770   5.523  -0.470  0.7292  0.3445  0.0746
    1CHTO  H155  126   6.678   5.465  -0.479  1.3658 -0.9542  1.7647
    1CHTO   O56  127   6.846   5.467  -0.366  0.0999  0.6027  0.1102
    1CHTO  H135  128   6.919   5.523  -0.351  1.4199 -1.0829  0.0914
    1CHTO   C81  129   6.853   5.527  -0.601  0.0050  0.4797  0.0323
    1CHTO  H153  130   6.794   5.576  -0.678 -0.5100  0.3056  0.3148
    1CHTO   N14  131   6.879   5.391  -0.653 -0.5404 -0.1571  0.1259
    1CHTO  H141  132   6.816   5.314  -0.612 -0.7873  0.6170  1.2356
    1CHTO  H142  133   6.865   5.403  -0.758  0.8664  2.5758  0.2183
    1CHTO   C79  134   6.981   5.615  -0.587 -0.0700 -0.0133  0.2000
    1CHTO  H151  135   7.019   5.619  -0.689 -1.5768  0.3835 -0.3512
    1CHTO   O52  136   6.948   5.748  -0.548 -0.2912 -0.2923 -0.1883
    1CHTO   C86  137   6.868   5.753  -0.420 -1.1089  0.1238  0.0957
    1CHTO  H158  138   6.941   5.722  -0.342 -0.5690  2.0179  0.3851
    1CHTO   C90  139   6.833   5.898  -0.386  0.3311  0.2233  0.3078
    1CHTO   O60  140   6.946   5.985  -0.397 -0.2564 -0.2112  0.4062
    1CHTO  H138  141   6.987   5.972  -0.481 -0.4803 -0.0892  0.2788
    1CHTO   O50  142   7.081   5.556  -0.497  0.1705 -0.1189 -0.0828
    1CHTO   C73  143   7.224   5.521  -0.483  0.3733  0.4035 -0.3131
    1CHTO  H145  144   7.274   5.508  -0.580  0.2182  1.8885 -0.5960
    1CHTO   C74  145   7.240   5.383  -0.410 -0.0029 -0.3533  0.2219
    1CHTO  H146  146   7.184   5.307  -0.466 -2.7485  1.2119  0.7924
    1CHTO   O54  147   7.377   5.343  -0.409 -0.0274 -0.4813  0.3081
    1CHTO  H133  148   7.433   5.395  -0.354 -1.9977  0.1845  1.7871
    1CHTO   C75  149   7.185   5.392  -0.263  0.3646  0.2893  0.2797
    1CHTO  H147  150   7.078   5.414  -0.270  0.2762 -0.3526 -0.4302
    1CHTO   N13  151   7.187   5.256  -0.192 -0.0040  0.4857 -0.3243
    1CHTO  H139  152   7.241   5.248  -0.099 -0.5172  0.7532 -0.0020
    1CHTO  H140  153   7.086   5.218  -0.187 -0.1656  0.7970 -1.1045
    1CHTO   C76  154   7.241   5.515  -0.185  1.0236  0.3060 -0.7288
    1CHTO  H148  155   7.342   5.494  -0.148  0.5444 -1.5456 -0.4353
    1CHTO   O49  156   7.246   5.633  -0.268  0.7092 -0.5743 -0.0853
    1CHTO   C77  157   7.292   5.633  -0.399 -0.3536 -1.1626 -0.1233
    1CHTO  H149  158   7.400   5.616  -0.401 -0.3509 -1.0855 -0.7300
    1CHTO   C88  159   7.277   5.769  -0.462 -0.2940 -0.4795 -0.0252
    1CHTO   O58  160   7.303   5.781  -0.621 -0.0873 -0.1872 -0.3530
    1CHTO  H136  161   7.364   5.846  -0.649  0.3454 -1.5859 -2.8023
    1CHTO   O51  162   7.127   5.558  -0.063 -0.5500  0.5679 -0.2691
    1CHTO   C78  163   7.177   5.674   0.027  0.6308  0.4227 -0.1970
    1CHTO  H150  164   7.237   5.750  -0.027 -0.6699  1.1714 -0.6088
    1CHTO   C80  165   7.261   5.623   0.151  0.8356  0.1447  0.7620
    1CHTO  H152  166   7.192   5.557   0.208  1.7524 -1.4742  0.0435
    1CHTO   O55  167   7.366   5.547   0.081  0.7232  0.0297 -0.5103
    1CHTO  H134  168   7.358   5.455   0.102 -0.3640 -0.0708 -1.3274
    1CHTO   C84  169   7.314   5.738   0.239 -0.6283 -0.2144  0.5038
    1CHTO  H156  170   7.373   5.807   0.178 -0.5582 -1.3998 -0.8080
    1CHTO   N15  171   7.416   5.697   0.338 -0.7967  0.3026 -0.0982
    1CHTO  H143  172   7.509   5.739   0.306 -0.0734 -1.0392  0.2128
    1CHTO  H144  173   7.428   5.591   0.340 -2.3867  0.0741 -1.1796
    1CHTO   C87  174   7.185   5.805   0.293 -0.1767 -0.5622 -0.2939
    1CHTO  H159  175   7.129   5.737   0.356  0.7085  0.4812  1.6773
    1CHTO   O53  176   7.095   5.865   0.152  0.0594 -0.6017  0.0881
    1CHTO   C82  177   7.051   5.753   0.072  0.7594 -0.3741 -0.6293
    1CHTO  H154  178   6.985   5.689   0.132  1.7617  0.9665  1.9884
    1CHTO   C89  179   6.969   5.807  -0.044  0.3112  0.5840  0.2718
    1CHTO   O59  180   7.030   5.923  -0.099  0.1135 -0.3182 -0.2611
    1CHTO  H137  181   6.964   5.983  -0.129  1.0243  0.3475 -0.9484
    1CHTO   O45  182   7.207   5.938   0.381  0.1039 -0.5708 -0.9033
    1CHTO   C67  183   7.088   6.012   0.428 -0.2752  0.4604 -0.2096
    1CHTO  H124  184   7.055   6.069   0.342  3.0753  2.2557 -0.4079
    1CHTO   C65  185   6.970   5.922   0.487 -0.6614 -0.0811  0.2646
    1CHTO  H122  186   7.010   5.824   0.513  0.1657 -0.1349 -1.2000
    1CHTO   O44  187   6.871   5.912   0.385 -0.8223 -0.0145  0.2533
    1CHTO  H102  188   6.909   5.859   0.318 -0.2300  0.7149  0.0033
    1CHTO   C63  189   6.902   5.967   0.622 -0.5234  0.0911 -0.4712
    1CHTO  H120  190   6.970   5.939   0.703 -0.4240  0.5204 -0.4067
    1CHTO   N11  191   6.770   5.898   0.652  0.3591  0.0806  0.2317
    1CHTO  H108  192   6.792   5.796   0.676 -1.9308 -0.6000 -0.4709
    1CHTO  H109  193   6.720   5.923   0.743  0.1792  0.4638  0.0282
    1CHTO   C61  194   6.883   6.125   0.622 -0.2674  0.1879  0.3094
    1CHTO  H118  195   6.859   6.153   0.726  2.6136 -1.9056  1.6127
    1CHTO   O40  196   7.007   6.196   0.585 -0.2459 -0.1449 -0.2459
    1CHTO   C68  197   7.128   6.123   0.530 -0.0784 -0.2798  0.1224
    1CHTO  H125  198   7.177   6.065   0.610 -1.8405 -1.3640  0.4393
    1CHTO   C72  199   7.227   6.232   0.483  0.1957 -0.0041 -0.7405
    1CHTO   O48  200   7.144   6.309   0.399 -1.3441  0.2682  0.2112
    1CHTO  H105  201   7.069   6.349   0.439 -0.1684 -0.1409  2.9515
    1CHTO   O38  202   6.786   6.177   0.535  0.9202  0.1040 -0.1373
    1CHTO   C55  203   6.695   6.290   0.554  0.2044 -0.0363  0.1273
    1CHTO  H112  204   6.698   6.332   0.656 -1.3153  1.5265 -0.4467
    1CHTO   C56  205   6.550   6.246   0.509  0.2096 -0.2782 -0.2588
    1CHTO  H113  206   6.561   6.203   0.408 -0.0901 -0.0080 -0.4082
    1CHTO   O42  207   6.512   6.133   0.585  0.5575  0.1048 -0.0831
    1CHTO  H100  208   6.509   6.164   0.674 -1.2309  0.6669 -0.3053
    1CHTO   C57  209   6.445   6.367   0.519  0.0478  0.2252 -0.1545
    1CHTO  H114  210   6.450   6.406   0.621 -2.4655  1.8026 -0.5668
    1CHTO   N10  211   6.305   6.328   0.483 -0.0099  0.1650  0.2401
    1CHTO  H106  212   6.307   6.250   0.409 -0.2268 -0.2734  0.6950
    1CHTO  H107  213   6.243   6.293   0.564 -1.5630 -1.3715 -1.6018
    1CHTO   C58  214   6.503   6.483   0.425 -0.5783  0.4766 -0.4891
    1CHTO  H115  215   6.501   6.448   0.319  2.1363  1.1095 -0.7841
    1CHTO   O37  216   6.638   6.515   0.450  0.1725  0.0810  0.3110
    1CHTO   C59  217   6.738   6.409   0.468 -0.2737  0.0175 -0.7182
    1CHTO  H116  218   6.749   6.373   0.366  1.7381 -2.1014  0.2178
    1CHTO   C70  219   6.865   6.473   0.523  0.3946  0.2227  0.1274
    1CHTO   O46  220   6.940   6.534   0.424 -0.2300 -0.5147  0.4640
    1CHTO  H103  221   7.034   6.530   0.431 -0.1994 -1.4499 -0.4591
    1CHTO   O39  222   6.399   6.624   0.436  0.0077  0.0585 -0.1223
    1CHTO   C60  223   6.449   6.742   0.509  0.2114 -0.2243 -0.3305
    1CHTO  H117  224   6.508   6.715   0.597 -1.7754 -1.8483  0.5609
    1CHTO   C62  225   6.542   6.835   0.419  0.1545  0.5468 -0.2655
    1CHTO  H119  226   6.629   6.771   0.391 -1.5423 -1.8976 -0.0460
    1CHTO   O43  227   6.479   6.879   0.299  0.0163  0.2274  0.1808
    1CHTO  H101  228   6.536   6.941   0.258  0.0675 -1.1646 -1.8981
    1CHTO   C66  229   6.596   6.950   0.510 -0.3922 -0.1095  0.2459
    1CHTO  H123  230   6.652   6.901   0.590  0.7727 -0.3143 -0.6654
    1CHTO   N12  231   6.704   7.036   0.440 -0.0845  1.0075 -0.5758
    1CHTO  H110  232   6.788   6.972   0.418  0.8715  1.5940  1.2428
    1CHTO  H111  233   6.731   7.120   0.504  1.9625 -1.7800  2.3581
    1CHTO   C69  234   6.476   7.035   0.564 -0.1231  0.1197  0.1021
    1CHTO  H126  235   6.429   7.079   0.474 -2.0503  1.1509  1.5846
    1CHTO   O41  236   6.379   6.954   0.627  0.3879 -0.0424 -0.9174
    1CHTO   C64  237   6.326   6.827   0.560  0.2485  0.5348  0.6870
    1CHTO  H121  238   6.260   6.859   0.476  0.1537  2.9468  1.6591
    1CHTO   C71  239   6.247   6.749   0.662  0.1513 -0.6248 -0.6989
    1CHTO   O47  240   6.116   6.800   0.672  0.1231 -0.0573 -0.1529
    1CHTO  H104  241   6.086   6.798   0.760  0.0382 -1.6417 -0.1919
    1CHTO   O34  242   6.520   7.135   0.666  0.7617  0.9284 -0.0401
    1CHTO   C49  243   6.423   7.281   0.649 -0.7280  0.2563  0.3630
    1CHTO   H91  244   6.316   7.257   0.644 -0.5274 -0.2613 -2.6386
    1CHTO   C47  245   6.461   7.364   0.520  0.1238  0.1088  0.3581
    1CHTO   H89  246   6.404   7.460   0.520  3.4603  2.1722 -1.9159
    1CHTO   O33  247   6.432   7.295   0.394  0.9725 -0.2398 -0.3101
    1CHTO   H70  248   6.500   7.232   0.378  1.7738  0.6906 -0.6064
    1CHTO   C45  249   6.619   7.398   0.540 -0.7854  0.3627  0.7913
    1CHTO   H87  250   6.664   7.303   0.573  2.2050  1.1739 -0.7649
    1CHTO    N8  251   6.686   7.445   0.413 -0.0559  0.5126 -0.3341
    1CHTO   H75  252   6.728   7.355   0.369  0.0349 -0.1010  0.9915
    1CHTO   H76  253   6.609   7.480   0.346 -0.1847  0.4943 -0.1946
    1CHTO   C43  254   6.637   7.490   0.667  0.0502 -0.3006 -0.4287
    1CHTO   H85  255   6.744   7.504   0.683  0.0709 -2.8213  2.1227
    1CHTO   O29  256   6.577   7.442   0.781 -0.5125  0.2595  0.1225
    1CHTO   C50  257   6.451   7.377   0.775  0.2018  0.6594  0.5610
    1CHTO   H92  258   6.441   7.310   0.862 -0.1180 -1.4704 -1.0737
    1CHTO   C54  259   6.337   7.477   0.803  0.1766  0.4381 -0.2132
    1CHTO   O36  260   6.343   7.524   0.939  0.1116  0.0417 -0.3414
    1CHTO   H72  261   6.259   7.531   0.980  1.0756  0.7059  1.5695
    1CHTO   O27  262   6.575   7.613   0.636 -0.2745  0.8451 -0.1390
    1CHTO   C37  263   6.597   7.757   0.637 -0.2794  0.4150  0.2918
    1CHTO   H79  264   6.592   7.799   0.738 -0.2452 -0.6169  0.7271
    1CHTO   C38  265   6.727   7.808   0.587 -0.1925  0.2443  0.0670
    1CHTO   H80  266   6.736   7.774   0.483 -0.6236 -0.0130  0.1115
    1CHTO   O31  267   6.837   7.757   0.670  0.2093 -0.3598  0.0167
    1CHTO   H68  268   6.897   7.707   0.618  0.8064 -1.2063  1.4962
    1CHTO   C39  269   6.725   7.967   0.592  0.0953  0.5099  0.7437
    1CHTO   H81  270   6.729   8.000   0.696  1.1239  0.6989  0.6514
    1CHTO    N7  271   6.850   8.025   0.532 -0.0699 -0.0609  0.9129
    1CHTO   H73  272   6.865   7.988   0.432  1.9920 -0.8193  1.4910
    1CHTO   H74  273   6.846   8.133   0.523 -2.2024 -0.2610 -1.0594
    1CHTO   C40  274   6.599   8.038   0.529  0.0077 -0.8230  0.1240
    1CHTO   H82  275   6.602   8.046   0.420  1.5655 -0.3127  0.1867
    1CHTO   O26  276   6.483   7.967   0.574 -0.2363 -0.1255  0.3045
    1CHTO   C41  277   6.486   7.829   0.543 -0.0636 -0.1141 -0.0910
    1CHTO   H83  278   6.506   7.812   0.436 -1.3795  0.0232 -0.3607
    1CHTO   C52  279   6.346   7.769   0.575 -0.1095  0.4944  0.6882
    1CHTO   O35  280   6.241   7.831   0.484  0.3870 -0.1386  0.0870
    1CHTO   H71  281   6.218   7.911   0.528  1.2482 -0.8786  1.9454
    1CHTO   O28  282   6.579   8.173   0.564  0.0021 -0.7859  0.1740
    1CHTO   C42  283   6.597   8.284   0.471 -0.9373 -0.5761 -0.7063
    1CHTO   H84  284   6.648   8.237   0.386  1.1033 -1.4818  0.9522
    1CHTO   C44  285   6.698   8.402   0.521 -0.3091  0.1253 -0.7883
    1CHTO   H86  286   6.664   8.441   0.617  3.0717 -1.4542  1.1282
    1CHTO   O32  287   6.835   8.351   0.536  0.1792 -0.0529  0.0249
    1CHTO   H69  288   6.888   8.398   0.597 -0.0241  0.7473 -0.4066
    1CHTO   C48  289   6.702   8.529   0.426  0.3732  0.1757  0.3072
    1CHTO   H90  290   6.753   8.492   0.337 -0.6069 -1.3096  0.3372
    1CHTO    N9  291   6.781   8.649   0.458 -0.2744 -0.5249 -0.0110
    1CHTO   H77  292   6.845   8.674   0.374 -1.4273  1.7540 -0.2540
    1CHTO   H78  293   6.838   8.613   0.542  1.5830 -1.4188 -1.6051
    1CHTO   C51  294   6.556   8.565   0.381 -0.4159 -0.2675  0.5004
    1CHTO   H93  295   6.509   8.606   0.471 -0.0653 -0.0989  0.6073
    1CHTO   O30  296   6.489   8.447   0.337  0.3707  0.2763  0.3676
    1CHTO   C46  297   6.463   8.348   0.415 -0.0770  0.1973  0.4703
    1CHTO   H88  298   6.407   8.388   0.499  1.2427  1.1327  0.9284
    1CHTO   C53  299   6.393   8.248   0.335  0.1647  0.0848  0.3096
    1CHTO   O72  300   6.322   8.139   0.395  0.6555  0.0252 -0.3229
    1CHTO  H199  301   6.282   8.090   0.326 -1.4047  0.8609  0.2541
    1CHTO   O22  302   6.529   8.662   0.275 -0.0147 -0.0820  0.0166
    1CHTO   C31  303   6.496   8.640   0.133  0.5157 -0.2453  0.2355
    1CHTO   H59  304   6.493   8.743   0.091 -0.7411 -0.7099 -0.8643
    1CHTO   C29  305   6.600   8.559   0.052  0.5115 -0.1564 -0.1602
    1CHTO   H57  306   6.607   8.458   0.094  0.4549 -0.1859 -0.2196
    1CHTO   O21  307   6.727   8.627   0.063  0.2214 -0.2948  0.1235
    1CHTO   H37  308   6.721   8.717   0.038  1.8111 -0.0582  0.5275
    1CHTO   C27  309   6.552   8.546  -0.103 -0.3655 -0.2397 -0.6269
    1CHTO   H55  310   6.540   8.647  -0.144 -2.8043  0.4105  1.5461
    1CHTO    N5  311   6.638   8.469  -0.184 -0.7364  0.1287  0.0879
    1CHTO   H43  312   6.626   8.515  -0.281  0.0149 -0.4052 -0.2558
    1CHTO   H44  313   6.606   8.366  -0.195  1.1952 -0.2814 -1.7972
    1CHTO   C25  314   6.408   8.492  -0.110  0.1780  0.0128  0.1822
    1CHTO   H53  315   6.407   8.388  -0.072  1.7481 -0.1708 -0.2755
    1CHTO   O17  316   6.320   8.577  -0.028 -0.2512 -0.0606 -0.2420
    1CHTO   C32  317   6.358   8.581   0.114  0.0940 -0.3661 -0.2521
    1CHTO   H60  318   6.359   8.478   0.150 -2.1536 -0.1000  0.6106
    1CHTO   C36  319   6.242   8.665   0.180 -0.4111  0.9244 -0.1622
    1CHTO   O25  320   6.115   8.596   0.172  0.0677  0.1174 -0.0282
    1CHTO   H40  321   6.051   8.664   0.175  2.9095  3.0583 -2.4376
    1CHTO   O15  322   6.351   8.509  -0.250 -0.1745  0.0801  0.3662
    1CHTO   C19  323   6.271   8.402  -0.310 -0.0938  0.0362 -0.4857
    1CHTO   H47  324   6.309   8.310  -0.262 -2.3893 -0.3896  0.5791
    1CHTO   C20  325   6.115   8.405  -0.286 -0.1146  0.3096 -0.3601
    1CHTO   H48  326   6.071   8.501  -0.317  0.9866  0.9014 -0.1054
    1CHTO   O19  327   6.089   8.392  -0.148 -0.5411  0.6820 -0.2956
    1CHTO   H35  328   6.144   8.458  -0.108  0.7512 -0.6476  0.1580
    1CHTO   C21  329   6.039   8.284  -0.366 -0.0247 -0.7332  0.1814
    1CHTO   H49  330   6.061   8.196  -0.307  0.4723  0.1882  1.3984
    1CHTO    N4  331   5.888   8.312  -0.374  0.0085  0.2935  0.0186
    1CHTO   H41  332   5.852   8.244  -0.450  2.2613 -1.7577  0.7261
    1CHTO   H42  333   5.875   8.413  -0.409  1.1146  0.9821  1.5582
    1CHTO   C22  334   6.102   8.262  -0.504  0.0652 -0.2862  0.3494
    1CHTO   H50  335   6.058   8.335  -0.573 -0.0785 -0.3055  0.4201
    1CHTO   O14  336   6.248   8.263  -0.495  0.1639  0.9293  0.2098
    1CHTO   C23  337   6.300   8.389  -0.459 -0.3062 -0.1722  0.4257
    1CHTO   H51  338   6.246   8.465  -0.516 -1.8376  1.2946  3.6819
    1CHTO   C34  339   6.449   8.391  -0.482  0.3293  0.3001  0.3447
    1CHTO   O23  340   6.494   8.377  -0.620  0.0318  0.3570 -0.3734
    1CHTO   H38  341   6.510   8.285  -0.630 -0.8637  0.2959 -1.2983
    1CHTO   O16  342   6.055   8.137  -0.553  0.1510 -0.3375 -0.2737
    1CHTO   C24  343   6.148   8.009  -0.553  0.1101 -0.4070 -0.3721
    1CHTO   H52  344   6.237   8.019  -0.491 -0.3035  2.5861 -0.2193
    1CHTO   C26  345   6.193   7.973  -0.696  0.3805 -0.3655 -0.0055
    1CHTO   H54  346   6.114   8.008  -0.766  0.3457  1.1889  0.7943
    1CHTO   O20  347   6.299   8.066  -0.726  0.3795  0.3667 -0.6271
    1CHTO   H36  348   6.371   8.045  -0.669 -1.2270 -0.2178  1.2380
    1CHTO   C30  349   6.241   7.830  -0.729  0.2839  0.3089 -0.3918
    1CHTO   H58  350   6.344   7.824  -0.689 -0.3098 -0.9160  1.0112
    1CHTO    N6  351   6.250   7.802  -0.870 -0.1214  0.0813  0.3032
    1CHTO   H45  352   6.306   7.881  -0.918  1.8965 -3.1701 -2.9926
    1CHTO   H46  353   6.153   7.797  -0.917 -0.4060 -0.5454  0.9504
    1CHTO   C33  354   6.165   7.724  -0.646  0.2836 -0.0908  0.1609
    1CHTO   H61  355   6.069   7.712  -0.699  1.0820  2.7590 -2.0438
    1CHTO   O18  356   6.140   7.770  -0.513  0.5086 -0.0535 -0.1695
    1CHTO   C28  357   6.066   7.896  -0.496 -0.0643  0.1682 -0.0331
    1CHTO   H56  358   5.969   7.892  -0.545  0.4244 -2.7947 -0.8616
    1CHTO   C35  359   6.042   7.927  -0.344  0.5362 -0.2071 -0.6588
    1CHTO   O24  360   5.985   7.817  -0.282  0.0001 -0.3925 -0.0054
    1CHTO   H39  361   6.049   7.782  -0.224 -0.5009 -3.9887 -1.5250
    1CHTO    O9  362   6.226   7.591  -0.651 -0.1940 -1.0716 -0.6783
    1CHTO   C13  363   6.118   7.459  -0.637 -0.0389  0.3496 -0.1757
    1CHTO   H26  364   6.017   7.499  -0.615 -0.0754 -0.5501  1.3140
    1CHTO   C11  365   6.167   7.356  -0.527  0.9820  0.6216 -0.2453
    1CHTO   H24  366   6.170   7.411  -0.432  0.1954 -0.2978  0.3259
    1CHTO    O8  367   6.307   7.324  -0.543  0.0652  0.1565  0.1568
    1CHTO    H3  368   6.337   7.283  -0.622  1.1067 -0.0957  0.6690
    1CHTO    C9  369   6.072   7.232  -0.527 -0.0944 -0.0841 -0.5610
    1CHTO   H22  370   5.970   7.274  -0.532  0.6123  1.7574  0.0706
    1CHTO    N2  371   6.091   7.145  -0.408 -0.0061  0.3009  0.4759
    1CHTO   H10  372   6.197   7.122  -0.406 -0.1534 -0.4498 -0.0835
    1CHTO   H11  373   6.019   7.065  -0.415  0.8997 -0.3672 -1.3940
    1CHTO    C7  374   6.084   7.163  -0.663 -0.9129  0.4694  0.9653
    1CHTO   H20  375   6.007   7.084  -0.653 -0.8816  0.5108  1.6078
    1CHTO    O4  376   6.044   7.251  -0.768 -0.0153 -0.0499  0.1122
    1CHTO   C14  377   6.084   7.387  -0.769 -0.9166 -0.7104 -0.2070
    1CHTO   H27  378   6.000   7.449  -0.807  0.1159 -0.2003 -1.6933
    1CHTO   C18  379   6.195   7.399  -0.874  0.6273 -0.3124  0.1604
    1CHTO   O13  380   6.149   7.372  -1.009  0.0062 -0.1348  0.4408
    1CHTO    H7  381   6.069   7.412  -1.037 -0.6903 -1.0757  1.0667
    1CHTO    O2  382   6.232   7.109  -0.689 -0.1821  0.2491 -0.3866
    1CHTO    C1  383   6.238   6.970  -0.732 -0.0099 -0.0372 -0.1467
    1CHTO   H14  384   6.134   6.932  -0.747 -0.4627  0.1194  2.3706
    1CHTO    C2  385   6.314   6.874  -0.625 -0.3022 -0.4703  0.0318
    1CHTO   H15  386   6.407   6.927  -0.598  0.6025 -0.5043 -2.8239
    1CHTO    O6  387   6.231   6.859  -0.513 -0.6456 -0.0908  0.0796
    1CHTO    H1  388   6.182   6.938  -0.499  0.5971  0.9936 -1.5188
    1CHTO    C3  389   6.340   6.727  -0.680  0.0366 -0.0387  0.1407
    1CHTO   H16  390   6.237   6.691  -0.690  0.1559 -0.7386  1.2577
    1CHTO    N1  391   6.417   6.646  -0.578  0.4037  0.3039  0.3646
    1CHTO    H8  392   6.378   6.546  -0.566 -1.3452  0.9139 -0.1607
    1CHTO    H9  393   6.520   6.647  -0.610  0.7995 -0.7760  1.5316
    1CHTO    C4  394   6.397   6.734  -0.826  1.1625 -0.8540 -0.0005
    1CHTO   H17  395   6.493   6.786  -0.824 -0.8269  3.0135  0.3001
    1CHTO    O1  396   6.308   6.813  -0.908 -0.4328 -0.5592  0.1745
    1CHTO    C5  397   6.306   6.952  -0.873  0.3330 -0.4898 -0.2810
    1CHTO   H18  398   6.410   6.986  -0.866 -0.5752  2.0752  1.3696
    1CHTO   C16  399   6.237   7.018  -0.995 -0.1081 -0.3384  0.0705
    1CHTO   O11  400   6.113   6.960  -1.039  0.0526 -0.5534 -1.0361
    1CHTO    H5  401   6.044   7.004  -0.994  1.4648  1.0767 -0.3934
    1CHTO    O3  402   6.422   6.609  -0.899 -0.3868  0.0362  0.2700
    1CHTO    C6  403   6.432   6.591  -1.044 -0.7317 -0.2338  0.7970
    1CHTO   H19  404   6.394   6.675  -1.103  2.4726  0.8371  0.1678
    1CHTO    C8  405   6.591   6.589  -1.086  0.2178 -0.4406  0.0076
    1CHTO   H21  406   6.641   6.518  -1.021 -2.1540 -0.5202  1.8310
    1CHTO    O7  407   6.646   6.717  -1.053  0.2376  0.0767 -0.0563
    1CHTO    H2  408   6.737   6.725  -1.071  0.1073  2.5831  0.1079
    1CHTO   C12  409   6.600   6.550  -1.238  0.6097 -0.1973  0.7461
    1CHTO   H25  410   6.554   6.635  -1.291 -0.3417  0.2968  2.3457
    1CHTO    N3  411   6.742   6.538  -1.291 -0.3803 -0.2828 -0.3211
    1CHTO   H12  412   6.815   6.568  -1.217 -0.4309 -2.2885  0.5559
    1CHTO   H13  413   6.739   6.591  -1.385  0.8680 -1.3522 -0.9727
    1CHTO   C15  414   6.516   6.426  -1.265  0.2267  0.1457  0.5515
    1CHTO   H28  415   6.559   6.333  -1.228  1.4756  0.3131 -0.4335
    1CHTO   O10  416   6.508   6.392  -1.415 -0.1962  0.6642  0.0121
    1CHTO    H4  417   6.505   6.475  -1.458  0.0574  0.3090 -0.6921
    1CHTO    O5  418   6.379   6.446  -1.236 -0.2040  0.5797  0.4294
    1CHTO   C10  419   6.357   6.465  -1.095 -0.4502 -0.0471 -0.2185
    1CHTO   H23  420   6.378   6.376  -1.036  1.2627  2.2505  2.8369
    1CHTO   C17  421   6.204   6.484  -1.074 -0.6959  0.1724  0.6363
    1CHTO   O12  422   6.129   6.366  -1.107  0.0397 -0.5456 -0.4310
    1CHTO    H6  423   6.036   6.380  -1.097 -0.2316 -0.9554 -2.2211
    2CHTO  H203  424   4.975   4.683   0.543  0.4921 -0.5170  0.5871
    2CHTO   O82  425   4.936   4.598   0.549 -0.3057 -0.2661 -0.7357
    2CHTO  C123  426   4.812   4.592   0.465 -0.0894 -0.8016  0.0162
    2CHTO  H227  427   4.798   4.495   0.413 -2.8452 -0.8689  0.7843
    2CHTO   O77  428   4.707   4.606   0.562 -0.4464  0.1350 -0.1720
    2CHTO  C118  429   4.573   4.596   0.506  0.4655 -0.1183 -0.0979
    2CHTO  H222  430   4.560   4.503   0.448 -0.3950 -0.4608  0.6222
    2CHTO  C125  431   4.464   4.590   0.622 -0.7723  0.7059  0.5918
    2CHTO   O84  432   4.491   4.481   0.714  0.4484 -0.3270  0.2903
    2CHTO  H205  433   4.407   4.458   0.749  0.0578 -0.7752 -0.9064
    2CHTO  C114  434   4.544   4.719   0.418 -0.1121  0.0442  0.7014
    2CHTO  H218  435   4.546   4.809   0.481 -1.2396  1.1821 -0.8513
    2CHTO  C116  436   4.659   4.731   0.310 -0.2026 -0.2628 -0.0272
    2CHTO  H220  437   4.640   4.655   0.231 -1.9378 -0.3463  0.4496
    2CHTO   O79  438   4.639   4.851   0.238  0.0901  0.3468  0.0249
    2CHTO  H201  439   4.591   4.835   0.160  0.9029 -0.0687 -0.3980
    2CHTO  C120  440   4.807   4.722   0.368  0.1099  0.0515  0.2211
    2CHTO  H224  441   4.813   4.816   0.426 -1.0772 -0.4859  1.2377
    2CHTO   N21  442   4.913   4.719   0.265  0.6259 -0.0269 -0.4044
    2CHTO  H211  443   4.864   4.695   0.172 -2.7427 -3.3143  2.0761
    2CHTO  H212  444   4.959   4.817   0.258 -0.6285  0.7203  1.3653
    2CHTO   O75  445   4.417   4.708   0.345 -0.4540  0.3038  0.2836
    2CHTO  C112  446   4.314   4.848   0.393  0.0649 -0.2813 -0.1766
    2CHTO  H216  447   4.378   4.935   0.411  0.6535 -0.7121 -0.1718
    2CHTO   O73  448   4.237   4.813   0.507 -0.6276  0.2423  0.2236
    2CHTO  C113  449   4.149   4.922   0.546  0.0850  0.0960 -0.3451
    2CHTO  H217  450   4.216   5.005   0.578  0.1601  0.6450 -1.8665
    2CHTO  C124  451   4.072   4.873   0.673  0.3632  0.1974  0.4500
    2CHTO   O83  452   4.147   4.860   0.793 -0.2957  0.3602  0.4511
    2CHTO  H204  453   4.167   4.770   0.807  0.0636  0.5512  1.2127
    2CHTO  C109  454   4.052   4.960   0.429 -0.3131 -0.6388  0.5641
    2CHTO  H213  455   3.993   4.868   0.410 -0.0309 -0.2477 -2.4709
    2CHTO  C110  456   4.146   5.006   0.317  0.4978 -0.5292  0.1888
    2CHTO  H214  457   4.217   5.082   0.351 -2.4002  1.2699  2.4249
    2CHTO   O78  458   4.061   5.053   0.208  0.2211 -0.3434  0.0328
    2CHTO  H200  459   4.116   5.097   0.146 -0.8183 -0.2619 -0.8440
    2CHTO  C111  460   4.225   4.884   0.270  0.5315  0.2768  0.6078
    2CHTO  H215  461   4.154   4.801   0.255  0.9421  0.2010 -0.9679
    2CHTO   N19  462   4.307   4.898   0.140 -0.0545 -0.4484  0.2371
    2CHTO  H207  463   4.403   4.944   0.155 -0.1313 -0.2459  0.1049
    2CHTO  H208  464   4.257   4.957   0.065  1.5989 -0.6833 -1.0792
    2CHTO   O74  465   3.959   5.070   0.468 -0.6780  0.5761 -0.2400
    2CHTO  C115  466   3.806   5.049   0.425  0.2844 -0.6148 -0.0145
    2CHTO  H219  467   3.799   4.969   0.351  0.9222 -0.7790  0.0999
    2CHTO   O76  468   3.724   5.009   0.547  0.6860 -0.1172 -1.1647
    2CHTO  C122  469   3.745   5.101   0.659  0.1818  0.2960  0.6898
    2CHTO  H226  470   3.845   5.082   0.697 -0.6833 -0.4001  2.6579
    2CHTO  C126  471   3.641   5.058   0.769  0.1657  0.4291  0.2272
    2CHTO   O85  472   3.508   5.033   0.724  0.1000  0.4461 -0.2130
    2CHTO  H206  473   3.467   4.961   0.768 -0.6269  0.4851 -0.8194
    2CHTO  C121  474   3.731   5.254   0.613 -0.0471  0.2605 -0.1598
    2CHTO  H225  475   3.677   5.318   0.685 -1.0065 -1.0655  0.3200
    2CHTO   O81  476   3.865   5.312   0.618 -0.0455  0.5288 -0.2223
    2CHTO  H202  477   3.863   5.404   0.637 -1.0316  0.6904 -0.9914
    2CHTO  C119  478   3.669   5.264   0.474  0.4699  0.6071 -0.0041
    2CHTO  H223  479   3.573   5.216   0.493  1.7989 -2.7552 -1.4217
    2CHTO  C117  480   3.749   5.180   0.365 -0.5496  0.4623 -0.2366
    2CHTO  H221  481   3.836   5.228   0.320 -1.9528  1.6258 -1.7886
    2CHTO   N20  482   3.669   5.142   0.243  0.3886 -0.1082  0.0913
    2CHTO  H209  483   3.726   5.113   0.156  1.2385  1.0165  0.2566
    2CHTO  H210  484   3.613   5.055   0.274  0.0806  1.0896  3.0807
    2CHTO   O80  485   3.626   5.420   0.419 -0.7834 -0.2423 -0.2167
    2CHTO  C103  486   3.483   5.462   0.426 -0.4364 -0.3954 -0.0592
    2CHTO  H190  487   3.420   5.372   0.419  0.3313 -1.1993  2.6648
    2CHTO  C101  488   3.440   5.538   0.555 -0.1888 -0.0326  0.0400
    2CHTO  H188  489   3.518   5.613   0.567 -2.9513  3.0092 -0.1767
    2CHTO   O68  490   3.460   5.439   0.675  0.6611 -0.1785 -0.3953
    2CHTO  H168  491   3.552   5.437   0.695  0.2417  1.1158  1.8605
    2CHTO   C99  492   3.312   5.629   0.536 -0.0766  0.0258 -0.1276
    2CHTO  H186  493   3.216   5.576   0.515  0.4898  0.0215 -2.8985
    2CHTO   N17  494   3.283   5.705   0.660  0.1902  0.0140  0.2712
    2CHTO  H174  495   3.336   5.664   0.745 -0.6902  0.7333  1.1830
    2CHTO  H175  496   3.306   5.809   0.641 -0.5577 -0.2189 -2.0777
    2CHTO   C97  497   3.338   5.718   0.413 -0.2556 -0.2077 -0.3256
    2CHTO  H184  498   3.437   5.763   0.425  0.6800 -2.4532  0.6344
    2CHTO   O64  499   3.334   5.629   0.302  0.0326  0.1492 -0.2051
    2CHTO  C104  500   3.448   5.549   0.292  0.2771  0.3627 -0.0135
    2CHTO  H191  501   3.532   5.614   0.266 -0.5756  1.1091 -0.8886
    2CHTO  C108  502   3.434   5.456   0.170  0.1988  0.1347 -0.1499
    2CHTO   O71  503   3.451   5.527   0.047  0.0048  0.1454 -0.1846
    2CHTO  H171  504   3.506   5.601   0.060  0.3945 -0.1604 -0.0889
    2CHTO   O62  505   3.233   5.819   0.388  0.3798 -0.0058 -0.0981
    2CHTO   C91  506   3.266   5.923   0.305 -0.5513 -0.1191  0.6807
    2CHTO  H178  507   3.370   5.907   0.276 -0.6413  1.7985 -0.7646
    2CHTO   C92  508   3.259   6.043   0.406  0.0054  0.6140 -0.0627
    2CHTO  H179  509   3.315   6.023   0.499 -1.3093  1.3090  0.8937
    2CHTO   O66  510   3.328   6.150   0.339 -0.6681 -0.2415  0.5544
    2CHTO  H166  511   3.400   6.189   0.385  0.3174  1.6740 -2.5043
    2CHTO   C93  512   3.105   6.090   0.443  0.0205 -0.3787  0.1644
    2CHTO  H180  513   3.118   6.195   0.475  1.8680 -0.8723  1.1574
    2CHTO   N16  514   3.050   6.020   0.559  0.2280 -0.3918  0.5942
    2CHTO  H172  515   3.055   5.913   0.545 -2.8092 -0.7080  1.6132
    2CHTO  H173  516   2.949   6.050   0.584  0.3567 -1.1469  2.0659
    2CHTO   C94  517   3.011   6.079   0.308 -0.1024 -0.2415 -0.7051
    2CHTO  H181  518   2.936   6.000   0.318  1.1512 -1.0358  3.4115
    2CHTO   O61  519   3.084   6.057   0.186 -0.0938 -0.0858  0.5614
    2CHTO   C95  520   3.179   5.949   0.176  0.0182  0.3586  1.3800
    2CHTO  H182  521   3.129   5.859   0.140  1.1830  0.3247 -0.2101
    2CHTO  C106  522   3.273   5.988   0.050 -0.1864 -0.0543 -0.0216
    2CHTO   O69  523   3.215   5.986  -0.081  0.0596 -0.5194 -0.8147
    2CHTO  H169  524   3.258   6.056  -0.127  0.1141  1.3695  1.9483
    2CHTO   O63  525   2.930   6.229   0.295 -0.2532 -0.2410 -0.3682
    2CHTO   C96  526   3.017   6.343   0.276  0.0640 -0.2958 -0.4070
    2CHTO  H183  527   3.120   6.311   0.290 -0.8249 -3.2150  0.0330
    2CHTO   C98  528   2.999   6.455   0.380  0.4163  0.0879  0.2295
    2CHTO  H185  529   2.893   6.477   0.365  0.0387 -0.6312  1.7329
    2CHTO   O67  530   3.023   6.402   0.511 -0.2562 -0.9749 -0.3655
    2CHTO  H167  531   3.004   6.458   0.584  2.8625  1.3491 -1.2169
    2CHTO  C102  532   3.080   6.590   0.361  0.0654 -0.3178 -0.2936
    2CHTO  H189  533   3.184   6.567   0.388  0.4343  0.7098 -0.8071
    2CHTO   N18  534   3.036   6.703   0.442  0.2002  0.2503 -0.5427
    2CHTO  H176  535   2.960   6.684   0.517  1.1544  1.1341  0.6811
    2CHTO  H177  536   3.017   6.789   0.380 -0.9215 -1.6494 -2.8736
    2CHTO  C105  537   3.066   6.624   0.208  0.5725  0.0584  0.1710
    2CHTO  H192  538   2.965   6.659   0.186  2.2442  2.7736 -3.6868
    2CHTO   O65  539   3.090   6.509   0.125  0.3748  0.4991  0.4047
    2CHTO  C100  540   2.996   6.407   0.138 -0.1560  0.0710  0.1947
    2CHTO  H187  541   2.898   6.456   0.135 -0.5998 -0.6489  2.0515
    2CHTO  C107  542   2.991   6.304   0.015 -0.2154 -0.5677  0.1597
    2CHTO   O70  543   2.948   6.369  -0.113  0.4200  0.0145 -0.5615
    2CHTO  H170  544   2.861   6.404  -0.113 -0.0010 -0.9879  0.2118
    2CHTO   O57  545   3.169   6.719   0.181 -0.1288 -0.0029 -0.1797
    2CHTO   C85  546   3.149   6.851   0.123 -0.3286 -0.7490 -0.3700
    2CHTO  H157  547   3.063   6.898   0.175  1.1065  0.5231  0.9367
    2CHTO   C83  548   3.097   6.840  -0.023  0.4318 -0.1087 -0.1987
    2CHTO  H155  549   3.004   6.784  -0.026  0.4589 -0.1108 -1.4170
    2CHTO   O56  550   3.195   6.766  -0.105 -0.4377 -0.8978 -0.4404
    2CHTO  H135  551   3.282   6.800  -0.096 -0.1906 -1.8844  1.2997
    2CHTO   C81  552   3.060   6.984  -0.072 -0.4880 -0.1762  0.2350
    2CHTO  H153  553   2.983   7.027  -0.008  1.7545  2.3832  1.3349
    2CHTO   N14  554   2.991   6.971  -0.203 -0.2703 -0.1540  0.7088
    2CHTO  H141  555   3.008   7.063  -0.256  2.6125 -0.9589  0.1373
    2CHTO  H142  556   2.886   6.949  -0.203 -0.1164 -0.9640  2.0895
    2CHTO   C79  557   3.180   7.079  -0.067 -0.2321  0.6673 -0.4214
    2CHTO  H151  558   3.147   7.181  -0.083 -1.8575  0.2437  0.2123
    2CHTO   O52  559   3.253   7.065   0.058  0.5943 -0.4761  0.0958
    2CHTO   C86  560   3.277   6.942   0.128  0.4590 -0.0308 -0.3656
    2CHTO  H158  561   3.361   6.889   0.079  1.5527  1.2530  0.0957
    2CHTO   C90  562   3.320   6.970   0.269 -0.5417 -0.2043 -0.1387
    2CHTO   O60  563   3.232   7.062   0.335  0.4841 -0.2131  0.0967
    2CHTO  H138  564   3.280   7.120   0.392  0.8724 -0.2308 -0.2109
    2CHTO   O50  565   3.280   7.057  -0.169  0.3205 -0.0533 -0.0759
    2CHTO   C73  566   3.398   7.085  -0.242  0.9005  0.1968 -0.4562
    2CHTO  H145  567   3.407   7.194  -0.256 -1.6646  0.5727  0.5716
    2CHTO   C74  568   3.390   7.011  -0.383 -0.2830  0.4386  0.4197
    2CHTO  H146  569   3.300   7.048  -0.435 -0.6285 -1.5557 -0.4336
    2CHTO   O54  570   3.496   7.056  -0.462 -0.3312  0.1746  0.0028
    2CHTO  H133  571   3.582   7.024  -0.441 -0.1319  0.6102 -0.1577
    2CHTO   C75  572   3.387   6.852  -0.358 -0.3607  0.0174  0.5262
    2CHTO  H147  573   3.288   6.827  -0.319 -0.4491  0.5120  0.6181
    2CHTO   N13  574   3.385   6.771  -0.481 -0.9193  0.2589 -0.6174
    2CHTO  H139  575   3.355   6.832  -0.564 -0.8859  0.1883 -0.6824
    2CHTO  H140  576   3.333   6.677  -0.468  2.0713 -1.5487 -1.1701
    2CHTO   C76  577   3.501   6.805  -0.254  0.0157 -0.1134 -0.9156
    2CHTO  H148  578   3.596   6.809  -0.307  0.8852 -1.0401  0.5238
    2CHTO   O49  579   3.498   6.886  -0.133  0.1761  0.6759 -0.1134
    2CHTO   C77  580   3.519   7.027  -0.165 -0.1674  0.3003 -0.1386
    2CHTO  H149  581   3.610   7.047  -0.222  2.2239 -0.7085  3.2040
    2CHTO   C88  582   3.547   7.106  -0.040 -0.6272 -0.3501  0.2801
    2CHTO   O58  583   3.649   7.239  -0.075  0.0461  0.4189 -0.1418
    2CHTO  H136  584   3.610   7.292  -0.141 -0.1668  1.7892  1.0544
    2CHTO   O51  585   3.472   6.658  -0.202  0.0924 -0.0777 -0.0411
    2CHTO   C78  586   3.573   6.615  -0.070 -0.4342  0.3555 -0.5494
    2CHTO  H150  587   3.552   6.673   0.022  0.1689 -0.3881  0.0654
    2CHTO   C80  588   3.720   6.628  -0.106  0.1304  0.4120 -0.3648
    2CHTO  H152  589   3.742   6.559  -0.191  1.9871  2.7920 -1.8674
    2CHTO   O55  590   3.755   6.767  -0.137  0.3384  0.1990 -0.3838
    2CHTO  H134  591   3.846   6.774  -0.159  0.3569  1.1303 -0.0545
    2CHTO   C84  592   3.806   6.578   0.021  0.1850 -0.2595  0.6550
    2CHTO  H156  593   3.789   6.646   0.104  0.9803 -0.6264  1.1259
    2CHTO   N15  594   3.956   6.582  -0.005  0.7614 -0.4798 -0.0466
    2CHTO  H143  595   3.988   6.535  -0.096  0.3199 -0.0377 -0.4339
    2CHTO  H144  596   4.017   6.542   0.074  2.1547  0.9952 -0.3315
    2CHTO   C87  597   3.763   6.428   0.054 -0.2671  0.3344  0.5167
    2CHTO  H159  598   3.788   6.366  -0.033 -0.4277  0.7576  0.1695
    2CHTO   O53  599   3.601   6.429   0.072 -0.6458 -0.0906  0.1531
    2CHTO   C82  600   3.534   6.472  -0.045 -0.4244 -1.0152 -0.3130
    2CHTO  H154  601   3.562   6.405  -0.127 -1.3353 -1.5499 -0.1903
    2CHTO   C89  602   3.385   6.456  -0.008  0.4999 -0.7598  0.2839
    2CHTO   O59  603   3.345   6.319   0.002 -0.7933  0.3816  0.1427
    2CHTO  H137  604   3.253   6.302  -0.008 -0.5382 -0.4605 -0.9253
    2CHTO   O45  605   3.830   6.348   0.171  0.7923 -0.4053 -0.1270
    2CHTO   C67  606   3.748   6.316   0.288 -0.4999 -0.5876  0.4562
    2CHTO  H124  607   3.657   6.376   0.289 -0.5151 -0.6217  1.1967
    2CHTO   C65  608   3.722   6.161   0.304 -0.6017 -0.2590 -0.2165
    2CHTO  H122  609   3.807   6.114   0.254 -0.6973 -1.0206  0.3283
    2CHTO   O44  610   3.598   6.136   0.230 -0.4067  0.1450 -0.1184
    2CHTO  H102  611   3.518   6.148   0.277 -1.2816  0.7643 -1.7146
    2CHTO   C63  612   3.722   6.102   0.446 -0.1127 -0.0237  0.0565
    2CHTO  H120  613   3.824   6.087   0.481 -0.5418 -2.4386  0.3828
    2CHTO   N11  614   3.671   5.968   0.465 -0.4519 -0.3903 -0.4014
    2CHTO  H108  615   3.666   5.919   0.370  0.5028 -2.5488  0.6187
    2CHTO  H109  616   3.748   5.907   0.506 -0.0884  0.0231 -0.4717
    2CHTO   C61  617   3.666   6.216   0.550 -0.0670 -0.1755 -0.0110
    2CHTO  H118  618   3.688   6.187   0.653 -2.0553 -0.7024  0.2971
    2CHTO   O40  619   3.740   6.342   0.532 -0.0097  0.4706 -0.0096
    2CHTO   C68  620   3.826   6.357   0.414 -0.2532  0.3226 -0.0777
    2CHTO  H125  621   3.913   6.291   0.432  0.7786  1.8427  0.6063
    2CHTO   C72  622   3.880   6.503   0.405  0.2554 -0.6178 -0.1324
    2CHTO   O48  623   3.780   6.600   0.411 -0.1603  0.4271  0.0526
    2CHTO  H105  624   3.740   6.588   0.495  1.0197 -4.5531  0.0550
    2CHTO   O38  625   3.522   6.229   0.531  0.2763  0.0850 -0.8075
    2CHTO   C55  626   3.467   6.311   0.637 -0.1739  0.1304  0.6843
    2CHTO  H112  627   3.547   6.367   0.688  1.4724 -2.1512  0.6714
    2CHTO   C56  628   3.383   6.212   0.741  0.5772  0.4445  0.7854
    2CHTO  H113  629   3.309   6.154   0.683  1.0282 -0.9478  1.5971
    2CHTO   O42  630   3.480   6.117   0.798 -0.3617  0.0271  0.5635
    2CHTO  H100  631   3.546   6.153   0.854 -0.2715 -0.4964  0.7956
    2CHTO   C57  632   3.323   6.308   0.852 -0.1370  0.4819  0.3991
    2CHTO  H114  633   3.401   6.368   0.899  0.4083 -0.0025  0.1146
    2CHTO   N10  634   3.240   6.238   0.953  0.1854 -0.1649 -1.0200
    2CHTO  H106  635   3.302   6.227   1.041 -0.5430  1.5758 -0.2780
    2CHTO  H107  636   3.215   6.141   0.912  1.3948 -1.0175  0.2092
    2CHTO   C58  637   3.231   6.408   0.772 -0.3001  0.5990  0.5368
    2CHTO  H115  638   3.150   6.351   0.721  0.9779 -0.6794 -0.0716
    2CHTO   O37  639   3.303   6.487   0.677 -0.2074 -0.0881  0.2352
    2CHTO   C59  640   3.378   6.423   0.574  0.4980  0.0071 -0.1886
    2CHTO  H116  641   3.306   6.376   0.507 -2.4445  2.0121  1.4680
    2CHTO   C70  642   3.467   6.540   0.523 -0.0013 -0.5400  0.8983
    2CHTO   O46  643   3.418   6.654   0.444  0.0206 -0.8692 -0.6629
    2CHTO  H103  644   3.486   6.696   0.394 -0.6410  0.4488 -0.4763
    2CHTO   O39  645   3.175   6.516   0.875  0.0257 -0.1992  0.6946
    2CHTO   C60  646   3.078   6.605   0.812 -0.8323  0.3635  0.8070
    2CHTO  H117  647   3.102   6.612   0.705  0.7382  0.4603  1.1595
    2CHTO   C62  648   2.938   6.547   0.849 -0.0141 -0.6683 -0.0804
    2CHTO  H119  649   2.940   6.453   0.789  1.4951 -0.5404 -0.2325
    2CHTO   O43  650   2.926   6.524   0.991 -0.4836  0.4856  0.5092
    2CHTO  H101  651   2.967   6.444   1.016 -1.3214 -0.8111 -2.1122
    2CHTO   C66  652   2.821   6.643   0.792 -0.9129  0.4018 -0.0415
    2CHTO  H123  653   2.831   6.650   0.684 -0.8786 -0.3958 -0.0990
    2CHTO   N12  654   2.694   6.586   0.819 -0.4979 -0.1288  0.3474
    2CHTO  H110  655   2.688   6.479   0.804 -0.7536  0.0478 -0.8475
    2CHTO  H111  656   2.682   6.608   0.924  1.1879 -2.3643  1.0377
    2CHTO   C69  657   2.826   6.784   0.849 -0.5270  0.1047 -0.0007
    2CHTO  H126  658   2.801   6.791   0.957  1.7762  1.6133  0.4931
    2CHTO   O41  659   2.976   6.848   0.826  0.0269  0.0717  0.0313
    2CHTO   C64  660   3.088   6.747   0.870  0.5966 -0.6304 -0.2488
    2CHTO  H121  661   3.090   6.733   0.980 -1.7891 -1.3281 -0.2688
    2CHTO   C71  662   3.230   6.813   0.847 -0.2103  0.0862 -0.6063
    2CHTO   O47  663   3.247   6.946   0.889 -0.2108  0.0180 -0.5547
    2CHTO  H104  664   3.165   6.992   0.888 -0.8524 -1.0958 -0.8486
    2CHTO   O34  665   2.709   6.884   0.760  0.5536  0.1777  0.1568
    2CHTO   C49  666   2.607   6.960   0.851  0.4596 -0.0648  0.4847
    2CHTO   H91  667   2.569   6.885   0.921 -2.2972  0.5769 -0.2603
    2CHTO   C47  668   2.501   7.021   0.756  0.1270 -0.2538 -0.1273
    2CHTO   H89  669   2.422   7.066   0.818 -1.3021 -2.6721 -0.1124
    2CHTO   O33  670   2.443   6.921   0.675  0.0184  0.1709  0.1715
    2CHTO   H70  671   2.353   6.939   0.656  0.5188  0.1171 -2.5235
    2CHTO   C45  672   2.573   7.134   0.667  0.0957  0.4343 -0.2560
    2CHTO   H87  673   2.656   7.085   0.615  0.4988  0.4153  0.4037
    2CHTO    N8  674   2.478   7.191   0.562  0.4821  0.0773 -0.0787
    2CHTO   H75  675   2.399   7.248   0.610  0.0753  0.2851 -0.9846
    2CHTO   H76  676   2.433   7.120   0.495 -0.1539  0.1094  0.3083
    2CHTO   C43  677   2.638   7.250   0.755  0.4041  0.2180 -1.1007
    2CHTO   H85  678   2.699   7.309   0.687  1.0941 -2.4688 -2.9005
    2CHTO   O29  679   2.717   7.189   0.863 -0.3073  0.1190 -0.1266
    2CHTO   C50  680   2.674   7.073   0.940  0.3492 -0.3224  0.2512
    2CHTO   H92  681   2.771   7.037   0.977  0.5380  2.9892  3.2571
    2CHTO   C54  682   2.575   7.115   1.048  0.4025 -0.6599  0.0875
    2CHTO   O36  683   2.530   7.003   1.128  0.6959  0.1010  0.8761
    2CHTO   H72  684   2.444   7.021   1.161  0.4008 -0.3404  0.3672
    2CHTO   O27  685   2.543   7.345   0.809  0.2345  0.3115  0.4742
    2CHTO   C37  686   2.458   7.458   0.820 -0.6363 -0.1652 -0.2861
    2CHTO   H79  687   2.389   7.468   0.735  0.0726  1.7011 -0.6868
    2CHTO   C38  688   2.382   7.463   0.958 -0.5384  0.0248 -0.4157
    2CHTO   H80  689   2.455   7.425   1.031  1.0188  0.7747 -1.5508
    2CHTO   O31  690   2.276   7.362   0.957 -0.5306  0.3744  0.3060
    2CHTO   H68  691   2.191   7.399   0.972 -0.4133  0.6012  0.4069
    2CHTO   C39  692   2.339   7.606   1.002 -0.1967  0.1650 -0.3132
    2CHTO   H81  693   2.257   7.626   0.933 -1.0403 -0.7459  0.4052
    2CHTO    N7  694   2.290   7.613   1.140 -0.3242 -0.5426 -0.1254
    2CHTO   H73  695   2.256   7.711   1.171  2.0744  0.2500  0.1673
    2CHTO   H74  696   2.368   7.571   1.203 -1.3090  0.7781  2.0447
    2CHTO   C40  697   2.443   7.716   0.974  0.2892  0.4269 -0.3366
    2CHTO   H82  698   2.521   7.717   1.051 -0.8055 -3.4897  0.9062
    2CHTO   O26  699   2.496   7.706   0.840 -0.2567 -0.6741  0.7378
    2CHTO   C41  700   2.560   7.574   0.809  0.2049 -0.0855 -0.4337
    2CHTO   H83  701   2.646   7.562   0.876 -0.6097 -3.4688  0.0954
    2CHTO   C52  702   2.628   7.577   0.668  1.0804  0.1373  0.2164
    2CHTO   O35  703   2.514   7.596   0.566  0.0608  0.5127  0.5193
    2CHTO   H71  704   2.530   7.523   0.510 -0.8352 -1.1286  2.3847
    2CHTO   O28  705   2.372   7.843   0.970 -0.1259 -0.7296 -0.8364
    2CHTO   C42  706   2.446   7.970   0.995 -1.1029  0.2252  0.0125
    2CHTO   H84  707   2.372   8.041   0.957 -1.2025 -0.1913 -0.5678
    2CHTO   C44  708   2.587   7.990   0.925  0.0739 -0.1004  0.8100
    2CHTO   H86  709   2.653   7.910   0.957 -1.9388 -1.3321  1.9538
    2CHTO   O32  710   2.572   7.989   0.788 -0.2583  0.2372 -0.4263
    2CHTO   H69  711   2.527   7.913   0.758 -0.4642 -0.2469  1.0720
    2CHTO   C48  712   2.669   8.114   0.971  0.4772 -0.6090  0.4347
    2CHTO   H90  713   2.615   8.200   0.930  0.5666  0.0222  1.6222
    2CHTO    N9  714   2.805   8.122   0.904  0.4840  0.1602 -0.0137
    2CHTO   H77  715   2.802   8.063   0.814 -0.8479 -0.1622  0.2444
    2CHTO   H78  716   2.878   8.071   0.965  2.3640  0.3914 -1.9942
    2CHTO   C51  717   2.667   8.122   1.126 -0.0840 -0.1899  0.6628
    2CHTO   H93  718   2.734   8.049   1.172 -0.5665 -0.9652  0.1404
    2CHTO   O30  719   2.535   8.115   1.181 -0.1287 -0.2711 -0.1303
    2CHTO   C46  720   2.462   7.999   1.152 -0.4144 -0.7098  0.1231
    2CHTO   H88  721   2.529   7.924   1.194  0.3348 -0.5670 -0.7947
    2CHTO   C53  722   2.319   8.013   1.212  0.1018 -0.3760  0.2289
    2CHTO   O72  723   2.309   8.007   1.352  0.3488 -0.4877  0.2054
    2CHTO  H199  724   2.235   8.058   1.382  0.7214  0.6884 -0.8109
    2CHTO   O22  725   2.713   8.251   1.178 -0.1026 -0.2917  0.1408
    2CHTO   C31  726   2.733   8.290   1.321 -0.1345  0.0751  0.2744
    2CHTO   H59  727   2.790   8.386   1.317  0.5431 -0.3787 -1.7824
    2CHTO   C29  728   2.604   8.325   1.393  0.4151  0.3552  0.4073
    2CHTO   H57  729   2.536   8.240   1.403  0.4017  0.5804  2.4876
    2CHTO   O21  730   2.536   8.413   1.315 -0.2269  0.1732  0.5704
    2CHTO   H37  731   2.487   8.473   1.368 -1.0301  1.2458 -1.3297
    2CHTO   C27  732   2.635   8.375   1.538  0.1982  0.1921  1.2030
    2CHTO   H55  733   2.690   8.470   1.538  1.1805 -0.3664  1.8218
    2CHTO    N5  734   2.509   8.394   1.625  0.3567 -0.2199  0.4601
    2CHTO   H43  735   2.456   8.301   1.643 -0.9683  0.5067  0.4154
    2CHTO   H44  736   2.530   8.426   1.726  1.4796  0.6612 -0.0468
    2CHTO   C25  737   2.729   8.277   1.613 -0.6049  0.1502 -0.0911
    2CHTO   H53  738   2.681   8.179   1.625 -0.2275 -0.5081 -3.4654
    2CHTO   O17  739   2.847   8.244   1.532 -0.1226 -0.6075 -0.2271
    2CHTO   C32  740   2.815   8.193   1.404  0.4326 -0.0443  0.5096
    2CHTO   H60  741   2.754   8.106   1.429  0.0014  0.2813  0.5878
    2CHTO   C36  742   2.951   8.159   1.323 -0.3433  0.0751  0.0190
    2CHTO   O25  743   3.005   8.281   1.279 -0.0296 -0.3053 -0.6412
    2CHTO   H40  744   3.046   8.260   1.197 -0.9523  1.1529 -1.5003
    2CHTO   O15  745   2.784   8.336   1.759 -0.0130  0.9045 -0.0788
    2CHTO   C19  746   2.853   8.276   1.868 -0.1489 -0.3458 -0.1479
    2CHTO   H47  747   2.826   8.169   1.861  1.3954 -0.8291  1.0265
    2CHTO   C20  748   3.009   8.290   1.847 -0.4690 -0.1624 -0.4349
    2CHTO   H48  749   3.039   8.394   1.826  1.2113 -0.1048  2.0791
    2CHTO   O19  750   3.052   8.210   1.733 -0.4061 -0.7073  0.1957
    2CHTO   H35  751   3.039   8.253   1.651  1.9912 -1.3986 -0.5515
    2CHTO   C21  752   3.076   8.231   1.984  0.0087 -0.0545 -0.2304
    2CHTO   H49  753   3.060   8.123   1.980  1.2400 -0.1906 -2.5820
    2CHTO    N4  754   3.222   8.234   1.989 -0.3045  0.1151 -0.1510
    2CHTO   H41  755   3.251   8.192   2.084 -1.5050 -1.2888 -0.3778
    2CHTO   H42  756   3.256   8.336   1.983  2.9243 -0.8782  0.1777
    2CHTO   C22  757   3.016   8.297   2.113  1.2958 -0.3648  0.1589
    2CHTO   H50  758   3.048   8.401   2.118 -2.4274  0.8645  0.2179
    2CHTO   O14  759   2.868   8.281   2.106  0.0900 -0.7216  0.1110
    2CHTO   C23  760   2.794   8.334   1.997  0.5492  0.3727  0.1944
    2CHTO   H51  761   2.801   8.443   1.996 -1.3653  0.5169 -0.4019
    2CHTO   C34  762   2.648   8.289   2.018 -0.8743 -0.0818 -0.3901
    2CHTO   O23  763   2.588   8.375   2.117  0.0286 -0.3214 -0.3374
    2CHTO   H38  764   2.627   8.460   2.124 -0.1874 -0.2054 -0.5516
    2CHTO   O16  765   3.044   8.222   2.235  0.1537  0.2958  0.8176
    2CHTO   C24  766   3.070   8.304   2.351 -0.3001  0.1623 -0.1937
    2CHTO   H52  767   3.039   8.407   2.336 -2.9425 -0.5370  0.2369
    2CHTO   C26  768   3.219   8.280   2.384 -0.0141  0.7686 -0.3287
    2CHTO   H54  769   3.239   8.171   2.378  1.7382  1.0132  0.7413
    2CHTO   O20  770   3.294   8.347   2.290  0.6490  0.1894 -0.4207
    2CHTO   H36  771   3.386   8.355   2.305  0.9576  1.2907 -2.6117
    2CHTO   C30  772   3.260   8.326   2.530 -0.0569 -0.5917 -0.1790
    2CHTO   H58  773   3.264   8.436   2.523  2.0488 -0.6979 -1.0333
    2CHTO    N6  774   3.394   8.272   2.573  0.0806 -0.1023  0.0094
    2CHTO   H45  775   3.391   8.164   2.575  0.0407 -0.1294 -1.5070
    2CHTO   H46  776   3.461   8.295   2.492 -0.2966 -1.4991 -0.7027
    2CHTO   C33  777   3.150   8.292   2.634  0.3226  0.0177 -0.2452
    2CHTO   H61  778   3.162   8.187   2.665 -0.5504  0.0336  0.1581
    2CHTO   O18  779   3.016   8.318   2.587 -0.6141 -0.0065 -1.0456
    2CHTO   C28  780   2.983   8.246   2.467  0.0712 -0.5506 -0.3199
    2CHTO   H56  781   2.995   8.138   2.472  0.3041 -0.6121 -1.7602
    2CHTO   C35  782   2.833   8.258   2.451 -0.1695 -0.4277  0.1659
    2CHTO   O24  783   2.791   8.392   2.439  0.2962 -0.1078 -0.1993
    2CHTO   H39  784   2.700   8.395   2.458  0.0186  2.7837 -1.7311
    2CHTO    O9  785   3.179   8.370   2.755 -0.2589 -0.9538  0.4637
    2CHTO   C13  786   3.138   8.312   2.917  0.2122 -0.1935 -0.5405
    2CHTO   H26  787   3.137   8.201   2.920 -1.1295 -0.1649  0.9971
    2CHTO   C11  788   2.990   8.379   2.946  0.3228  0.0779 -0.4568
    2CHTO   H24  789   2.917   8.337   2.875  1.0171 -0.4368 -0.8736
    2CHTO    O8  790   2.988   8.520   2.929  0.0254 -0.3799 -0.1150
    2CHTO    H3  791   2.903   8.559   2.924  1.0277  1.9722  0.5886
    2CHTO    C9  792   2.954   8.325   3.087  0.3853 -0.7721  0.0637
    2CHTO   H22  793   2.955   8.216   3.073 -1.0409 -1.0156  1.6748
    2CHTO    N2  794   2.814   8.350   3.128  0.4502 -0.1535 -0.5059
    2CHTO   H10  795   2.768   8.411   3.052  2.0168  0.1206 -1.2503
    2CHTO   H11  796   2.759   8.258   3.132 -0.3826  0.3566  0.1622
    2CHTO    C7  797   3.051   8.379   3.197  0.0745 -0.4264 -0.0140
    2CHTO   H20  798   3.022   8.322   3.287 -4.3104  0.4194 -0.7876
    2CHTO    O4  799   3.194   8.365   3.166 -0.1276 -0.2803  0.0341
    2CHTO   C14  800   3.244   8.346   3.030 -0.1183  0.2362  0.4218
    2CHTO   H27  801   3.317   8.263   3.032 -0.3259 -0.0340 -2.0737
    2CHTO   C18  802   3.322   8.476   2.998  0.7791  0.2778 -0.1060
    2CHTO   O13  803   3.454   8.475   3.064  0.2259 -0.1980 -0.4405
    2CHTO    H7  804   3.439   8.480   3.156 -0.3575  0.9382 -0.5963
    2CHTO    O2  805   3.026   8.544   3.211  0.0982  0.3642 -0.3833
    2CHTO    C1  806   3.048   8.594   3.344  0.0140  0.7082  0.9935
    2CHTO   H14  807   3.135   8.538   3.383 -1.7157 -2.5539  0.3418
    2CHTO    C2  808   2.920   8.578   3.443  0.1418 -0.7048  0.3919
    2CHTO   H15  809   2.836   8.633   3.397 -0.6616 -1.8220  0.5034
    2CHTO    O6  810   2.877   8.439   3.455 -0.1985  0.6815 -0.1690
    2CHTO    H1  811   2.870   8.396   3.372  0.2461  1.5320 -0.6583
    2CHTO    C3  812   2.954   8.651   3.586 -0.2018  0.3866  0.0751
    2CHTO   H16  813   3.043   8.598   3.624 -0.5523 -0.1920  0.0898
    2CHTO    N1  814   2.847   8.635   3.689  0.1458  0.5049 -0.1704
    2CHTO    H8  815   2.868   8.702   3.771 -1.6367  1.0758 -0.1681
    2CHTO    H9  816   2.836   8.535   3.726  1.4218  0.0109 -1.0860
    2CHTO    C4  817   2.996   8.794   3.566 -0.2082 -0.8204  0.3741
    2CHTO   H17  818   2.913   8.862   3.546 -1.1088 -0.4293  4.7679
    2CHTO    O1  819   3.096   8.802   3.464  0.4560 -0.4540 -0.2777
    2CHTO    C5  820   3.074   8.740   3.331  0.2731  0.7806  0.1809
    2CHTO   H18  821   2.986   8.786   3.286 -1.7969 -1.9366  1.3203
    2CHTO   C16  822   3.202   8.783   3.256 -0.1297  0.0903 -0.2775
    2CHTO   O11  823   3.323   8.719   3.305 -0.2631  0.1771 -0.2359
    2CHTO    H5  824   3.400   8.741   3.256  0.0897  1.6491  0.9619
    2CHTO    O3  825   3.080   8.847   3.668  0.0346  0.0452  0.3992
    2CHTO    C6  826   3.018   8.945   3.749 -0.2480  0.1388 -0.4097
    2CHTO   H19  827   2.910   8.958   3.743 -0.5797 -0.0956  3.5709
    2CHTO    C8  828   3.066   8.929   3.898 -0.3744  0.0123  0.3277
    2CHTO   H21  829   3.172   8.908   3.898 -0.2329  0.6005 -1.8917
    2CHTO    O7  830   3.003   8.813   3.959 -0.2144 -0.3528 -0.1323
    2CHTO    H2  831   3.027   8.803   4.049 -1.0778 -1.1301  0.0169
    2CHTO   C12  832   3.028   9.058   3.983  0.2950 -0.8328  0.5032
    2CHTO   H25  833   2.917   9.058   3.984  0.2693  1.1248 -0.2716
    2CHTO    N3  834   3.063   9.060   4.129  0.2386  0.1905  0.3071
    2CHTO   H12  835   2.989   9.111   4.189 -1.8046 -0.4056 -1.6432
    2CHTO   H13  836   3.088   8.965   4.172 -1.2100 -0.4493 -0.2173
    2CHTO   C15  837   3.086   9.186   3.913  0.5528 -0.4558 -0.0811
    2CHTO   H28  838   3.195   9.187   3.911  0.5435 -0.2798 -2.2148
    2CHTO   O10  839   3.018   9.310   3.963 -0.2287  0.2864  0.1108
    2CHTO    H4  840   3.035   9.321   4.055  1.0268 -1.0987  0.0574
    2CHTO    O5  841   3.034   9.187   3.780  0.4052  0.0193  0.5463
    2CHTO   C10  842   3.079   9.077   3.699  0.1042  0.1125 -0.0216
    2CHTO   H23  843   3.187   9.062   3.704  0.4004  1.9748 -0.3986
    2CHTO   C17  844   3.041   9.113   3.561  0.0744 -0.2699  0.0951
    2CHTO   O12  845   3.139   9.207   3.505  0.6450 -0.0110  0.3639
    2CHTO    H6  846   3.100   9.293   3.497 -0.3347 -0.5099 -0.3750
    3CHTO  H203  847   7.815   2.588   2.147  0.0666 -1.4090  0.2466
    3CHTO   O82  848   7.724   2.580   2.130 -0.0156  0.1090 -0.0786
    3CHTO  C123  849   7.693   2.443   2.142  0.3566  0.4103 -0.2537
    3CHTO  H227  850   7.735   2.402   2.236 -0.1092  0.5778  0.0311
    3CHTO   O77  851   7.549   2.450   2.158  0.6366 -0.5241  0.1937
    3CHTO  C118  852   7.477   2.329   2.179  0.2536 -0.8625 -0.1947
    3CHTO  H222  853   7.505   2.287   2.277  1.4395  2.1556  0.8386
    3CHTO  C125  854   7.324   2.363   2.179 -0.0041  0.1314  0.3392
    3CHTO   O84  855   7.293   2.436   2.298  0.3220  0.6115  0.3379
    3CHTO  H205  856   7.226   2.497   2.274 -0.6271 -0.0047  1.3777
    3CHTO  C114  857   7.499   2.232   2.069  0.0344  0.1628  1.0226
    3CHTO  H218  858   7.445   2.264   1.980  0.2668  0.9323  1.1568
    3CHTO  C116  859   7.642   2.211   2.025 -0.7953 -0.6226 -0.6796
    3CHTO  H220  860   7.679   2.137   2.099  1.0204  0.7055 -0.2166
    3CHTO   O79  861   7.643   2.154   1.893 -0.4426 -0.0009  0.1118
    3CHTO  H201  862   7.703   2.082   1.887 -1.0332 -0.2446 -4.3760
    3CHTO  C120  863   7.734   2.347   2.026 -0.4154  0.2204  0.2585
    3CHTO  H224  864   7.707   2.394   1.930 -0.8185 -0.5193 -0.0024
    3CHTO   N21  865   7.876   2.317   2.027  0.1728 -0.1583 -0.3792
    3CHTO  H211  866   7.896   2.222   2.075  0.1758  0.3413  0.6251
    3CHTO  H212  867   7.921   2.322   1.929 -0.2229  0.2770 -0.5346
    3CHTO   O75  868   7.441   2.113   2.119  0.4378  0.2297 -0.2050
    3CHTO  C112  869   7.350   2.029   1.993 -0.0078  0.2150 -0.7955
    3CHTO  H216  870   7.405   2.032   1.899  1.3537  1.7891  0.0308
    3CHTO   O73  871   7.227   2.098   1.979  0.0633  0.3210  0.2539
    3CHTO  C113  872   7.122   2.038   1.904 -0.1555  1.5811 -0.0858
    3CHTO  H217  873   7.150   2.021   1.798  1.3383  1.6530  0.2873
    3CHTO  C124  874   7.009   2.140   1.911  0.1741  0.5457 -0.2012
    3CHTO   O83  875   7.034   2.251   1.825 -0.0624 -0.2128  0.0515
    3CHTO  H204  876   6.997   2.232   1.741  0.6367 -3.7871  0.4647
    3CHTO  C109  877   7.086   1.896   1.959 -0.0825 -0.2508  0.1273
    3CHTO  H213  878   7.054   1.910   2.064 -0.1946  0.8465 -0.0443
    3CHTO  C110  879   7.206   1.809   1.965  0.1180  0.2968 -1.0653
    3CHTO  H214  880   7.242   1.782   1.866  1.8400 -1.4426 -0.0274
    3CHTO   O78  881   7.169   1.686   2.036  0.2059  0.7991  0.3282
    3CHTO  H200  882   7.104   1.635   1.991  0.3449  2.9139 -2.3792
    3CHTO  C111  883   7.327   1.880   2.040 -0.1612 -0.2019  0.1143
    3CHTO  H215  884   7.316   1.878   2.149  1.8196 -0.9253  0.3233
    3CHTO   N19  885   7.450   1.800   2.016 -0.1235 -0.5477 -0.2169
    3CHTO  H207  886   7.428   1.694   2.016  1.1764 -0.8267  0.6792
    3CHTO  H208  887   7.528   1.850   2.071  0.2987  0.1381 -1.4199
    3CHTO   O74  888   6.971   1.835   1.883 -0.5366 -0.3387  0.3763
    3CHTO  C115  889   6.848   1.785   1.963 -1.0367  0.4977  0.4018
    3CHTO  H219  890   6.863   1.686   2.004 -2.2947  0.4778  0.8539
    3CHTO   O76  891   6.812   1.886   2.097  0.2263  0.0631  0.3370
    3CHTO  C122  892   6.698   1.968   2.074 -0.2540  0.2784  0.0724
    3CHTO  H226  893   6.742   2.042   2.006  1.6943  0.1932  1.2260
    3CHTO  C126  894   6.676   2.039   2.209 -0.0434  0.3696 -0.6959
    3CHTO   O85  895   6.561   2.123   2.201 -0.0546 -0.4566 -0.1309
    3CHTO  H206  896   6.582   2.214   2.186 -0.5274 -0.2551  0.4045
    3CHTO  C121  897   6.572   1.885   2.029 -0.5978  0.5924 -0.4852
    3CHTO  H225  898   6.512   1.858   2.118 -0.8681 -0.2785 -0.9275
    3CHTO   O81  899   6.494   1.973   1.944 -0.3376  0.5047 -0.2661
    3CHTO  H202  900   6.403   1.954   1.949 -0.2488  0.3581  1.1615
    3CHTO  C119  901   6.601   1.752   1.957  0.3362  0.8905 -0.3559
    3CHTO  H223  902   6.623   1.680   2.036  0.3903  0.1344 -1.0558
    3CHTO  C117  903   6.725   1.773   1.871 -0.6466  0.3405 -0.0850
    3CHTO  H221  904   6.729   1.866   1.814  0.9724 -0.0508 -0.6385
    3CHTO   N20  905   6.750   1.661   1.774 -0.8996 -0.1656 -0.2849
    3CHTO  H209  906   6.659   1.603   1.764 -0.4640 -1.0234  0.7476
    3CHTO  H210  907   6.779   1.694   1.675  0.4803 -1.3058 -0.2725
    3CHTO   O80  908   6.470   1.687   1.891 -0.0691 -0.3451  0.4157
    3CHTO  C103  909   6.367   1.640   1.981 -0.0032 -0.6838  0.3326
    3CHTO  H190  910   6.379   1.665   2.086 -3.7206 -0.1810  0.6871
    3CHTO  C101  911   6.225   1.696   1.937 -0.4100 -0.5419 -0.1913
    3CHTO  H188  912   6.212   1.697   1.829  2.6697 -0.0531 -0.6001
    3CHTO   O68  913   6.220   1.823   1.984  0.5161 -0.3500  0.2194
    3CHTO  H168  914   6.214   1.832   2.077  0.0344  0.6830  0.0864
    3CHTO   C99  915   6.107   1.602   2.001  1.1228 -0.1457  0.0124
    3CHTO  H186  916   6.110   1.607   2.112 -1.2943 -1.7251  0.1857
    3CHTO   N17  917   5.969   1.649   1.969  0.2367 -0.3878  0.0780
    3CHTO  H174  918   5.960   1.749   2.009  2.3488 -0.4233  0.7108
    3CHTO  H175  919   5.897   1.576   2.005 -1.1853  0.8814 -0.1409
    3CHTO   C97  920   6.139   1.457   1.963  0.2508 -0.1935  0.1460
    3CHTO  H184  921   6.149   1.457   1.854  1.2103  0.3178  0.2325
    3CHTO   O64  922   6.262   1.412   2.025 -0.8279 -0.6622  0.2880
    3CHTO  C104  923   6.373   1.480   1.972  0.2271 -0.5849  0.0302
    3CHTO  H191  924   6.376   1.449   1.868  0.0804  1.4298 -0.6086
    3CHTO  C108  925   6.496   1.421   2.046 -0.4410  0.1267  0.0467
    3CHTO   O71  926   6.497   1.459   2.186 -0.0156  0.1383  0.1128
    3CHTO  H171  927   6.541   1.394   2.237  0.1736  1.1793  1.3358
    3CHTO   O62  928   6.034   1.363   1.993 -0.2724  0.1201 -0.3494
    3CHTO   C91  929   6.035   1.230   1.939  0.7895  0.1785  0.6686
    3CHTO  H178  930   6.051   1.236   1.832  1.0975  0.3894  0.7230
    3CHTO   C92  931   5.885   1.189   1.945 -0.1501  1.0826  0.3080
    3CHTO  H179  932   5.846   1.219   2.044 -1.0298  1.2788 -0.0900
    3CHTO   O66  933   5.825   1.278   1.852  0.2087  0.4843  0.3692
    3CHTO  H166  934   5.734   1.261   1.869  0.7303 -0.7539  2.1130
    3CHTO   C93  935   5.859   1.042   1.921  0.4192 -0.1567 -0.3129
    3CHTO  H180  936   5.878   1.035   1.813  0.1896  0.4883 -0.3962
    3CHTO   N16  937   5.718   1.021   1.943  0.5153  0.5463 -0.2043
    3CHTO  H172  938   5.658   1.099   1.898  2.4963  0.4208 -3.2521
    3CHTO  H173  939   5.689   0.923   1.908  1.2511 -0.7625  2.7041
    3CHTO   C94  940   5.950   0.943   2.001 -0.8114  0.4396  0.0172
    3CHTO  H181  941   5.895   0.893   2.081 -1.0249  0.6515  0.0039
    3CHTO   O61  942   6.065   1.003   2.069 -0.1271 -0.4945 -0.4313
    3CHTO   C95  943   6.133   1.117   2.005 -0.2410 -0.1359 -0.1437
    3CHTO  H182  944   6.183   1.172   2.085 -0.9681 -1.5095  1.3083
    3CHTO  C106  945   6.262   1.067   1.913 -0.4136 -0.0114 -0.2351
    3CHTO   O69  946   6.342   1.175   1.856 -0.9893  0.1449  0.2256
    3CHTO  H169  947   6.396   1.210   1.924  0.5317 -3.2585  0.8596
    3CHTO   O63  948   6.005   0.834   1.891  0.1496 -0.2483 -0.4978
    3CHTO   C96  949   5.969   0.672   1.945  0.5876 -0.3268  0.4628
    3CHTO  H183  950   6.026   0.607   1.878  1.1236 -0.1896  0.7809
    3CHTO   C98  951   5.818   0.637   1.926 -0.4393 -0.0713  0.2379
    3CHTO  H185  952   5.756   0.709   1.981  0.9188  1.2925  0.0300
    3CHTO   O67  953   5.780   0.652   1.786 -0.1330  0.1902  0.8500
    3CHTO  H167  954   5.688   0.642   1.772  0.0318 -0.9092  0.5241
    3CHTO  C102  955   5.775   0.489   1.970  0.0177  0.1880 -0.1823
    3CHTO  H189  956   5.810   0.421   1.891  0.2725 -1.6116  1.4395
    3CHTO   N18  957   5.627   0.461   1.986 -0.3987 -0.0583  0.2411
    3CHTO  H176  958   5.610   0.362   2.025  1.7500 -0.8329 -0.7232
    3CHTO  H177  959   5.575   0.478   1.893 -0.0282  2.4058  0.4372
    3CHTO  C105  960   5.854   0.449   2.098  0.2799  0.2001 -0.9520
    3CHTO  H192  961   5.805   0.500   2.181 -1.4278 -2.8675  0.0259
    3CHTO   O65  962   5.991   0.490   2.100  0.2669  0.6219 -0.4792
    3CHTO  C100  963   6.010   0.631   2.094  0.3541 -0.1919 -0.0489
    3CHTO  H187  964   5.945   0.674   2.171 -0.7233  0.4892 -1.3124
    3CHTO  C107  965   6.159   0.658   2.118 -0.2462  0.0454  0.1425
    3CHTO   O70  966   6.198   0.616   2.251  0.3771  0.2724 -0.1206
    3CHTO  H170  967   6.274   0.655   2.288  1.2062  0.5828 -2.0778
    3CHTO   O57  968   5.838   0.287   2.100  0.5121 -0.2606  0.1931
    3CHTO   C85  969   5.835   0.206   2.219  0.3513 -0.7196 -0.8415
    3CHTO  H157  970   5.843   0.105   2.173  0.4384 -0.4992 -1.3113
    3CHTO   C83  971   5.693   0.220   2.274  0.4048  0.1746 -0.2999
    3CHTO  H155  972   5.627   0.184   2.195 -3.4881  0.3832  2.6564
    3CHTO   O56  973   5.657   0.356   2.309  0.2268 -0.0417 -0.3791
    3CHTO  H135  974   5.725   0.397   2.358  1.5004 -0.5779 -1.6722
    3CHTO   C81  975   5.684   0.121   2.395  0.6917  0.0350  0.5344
    3CHTO  H153  976   5.725   0.025   2.364 -0.7387 -0.7172  0.9401
    3CHTO   N14  977   5.539   0.098   2.440 -0.6278  0.3274 -0.4135
    3CHTO  H141  978   5.484   0.043   2.367 -1.3634  0.9784 -0.3606
    3CHTO  H142  979   5.472   0.166   2.489 -1.7527 -1.5313  0.6569
    3CHTO   C79  980   5.781   0.177   2.510  0.5615  0.5501  0.3825
    3CHTO  H151  981   5.780   0.109   2.595  1.5153 -0.0200 -0.0552
    3CHTO   O52  982   5.924   0.175   2.467 -0.7107  0.9204 -0.0760
    3CHTO   C86  983   5.950   0.226   2.329  0.2495 -0.3986  0.1591
    3CHTO  H158  984   5.970   0.335   2.340  0.1911 -0.4693  1.0658
    3CHTO   C90  985   6.083   0.163   2.286  0.4845 -0.0730  0.5911
    3CHTO   O60  986   6.110   0.168   2.148  0.1278  0.1857 -0.0574
    3CHTO  H138  987   6.166   0.096   2.126  0.7558  1.1236 -1.5877
    3CHTO   O50  988   5.754   0.310   2.551  0.3931  0.3083 -0.0767
    3CHTO   C73  989   5.765   0.404   2.662 -0.7942  0.8019 -0.5521
    3CHTO  H145  990   5.866   0.400   2.706  0.2708  0.6927 -2.8926
    3CHTO   C74  991   5.652   0.375   2.772  0.0543  0.3571 -0.8428
    3CHTO  H146  992   5.664   0.273   2.810  0.2825  0.9273  0.6409
    3CHTO   O54  993   5.677   0.455   2.887 -0.2870  0.0498  0.0030
    3CHTO  H133  994   5.681   0.544   2.860  0.6491 -0.5211 -1.8469
    3CHTO   C75  995   5.512   0.393   2.705  0.2121 -0.0461 -0.0882
    3CHTO  H147  996   5.496   0.323   2.622  0.9699  0.3842 -0.6094
    3CHTO   N13  997   5.398   0.351   2.790  1.1565 -0.0984 -0.9026
    3CHTO  H139  998   5.317   0.422   2.777 -0.2719 -1.7438 -1.3026
    3CHTO  H140  999   5.419   0.324   2.892  0.5388 -0.5262 -0.8819
    3CHTO   C76 1000   5.499   0.534   2.634 -0.2471  0.5414  0.1283
    3CHTO  H148 1001   5.498   0.613   2.708  2.1298  1.5919 -0.9293
    3CHTO   O49 1002   5.612   0.548   2.547  0.5785 -0.5092  0.0126
    3CHTO   C77 1003   5.745   0.539   2.600  0.1986 -0.0408  0.6589
    3CHTO  H149 1004   5.770   0.614   2.674 -0.0066  0.3863  0.2981
    3CHTO   C88 1005   5.842   0.566   2.482  0.0271 -0.3065  1.1244
    3CHTO   O58 1006   5.994   0.532   2.498  0.6560  0.1073 -0.1542
    3CHTO  H136 1007   6.056   0.562   2.434  2.3047  1.0444  1.8088
    3CHTO   O51 1008   5.389   0.551   2.535  0.2050 -0.0970 -0.2299
    3CHTO   C78 1009   5.363   0.711   2.515 -0.3618 -0.4591  0.2340
    3CHTO  H150 1010   5.450   0.773   2.544  0.3835 -1.6839  0.6403
    3CHTO   C80 1011   5.241   0.755   2.594 -0.0959  0.1931 -0.0723
    3CHTO  H152 1012   5.151   0.698   2.564 -0.9409  1.7553 -0.6024
    3CHTO   O55 1013   5.262   0.729   2.738 -0.1569 -0.0103 -0.4841
    3CHTO  H134 1014   5.338   0.675   2.746  0.7437  1.3297  0.2188
    3CHTO   C84 1015   5.208   0.908   2.583 -0.0875  0.4236  0.5742
    3CHTO  H156 1016   5.298   0.959   2.619 -1.5255  2.5667  1.2473
    3CHTO   N15 1017   5.090   0.966   2.658 -0.1501  0.2506  0.4701
    3CHTO  H143 1018   5.119   0.951   2.760  4.2476  0.1895 -0.6833
    3CHTO  H144 1019   4.999   0.914   2.637 -1.2227  2.0964  0.5367
    3CHTO   C87 1020   5.206   0.952   2.433  0.6408 -0.0558  0.7664
    3CHTO  H159 1021   5.109   0.922   2.394  0.3453  0.7443  0.8908
    3CHTO   O53 1022   5.315   0.881   2.339 -0.1096  0.3442  0.5366
    3CHTO   C82 1023   5.343   0.736   2.369  0.2460  0.2733  0.0387
    3CHTO  H154 1024   5.267   0.667   2.330  0.9113 -0.8809  0.7577
    3CHTO   C89 1025   5.474   0.710   2.294  0.0111  0.9406  0.4695
    3CHTO   O59 1026   5.488   0.761   2.159 -0.6270 -0.2644  0.4943
    3CHTO  H137 1027   5.531   0.843   2.170  0.2836 -0.5728 -0.7098
    3CHTO   O45 1028   5.229   1.121   2.409  0.3125 -0.5261 -0.3650
    3CHTO   C67 1029   5.363   1.156   2.376  0.1768  0.5056 -0.0549
    3CHTO  H124 1030   5.433   1.079   2.410 -0.4879 -1.5235 -3.1466
    3CHTO   C65 1031   5.386   1.178   2.222 -0.1254 -0.5656  0.7269
    3CHTO  H122 1032   5.292   1.205   2.174  0.4938  0.9923  0.3530
    3CHTO   O44 1033   5.435   1.056   2.176  0.4682  0.3083  0.4386
    3CHTO  H102 1034   5.526   1.049   2.196  0.2182 -3.6284  0.4577
    3CHTO   C63 1035   5.470   1.312   2.193  0.4225 -0.0785  0.7573
    3CHTO  H120 1036   5.400   1.395   2.204  1.6336  1.2497 -1.1200
    3CHTO   N11 1037   5.523   1.331   2.046 -0.2887 -0.2029  0.1448
    3CHTO  H108 1038   5.559   1.233   2.023  1.7580  0.7298 -0.7513
    3CHTO  H109 1039   5.451   1.368   1.975  0.4031 -0.1694 -0.5548
    3CHTO   C61 1040   5.581   1.326   2.295  0.4699 -0.0061  0.2911
    3CHTO  H118 1041   5.627   1.424   2.277 -0.7394  0.9970  2.4514
    3CHTO   O40 1042   5.531   1.335   2.428 -0.4849  0.4652  0.4560
    3CHTO   C68 1043   5.398   1.290   2.453 -0.5512 -0.2925 -0.3779
    3CHTO  H125 1044   5.338   1.373   2.411 -2.9342 -2.1956 -0.8307
    3CHTO   C72 1045   5.379   1.295   2.606  0.5284  0.1223 -0.2885
    3CHTO   O48 1046   5.408   1.424   2.656  0.0011 -0.2037 -0.1577
    3CHTO  H105 1047   5.462   1.410   2.731  1.2521  2.2955 -0.5259
    3CHTO   O38 1048   5.674   1.218   2.292  0.6094 -0.5843  1.2399
    3CHTO   C55 1049   5.790   1.201   2.378  0.0151  0.1315 -0.3520
    3CHTO  H112 1050   5.774   1.232   2.482  1.8112  2.7339 -0.7988
    3CHTO   C56 1051   5.921   1.272   2.321  0.0192  0.7385  0.0229
    3CHTO  H113 1052   5.947   1.217   2.230 -0.1324 -0.3060  0.6012
    3CHTO   O42 1053   5.895   1.414   2.311 -0.1405  0.3539  0.0377
    3CHTO  H100 1054   5.974   1.463   2.316 -0.7815  1.3159  0.8844
    3CHTO   C57 1055   6.043   1.231   2.421  0.0132 -0.6024 -0.0768
    3CHTO  H114 1056   6.018   1.275   2.518 -0.7766 -0.9672 -0.1096
    3CHTO   N10 1057   6.172   1.284   2.366 -1.2076 -0.2260 -0.4514
    3CHTO  H106 1058   6.241   1.212   2.407 -2.2211 -1.6226 -1.1613
    3CHTO  H107 1059   6.157   1.259   2.262 -0.5157 -3.8833  0.2645
    3CHTO   C58 1060   6.055   1.082   2.442 -0.2887  0.3800  0.1864
    3CHTO  H115 1061   6.092   1.027   2.352  0.5845  2.9129 -1.0565
    3CHTO   O37 1062   5.925   1.028   2.479  0.1904 -0.4468  0.3170
    3CHTO   C59 1063   5.818   1.047   2.390 -0.2297 -0.4279 -0.4762
    3CHTO  H116 1064   5.848   1.009   2.292  1.8337 -1.2383  0.4386
    3CHTO   C70 1065   5.695   0.967   2.427  0.3634 -0.4049  0.0812
    3CHTO   O46 1066   5.634   1.017   2.547  0.1763 -0.7075  0.0757
    3CHTO  H103 1067   5.554   0.969   2.560  0.7947 -1.5038  0.9380
    3CHTO   O39 1068   6.154   1.057   2.581  0.1496 -0.2627 -0.4001
    3CHTO   C60 1069   6.175   0.919   2.596 -0.1999 -0.4925 -0.3909
    3CHTO  H117 1070   6.113   0.875   2.519  2.2585 -1.5110 -1.8632
    3CHTO   C62 1071   6.324   0.877   2.577  0.0301 -0.4432  0.0598
    3CHTO  H119 1072   6.345   0.903   2.471  0.3804 -1.2645 -0.0783
    3CHTO   O43 1073   6.400   0.935   2.685  0.5662  0.2979  0.1734
    3CHTO  H101 1074   6.388   1.028   2.678  0.3976  0.2144 -0.7158
    3CHTO   C66 1075   6.330   0.713   2.577  0.1210  0.8476 -0.5561
    3CHTO  H123 1076   6.254   0.671   2.512  1.5772 -0.4185 -1.4838
    3CHTO   N12 1077   6.465   0.650   2.542 -0.2564  0.0561 -0.2721
    3CHTO  H110 1078   6.520   0.639   2.634 -3.8369 -2.5259  1.6924
    3CHTO  H111 1079   6.512   0.715   2.470  0.4812  1.9929  1.9082
    3CHTO   C69 1080   6.284   0.657   2.717  0.7304  0.1755  0.2776
    3CHTO  H126 1081   6.355   0.693   2.795 -0.2398  3.0729 -0.1212
    3CHTO   O41 1082   6.150   0.702   2.747  0.4198  0.4723 -0.7104
    3CHTO   C64 1083   6.123   0.865   2.731 -1.0400 -0.5715 -0.3497
    3CHTO  H121 1084   6.171   0.919   2.815  0.9098  0.9495 -2.3619
    3CHTO   C71 1085   5.971   0.878   2.741  0.4627  0.0510  0.7041
    3CHTO   O47 1086   5.904   0.803   2.850  0.7117 -0.1955  0.1157
    3CHTO  H104 1087   5.924   0.838   2.935 -1.5591 -1.6460  1.2783
    3CHTO   O34 1088   6.272   0.492   2.712 -1.0006 -0.1474 -0.4002
    3CHTO   C49 1089   6.310   0.335   2.716  0.6011 -0.8261  0.1761
    3CHTO   H91 1090   6.384   0.320   2.638 -0.1626 -2.2891 -0.2789
    3CHTO   C47 1091   6.191   0.250   2.656  0.3259  0.1895 -0.5194
    3CHTO   H89 1092   6.207   0.250   2.546  0.9435  0.3679 -0.4311
    3CHTO   O33 1093   6.060   0.300   2.690 -0.7248  0.0823  0.6921
    3CHTO   H70 1094   6.063   0.366   2.757 -1.6331  1.1453 -0.2836
    3CHTO   C45 1095   6.190   0.102   2.716 -0.2704 -0.6709 -0.0213
    3CHTO   H87 1096   6.149   0.101   2.819  1.0432 -0.0031  0.5250
    3CHTO    N8 1097   6.115   0.002   2.641  0.0387  0.3659 -0.8492
    3CHTO   H75 1098   6.048  -0.046   2.711  2.2524  1.1586  1.9223
    3CHTO   H76 1099   6.176  -0.068   2.586 -0.2289 -0.1570 -0.4896
    3CHTO   C43 1100   6.342   0.050   2.750 -0.1728 -0.1001  0.6173
    3CHTO   H85 1101   6.356  -0.054   2.779  2.5210  0.2810  0.8671
    3CHTO   O29 1102   6.404   0.138   2.849  0.1510  0.4100  0.6101
    3CHTO   C50 1103   6.370   0.280   2.850 -0.0155  0.2473 -0.3068
    3CHTO   H92 1104   6.302   0.314   2.929 -1.6727  1.0141 -2.0123
    3CHTO   C54 1105   6.492   0.360   2.879 -0.2963  0.0176 -0.5237
    3CHTO   O36 1106   6.530   0.350   3.010 -0.0946 -0.4794  0.6215
    3CHTO   H72 1107   6.475   0.402   3.065 -2.8908  0.4980 -2.9768
    3CHTO   O27 1108   6.423   0.057   2.632  0.3284  0.0734  0.2396
    3CHTO   C37 1109   6.533   0.012   2.545 -0.4289  0.5358  0.2310
    3CHTO   H79 1110   6.569  -0.085   2.584 -0.2391  0.8711  0.8909
    3CHTO   C38 1111   6.472   0.001   2.396 -0.6759 -0.7878 -0.2929
    3CHTO   H80 1112   6.420   0.096   2.374  0.4786 -0.0993 -0.0921
    3CHTO   O31 1113   6.382  -0.104   2.391  0.1357 -0.5043 -0.7278
    3CHTO   H68 1114   6.315  -0.094   2.456  0.0650  1.0614 -1.0066
    3CHTO   C39 1115   6.583  -0.025   2.290 -0.7883  0.4370 -0.1683
    3CHTO   H81 1116   6.631  -0.120   2.313 -0.7423  0.9689  2.0593
    3CHTO    N7 1117   6.528  -0.026   2.151 -0.7794 -0.1169  0.0814
    3CHTO   H73 1118   6.423  -0.004   2.138 -1.1045 -0.4332  1.9942
    3CHTO   H74 1119   6.578  -0.092   2.082  0.1162  0.2617  0.3575
    3CHTO   C40 1120   6.685   0.087   2.302  0.7109  0.4618 -0.4719
    3CHTO   H82 1121   6.628   0.179   2.291  2.8336  1.7898 -0.6453
    3CHTO   O26 1122   6.739   0.077   2.431  0.0122 -0.5886 -1.1011
    3CHTO   C41 1123   6.651   0.122   2.539  0.3326  0.4950  0.3564
    3CHTO   H83 1124   6.598   0.216   2.516 -3.3400 -1.2246  1.5435
    3CHTO   C52 1125   6.724   0.145   2.676 -1.1464 -0.3918 -1.0288
    3CHTO   O35 1126   6.791   0.022   2.715 -0.8294  0.2581 -0.3116
    3CHTO   H71 1127   6.861   0.052   2.771 -1.9751  3.6943 -0.5706
    3CHTO   O28 1128   6.798   0.079   2.209 -0.3312 -0.2376  0.2069
    3CHTO   C42 1129   6.860   0.194   2.146  0.6229  0.2640  0.5666
    3CHTO   H84 1130   6.952   0.166   2.096  1.0480  3.6081 -0.6327
    3CHTO   C44 1131   6.908   0.310   2.248 -0.4965  0.9057  0.2488
    3CHTO   H86 1132   6.825   0.340   2.312 -1.1185  1.7088 -0.9101
    3CHTO   O32 1133   7.015   0.256   2.321  0.2071  0.2012  0.2037
    3CHTO   H69 1134   7.035   0.308   2.396 -1.5829  0.5723  0.4239
    3CHTO   C48 1135   6.956   0.443   2.179  0.6957  0.1093 -0.3260
    3CHTO   H90 1136   7.051   0.416   2.134  0.0355 -3.1026  0.0740
    3CHTO    N9 1137   6.977   0.557   2.283  0.1183 -0.0591 -0.1785
    3CHTO   H77 1138   6.995   0.498   2.372  0.5907 -1.0099 -0.8922
    3CHTO   H78 1139   6.894   0.625   2.288  0.7229  0.7019 -0.3751
    3CHTO   C51 1140   6.861   0.497   2.068 -0.0764 -0.0385  0.5675
    3CHTO   H93 1141   6.770   0.537   2.112 -0.0245 -0.0116  0.6516
    3CHTO   O30 1142   6.836   0.386   1.985  0.1510 -0.7632  0.2874
    3CHTO   C46 1143   6.775   0.253   2.031 -0.0239 -0.5352  0.3156
    3CHTO   H88 1144   6.676   0.263   2.075 -0.4117 -2.2582 -0.1204
    3CHTO   C53 1145   6.758   0.165   1.905  0.2278 -0.3935  0.2991
    3CHTO   O72 1146   6.883   0.150   1.834  0.0374  0.2631  0.0640
    3CHTO  H199 1147   6.937   0.226   1.851  0.0081  0.0389  1.1376
    3CHTO   O22 1148   6.928   0.592   1.984 -0.1189 -0.0015  0.0873
    3CHTO   C31 1149   6.890   0.741   2.001 -0.1284  0.6062  0.1055
    3CHTO   H59 1150   6.840   0.741   2.100  0.6969 -0.1001  0.5296
    3CHTO   C29 1151   7.014   0.831   2.005 -0.5338 -0.7446 -0.1481
    3CHTO   H57 1152   7.076   0.797   1.921 -1.6979 -1.3573 -0.7794
    3CHTO   O21 1153   7.088   0.797   2.126  0.5444  0.5416  0.3745
    3CHTO   H37 1154   7.131   0.713   2.126  0.7205  0.6239  2.0120
    3CHTO   C27 1155   6.985   0.984   1.997  0.5596 -0.3742 -0.5429
    3CHTO   H55 1156   6.921   1.012   2.083  0.5944 -1.7679 -0.0556
    3CHTO    N5 1157   7.101   1.072   2.008  0.3475 -0.2781 -0.3701
    3CHTO   H43 1158   7.152   1.032   2.094  0.0342  3.5008  1.6722
    3CHTO   H44 1159   7.165   1.067   1.921 -0.1190  1.4121 -0.8180
    3CHTO   C25 1160   6.896   1.007   1.865  0.2162 -0.3662 -0.0861
    3CHTO   H53 1161   6.956   0.956   1.788  1.3221 -1.1843  1.2873
    3CHTO   O17 1162   6.764   0.932   1.895 -0.4158 -0.0522  0.4131
    3CHTO   C32 1163   6.784   0.791   1.886 -0.5567  0.7767 -0.4640
    3CHTO   H60 1164   6.831   0.769   1.790 -1.2044  0.8861 -0.8090
    3CHTO   C36 1165   6.650   0.718   1.889  0.4851 -0.1040  0.6531
    3CHTO   O25 1166   6.578   0.742   2.010 -0.2329  0.7214  0.3906
    3CHTO   H40 1167   6.491   0.706   2.005 -1.0012  2.4574  0.7422
    3CHTO   O15 1168   6.872   1.154   1.817  0.5016 -0.6117  0.6500
    3CHTO   C19 1169   6.814   1.197   1.692  0.1542 -0.6431 -0.1014
    3CHTO   H47 1170   6.814   1.103   1.635  3.2263  0.1104 -1.4807
    3CHTO   C20 1171   6.664   1.240   1.700  0.4391 -0.0576 -0.5983
    3CHTO   H48 1172   6.648   1.325   1.768  1.2309 -0.0675 -0.3935
    3CHTO   O19 1173   6.590   1.131   1.777  0.4026  0.6927  0.2718
    3CHTO   H35 1174   6.498   1.131   1.757  0.0688  0.8631  1.7949
    3CHTO   C21 1175   6.595   1.272   1.561 -0.3206  0.4130 -0.1542
    3CHTO   H49 1176   6.579   1.173   1.517  3.3616 -1.1890  1.8530
    3CHTO    N4 1177   6.462   1.339   1.573  0.8023 -0.2527  0.2703
    3CHTO   H41 1178   6.478   1.418   1.644  0.7998  0.6128 -0.6866
    3CHTO   H42 1179   6.390   1.267   1.610  2.4308 -1.3463  1.3266
    3CHTO   C22 1180   6.683   1.366   1.471  0.3533 -0.1265 -0.0412
    3CHTO   H50 1181   6.676   1.469   1.506  1.5664  1.3298 -3.8159
    3CHTO   O14 1182   6.817   1.326   1.472 -0.1387  0.2906  0.0144
    3CHTO   C23 1183   6.884   1.301   1.603  0.0438 -0.0767 -0.1784
    3CHTO   H51 1184   6.887   1.400   1.650  1.6077 -0.3091  0.2233
    3CHTO   C34 1185   7.027   1.263   1.576 -0.5323  0.1404  0.0887
    3CHTO   O23 1186   7.102   1.245   1.695 -0.4160  0.1152 -0.0967
    3CHTO   H38 1187   7.095   1.319   1.752  0.0355 -0.1055  0.2519
    3CHTO   O16 1188   6.644   1.367   1.336 -0.3466  0.0380 -0.8715
    3CHTO   C24 1189   6.687   1.497   1.247 -0.7804  0.2307 -1.1947
    3CHTO   H52 1190   6.761   1.558   1.297 -0.0892 -0.3203 -1.5408
    3CHTO   C26 1191   6.569   1.583   1.218 -0.2723 -0.8241 -0.2309
    3CHTO   H54 1192   6.491   1.523   1.168  0.5251 -0.0573 -2.4480
    3CHTO   O20 1193   6.510   1.619   1.344  0.7591 -0.1787  0.2534
    3CHTO   H36 1194   6.495   1.537   1.387 -0.9820 -0.0598 -0.1008
    3CHTO   C30 1195   6.595   1.711   1.127 -0.1270 -0.0337 -0.0760
    3CHTO   H58 1196   6.646   1.787   1.188 -0.2286 -1.7827  2.2513
    3CHTO    N6 1197   6.472   1.776   1.073 -0.1755  0.0993  1.0817
    3CHTO   H45 1198   6.386   1.717   1.100 -0.6852 -1.5003 -3.6279
    3CHTO   H46 1199   6.466   1.872   1.122 -1.1201  0.8610 -0.5083
    3CHTO   C33 1200   6.688   1.676   1.009  0.3026  0.1276 -0.3861
    3CHTO   H61 1201   6.626   1.625   0.934  0.7827 -0.3866 -0.4393
    3CHTO   O18 1202   6.794   1.587   1.048 -0.2962 -0.6570  0.0661
    3CHTO   C28 1203   6.751   1.461   1.108  0.3269  0.9201 -0.1706
    3CHTO   H56 1204   6.674   1.413   1.048  0.6071  0.5563 -0.2391
    3CHTO   C35 1205   6.876   1.368   1.115  0.0638 -0.6597  0.6466
    3CHTO   O24 1206   6.989   1.430   1.180  0.3022 -0.4961  0.6253
    3CHTO   H39 1207   7.061   1.374   1.201 -0.5411 -1.4193  1.1332
    3CHTO    O9 1208   6.738   1.790   0.938  0.1336  0.2504  0.2872
    3CHTO   C13 1209   6.848   1.867   1.010 -1.1565 -0.0002  0.7995
    3CHTO   H26 1210   6.834   1.849   1.119  1.5611 -3.5090  0.6611
    3CHTO   C11 1211   6.827   2.020   0.970 -0.4197 -0.2647  0.4445
    3CHTO   H24 1212   6.728   2.043   1.011 -0.3452 -0.2293  0.6006
    3CHTO    O8 1213   6.822   2.024   0.824 -0.2150 -0.0517 -0.0785
    3CHTO    H3 1214   6.760   1.967   0.782  0.1382 -0.3101 -0.2438
    3CHTO    C9 1215   6.934   2.105   1.045 -0.1847  0.6579 -1.0498
    3CHTO   H22 1216   6.929   2.075   1.151  1.6370  2.7184 -0.3449
    3CHTO    N2 1217   6.894   2.245   1.043  1.1430 -0.5846  0.4569
    3CHTO   H10 1218   6.964   2.311   1.091  2.9969 -0.9210 -1.7151
    3CHTO   H11 1219   6.794   2.251   1.084  0.5045 -0.1583 -1.1523
    3CHTO    C7 1220   7.068   2.069   0.984  0.9623  0.3339 -0.3812
    3CHTO   H20 1221   7.138   2.123   1.052  0.2822  0.8592 -0.0953
    3CHTO    O4 1222   7.096   1.927   1.002 -0.1298 -0.6164  0.3630
    3CHTO   C14 1223   7.001   1.820   0.970 -0.3840  0.0847  0.0302
    3CHTO   H27 1224   7.023   1.731   1.032  0.5702  1.1797  1.2729
    3CHTO   C18 1225   7.016   1.780   0.821 -0.0595  0.1498 -0.7116
    3CHTO   O13 1226   6.951   1.657   0.791  0.2983 -0.4197  0.2986
    3CHTO    H7 1227   6.893   1.681   0.721 -0.6646  2.3610  1.9697
    3CHTO    O2 1228   7.078   2.117   0.822 -0.0416 -0.3191  0.5203
    3CHTO    C1 1229   7.202   2.164   0.772 -0.1334 -0.1825  0.5169
    3CHTO   H14 1230   7.202   2.179   0.662  0.1057  1.1244  0.6784
    3CHTO    C2 1231   7.331   2.089   0.812 -0.8918  0.4501  0.2794
    3CHTO   H15 1232   7.318   2.047   0.913 -1.1706  1.7983  0.8167
    3CHTO    O6 1233   7.337   1.975   0.725 -0.2161 -0.1905  0.4906
    3CHTO    H1 1234   7.390   1.905   0.758  0.7881  0.2460 -0.1830
    3CHTO    C3 1235   7.467   2.183   0.801 -0.0333 -0.0516  0.0890
    3CHTO   H16 1236   7.491   2.199   0.695 -0.9398 -1.3643 -0.3299
    3CHTO    N1 1237   7.593   2.121   0.846  0.3827 -0.1256 -0.1544
    3CHTO    H8 1238   7.686   2.118   0.791  0.1720 -0.6322 -0.4887
    3CHTO    H9 1239   7.586   2.037   0.913  0.8157  1.1067  1.4853
    3CHTO    C4 1240   7.444   2.326   0.853 -0.0930  0.1111 -0.7642
    3CHTO   H17 1241   7.446   2.333   0.962  1.7588  0.4464 -0.7920
    3CHTO    O1 1242   7.323   2.378   0.800  0.7591  0.1708  0.1645
    3CHTO    C5 1243   7.203   2.309   0.825 -0.6388  0.1814  0.9303
    3CHTO   H18 1244   7.188   2.296   0.932 -0.3462  0.8692  1.0577
    3CHTO   C16 1245   7.085   2.397   0.772 -0.0773  0.8160 -0.5493
    3CHTO   O11 1246   7.111   2.468   0.651 -0.1454  0.1436  0.2980
    3CHTO    H5 1247   7.049   2.529   0.616  0.9669  0.4551 -1.1920
    3CHTO    O3 1248   7.540   2.413   0.792 -0.0338 -0.4124  0.1562
    3CHTO    C6 1249   7.540   2.550   0.857 -0.3061 -0.5908  0.4082
    3CHTO   H19 1250   7.452   2.568   0.919 -1.0879  0.6586 -1.0235
    3CHTO    C8 1251   7.649   2.555   0.962 -0.5108 -0.6558 -0.6191
    3CHTO   H21 1252   7.739   2.510   0.920  0.3147  0.7770 -0.4159
    3CHTO    O7 1253   7.612   2.464   1.072  0.0647  0.3946  0.4469
    3CHTO    H2 1254   7.599   2.375   1.044  2.0599  0.4061 -0.6250
    3CHTO   C12 1255   7.671   2.705   1.020 -0.6078  0.6208  0.2188
    3CHTO   H25 1256   7.589   2.727   1.092 -1.6297 -1.6023 -0.2233
    3CHTO    N3 1257   7.794   2.708   1.109  0.1708 -0.0731  0.2028
    3CHTO   H12 1258   7.807   2.799   1.166 -1.4550 -1.0518  2.1816
    3CHTO   H13 1259   7.881   2.685   1.049  0.7493  0.2724  0.9008
    3CHTO   C15 1260   7.670   2.805   0.907  1.0337 -0.1959  0.1778
    3CHTO   H28 1261   7.763   2.813   0.850 -0.2171  0.7537 -1.7764
    3CHTO   O10 1262   7.641   2.952   0.960  0.5176  0.6474 -0.4499
    3CHTO    H4 1263   7.625   3.005   0.884 -2.5743 -0.1979 -0.4403
    3CHTO    O5 1264   7.561   2.788   0.811  0.6696 -0.5339  0.2008
    3CHTO   C10 1265   7.546   2.661   0.749 -1.0354 -0.7169  0.3974
    3CHTO   H23 1266   7.632   2.655   0.682 -1.0416  2.3146  0.0239
    3CHTO   C17 1267   7.436   2.673   0.649  0.6339 -0.0650  0.4084
    3CHTO   O12 1268   7.417   2.545   0.586 -0.3240 -0.1565 -0.0335
    3CHTO    H6 1269   7.325   2.534   0.572 -0.3621 -0.3671  0.3742
    4CHTO  H203 1270   5.416   7.506   2.501 -0.5554 -0.9816 -1.1384
    4CHTO   O82 1271   5.352   7.509   2.569  0.5342  0.2454 -0.1484
    4CHTO  C123 1272   5.324   7.640   2.616  0.7284 -0.3539 -0.3897
    4CHTO  H227 1273   5.244   7.639   2.691  1.2803  0.8804  0.2322
    4CHTO   O77 1274   5.451   7.675   2.686 -0.5459 -0.0457 -0.2775
    4CHTO  C118 1275   5.444   7.807   2.743 -0.6467  0.6436  0.0723
    4CHTO  H222 1276   5.362   7.821   2.815 -3.0026  1.1264 -2.6549
    4CHTO  C125 1277   5.575   7.805   2.810 -0.1167  0.3000 -0.3390
    4CHTO   O84 1278   5.614   7.919   2.889 -0.4160 -0.1594 -0.1443
    4CHTO  H205 1279   5.707   7.916   2.900 -0.3677 -0.1877 -0.5405
    4CHTO  C114 1280   5.423   7.909   2.633 -0.2735 -0.2158 -0.3543
    4CHTO  H218 1281   5.510   7.915   2.567  1.3846 -2.3109  1.5963
    4CHTO  C116 1282   5.299   7.891   2.545  0.0840 -0.0986  0.1708
    4CHTO  H220 1283   5.206   7.935   2.586 -1.2158  0.0327 -2.8480
    4CHTO   O79 1284   5.320   7.985   2.436  0.0676  0.1436  0.4455
    4CHTO  H201 1285   5.285   8.068   2.464 -0.5688  0.6998 -1.8958
    4CHTO  C120 1286   5.290   7.738   2.498  0.0507 -0.0694  0.4100
    4CHTO  H224 1287   5.356   7.718   2.411 -1.1843 -0.1749 -0.5128
    4CHTO   N21 1288   5.156   7.722   2.437  1.0458 -0.0557 -0.3968
    4CHTO  H211 1289   5.156   7.644   2.362  2.7457 -0.8595  0.4268
    4CHTO  H212 1290   5.085   7.692   2.514  0.2723  1.7754 -0.3546
    4CHTO   O75 1291   5.405   8.027   2.714  0.5660 -0.1293 -0.0067
    4CHTO  C112 1292   5.500   8.152   2.642 -0.2333 -0.1116  0.7813
    4CHTO  H216 1293   5.515   8.126   2.536 -0.6617  1.0185  0.4338
    4CHTO   O73 1294   5.629   8.166   2.715 -0.0280 -0.1129 -0.0597
    4CHTO  C113 1295   5.717   8.272   2.674 -0.1915  0.1473 -0.1396
    4CHTO  H217 1296   5.755   8.262   2.571  0.5693 -1.7314  0.3111
    4CHTO  C124 1297   5.842   8.277   2.764 -0.4332  0.2128  0.1230
    4CHTO   O83 1298   5.829   8.341   2.886 -0.1947 -0.4966  0.4413
    4CHTO  H204 1299   5.766   8.411   2.883  1.0585  0.6034 -0.3980
    4CHTO  C109 1300   5.647   8.418   2.662  1.2693 -0.4314 -0.0194
    4CHTO  H213 1301   5.622   8.450   2.765  2.0640 -3.9122  1.3110
    4CHTO  C110 1302   5.518   8.408   2.568 -0.3474 -0.0222 -0.4073
    4CHTO  H214 1303   5.549   8.367   2.472 -1.4322 -1.1095 -0.3069
    4CHTO   O78 1304   5.458   8.537   2.568  0.1584  0.0924  0.3132
    4CHTO  H200 1305   5.495   8.590   2.500 -1.8003 -0.9041 -1.5714
    4CHTO  C111 1306   5.428   8.301   2.635 -0.0601 -0.1795  0.1165
    4CHTO  H215 1307   5.417   8.334   2.739 -0.7038  0.9302 -0.3082
    4CHTO   N19 1308   5.294   8.275   2.577  0.4874 -0.4029  0.1611
    4CHTO  H207 1309   5.267   8.358   2.514 -0.2709 -1.0532 -0.3743
    4CHTO  H208 1310   5.219   8.277   2.655  2.7149 -2.5721  2.4551
    4CHTO   O74 1311   5.743   8.507   2.599 -0.4385  0.2837  0.8336
    4CHTO  C115 1312   5.737   8.681   2.662 -0.0359  0.3196  0.1204
    4CHTO  H219 1313   5.638   8.722   2.648 -0.3499  0.1707  1.8891
    4CHTO   O76 1314   5.768   8.689   2.809  0.1412  0.4323  0.0086
    4CHTO  C122 1315   5.776   8.816   2.865 -0.2143 -0.0201 -0.1095
    4CHTO  H226 1316   5.819   8.805   2.964  2.3785  0.0540 -1.1735
    4CHTO  C126 1317   5.631   8.887   2.883 -0.2111  0.8633 -0.4139
    4CHTO   O85 1318   5.644   9.006   2.959 -0.0272  0.2352 -0.1173
    4CHTO  H206 1319   5.646   8.985   3.050  2.4782  2.8000  0.4588
    4CHTO  C121 1320   5.873   8.915   2.784 -0.1515  0.1225  0.1284
    4CHTO  H225 1321   5.842   9.017   2.816  2.3837  0.4282  1.7420
    4CHTO   O81 1322   6.004   8.886   2.830 -0.3424 -0.7910  0.1334
    4CHTO  H202 1323   6.042   8.812   2.787  1.3000 -1.3754  2.5367
    4CHTO  C119 1324   5.846   8.909   2.633  0.7762 -0.4533 -0.3793
    4CHTO  H223 1325   5.744   8.947   2.621  0.1568 -1.6429  0.9621
    4CHTO  C117 1326   5.844   8.760   2.578  0.1619 -0.5509  0.0011
    4CHTO  H221 1327   5.937   8.707   2.595  0.6743 -0.8701 -3.5100
    4CHTO   N20 1328   5.803   8.756   2.435 -0.5729 -0.0103 -0.0694
    4CHTO  H209 1329   5.717   8.821   2.429  0.9664  2.0160 -0.9850
    4CHTO  H210 1330   5.782   8.655   2.403  1.0002  0.0191 -1.2391
    4CHTO   O80 1331   5.931   9.017   2.556  0.2340  0.3532  0.4737
    4CHTO  C103 1332   6.088   9.026   2.572 -0.6736 -0.3479 -0.0994
    4CHTO  H190 1333   6.124   9.039   2.674 -1.4366 -1.1898  0.2841
    4CHTO  C101 1334   6.179   8.913   2.501  0.6938  0.7030  0.5185
    4CHTO  H188 1335   6.138   8.899   2.401  2.1753  0.7879 -0.1139
    4CHTO   O68 1336   6.163   8.797   2.584  0.6218 -0.0720  0.9310
    4CHTO  H168 1337   6.192   8.725   2.533  0.4831  0.4844  0.0557
    4CHTO   C99 1338   6.335   8.958   2.491  0.9506  0.4910  0.1108
    4CHTO  H186 1339   6.371   8.971   2.595  2.4569 -0.0595 -0.3238
    4CHTO   N17 1340   6.436   8.864   2.427  0.1969  0.1978 -0.3908
    4CHTO  H174 1341   6.422   8.766   2.471 -1.0193 -0.4369 -2.0963
    4CHTO  H175 1342   6.415   8.868   2.321  0.4284  1.8355 -0.3833
    4CHTO   C97 1343   6.339   9.099   2.423  0.8337  0.4651  0.8598
    4CHTO  H184 1344   6.295   9.092   2.323 -2.2177  1.6484  2.0604
    4CHTO   O64 1345   6.269   9.183   2.508  0.2083  0.0167  0.0897
    4CHTO  C104 1346   6.123   9.163   2.496  1.3904  0.3279 -0.0543
    4CHTO  H191 1347   6.101   9.155   2.390  1.8008  1.8472 -0.2730
    4CHTO  C108 1348   6.044   9.287   2.545 -0.5231 -0.0440 -0.5620
    4CHTO   O71 1349   6.031   9.279   2.690 -0.4630 -0.2689  0.7230
    4CHTO  H171 1350   5.996   9.360   2.724 -0.4159  0.6653 -1.3788
    4CHTO   O62 1351   6.476   9.149   2.422 -0.0731  0.2308  0.4150
    4CHTO   C91 1352   6.514   9.219   2.303 -0.2123 -0.1270 -0.1535
    4CHTO  H178 1353   6.436   9.246   2.232  0.7974 -1.3184 -1.7574
    4CHTO   C92 1354   6.616   9.134   2.214  1.0534  0.4776  0.5029
    4CHTO  H179 1355   6.709   9.113   2.269  0.6412 -1.9079  0.3598
    4CHTO   O66 1356   6.552   9.002   2.190 -0.2032  0.1269 -0.0365
    4CHTO  H166 1357   6.572   8.942   2.259  1.3801  1.4883  0.7176
    4CHTO   C93 1358   6.654   9.225   2.088 -0.2064  0.8528  0.4447
    4CHTO  H180 1359   6.561   9.225   2.029  1.0231  0.7534 -1.5354
    4CHTO   N16 1360   6.755   9.162   2.003 -0.5105  0.3430 -0.0710
    4CHTO  H172 1361   6.716   9.061   1.989  0.0355 -0.4864  3.8509
    4CHTO  H173 1362   6.858   9.166   2.033 -0.3051  0.3713 -0.7794
    4CHTO   C94 1363   6.693   9.367   2.124 -0.9278  0.4864  0.3282
    4CHTO  H181 1364   6.790   9.399   2.084 -0.3971 -1.4841  0.0157
    4CHTO   O61 1365   6.699   9.389   2.270 -0.0356  0.6003  0.0265
    4CHTO   C95 1366   6.577   9.359   2.347  0.4604 -0.3856  0.4628
    4CHTO  H182 1367   6.604   9.352   2.453 -1.3387 -3.0016  0.7990
    4CHTO  C106 1368   6.479   9.476   2.341 -0.1847  0.0643  0.1829
    4CHTO   O69 1369   6.396   9.448   2.456 -0.3088 -0.1173  0.6485
    4CHTO  H169 1370   6.313   9.412   2.433 -0.4690  0.4648  0.2926
    4CHTO   O63 1371   6.569   9.459   2.045 -0.6248  0.2198 -0.9151
    4CHTO   C96 1372   6.594   9.477   1.901  0.3127 -0.1823 -0.1942
    4CHTO  H183 1373   6.643   9.391   1.855 -1.7989 -1.9244  0.7835
    4CHTO   C98 1374   6.660   9.608   1.865  0.3226  0.0627  0.4114
    4CHTO  H185 1375   6.604   9.698   1.896  0.9120 -0.2561  2.5141
    4CHTO   O67 1376   6.788   9.621   1.933 -0.4804  0.2966  0.4138
    4CHTO  H167 1377   6.819   9.709   1.922 -2.2340  1.0106  0.9179
    4CHTO  C102 1378   6.674   9.598   1.709  0.5690 -0.5792  0.2637
    4CHTO  H189 1379   6.743   9.514   1.692 -0.1335 -1.0005 -0.5471
    4CHTO   N18 1380   6.742   9.717   1.648 -0.4664  0.0885 -0.1836
    4CHTO  H176 1381   6.822   9.743   1.716  0.7126 -3.6216 -0.0041
    4CHTO  H177 1382   6.773   9.686   1.549 -0.1108  0.5434 -0.2171
    4CHTO  C105 1383   6.538   9.575   1.634 -0.2739 -0.6593 -0.0482
    4CHTO  H192 1384   6.487   9.669   1.616 -1.5993 -1.3020  0.3264
    4CHTO   O65 1385   6.449   9.471   1.697 -0.0815  0.2711  0.6340
    4CHTO  C100 1386   6.443   9.468   1.839 -0.2146  0.2733 -0.2168
    4CHTO  H187 1387   6.395   9.555   1.888  1.2281 -0.2605  2.1972
    4CHTO  C107 1388   6.368   9.335   1.875  0.2365 -1.0936 -0.0662
    4CHTO   O70 1389   6.301   9.348   1.994  0.6412 -0.7464 -0.0372
    4CHTO  H170 1390   6.238   9.280   2.010 -0.4505  0.3261  0.2654
    4CHTO   O57 1391   6.593   9.517   1.499  0.4213 -0.9332  0.4663
    4CHTO   C85 1392   6.510   9.474   1.392  0.4308  0.1011  0.0245
    4CHTO  H157 1393   6.412   9.525   1.401  0.1830 -0.5029  0.7228
    4CHTO   C83 1394   6.484   9.322   1.401  0.4088 -0.2041 -0.3490
    4CHTO  H155 1395   6.392   9.316   1.459  0.8115 -0.8892  0.2307
    4CHTO   O56 1396   6.587   9.258   1.480 -0.1079 -0.2003 -0.1662
    4CHTO  H135 1397   6.566   9.177   1.523 -0.0682 -0.4943 -0.7017
    4CHTO   C81 1398   6.460   9.255   1.259 -0.2095  0.3163 -0.5803
    4CHTO  H153 1399   6.375   9.307   1.214 -0.1651  1.5294  0.7069
    4CHTO   N14 1400   6.413   9.114   1.258  0.0998  0.4571  0.1042
    4CHTO  H141 1401   6.398   9.062   1.166  3.1912 -0.0465 -0.1682
    4CHTO  H142 1402   6.468   9.050   1.324  0.5030 -0.9891 -1.5940
    4CHTO   C79 1403   6.587   9.287   1.173 -0.1028 -0.0607 -0.5364
    4CHTO  H151 1404   6.582   9.230   1.080  2.0018 -1.8688  0.3836
    4CHTO   O52 1405   6.582   9.429   1.143  0.1852 -0.5813  0.2107
    4CHTO   C86 1406   6.589   9.521   1.258 -0.6577  0.4854  0.0665
    4CHTO  H158 1407   6.696   9.519   1.288 -0.6558 -0.3027  0.0197
    4CHTO   C90 1408   6.554   9.657   1.210 -0.8498  0.2218  0.1319
    4CHTO   O60 1409   6.594   9.761   1.298 -0.2571 -0.2763  0.1490
    4CHTO  H138 1410   6.545   9.834   1.265 -0.7752  0.1249  1.7995
    4CHTO   O50 1411   6.715   9.245   1.225 -0.2362 -0.1550  0.0671
    4CHTO   C73 1412   6.848   9.240   1.163  0.3392  0.6936  0.1591
    4CHTO  H145 1413   6.892   9.341   1.152  0.7804  0.5299  0.3962
    4CHTO   C74 1414   6.838   9.168   1.025  0.0226  0.4661  0.7480
    4CHTO  H146 1415   6.768   9.226   0.964 -1.0413 -2.5199 -0.9797
    4CHTO   O54 1416   6.968   9.188   0.971  0.1313 -0.5142 -0.2769
    4CHTO  H133 1417   7.042   9.173   1.027 -1.8646  0.2376  2.6470
    4CHTO   C75 1418   6.779   9.022   1.048 -0.3021  0.0820  0.2512
    4CHTO  H147 1419   6.683   9.030   1.102  0.2404 -0.0893  1.2335
    4CHTO   N13 1420   6.744   8.941   0.925  0.5338 -0.2217 -0.9864
    4CHTO  H139 1421   6.656   8.979   0.874  1.6983  1.1886 -2.0277
    4CHTO  H140 1422   6.820   8.945   0.848  1.2794  0.5094 -0.2222
    4CHTO   C76 1423   6.881   8.941   1.143 -0.3666  0.2717  0.4360
    4CHTO  H148 1424   6.978   8.936   1.093 -0.4080 -1.7049  0.5262
    4CHTO   O49 1425   6.887   9.013   1.268 -0.4962 -0.2212 -0.1220
    4CHTO   C77 1426   6.935   9.149   1.258 -0.8977 -0.0218 -0.3623
    4CHTO  H149 1427   7.033   9.136   1.213 -0.8915 -0.4798 -0.2229
    4CHTO   C88 1428   6.952   9.210   1.401  0.2036  0.4941 -0.0989
    4CHTO   O58 1429   7.079   9.154   1.466 -0.5298  0.3986  0.7853
    4CHTO  H136 1430   7.091   9.062   1.452  0.0903  0.3475  1.6250
    4CHTO   O51 1431   6.825   8.789   1.189 -0.1614  0.0552  0.1348
    4CHTO   C78 1432   6.916   8.666   1.154  0.6767 -0.2613  0.4977
    4CHTO  H150 1433   7.022   8.696   1.140  0.6714 -0.6881 -0.5400
    4CHTO   C80 1434   6.862   8.592   1.025 -0.3858 -0.7156 -0.2359
    4CHTO  H152 1435   6.754   8.568   1.041 -0.6397  0.6401  0.1146
    4CHTO   O55 1436   6.884   8.680   0.914 -0.0955 -0.2517  0.4098
    4CHTO  H134 1437   6.808   8.736   0.912  0.3282  0.4722  2.9417
    4CHTO   C84 1438   6.949   8.460   1.009  0.1317  0.6392 -0.0269
    4CHTO  H156 1439   7.055   8.485   0.999  0.6803 -1.4613  0.2855
    4CHTO   N15 1440   6.916   8.389   0.881  0.0295  0.3604 -0.0725
    4CHTO  H143 1441   6.816   8.352   0.890 -1.0439  2.5462 -2.3684
    4CHTO  H144 1442   6.987   8.309   0.875  0.3076  0.7397 -2.3401
    4CHTO   C87 1443   6.937   8.369   1.136 -0.0935 -0.1463  0.4125
    4CHTO  H159 1444   6.835   8.330   1.140 -0.6488  1.0689 -1.1652
    4CHTO   O53 1445   6.980   8.451   1.266  0.1526 -0.1828  0.4359
    4CHTO   C82 1446   6.914   8.578   1.276 -0.0447 -0.0705 -0.2449
    4CHTO  H154 1447   6.812   8.559   1.308 -0.0611 -1.3212 -1.0214
    4CHTO   C89 1448   6.987   8.624   1.401  0.2765 -0.4457 -0.5677
    4CHTO   O59 1449   6.913   8.731   1.458 -0.5449 -0.0785 -0.0058
    4CHTO  H137 1450   6.847   8.690   1.511  0.9710 -0.9587  1.2092
    4CHTO   O45 1451   7.034   8.236   1.120 -0.1702 -0.2382  0.0225
    4CHTO   C67 1452   7.008   8.113   1.046 -0.6566 -0.7606 -0.1006
    4CHTO  H124 1453   7.002   8.133   0.939  0.7306  3.0687  0.4749
    4CHTO   C65 1454   7.134   8.017   1.067 -0.1121  0.1432  0.0929
    4CHTO  H122 1455   7.225   8.072   1.045  2.0509 -3.5583 -0.4128
    4CHTO   O44 1456   7.135   7.917   0.961  0.2696 -0.4687 -0.3926
    4CHTO  H102 1457   7.068   7.928   0.895 -1.7313  0.7531  1.7737
    4CHTO   C63 1458   7.143   7.972   1.220 -0.3844  0.6153 -0.0465
    4CHTO  H120 1459   7.145   8.059   1.285  2.9758 -0.2814  1.1348
    4CHTO   N11 1460   7.279   7.912   1.254 -0.5789  0.1044  0.5444
    4CHTO  H108 1461   7.313   7.819   1.214 -0.6357 -0.1255  1.0277
    4CHTO  H109 1462   7.271   7.900   1.360  0.7683 -0.2678  0.6189
    4CHTO   C61 1463   7.019   7.895   1.261  0.7956  0.2663 -0.8640
    4CHTO  H118 1464   7.024   7.888   1.371 -0.2012  1.0128 -0.7696
    4CHTO   O40 1465   6.888   7.959   1.224 -0.7546 -0.1353 -0.1773
    4CHTO   C68 1466   6.871   8.037   1.094 -0.4697 -0.6468 -0.3114
    4CHTO  H125 1467   6.800   8.120   1.114  0.7717  0.2105  0.6512
    4CHTO   C72 1468   6.813   7.948   0.976  0.4068  0.0110 -0.5727
    4CHTO   O48 1469   6.675   7.922   0.992 -0.0689 -0.0326 -0.4050
    4CHTO  H105 1470   6.646   7.930   1.081  0.3709 -1.4751 -0.1169
    4CHTO   O38 1471   7.023   7.759   1.218 -0.1388 -0.2865  0.0960
    4CHTO   C55 1472   6.951   7.664   1.301 -0.3126  0.7514  0.0190
    4CHTO  H112 1473   6.861   7.711   1.344 -0.7782  0.6322 -0.8176
    4CHTO   C56 1474   7.048   7.605   1.412 -0.1137  0.2982  0.1280
    4CHTO  H113 1475   7.137   7.570   1.357 -1.1529  1.2082 -2.1778
    4CHTO   O42 1476   7.093   7.701   1.507  0.8337 -0.6389  0.5146
    4CHTO  H100 1477   7.171   7.744   1.477  0.3606  0.1045  0.3327
    4CHTO   C57 1478   6.993   7.474   1.483  0.5163 -0.0496 -0.2265
    4CHTO  H114 1479   6.922   7.515   1.555  1.3095  1.5907 -0.3572
    4CHTO   N10 1480   7.093   7.394   1.563  0.4200 -0.0930 -0.7478
    4CHTO  H106 1481   7.189   7.396   1.513  0.6799 -0.1942 -0.2647
    4CHTO  H107 1482   7.057   7.293   1.571 -0.9784  0.4796  0.4364
    4CHTO   C58 1483   6.913   7.383   1.384 -0.3921 -0.0442 -0.9158
    4CHTO  H115 1484   6.985   7.328   1.320 -0.8088  0.3753 -1.7560
    4CHTO   O37 1485   6.826   7.467   1.307 -0.4335  0.0368  0.1644
    4CHTO   C59 1486   6.891   7.553   1.212 -0.1896  0.4859 -0.6568
    4CHTO  H116 1487   6.972   7.506   1.156  1.2037 -0.1722  1.8274
    4CHTO   C70 1488   6.782   7.613   1.123  0.2966 -0.1794  0.6042
    4CHTO   O46 1489   6.700   7.509   1.062 -0.1107 -0.3511 -0.2293
    4CHTO  H103 1490   6.748   7.470   0.992 -0.5606 -0.8046 -0.2906
    4CHTO   O39 1491   6.819   7.276   1.480 -0.3207  0.9848 -0.1519
    4CHTO   C60 1492   6.716   7.204   1.412 -0.3171 -0.0604  1.2365
    4CHTO  H117 1493   6.648   7.275   1.363 -0.2458 -0.0129  1.2068
    4CHTO   C62 1494   6.783   7.106   1.309  0.0445 -0.3025  0.3882
    4CHTO  H119 1495   6.839   7.174   1.241 -0.8528  1.1386  1.0588
    4CHTO   O43 1496   6.879   7.027   1.381  1.2961 -0.9646 -1.0824
    4CHTO  H101 1497   6.830   6.979   1.445  0.7303  0.1402 -0.6713
    4CHTO   C66 1498   6.670   7.022   1.230 -0.4322 -0.4981  0.3013
    4CHTO  H123 1499   6.602   7.092   1.182 -0.3255 -1.0123 -0.5867
    4CHTO   N12 1500   6.729   6.942   1.115  0.5955  0.1821  0.3940
    4CHTO  H110 1501   6.812   7.001   1.079 -1.1171  2.0948 -0.5237
    4CHTO  H111 1502   6.759   6.843   1.147  0.3143  0.1587  0.5910
    4CHTO   C69 1503   6.582   6.943   1.324  0.1207 -0.3715 -0.2072
    4CHTO  H126 1504   6.642   6.865   1.376 -1.6931 -0.6410  1.5384
    4CHTO   O41 1505   6.529   7.045   1.422 -0.0356  0.0505 -0.9008
    4CHTO   C64 1506   6.627   7.115   1.508 -0.2335 -0.0890  0.1264
    4CHTO  H121 1507   6.690   7.036   1.555 -0.1249  0.2281  0.5181
    4CHTO   C71 1508   6.569   7.201   1.618  0.0836 -0.2114  0.4561
    4CHTO   O47 1509   6.672   7.250   1.704 -0.4621  0.1292 -0.3003
    4CHTO  H104 1510   6.733   7.183   1.726  0.2702  0.4178 -1.3997
    4CHTO   O34 1511   6.460   6.877   1.262  0.3053 -0.1693 -0.2023
    4CHTO   C49 1512   6.351   6.916   1.189 -0.3368  0.1852  0.0468
    4CHTO   H91 1513   6.314   7.009   1.233  0.9388  0.4750  0.5335
    4CHTO   C47 1514   6.239   6.805   1.195 -0.0694  0.1909 -0.2234
    4CHTO   H89 1515   6.148   6.858   1.162  1.0449  2.7664  0.7113
    4CHTO   O33 1516   6.226   6.774   1.335  0.4475 -0.6011 -0.3877
    4CHTO   H70 1517   6.143   6.733   1.352  0.8709 -0.3416  2.5306
    4CHTO   C45 1518   6.279   6.674   1.112  0.9886 -0.2664  0.1735
    4CHTO   H87 1519   6.320   6.601   1.185  1.8404  1.0458  1.0225
    4CHTO    N8 1520   6.157   6.612   1.046  0.0312 -0.5957 -0.2613
    4CHTO   H75 1521   6.178   6.523   0.989  0.2978 -0.6933 -0.0089
    4CHTO   H76 1522   6.109   6.678   0.975  2.1332  0.6746 -0.5646
    4CHTO   C43 1523   6.404   6.704   1.012 -0.6770 -0.1057  0.4890
    4CHTO   H85 1524   6.493   6.696   1.074  0.2549 -0.2563 -0.8610
    4CHTO   O29 1525   6.391   6.836   0.952  0.2353  0.4427  0.3738
    4CHTO   C50 1526   6.367   6.946   1.041 -0.1891 -0.7569  0.1594
    4CHTO   H92 1527   6.447   7.019   1.018 -2.0220  1.7036  1.4318
    4CHTO   C54 1528   6.248   7.035   0.984  0.1829  0.4039 -0.0543
    4CHTO   O36 1529   6.263   7.106   0.866  0.2940 -0.0092  0.1251
    4CHTO   H72 1530   6.244   7.054   0.790 -0.1182  2.2643 -1.4006
    4CHTO   O27 1531   6.428   6.610   0.906  0.0927  0.1067  0.2628
    4CHTO   C37 1532   6.553   6.552   0.870 -0.0254  0.4630  0.5214
    4CHTO   H79 1533   6.550   6.530   0.762 -1.8246  0.7948  0.4846
    4CHTO   C38 1534   6.679   6.647   0.890 -0.1218  0.7460 -0.2503
    4CHTO   H80 1535   6.663   6.701   0.984 -0.6615  0.3021 -0.0846
    4CHTO   O31 1536   6.676   6.737   0.784 -0.1011 -1.0009  0.3663
    4CHTO   H68 1537   6.630   6.814   0.812 -0.0811 -1.2174  1.0043
    4CHTO   C39 1538   6.819   6.570   0.901 -0.0068  0.1586 -0.3124
    4CHTO   H81 1539   6.851   6.550   0.799 -1.4894  1.6184 -1.0842
    4CHTO    N7 1540   6.924   6.654   0.957 -0.9321 -0.2071 -0.5343
    4CHTO   H73 1541   7.001   6.580   0.969  0.2893  1.2715  0.9723
    4CHTO   H74 1542   6.966   6.722   0.883 -0.5496 -1.0575 -1.1007
    4CHTO   C40 1543   6.808   6.430   0.979  0.0104 -0.1763 -0.5942
    4CHTO   H82 1544   6.814   6.434   1.088 -2.0956 -3.6804 -0.2747
    4CHTO   O26 1545   6.692   6.352   0.939 -0.3912 -0.0500  0.0864
    4CHTO   C41 1546   6.564   6.421   0.953 -0.5593  0.1939  0.3094
    4CHTO   H83 1547   6.549   6.459   1.056  0.6222  1.6692 -0.0371
    4CHTO   C52 1548   6.461   6.327   0.908 -0.2435  0.4222 -0.4085
    4CHTO   O35 1549   6.450   6.237   1.003 -0.2940 -0.1441  0.8447
    4CHTO   H71 1550   6.375   6.183   0.983 -0.4796  0.4650 -0.1556
    4CHTO   O28 1551   6.911   6.338   0.944  0.3024  0.5039 -0.4059
    4CHTO   C42 1552   6.939   6.220   1.031  0.7326 -0.4033 -0.8726
    4CHTO   H84 1553   7.001   6.163   0.962  0.8419 -0.4156 -0.7644
    4CHTO   C44 1554   6.823   6.125   1.073  0.6598  0.0046  0.0629
    4CHTO   H86 1555   6.744   6.187   1.117 -0.3851 -2.6281  2.0763
    4CHTO   O32 1556   6.758   6.061   0.959  0.2027 -0.2905  0.7261
    4CHTO   H69 1557   6.693   5.996   0.976 -0.6411  0.4698  0.4367
    4CHTO   C48 1558   6.862   6.015   1.182 -0.6406  0.0111  0.3445
    4CHTO   H90 1559   6.930   5.949   1.128  1.4810  2.1546  0.3247
    4CHTO    N9 1560   6.754   5.924   1.223  0.1111 -0.3664 -0.4709
    4CHTO   H77 1561   6.679   5.955   1.295  0.4416 -0.6431 -0.0021
    4CHTO   H78 1562   6.707   5.891   1.131 -1.3504  1.6553 -0.4712
    4CHTO   C51 1563   6.936   6.090   1.297 -0.0990  0.4213 -0.1086
    4CHTO   H93 1564   6.883   6.162   1.358 -0.9219 -0.3107  0.0419
    4CHTO   O30 1565   7.051   6.144   1.237 -0.0654  0.0103  0.1113
    4CHTO   C46 1566   7.032   6.259   1.149  0.3018  0.7733  0.1128
    4CHTO   H88 1567   6.985   6.334   1.212 -1.1683  0.6019 -0.7526
    4CHTO   C53 1568   7.172   6.308   1.103  0.2993 -0.4010  0.1415
    4CHTO   O72 1569   7.252   6.326   1.220 -0.4381 -0.2458  0.0135
    4CHTO  H199 1570   7.326   6.380   1.203  1.0930 -2.6188 -1.1784
    4CHTO   O22 1571   6.986   5.993   1.395 -0.6453  0.4362  0.0056
    4CHTO   C31 1572   6.988   6.016   1.542  0.1473 -0.2780  0.0603
    4CHTO   H59 1573   6.958   6.122   1.558  0.7283 -0.1455  0.2984
    4CHTO   C29 1574   6.882   5.929   1.610  0.3616  0.0648 -0.1837
    4CHTO   H57 1575   6.882   5.825   1.575  0.4199 -0.0051  0.0209
    4CHTO   O21 1576   6.760   5.966   1.551 -0.5779  0.5019 -0.4071
    4CHTO   H37 1577   6.687   5.916   1.582 -1.0561 -0.2049 -2.5904
    4CHTO   C27 1578   6.871   5.944   1.768 -0.0932  0.6577 -0.4478
    4CHTO   H55 1579   6.816   6.038   1.782  2.3898  2.1228 -0.4789
    4CHTO    N5 1580   6.790   5.835   1.831 -0.1921  0.0218  0.2198
    4CHTO   H43 1581   6.850   5.784   1.905  0.1283  1.5337  1.0281
    4CHTO   H44 1582   6.737   5.781   1.755 -0.4336 -1.7450  1.6172
    4CHTO   C25 1583   7.019   5.944   1.827 -0.3948  0.0303 -0.3371
    4CHTO   H53 1584   7.047   5.839   1.844  0.9162  0.5861  1.0519
    4CHTO   O17 1585   7.121   6.019   1.744  0.1553  0.4096 -0.3095
    4CHTO   C32 1586   7.127   5.990   1.605 -0.7402 -0.3054  0.3778
    4CHTO   H60 1587   7.149   5.883   1.600  0.4929 -0.0750  0.4892
    4CHTO   C36 1588   7.237   6.086   1.543  0.4608 -0.4981 -0.0448
    4CHTO   O25 1589   7.193   6.227   1.541  0.2412  0.0247  0.5098
    4CHTO   H40 1590   7.163   6.253   1.456  1.3678 -1.5792 -0.4097
    4CHTO   O15 1591   7.011   6.011   1.967 -0.4804 -0.2590 -0.2148
    4CHTO   C19 1592   7.024   6.150   2.019 -0.1122 -0.4469 -0.1542
    4CHTO   H47 1593   7.043   6.139   2.127  0.6266  1.4869 -0.0655
    4CHTO   C20 1594   7.150   6.217   1.966  0.4088 -0.4438 -0.0762
    4CHTO   H48 1595   7.147   6.231   1.857  0.1067  0.2009  0.0119
    4CHTO   O19 1596   7.262   6.134   2.008 -0.1258 -0.6722 -1.2954
    4CHTO   H35 1597   7.236   6.047   1.987 -1.0574 -0.8375  0.4264
    4CHTO   C21 1598   7.169   6.362   2.041  0.0216  0.1596 -0.2151
    4CHTO   H49 1599   7.168   6.343   2.148  2.0601  0.6205 -0.0881
    4CHTO    N4 1600   7.287   6.443   2.001 -0.1652  0.9540 -0.6603
    4CHTO   H41 1601   7.330   6.393   1.915 -0.7953 -1.3422  0.3163
    4CHTO   H42 1602   7.357   6.436   2.083 -0.5621  0.2574 -0.3749
    4CHTO   C22 1603   7.039   6.439   2.015  0.0204 -0.5824 -0.5296
    4CHTO   H50 1604   7.025   6.458   1.908 -0.6580 -0.7598 -0.4759
    4CHTO   O14 1605   6.931   6.364   2.073 -0.0199 -0.1065  0.1314
    4CHTO   C23 1606   6.895   6.245   2.000 -0.0152 -1.0975 -0.0587
    4CHTO   H51 1607   6.875   6.267   1.894 -0.7349 -2.7492 -0.2861
    4CHTO   C34 1608   6.762   6.183   2.052 -0.0745 -0.3681 -0.1081
    4CHTO   O23 1609   6.657   6.286   2.061 -0.0004  0.0169  1.0051
    4CHTO   H38 1610   6.656   6.331   2.143 -0.3751 -0.0379  1.0335
    4CHTO   O16 1611   7.034   6.564   2.092  0.0505  0.3743  0.4052
    4CHTO   C24 1612   6.896   6.651   2.057 -0.2310  0.0819 -0.5059
    4CHTO   H52 1613   6.810   6.587   2.042  0.4634 -1.3110  1.1964
    4CHTO   C26 1614   6.918   6.739   1.932  0.3985  0.4412  0.2784
    4CHTO   H54 1615   7.021   6.782   1.939  0.7083 -0.3716  0.8120
    4CHTO   O20 1616   6.913   6.661   1.815 -0.0812  0.2133  0.4113
    4CHTO   H36 1617   6.987   6.604   1.812 -1.7338 -2.1537  2.2330
    4CHTO   C30 1618   6.821   6.863   1.926 -0.6171  0.4403  0.7510
    4CHTO   H58 1619   6.720   6.840   1.888  0.0223 -0.5068 -0.3969
    4CHTO    N6 1620   6.881   6.957   1.831  0.2259 -0.0673  0.3040
    4CHTO   H45 1621   6.946   7.030   1.878  0.1530  0.5526 -0.5380
    4CHTO   H46 1622   6.799   7.010   1.784  0.7486  2.0817  1.7145
    4CHTO   C33 1623   6.801   6.920   2.065  0.3407 -0.0020  0.2043
    4CHTO   H61 1624   6.902   6.951   2.097  0.0669  0.8147  0.2611
    4CHTO   O18 1625   6.757   6.813   2.148  0.0621  0.6479 -0.7319
    4CHTO   C28 1626   6.867   6.728   2.188  0.4257 -0.1881  0.2199
    4CHTO   H56 1627   6.955   6.783   2.222 -1.1499  0.6817  3.0969
    4CHTO   C35 1628   6.803   6.623   2.288  0.4563 -0.0103 -0.6627
    4CHTO   O24 1629   6.903   6.547   2.354  0.0880  0.7780  0.2211
    4CHTO   H39 1630   6.867   6.474   2.402  1.4448 -2.0294 -2.8457
    4CHTO    O9 1631   6.717   7.037   2.075 -0.3165  0.1959 -0.7481
    4CHTO   C13 1632   6.770   7.137   2.204  0.1275 -0.1068 -0.1503
    4CHTO   H26 1633   6.880   7.121   2.211  0.1407  0.2028  0.3965
    4CHTO   C11 1634   6.699   7.088   2.339  0.0003 -0.7129  0.6672
    4CHTO   H24 1635   6.727   6.983   2.358 -0.1843 -0.6001  1.5837
    4CHTO    O8 1636   6.554   7.100   2.323 -0.3110  0.2659 -0.0406
    4CHTO    H3 1637   6.519   7.174   2.370 -2.4752 -0.8053  0.1114
    4CHTO    C9 1638   6.758   7.168   2.461 -0.2313 -0.6112 -0.4293
    4CHTO   H22 1639   6.862   7.134   2.477 -1.4530 -3.2178  2.4645
    4CHTO    N2 1640   6.696   7.136   2.590  0.1277  0.3033 -0.3881
    4CHTO   H10 1641   6.728   7.198   2.672  0.6087  1.2394 -1.2764
    4CHTO   H11 1642   6.589   7.149   2.582  0.3238  1.0786 -1.9056
    4CHTO    C7 1643   6.778   7.321   2.421  0.1840  0.4885  0.3676
    4CHTO   H20 1644   6.885   7.335   2.393  0.5498  0.3325  1.6330
    4CHTO    O4 1645   6.696   7.356   2.309 -0.2789 -0.0034  0.4346
    4CHTO   C14 1646   6.750   7.294   2.190 -0.3076 -0.0158  0.4518
    4CHTO   H27 1647   6.847   7.346   2.177 -1.0037  1.2038  0.0019
    4CHTO   C18 1648   6.663   7.328   2.066  0.5563  0.3297  0.2422
    4CHTO   O13 1649   6.671   7.470   2.038  0.1536 -0.3388  0.3092
    4CHTO    H7 1650   6.621   7.480   1.959  1.7576  0.5909 -0.5998
    4CHTO    O2 1651   6.751   7.439   2.547  0.2418  0.1643  0.3316
    4CHTO    C1 1652   6.872   7.514   2.581  0.1189 -0.0616  0.2890
    4CHTO   H14 1653   6.963   7.463   2.545 -0.9768 -1.3219 -0.7026
    4CHTO    C2 1654   6.892   7.534   2.737  0.3631 -0.0015 -0.8938
    4CHTO   H15 1655   6.789   7.543   2.773  1.4655  3.3385  1.6800
    4CHTO    O6 1656   6.950   7.420   2.795  0.1271 -0.1532 -0.1512
    4CHTO    H1 1657   6.876   7.374   2.829 -0.0403  0.6628  0.6167
    4CHTO    C3 1658   6.977   7.662   2.780  0.8829  0.8770  0.0873
    4CHTO   H16 1659   7.081   7.627   2.777  0.8803  0.9600 -1.2636
    4CHTO    N1 1660   6.944   7.702   2.923  0.5478 -0.4912  0.1846
    4CHTO    H8 1661   6.994   7.789   2.963 -0.6256  0.3848 -0.2137
    4CHTO    H9 1662   6.949   7.622   2.994  0.4745 -0.5860  0.0830
    4CHTO    C4 1663   6.954   7.777   2.682 -0.2110 -0.2786  0.7123
    4CHTO   H17 1664   6.852   7.813   2.695 -1.1990 -2.3434 -1.0749
    4CHTO    O1 1665   6.970   7.739   2.546  0.1270 -0.2642  0.6520
    4CHTO    C5 1666   6.862   7.649   2.505  0.0603 -0.5033 -0.4331
    4CHTO   H18 1667   6.766   7.697   2.528  0.2448 -0.5334  0.3899
    4CHTO   C16 1668   6.881   7.624   2.356  0.5261 -0.0291 -0.1302
    4CHTO   O11 1669   7.011   7.579   2.324 -0.1271 -0.1076 -0.2972
    4CHTO    H5 1670   7.071   7.640   2.363 -1.6169  1.8965 -1.0543
    4CHTO    O3 1671   7.048   7.881   2.699 -0.0154 -0.2917  0.2047
    4CHTO    C6 1672   7.011   8.009   2.657  0.6013 -0.1558 -0.4507
    4CHTO   H19 1673   6.922   8.014   2.595 -1.0618  0.6998  1.9025
    4CHTO    C8 1674   6.975   8.099   2.779  0.4803 -0.4513 -0.2084
    4CHTO   H21 1675   7.062   8.096   2.845  1.8393 -1.5483 -1.9776
    4CHTO    O7 1676   6.861   8.035   2.840 -0.5200 -0.5817  0.6503
    4CHTO    H2 1677   6.818   8.099   2.893  0.6111  2.0108 -1.4373
    4CHTO   C12 1678   6.950   8.248   2.741  0.1631 -0.4786 -0.2422
    4CHTO   H25 1679   6.852   8.236   2.690 -0.5544 -0.7345  1.1373
    4CHTO    N3 1680   6.924   8.334   2.862  0.3834 -0.2928  0.7734
    4CHTO   H12 1681   7.006   8.329   2.932  1.1885  2.8079  0.1240
    4CHTO   H13 1682   6.830   8.313   2.910  0.4247  0.7528  1.3338
    4CHTO   C15 1683   7.054   8.307   2.648 -0.2870  0.2554 -0.2486
    4CHTO   H28 1684   7.150   8.323   2.698 -0.7932  1.2117  0.4348
    4CHTO   O10 1685   7.004   8.439   2.575  0.3982 -0.2053 -0.1861
    4CHTO    H4 1686   7.004   8.497   2.650 -1.0423  1.5647 -1.5119
    4CHTO    O5 1687   7.081   8.211   2.544  0.3659  0.0535 -0.1498
    4CHTO   C10 1688   7.126   8.078   2.579 -0.5384 -0.6274 -0.1068
    4CHTO   H23 1689   7.208   8.088   2.650 -0.4465  2.9302 -0.6331
    4CHTO   C17 1690   7.171   7.996   2.460  0.5490 -0.6268  0.1403
    4CHTO   O12 1691   7.284   8.057   2.401  0.3747 -0.3506 -0.4040
    4CHTO    H6 1692   7.321   8.002   2.335 -0.7576  1.0482 -2.2271
    5CHTO  H203 1693   7.588   3.875   1.491 -0.0979  1.4038 -2.0317
    5CHTO   O82 1694   7.632   3.927   1.554 -0.7272  0.3432 -0.6826
    5CHTO  C123 1695   7.613   3.886   1.692  0.1171  0.3410  0.4208
    5CHTO  H227 1696   7.669   3.794   1.712 -0.2440  0.4982  2.2671
    5CHTO   O77 1697   7.649   4.008   1.770  0.2545 -0.2223 -0.2012
    5CHTO  C118 1698   7.638   3.997   1.911  0.2105 -0.0475 -0.4247
    5CHTO  H222 1699   7.704   3.920   1.953  0.8880  1.4121  1.2485
    5CHTO  C125 1700   7.690   4.134   1.962 -0.9167  0.5974 -0.5604
    5CHTO   O84 1701   7.720   4.143   2.102  0.3643 -0.6244 -0.0981
    5CHTO  H205 1702   7.804   4.183   2.115 -1.3106  2.4060  2.0228
    5CHTO  C114 1703   7.493   3.971   1.939  0.2467  0.0242  0.6360
    5CHTO  H218 1704   7.437   4.052   1.894 -1.1033  0.0249  2.2913
    5CHTO  C116 1705   7.436   3.838   1.871 -0.7300  0.1365  1.7070
    5CHTO  H220 1706   7.477   3.747   1.920 -2.3310 -0.7580  1.4242
    5CHTO   O79 1707   7.294   3.839   1.887 -0.2781 -0.0436  0.4568
    5CHTO  H201 1708   7.250   3.802   1.813 -0.7512  0.2660  0.5828
    5CHTO  C120 1709   7.462   3.848   1.716  0.3382 -0.2063  0.5254
    5CHTO  H224 1710   7.401   3.937   1.692 -0.5113 -0.5510  1.3338
    5CHTO   N21 1711   7.425   3.728   1.630 -0.5391 -0.3870  0.1098
    5CHTO  H211 1712   7.358   3.666   1.688 -0.3559 -0.1383  0.5916
    5CHTO  H212 1713   7.381   3.762   1.538  0.0208 -0.3636 -0.1520
    5CHTO   O75 1714   7.472   3.956   2.076 -0.5036 -0.3516  0.2662
    5CHTO  C112 1715   7.318   4.008   2.139 -0.6455 -0.7029 -0.5677
    5CHTO  H216 1716   7.251   3.955   2.070 -1.3301 -1.0373  0.3402
    5CHTO   O73 1717   7.307   4.149   2.125  0.1808 -0.2773 -0.3075
    5CHTO  C113 1718   7.173   4.189   2.155 -0.3118  0.1215  0.5069
    5CHTO  H217 1719   7.104   4.122   2.100  0.8851  0.4642 -1.4756
    5CHTO  C124 1720   7.153   4.325   2.101  0.2359  0.0159  0.2365
    5CHTO   O83 1721   7.229   4.425   2.175 -0.1238  0.1461 -0.4987
    5CHTO  H204 1722   7.164   4.475   2.219 -2.1512 -2.6522 -0.1455
    5CHTO  C109 1723   7.138   4.172   2.306 -0.7205 -0.5122 -0.0463
    5CHTO  H213 1724   7.207   4.239   2.360  1.9708 -2.9882 -0.2671
    5CHTO  C110 1725   7.159   4.022   2.338 -0.8225  0.6018  0.4103
    5CHTO  H214 1726   7.093   3.967   2.271  1.3836 -0.6980 -0.7281
    5CHTO   O78 1727   7.138   4.004   2.477 -0.2628  0.5876  0.1259
    5CHTO  H200 1728   7.193   4.057   2.531 -0.6611 -0.5613  1.6873
    5CHTO  C111 1729   7.300   3.971   2.294 -0.0279  0.8486 -0.1558
    5CHTO  H215 1730   7.379   4.025   2.348 -0.3367  0.7295  0.4136
    5CHTO   N19 1731   7.326   3.821   2.315  0.5795 -0.5146 -0.4457
    5CHTO  H207 1732   7.430   3.806   2.290  1.1301  1.2554  0.6122
    5CHTO  H208 1733   7.306   3.796   2.418 -0.7599 -3.1127 -1.3017
    5CHTO   O74 1734   7.001   4.216   2.319  0.3396 -0.4794 -0.2561
    5CHTO  C115 1735   6.961   4.281   2.461  0.2124 -0.3495 -0.0268
    5CHTO  H219 1736   7.042   4.292   2.532  0.0856 -0.5588  0.1499
    5CHTO   O76 1737   6.900   4.421   2.442  1.2364 -0.3525  0.3607
    5CHTO  C122 1738   6.783   4.437   2.361 -0.3881  0.0517 -0.2399
    5CHTO  H226 1739   6.823   4.452   2.261  2.6695 -0.7001  0.8026
    5CHTO  C126 1740   6.719   4.569   2.405 -0.3748 -0.4386 -0.1025
    5CHTO   O85 1741   6.644   4.636   2.303 -0.5065  0.0702 -0.1103
    5CHTO  H206 1742   6.701   4.668   2.236 -0.8879  0.7225 -0.1338
    5CHTO  C121 1743   6.685   4.308   2.367  0.4036 -0.3333 -0.6890
    5CHTO  H225 1744   6.577   4.332   2.362 -0.3273 -3.2667  0.1680
    5CHTO   O81 1745   6.707   4.227   2.250 -0.1512  0.0492 -0.4085
    5CHTO  H202 1746   6.796   4.195   2.251  0.4237  1.5604 -1.5700
    5CHTO  C119 1747   6.706   4.227   2.503 -0.1338 -0.5526  0.0692
    5CHTO  H223 1748   6.690   4.302   2.581  0.6411 -2.8656  2.5430
    5CHTO  C117 1749   6.858   4.175   2.525 -0.2757  0.0371  0.6207
    5CHTO  H221 1750   6.887   4.084   2.474 -0.5520  1.0577 -1.4026
    5CHTO   N20 1751   6.883   4.152   2.671  0.3087  0.5249  0.1201
    5CHTO  H209 1752   6.888   4.246   2.724 -1.5096  1.4096 -1.2456
    5CHTO  H210 1753   6.960   4.082   2.700 -0.4001  0.0588  0.9290
    5CHTO   O80 1754   6.596   4.116   2.544 -0.0943  0.1879  0.0408
    5CHTO  C103 1755   6.524   4.040   2.434 -0.0423 -0.4233 -0.2888
    5CHTO  H190 1756   6.497   4.099   2.347 -0.6820 -0.8262 -0.3656
    5CHTO  C101 1757   6.594   3.911   2.378  0.5167 -0.2461  1.1009
    5CHTO  H188 1758   6.619   3.851   2.466  1.0257  0.5086  1.4772
    5CHTO   O68 1759   6.715   3.944   2.310 -0.2087 -0.5645 -0.0325
    5CHTO  H168 1760   6.709   3.983   2.225 -0.9675  2.2047  1.2325
    5CHTO   C99 1761   6.500   3.835   2.282  0.0546  0.0529  0.3947
    5CHTO  H186 1762   6.477   3.908   2.202  1.1350 -0.3139 -0.2581
    5CHTO   N17 1763   6.551   3.713   2.214  0.0745 -0.3798 -0.8875
    5CHTO  H174 1764   6.477   3.679   2.143 -0.9302  0.3203 -0.1987
    5CHTO  H175 1765   6.639   3.743   2.160  2.6267 -3.6118  1.3165
    5CHTO   C97 1766   6.364   3.800   2.350  0.3960  0.0750 -0.0221
    5CHTO  H184 1767   6.380   3.725   2.429 -0.5857 -1.7936 -1.5599
    5CHTO   O64 1768   6.308   3.924   2.401 -0.2403  0.3276 -0.1532
    5CHTO  C104 1769   6.387   3.982   2.500 -0.2497  0.0118 -0.4470
    5CHTO  H191 1770   6.417   3.910   2.576 -0.1294  0.7137  0.1693
    5CHTO  C108 1771   6.306   4.085   2.570 -0.2512  0.1472  0.7878
    5CHTO   O71 1772   6.194   4.032   2.644 -0.3190 -0.2964  0.4531
    5CHTO  H171 1773   6.144   3.977   2.586  1.8143  0.5196 -2.2520
    5CHTO   O62 1774   6.258   3.751   2.259 -0.0845  0.5298  0.3883
    5CHTO   C91 1775   6.145   3.681   2.319 -0.4286 -0.2964  0.6950
    5CHTO  H178 1776   6.149   3.690   2.427 -1.3069  0.7139  0.6436
    5CHTO   C92 1777   6.156   3.523   2.291 -0.1833  0.3613  0.5434
    5CHTO  H179 1778   6.164   3.506   2.182 -0.0905 -1.4871  0.8317
    5CHTO   O66 1779   6.281   3.482   2.355  0.8033  0.1007  0.0467
    5CHTO  H166 1780   6.289   3.388   2.351 -2.8921 -0.2618 -1.3729
    5CHTO   C93 1781   6.038   3.440   2.343  0.1930  0.0456 -0.4585
    5CHTO  H180 1782   6.039   3.433   2.453 -1.0089  1.2064 -0.3660
    5CHTO   N16 1783   6.041   3.297   2.299  0.0976  0.4927 -0.2253
    5CHTO  H172 1784   5.944   3.258   2.270  0.3170 -1.0997  1.0998
    5CHTO  H173 1785   6.122   3.282   2.230  0.8784  1.1646  0.5321
    5CHTO   C94 1786   5.907   3.511   2.300 -0.2602  0.7105  0.9967
    5CHTO  H181 1787   5.903   3.522   2.191  1.2025  0.2313  0.8856
    5CHTO   O61 1788   5.906   3.643   2.344 -0.6157 -0.0371 -0.2534
    5CHTO   C95 1789   6.000   3.731   2.287 -0.2860 -0.4392  0.3080
    5CHTO  H182 1790   5.993   3.730   2.179  0.9842  2.2048  0.1489
    5CHTO  C106 1791   5.970   3.879   2.352  0.8715  0.1398  0.1076
    5CHTO   O69 1792   5.999   3.888   2.488 -0.3672 -0.2233  0.1455
    5CHTO  H169 1793   5.983   3.806   2.531 -1.3185 -0.2120 -0.1935
    5CHTO   O63 1794   5.782   3.447   2.355  0.2897  0.1547 -0.1023
    5CHTO   C96 1795   5.693   3.377   2.240  0.6320  0.4218 -0.3507
    5CHTO  H183 1796   5.765   3.339   2.167 -0.2990 -0.0081 -1.0555
    5CHTO   C98 1797   5.597   3.473   2.172  0.2140  0.3226  0.0577
    5CHTO  H185 1798   5.541   3.525   2.251 -1.2903  0.5749 -1.1723
    5CHTO   O67 1799   5.663   3.582   2.100 -0.8701 -0.3727  0.0501
    5CHTO  H167 1800   5.626   3.667   2.115 -1.2500 -0.7147  1.0743
    5CHTO  C102 1801   5.492   3.397   2.069 -1.0664 -0.1776  0.2172
    5CHTO  H189 1802   5.545   3.394   1.972 -1.9910  0.7038 -0.3229
    5CHTO   N18 1803   5.369   3.478   2.035  0.0202  0.0816 -0.7494
    5CHTO  H176 1804   5.303   3.425   1.969  1.0558 -2.7497  0.4118
    5CHTO  H177 1805   5.301   3.502   2.116  0.7542 -0.0941 -0.0685
    5CHTO  C105 1806   5.460   3.253   2.111 -0.1597  0.7959 -0.5411
    5CHTO  H192 1807   5.367   3.256   2.169  0.3124  2.8286  0.1568
    5CHTO   O65 1808   5.554   3.181   2.190  0.1014 -0.2952  0.1414
    5CHTO  C100 1809   5.612   3.256   2.300 -0.1221 -0.0903 -0.3202
    5CHTO  H187 1810   5.529   3.290   2.364  0.5186  0.1033  0.4092
    5CHTO  C107 1811   5.695   3.159   2.397 -0.0905  0.4801  0.2829
    5CHTO   O70 1812   5.653   3.024   2.405 -0.2668  0.7032  0.6181
    5CHTO  H170 1813   5.571   3.023   2.451 -0.3837  0.7507  0.4102
    5CHTO   O57 1814   5.450   3.179   1.966 -0.7166  0.0524  0.3962
    5CHTO   C85 1815   5.359   3.073   1.940  0.0770 -0.0055  0.9361
    5CHTO  H157 1816   5.266   3.105   1.993 -0.1077 -0.6283  0.9943
    5CHTO   C83 1817   5.415   2.942   2.000 -0.1105  0.2278  0.2826
    5CHTO  H155 1818   5.426   2.948   2.108 -1.5987 -0.0263  0.4626
    5CHTO   O56 1819   5.553   2.938   1.955  0.1505 -0.0271 -0.3584
    5CHTO  H135 1820   5.587   2.871   2.011  0.3660  1.2161  1.0312
    5CHTO   C81 1821   5.325   2.819   1.955 -0.0563 -0.2963 -0.9415
    5CHTO  H153 1822   5.220   2.843   1.969  0.1913  0.1471  0.2919
    5CHTO   N14 1823   5.351   2.695   2.035  0.2644  0.0169  0.3932
    5CHTO  H141 1824   5.423   2.636   1.982  1.4174 -0.6489  2.6456
    5CHTO  H142 1825   5.393   2.724   2.129 -1.9598 -1.1030  1.7763
    5CHTO   C79 1826   5.338   2.798   1.800 -0.0472  0.0823  1.3086
    5CHTO  H151 1827   5.268   2.718   1.778  0.6763 -0.0549 -0.6112
    5CHTO   O52 1828   5.287   2.923   1.732 -0.3227  0.3652  0.5524
    5CHTO   C86 1829   5.339   3.052   1.786  0.6792  0.4795 -0.2266
    5CHTO  H158 1830   5.437   3.058   1.734  0.3966 -0.3844 -0.8798
    5CHTO   C90 1831   5.258   3.168   1.729 -0.0100 -0.1218  0.5484
    5CHTO   O60 1832   5.119   3.151   1.755  0.2634 -0.2045  0.6299
    5CHTO  H138 1833   5.088   3.222   1.809  1.0196  2.1462 -1.9120
    5CHTO   O50 1834   5.473   2.775   1.757  0.1220  0.1911 -0.5533
    5CHTO   C73 1835   5.543   2.700   1.659 -0.7837 -0.4609 -0.0276
    5CHTO  H145 1836   5.480   2.682   1.571 -0.0573 -0.1259 -0.6228
    5CHTO   C74 1837   5.584   2.562   1.707  0.7460 -0.4908 -0.6353
    5CHTO  H146 1838   5.493   2.506   1.734 -0.4623  0.0969 -3.2303
    5CHTO   O54 1839   5.636   2.486   1.599  0.6642 -0.2162 -0.4213
    5CHTO  H133 1840   5.569   2.468   1.536  0.8257 -0.4919 -0.5174
    5CHTO   C75 1841   5.687   2.568   1.828  0.3632  0.2684  0.7125
    5CHTO  H147 1842   5.634   2.611   1.914 -1.6208  0.7576 -0.7211
    5CHTO   N13 1843   5.743   2.442   1.877 -0.5224 -0.1906  0.0686
    5CHTO  H139 1844   5.785   2.375   1.804  0.1170  1.7613 -1.4031
    5CHTO  H140 1845   5.673   2.390   1.942 -1.3458 -0.4319 -0.9993
    5CHTO   C76 1846   5.808   2.672   1.793 -0.1585 -0.4000 -0.4464
    5CHTO  H148 1847   5.882   2.627   1.727  0.3737  0.8814 -0.7400
    5CHTO   O49 1848   5.751   2.801   1.735  0.2204  0.6999 -0.4436
    5CHTO   C77 1849   5.682   2.770   1.614  0.0883 -0.3952  0.1664
    5CHTO  H149 1850   5.738   2.710   1.542  0.7052  0.3638  0.0078
    5CHTO   C88 1851   5.638   2.901   1.550 -0.2277  0.0785  1.1018
    5CHTO   O58 1852   5.551   2.873   1.403 -0.2794 -0.2721 -0.8049
    5CHTO  H136 1853   5.596   2.798   1.369  0.7358  0.4244 -1.0326
    5CHTO   O51 1854   5.879   2.719   1.953  0.3386 -0.0285 -0.6097
    5CHTO   C78 1855   6.020   2.797   1.929  0.1465 -0.7483  0.3078
    5CHTO  H150 1856   6.015   2.853   1.834  1.0215 -0.9595  0.1375
    5CHTO   C80 1857   6.143   2.705   1.930 -0.6242  0.4635 -0.3097
    5CHTO  H152 1858   6.149   2.660   2.031  0.5671  0.6019 -0.3116
    5CHTO   O55 1859   6.130   2.607   1.822  0.1256  0.2288 -0.1833
    5CHTO  H134 1860   6.064   2.543   1.840 -0.1760  0.4317 -0.5593
    5CHTO   C84 1861   6.269   2.802   1.901 -0.1808  0.5497 -0.3458
    5CHTO  H156 1862   6.259   2.848   1.803 -1.8143  0.2865 -0.3115
    5CHTO   N15 1863   6.401   2.727   1.900  0.2166 -0.5686  0.0780
    5CHTO  H143 1864   6.398   2.648   1.828  1.3184  0.3645 -1.0181
    5CHTO  H144 1865   6.431   2.692   1.996  0.1420  0.5113  0.5056
    5CHTO   C87 1866   6.268   2.918   2.000 -0.7188  0.1561  0.5680
    5CHTO  H159 1867   6.294   2.874   2.097 -0.7789 -1.7293 -0.2407
    5CHTO   O53 1868   6.125   2.990   1.999  0.3772 -0.2999  0.3619
    5CHTO   C82 1869   6.023   2.904   2.039 -0.0471 -0.3710 -0.3829
    5CHTO  H154 1870   6.047   2.856   2.133  1.9235 -0.5502 -0.9583
    5CHTO   C89 1871   5.888   2.983   2.062  0.3456  0.4322 -0.5206
    5CHTO   O59 1872   5.827   3.022   1.930 -0.4485  0.1661 -0.1462
    5CHTO  H137 1873   5.857   3.107   1.903  1.8646 -1.3972 -2.9246
    5CHTO   O45 1874   6.389   3.040   1.966  0.2832 -0.2465 -0.0357
    5CHTO   C67 1875   6.474   3.059   2.083  0.0084 -0.2412 -0.3229
    5CHTO  H124 1876   6.423   3.068   2.179  0.2038 -0.4964 -0.1934
    5CHTO   C65 1877   6.577   2.945   2.099  0.3212 -0.2501  0.2919
    5CHTO  H122 1878   6.581   2.894   2.003 -1.1479 -4.3413  2.2796
    5CHTO   O44 1879   6.531   2.857   2.199  0.3303 -0.0677 -0.3144
    5CHTO  H102 1880   6.500   2.899   2.277  0.3842 -1.2255  0.3461
    5CHTO   C63 1881   6.730   2.997   2.119 -0.9279 -0.4158 -0.1215
    5CHTO  H120 1882   6.765   3.039   2.025  0.2785 -0.3849  0.3324
    5CHTO   N11 1883   6.836   2.896   2.149  0.7178  0.4582  0.5185
    5CHTO  H108 1884   6.937   2.932   2.140  0.5116  0.9190  0.0423
    5CHTO  H109 1885   6.814   2.795   2.122  0.0079  0.4731  1.0251
    5CHTO   C61 1886   6.724   3.122   2.214  0.4153 -0.2283 -0.4650
    5CHTO  H118 1887   6.828   3.153   2.228 -0.3440  2.4170 -0.4627
    5CHTO   O40 1888   6.650   3.232   2.157 -0.0129  1.4387 -0.2624
    5CHTO   C68 1889   6.544   3.199   2.066  0.9610 -0.2803  0.0743
    5CHTO  H125 1890   6.578   3.197   1.960 -0.8967  0.9791 -0.5736
    5CHTO   C72 1891   6.445   3.318   2.072 -1.1150 -0.6374  0.4292
    5CHTO   O48 1892   6.488   3.442   2.009  0.2481  0.2446  0.2674
    5CHTO  H105 1893   6.532   3.420   1.929  0.6962  0.9871  0.2995
    5CHTO   O38 1894   6.660   3.092   2.340  0.1347  0.4831  0.2020
    5CHTO   C55 1895   6.601   3.182   2.430 -0.2819  0.1613  0.0858
    5CHTO  H112 1896   6.518   3.236   2.381  0.5374 -0.8756 -2.5610
    5CHTO   C56 1897   6.712   3.279   2.485 -0.6283  0.1228 -0.8039
    5CHTO  H113 1898   6.794   3.220   2.529 -1.0905 -0.8539 -1.2511
    5CHTO   O42 1899   6.754   3.365   2.381 -0.1034  0.2102  0.4420
    5CHTO  H100 1900   6.692   3.432   2.358 -1.0042 -1.0565 -0.9536
    5CHTO   C57 1901   6.655   3.361   2.604  0.9986  0.0147 -0.3719
    5CHTO  H114 1902   6.587   3.431   2.556  1.8710  1.6738  0.7929
    5CHTO   N10 1903   6.757   3.434   2.682 -0.7729  0.2940  0.0967
    5CHTO  H106 1904   6.828   3.481   2.615  1.5956 -0.7744  1.7856
    5CHTO  H107 1905   6.704   3.508   2.740  0.9171  1.3478  0.3400
    5CHTO   C58 1906   6.571   3.272   2.703  0.4506 -0.3179  0.7541
    5CHTO  H115 1907   6.638   3.208   2.764 -1.2933 -1.3306  1.6140
    5CHTO   O37 1908   6.481   3.180   2.639  0.5801  0.4324  0.1997
    5CHTO   C59 1909   6.547   3.100   2.550  0.6585  0.1453 -0.0420
    5CHTO  H116 1910   6.613   3.031   2.601 -1.6203 -2.5773 -0.6658
    5CHTO   C70 1911   6.443   3.002   2.484 -0.9477  0.5866  0.1483
    5CHTO   O46 1912   6.391   2.918   2.587  0.0630  0.5444  0.3776
    5CHTO  H103 1913   6.342   2.849   2.547 -0.6668  1.5975 -0.5481
    5CHTO   O39 1914   6.480   3.378   2.800  0.1162 -0.1526 -0.1108
    5CHTO   C60 1915   6.344   3.392   2.759  0.1718  0.2902  0.9477
    5CHTO  H117 1916   6.327   3.374   2.653  2.4964 -0.0588  0.6102
    5CHTO   C62 1917   6.247   3.290   2.826 -0.5899 -0.5076 -0.1879
    5CHTO  H119 1918   6.280   3.191   2.786 -1.4481 -1.1809  0.7422
    5CHTO   O43 1919   6.269   3.305   2.967 -0.3648 -0.1214  0.1759
    5CHTO  H101 1920   6.205   3.269   3.026  0.5732  0.2993  1.4607
    5CHTO   C66 1921   6.095   3.299   2.773 -0.3488  0.4151  0.4006
    5CHTO  H123 1922   6.092   3.289   2.665 -2.9577  2.5508  0.2133
    5CHTO   N12 1923   6.013   3.191   2.819 -0.7420 -0.5828 -0.4222
    5CHTO  H110 1924   6.068   3.099   2.827 -1.4601 -0.9700  0.0782
    5CHTO  H111 1925   5.919   3.173   2.768 -1.3440  0.9249  0.1067
    5CHTO   C69 1926   6.034   3.440   2.806  0.2201  0.6562 -0.3105
    5CHTO  H126 1927   6.040   3.450   2.916  2.1058 -0.2625 -0.3022
    5CHTO   O41 1928   6.140   3.548   2.734 -0.4532  0.0747  0.4867
    5CHTO   C64 1929   6.288   3.536   2.786  0.0762 -0.0326  0.5665
    5CHTO  H121 1930   6.286   3.561   2.894  1.0983 -1.2888  0.8897
    5CHTO   C71 1931   6.378   3.632   2.716 -0.3020  0.4074  0.0979
    5CHTO   O47 1932   6.359   3.760   2.771  0.3502 -0.0519  0.4678
    5CHTO  H104 1933   6.407   3.772   2.850  1.4919  1.9977 -0.5139
    5CHTO   O34 1934   5.894   3.457   2.751 -0.4032 -1.0578  0.0486
    5CHTO   C49 1935   5.823   3.569   2.830 -0.4178  0.1759 -0.4692
    5CHTO   H91 1936   5.853   3.570   2.935  0.3000 -1.1628 -0.6461
    5CHTO   C47 1937   5.672   3.532   2.819  1.1131 -0.4593 -0.6554
    5CHTO   H89 1938   5.619   3.601   2.887 -0.5688 -1.4780 -0.9256
    5CHTO   O33 1939   5.668   3.397   2.875  0.1085  0.0267  0.2196
    5CHTO   H70 1940   5.675   3.335   2.804 -0.4055 -0.6267  0.7346
    5CHTO   C45 1941   5.612   3.563   2.672  0.0165  0.4893 -0.1099
    5CHTO   H87 1942   5.670   3.498   2.605 -1.4324 -1.0426  0.0682
    5CHTO    N8 1943   5.467   3.522   2.666 -0.6359 -0.1226  0.1471
    5CHTO   H75 1944   5.436   3.517   2.563  0.6980 -1.1874 -0.2270
    5CHTO   H76 1945   5.404   3.579   2.732  1.3158  1.1048  0.9808
    5CHTO   C43 1946   5.639   3.714   2.633  0.2390 -0.1346 -0.0350
    5CHTO   H85 1947   5.606   3.725   2.530  0.6581  2.1389  0.0526
    5CHTO   O29 1948   5.776   3.749   2.645 -0.0117  0.2948 -0.2686
    5CHTO   C50 1949   5.839   3.712   2.768 -0.7102 -0.1538  0.3797
    5CHTO   H92 1950   5.948   3.701   2.760 -0.7969 -2.0331  1.4799
    5CHTO   C54 1951   5.825   3.823   2.871  0.4547 -0.1534 -0.6582
    5CHTO   O36 1952   5.896   3.948   2.837 -0.7357 -0.4132  0.6247
    5CHTO   H72 1953   5.926   3.995   2.912  0.0433  2.9796 -1.7030
    5CHTO   O27 1954   5.561   3.808   2.709 -0.1869  0.1594 -0.0009
    5CHTO   C37 1955   5.463   3.889   2.767  0.2038 -0.2600  0.1267
    5CHTO   H79 1956   5.502   3.990   2.788 -1.6102  0.8560 -1.6866
    5CHTO   C38 1957   5.342   3.881   2.660 -0.2628  0.1836 -0.7362
    5CHTO   H80 1958   5.342   3.783   2.610  0.9876 -0.8120  1.1334
    5CHTO   O31 1959   5.376   3.982   2.561  0.3474  0.3597  0.6678
    5CHTO   H68 1960   5.375   4.069   2.598 -0.9735 -0.0270  1.5764
    5CHTO   C39 1961   5.202   3.912   2.729  0.1447  0.3776  0.3174
    5CHTO   H81 1962   5.195   4.020   2.738 -0.2559  0.2369  1.6595
    5CHTO    N7 1963   5.082   3.877   2.638 -0.4514  0.1812 -0.3179
    5CHTO   H73 1964   5.027   3.967   2.614  1.8130  1.2888 -1.5130
    5CHTO   H74 1965   5.100   3.817   2.551  1.0143 -1.2822  0.9590
    5CHTO   C40 1966   5.181   3.854   2.870 -0.2058 -0.3197  0.2340
    5CHTO   H82 1967   5.160   3.747   2.874 -1.9408 -0.0608 -1.5233
    5CHTO   O26 1968   5.299   3.884   2.946 -1.0445 -0.4505  0.0632
    5CHTO   C41 1969   5.417   3.826   2.897 -0.1375  0.1296 -0.0712
    5CHTO   H83 1970   5.408   3.718   2.879 -1.8356  0.2060  0.2916
    5CHTO   C52 1971   5.522   3.855   3.009 -0.4477  0.1880 -0.2045
    5CHTO   O35 1972   5.533   3.731   3.106  0.0582 -0.3611  0.3847
    5CHTO   H71 1973   5.570   3.658   3.059 -1.1455  0.8746 -2.6060
    5CHTO   O28 1974   5.077   3.927   2.944 -0.1282  1.1858 -0.4825
    5CHTO   C42 1975   5.061   3.923   3.089  0.0929 -0.4811  0.2926
    5CHTO   H84 1976   4.962   3.966   3.105  0.2601  0.1969 -0.4495
    5CHTO   C44 1977   5.147   4.015   3.174 -0.0812  1.2367 -0.3743
    5CHTO   H86 1978   5.252   4.002   3.146  0.1462 -2.0477  1.6996
    5CHTO   O32 1979   5.100   4.147   3.148  0.1990 -0.4236 -0.0226
    5CHTO   H69 1980   5.136   4.186   3.070 -0.0612 -0.2422 -0.0541
    5CHTO   C48 1981   5.147   3.979   3.331 -0.3361 -0.1913  0.0449
    5CHTO   H90 1982   5.051   4.003   3.375 -0.3456  0.0495 -0.1063
    5CHTO    N9 1983   5.254   4.053   3.406  0.3065 -0.1215  0.1026
    5CHTO   H77 1984   5.353   4.045   3.363  0.4899 -0.7719  0.6390
    5CHTO   H78 1985   5.248   4.052   3.514 -3.1644  3.1242  0.0483
    5CHTO   C51 1986   5.172   3.831   3.344  0.2605  0.2003  0.0011
    5CHTO   H93 1987   5.260   3.801   3.287  0.0241 -0.0459 -0.2364
    5CHTO   O30 1988   5.056   3.775   3.287  0.0253 -0.2286  0.0478
    5CHTO   C46 1989   5.051   3.775   3.148 -0.4236  0.5983  0.6824
    5CHTO   H88 1990   5.136   3.717   3.112 -0.2941  2.0325 -1.4107
    5CHTO   C53 1991   4.921   3.695   3.111  0.4215 -0.1593 -1.0134
    5CHTO   O72 1992   4.887   3.721   2.973 -0.9677 -0.2065 -0.1443
    5CHTO  H199 1993   4.797   3.702   2.954 -1.6097  1.7688  0.7951
    5CHTO   O22 1994   5.172   3.777   3.479 -0.2859  0.0380 -0.1048
    5CHTO   C31 1995   5.221   3.643   3.504  0.0181  0.1801 -0.4544
    5CHTO   H59 1996   5.205   3.625   3.613 -1.2410 -0.8161 -0.7836
    5CHTO   C29 1997   5.150   3.534   3.427  0.3718 -0.0102 -0.3114
    5CHTO   H57 1998   5.148   3.559   3.320  1.5806 -1.5340 -0.7056
    5CHTO   O21 1999   5.018   3.539   3.477 -0.4605 -0.5997  0.0878
    5CHTO   H37 2000   4.950   3.567   3.419  1.1311 -0.2404 -1.6520
    5CHTO   C27 2001   5.211   3.391   3.446 -0.0070  0.4806  0.0388
    5CHTO   H55 2002   5.199   3.358   3.550  3.5224 -2.5007 -0.3936
    5CHTO    N5 2003   5.165   3.288   3.354  0.0399  0.0810 -0.5570
    5CHTO   H43 2004   5.227   3.199   3.359 -0.2735 -0.2221 -1.7727
    5CHTO   H44 2005   5.066   3.256   3.381  0.1228  0.0628 -0.2744
    5CHTO   C25 2006   5.370   3.393   3.423 -0.8136 -0.2420 -0.1654
    5CHTO   H53 2007   5.401   3.431   3.324 -2.2379  1.2569 -0.0420
    5CHTO   O17 2008   5.435   3.492   3.504 -0.1697 -0.3905 -0.1211
    5CHTO   C32 2009   5.380   3.627   3.483 -0.1666 -0.4486  0.3023
    5CHTO   H60 2010   5.396   3.641   3.376 -0.1891 -1.8426  0.1055
    5CHTO   C36 2011   5.449   3.726   3.568 -0.6866 -0.6923  0.3062
    5CHTO   O25 2012   5.590   3.728   3.550 -0.6723  0.4761  0.1727
    5CHTO   H40 2013   5.636   3.658   3.592 -0.3922 -0.6437 -1.9497
    5CHTO   O15 2014   5.439   3.244   3.462  0.0556 -0.4566 -0.4767
    5CHTO   C19 2015   5.569   3.197   3.488 -0.7297 -0.4560 -0.4225
    5CHTO   H47 2016   5.601   3.278   3.554 -1.3279  0.6873 -1.5063
    5CHTO   C20 2017   5.569   3.056   3.551  0.3645  0.0301  0.2233
    5CHTO   H48 2018   5.526   2.981   3.483 -0.8984 -0.8227  1.9214
    5CHTO   O19 2019   5.487   3.063   3.670  0.3491 -0.2980 -0.2470
    5CHTO   H35 2020   5.489   2.982   3.717 -0.2399 -0.5442 -0.6539
    5CHTO   C21 2021   5.714   2.996   3.580 -0.0968  0.4174 -0.3588
    5CHTO   H49 2022   5.755   3.044   3.668 -1.3176 -0.0811  0.4968
    5CHTO    N4 2023   5.708   2.847   3.602  0.5743 -0.0695 -0.2808
    5CHTO   H41 2024   5.808   2.813   3.624  0.8258 -0.6836 -2.2548
    5CHTO   H42 2025   5.640   2.824   3.683  1.1888 -1.2360 -0.0974
    5CHTO   C22 2026   5.818   3.035   3.472 -0.4318  0.9190  0.1423
    5CHTO   H50 2027   5.799   2.969   3.388  2.0862  0.3116  0.0157
    5CHTO   O14 2028   5.793   3.166   3.427  0.3560 -0.9067  0.2452
    5CHTO   C23 2029   5.667   3.193   3.376 -0.6454  0.2926  0.1893
    5CHTO   H51 2030   5.642   3.111   3.307 -2.9876 -0.7022  2.1539
    5CHTO   C34 2031   5.668   3.321   3.302  0.2966 -0.0030 -0.2007
    5CHTO   O23 2032   5.713   3.436   3.377 -0.8237  0.4590  0.1520
    5CHTO   H38 2033   5.805   3.430   3.393 -0.9938 -1.7730  0.3908
    5CHTO   O16 2034   5.953   3.022   3.522  0.3184  0.2264 -0.0222
    5CHTO   C24 2035   6.059   2.970   3.434  0.4863  0.0683 -0.4757
    5CHTO   H52 2036   6.023   2.944   3.335 -1.0278 -1.4850  0.4651
    5CHTO   C26 2037   6.136   2.839   3.489 -0.1862  0.0726  0.3746
    5CHTO   H54 2038   6.168   2.860   3.594  0.4962  1.2259 -0.0587
    5CHTO   O20 2039   6.039   2.728   3.511 -0.1213 -0.0773  0.0318
    5CHTO   H36 2040   5.983   2.731   3.587 -0.3415 -1.6664 -0.0547
    5CHTO   C30 2041   6.266   2.800   3.417  0.2651  0.1605  0.3655
    5CHTO   H58 2042   6.242   2.754   3.320 -0.4599 -0.2886  0.7550
    5CHTO    N6 2043   6.346   2.695   3.493  0.0804  0.0896  0.0769
    5CHTO   H45 2044   6.415   2.760   3.544  0.2803  1.3413 -1.7613
    5CHTO   H46 2045   6.401   2.630   3.426 -0.5679  0.0388 -0.4138
    5CHTO   C33 2046   6.349   2.934   3.392  0.4181  0.1461  0.4402
    5CHTO   H61 2047   6.379   2.973   3.490  0.9135  0.1891  0.2711
    5CHTO   O18 2048   6.268   3.035   3.327 -0.9239  0.3916  0.2159
    5CHTO   C28 2049   6.166   3.078   3.409 -0.5760 -0.1915 -0.5686
    5CHTO   H56 2050   6.216   3.104   3.503  0.4287  1.0625 -1.4374
    5CHTO   C35 2051   6.109   3.208   3.359 -0.3916  0.0368  0.6181
    5CHTO   O24 2052   6.039   3.208   3.228 -0.2979  0.4415 -0.4544
    5CHTO   H39 2053   5.962   3.160   3.252 -0.3386  1.1070  0.7876
    5CHTO    O9 2054   6.471   2.914   3.320  0.8163  0.7384 -0.9449
    5CHTO   C13 2055   6.459   2.860   3.168 -0.0094  0.7319  0.3249
    5CHTO   H26 2056   6.363   2.805   3.160  1.0701 -1.4808  2.0367
    5CHTO   C11 2057   6.584   2.760   3.149  0.2039  0.8484  0.0591
    5CHTO   H24 2058   6.554   2.682   3.221 -2.4840  1.4515 -0.3213
    5CHTO    O8 2059   6.711   2.823   3.194 -0.7473  0.0644  0.2758
    5CHTO    H3 2060   6.753   2.763   3.253 -0.0755 -1.3143 -1.5359
    5CHTO    C9 2061   6.579   2.708   3.010  0.4141 -0.0115 -0.4130
    5CHTO   H22 2062   6.475   2.675   2.992  0.5631 -0.6393 -0.1330
    5CHTO    N2 2063   6.660   2.587   2.988  0.1271 -0.1480 -0.1271
    5CHTO   H10 2064   6.653   2.560   2.884  0.2875 -0.7756  0.0225
    5CHTO   H11 2065   6.626   2.509   3.053 -0.6590  2.3457  2.5545
    5CHTO    C7 2066   6.603   2.817   2.913 -0.4947 -0.0334  0.0621
    5CHTO   H20 2067   6.592   2.777   2.810  2.0540 -1.7191  0.4038
    5CHTO    O4 2068   6.502   2.920   2.929  0.7903  0.0112  0.5150
    5CHTO   C14 2069   6.469   2.978   3.057  0.0362  0.5588  0.4759
    5CHTO   H27 2070   6.368   3.023   3.047 -0.3218 -0.5360 -1.1321
    5CHTO   C18 2071   6.570   3.086   3.089  0.1130  0.7229 -0.1016
    5CHTO   O13 2072   6.540   3.212   3.025  0.7888  0.2554 -0.1309
    5CHTO    H7 2073   6.533   3.289   3.077 -0.6340 -0.5604  0.9050
    5CHTO    O2 2074   6.759   2.887   2.916  0.1564 -0.3262 -0.2095
    5CHTO    C1 2075   6.813   2.935   2.791  0.0610  0.0921  0.5908
    5CHTO   H14 2076   6.748   3.014   2.749  3.5474  1.5315 -2.3779
    5CHTO    C2 2077   6.849   2.826   2.687  0.8203 -1.0199 -0.5300
    5CHTO   H15 2078   6.891   2.747   2.751  1.2652 -0.7004 -0.4275
    5CHTO    O6 2079   6.734   2.780   2.613  0.2255 -0.1201  0.1979
    5CHTO    H1 2080   6.728   2.687   2.617 -1.1204 -0.0593 -0.4734
    5CHTO    C3 2081   6.965   2.861   2.580 -0.1062  0.2528 -0.2505
    5CHTO   H16 2082   6.919   2.923   2.501 -0.4862  0.7769  0.3721
    5CHTO    N1 2083   7.013   2.729   2.513  0.6108  0.2046  0.0036
    5CHTO    H8 2084   6.924   2.683   2.474  0.1297  0.0235  1.2865
    5CHTO    H9 2085   7.103   2.743   2.454  0.8761 -0.0148  0.3517
    5CHTO    C4 2086   7.082   2.944   2.644  0.7940 -0.1719  0.4115
    5CHTO   H17 2087   7.130   2.884   2.721  0.6176 -1.9684 -0.8628
    5CHTO    O1 2088   7.016   3.057   2.703 -0.5074 -0.3613 -0.2863
    5CHTO    C5 2089   6.945   3.022   2.824 -0.2131 -0.1989  1.0616
    5CHTO   H18 2090   7.008   2.969   2.895 -1.7098 -2.3945  0.8213
    5CHTO   C16 2091   6.912   3.157   2.878 -0.1829  0.4441  0.1404
    5CHTO   O11 2092   7.016   3.228   2.945  0.2820  0.0752  0.1700
    5CHTO    H5 2093   7.058   3.175   3.010 -1.0452 -2.5889 -1.0661
    5CHTO    O3 2094   7.182   2.979   2.549  0.3627  0.1139  0.4910
    5CHTO    C6 2095   7.308   3.029   2.607  0.1730 -0.3717  0.1694
    5CHTO   H19 2096   7.327   3.004   2.711 -2.9405 -0.6795  0.7047
    5CHTO    C8 2097   7.416   2.954   2.522  0.0801  0.6037 -0.6065
    5CHTO   H21 2098   7.398   2.972   2.416  2.2846 -1.1669 -1.3177
    5CHTO    O7 2099   7.407   2.812   2.547  0.4015 -0.0775 -0.4399
    5CHTO    H2 2100   7.335   2.768   2.506  0.0730 -0.0480  0.1123
    5CHTO   C12 2101   7.557   3.008   2.547  0.3163 -0.2388  0.3783
    5CHTO   H25 2102   7.571   2.982   2.654 -1.0412 -0.8273  0.4093
    5CHTO    N3 2103   7.667   2.945   2.460 -0.1864 -0.4146 -0.5299
    5CHTO   H12 2104   7.748   2.897   2.512 -0.5497 -0.3109  0.1379
    5CHTO   H13 2105   7.618   2.879   2.389  1.0284 -2.1056  0.1761
    5CHTO   C15 2106   7.554   3.161   2.530 -0.4942 -0.1779  0.2337
    5CHTO   H28 2107   7.537   3.201   2.430 -0.2296 -1.6691 -0.4170
    5CHTO   O10 2108   7.673   3.236   2.593 -0.2457  0.0835  0.1812
    5CHTO    H4 2109   7.707   3.297   2.530 -0.5352 -0.9326 -0.9650
    5CHTO    O5 2110   7.462   3.225   2.620  0.1108  0.2119 -0.0265
    5CHTO   C10 2111   7.328   3.184   2.587  0.1808  0.2638 -0.2381
    5CHTO   H23 2112   7.306   3.221   2.487  1.1186  1.3336 -0.0532
    5CHTO   C17 2113   7.246   3.276   2.685  0.0379 -0.0858  0.3566
    5CHTO   O12 2114   7.278   3.416   2.665 -0.2085 -0.1746  0.0811
    5CHTO    H6 2115   7.354   3.434   2.716 -1.5149  0.2688  1.9333
    6CHTO  H203 2116   5.312   4.566   0.236 -2.5665 -0.7539 -1.4709
    6CHTO   O82 2117   5.280   4.604   0.316  0.4767  0.2360 -0.6741
    6CHTO  C123 2118   5.329   4.737   0.343  0.3745  0.1491 -0.0776
    6CHTO  H227 2119   5.381   4.772   0.253  0.1767 -1.3949 -0.7998
    6CHTO   O77 2120   5.215   4.823   0.359 -0.1250  0.0179 -0.1139
    6CHTO  C118 2121   5.247   4.955   0.410  0.5541 -0.5379  0.5696
    6CHTO  H222 2122   5.307   5.009   0.336 -0.7265 -0.2364 -0.2531
    6CHTO  C125 2123   5.115   5.043   0.431  0.3489  0.6304  0.7991
    6CHTO   O84 2124   5.013   5.052   0.327 -0.2539 -0.1470  0.0217
    6CHTO  H205 2125   5.059   5.097   0.258  1.1062 -0.7711  0.4999
    6CHTO  C114 2126   5.330   4.956   0.544  0.0139 -0.1600  0.5203
    6CHTO  H218 2127   5.270   4.915   0.625 -1.0686  1.1322  0.3998
    6CHTO  C116 2128   5.461   4.891   0.513 -0.0465 -0.0707 -0.3882
    6CHTO  H220 2129   5.513   4.935   0.425  1.4841 -0.3514  0.3558
    6CHTO   O79 2130   5.555   4.916   0.624  0.2598  0.2037  0.3119
    6CHTO  H201 2131   5.638   4.874   0.609  0.4602 -0.1960  2.3163
    6CHTO  C120 2132   5.415   4.741   0.482 -0.7260  0.8267 -0.9804
    6CHTO  H224 2133   5.351   4.707   0.566  0.4404  1.6529  0.2764
    6CHTO   N21 2134   5.538   4.651   0.469  0.6955 -0.6351 -0.2108
    6CHTO  H211 2135   5.583   4.641   0.372  3.1378 -3.4988  1.1423
    6CHTO  H212 2136   5.507   4.555   0.508 -0.8332  0.3582  1.1107
    6CHTO   O75 2137   5.346   5.098   0.568 -0.2834  0.3996  0.7383
    6CHTO  C112 2138   5.341   5.145   0.715  0.2996 -0.2769  0.5794
    6CHTO  H216 2139   5.375   5.064   0.781  0.2458 -0.8122 -0.0402
    6CHTO   O73 2140   5.205   5.181   0.743  0.1915 -1.1757  0.6624
    6CHTO  C113 2141   5.173   5.205   0.881  0.1266  0.2260 -0.1678
    6CHTO  H217 2142   5.208   5.133   0.958 -0.2993  1.7387  1.4972
    6CHTO  C124 2143   5.020   5.208   0.905 -0.0642  0.6431  0.3377
    6CHTO   O83 2144   4.965   5.082   0.867 -0.2542 -0.0701  0.8476
    6CHTO  H204 2145   4.883   5.097   0.825  0.3314 -0.4572 -0.4663
    6CHTO  C109 2146   5.236   5.346   0.900 -0.3901 -0.4868  0.6247
    6CHTO  H213 2147   5.183   5.415   0.832  2.0337 -0.5752 -1.4000
    6CHTO  C110 2148   5.387   5.342   0.862 -0.0617 -0.4393  0.3410
    6CHTO  H214 2149   5.439   5.296   0.946  0.9933 -0.1181 -0.1316
    6CHTO   O78 2150   5.439   5.473   0.879 -0.4618  0.0110  0.3550
    6CHTO  H200 2151   5.413   5.539   0.817  0.3755  1.0895  1.1299
    6CHTO  C111 2152   5.422   5.280   0.727 -0.5978  0.0996  0.6588
    6CHTO  H215 2153   5.396   5.346   0.643  2.4299  0.7794  0.1639
    6CHTO   N19 2154   5.570   5.250   0.714  0.0747  0.3018  0.1889
    6CHTO  H207 2155   5.608   5.230   0.614  1.7055  1.2772  0.5863
    6CHTO  H208 2156   5.619   5.196   0.794  0.9489  0.7425 -0.0331
    6CHTO   O74 2157   5.230   5.390   1.040 -0.7292 -0.3114 -0.4213
    6CHTO  C115 2158   5.184   5.542   1.062 -0.1557 -0.2158 -0.0117
    6CHTO  H219 2159   5.222   5.607   0.982 -0.3196  0.7268  0.6664
    6CHTO   O76 2160   5.015   5.553   1.048  0.1379  0.2921  0.2038
    6CHTO  C122 2161   4.944   5.493   1.157 -0.4614  0.1300 -0.1515
    6CHTO  H226 2162   4.908   5.399   1.116 -1.3997  1.0973 -1.5989
    6CHTO  C126 2163   4.809   5.573   1.188 -0.2920 -0.3539  0.2749
    6CHTO   O85 2164   4.717   5.506   1.272 -0.2782  0.7300  0.5787
    6CHTO  H206 2165   4.657   5.464   1.213  0.2891 -1.8454  1.7787
    6CHTO  C121 2166   5.020   5.476   1.293 -0.3520 -0.3031  0.1941
    6CHTO  H225 2167   4.947   5.471   1.376  0.2615  0.1769  0.7598
    6CHTO   O81 2168   5.082   5.350   1.303  0.5081 -0.0560 -0.3572
    6CHTO  H202 2169   5.103   5.332   1.213 -1.7369  2.8535 -1.5570
    6CHTO  C119 2170   5.116   5.601   1.309 -0.1932 -0.2808 -0.3945
    6CHTO  H223 2171   5.055   5.689   1.287 -2.1765 -1.5612 -0.1372
    6CHTO  C117 2172   5.234   5.593   1.203  0.0857 -0.6470  0.0993
    6CHTO  H221 2173   5.318   5.530   1.234 -0.1990 -0.9610  0.2343
    6CHTO   N20 2174   5.288   5.727   1.177 -0.4143 -0.1810 -0.0301
    6CHTO  H209 2175   5.298   5.779   1.271 -0.3801 -1.1059  0.4851
    6CHTO  H210 2176   5.216   5.780   1.116  1.0023  0.4618 -1.1584
    6CHTO   O80 2177   5.172   5.634   1.462 -0.6589  0.1612 -0.6980
    6CHTO  C103 2178   5.078   5.655   1.578 -0.6444  0.2375 -0.1127
    6CHTO  H190 2179   5.123   5.731   1.642  0.3736 -1.6914  1.5379
    6CHTO  C101 2180   4.935   5.697   1.554  0.3083 -0.5378 -0.4249
    6CHTO  H188 2181   4.894   5.641   1.471 -1.5578  1.9838 -1.2552
    6CHTO   O68 2182   4.932   5.847   1.504 -0.3839  0.5530  0.1606
    6CHTO  H168 2183   4.979   5.912   1.554  1.3189  0.7202 -1.6073
    6CHTO   C99 2184   4.844   5.680   1.684 -0.2170 -0.8406  0.1022
    6CHTO  H186 2185   4.875   5.750   1.764  0.4080 -1.0082  0.0124
    6CHTO   N17 2186   4.699   5.696   1.666 -0.4849 -0.5137 -0.0242
    6CHTO  H174 2187   4.655   5.603   1.632 -0.8590 -0.3809  0.0962
    6CHTO  H175 2188   4.656   5.737   1.757  0.8012 -0.2864  0.4919
    6CHTO   C97 2189   4.870   5.539   1.744  0.1828  0.3970  0.4726
    6CHTO  H184 2190   4.842   5.462   1.671  0.4551 -1.3398  2.1581
    6CHTO   O64 2191   5.007   5.533   1.777 -0.0188  0.1079  0.0987
    6CHTO  C104 2192   5.090   5.520   1.657 -0.1381  0.1345 -0.1218
    6CHTO  H191 2193   5.053   5.442   1.591 -0.0774 -0.5201  0.6133
    6CHTO  C108 2194   5.232   5.484   1.700  0.9135 -0.4338  0.1620
    6CHTO   O71 2195   5.290   5.554   1.809  0.5207 -0.4234  0.2013
    6CHTO  H171 2196   5.339   5.628   1.779 -1.4233  1.2274  0.9272
    6CHTO   O62 2197   4.806   5.508   1.878 -0.3953 -0.2348 -0.1804
    6CHTO   C91 2198   4.764   5.375   1.905 -0.0078  0.1143  0.3158
    6CHTO  H178 2199   4.726   5.366   2.007  0.2109  2.6108  0.6309
    6CHTO   C92 2200   4.879   5.272   1.891  0.3612 -0.6325 -0.5456
    6CHTO  H179 2201   4.934   5.291   1.798 -0.2918 -0.2802 -0.8616
    6CHTO   O66 2202   4.977   5.305   1.986  0.2753 -0.3782  0.6478
    6CHTO  H166 2203   5.036   5.373   1.961  0.7767 -0.5486  1.3513
    6CHTO   C93 2204   4.838   5.118   1.908  0.4141  0.0067  0.0263
    6CHTO  H180 2205   4.818   5.092   2.013 -0.5739 -1.5217 -0.5203
    6CHTO   N16 2206   4.946   5.018   1.870  0.0928  0.6762  0.4959
    6CHTO  H172 2207   4.927   4.916   1.902 -1.7476  0.4571 -1.1733
    6CHTO  H173 2208   5.041   5.054   1.907 -0.0523  0.7052  0.8320
    6CHTO   C94 2209   4.710   5.090   1.815  0.6032  0.3312 -0.3383
    6CHTO  H181 2210   4.731   5.109   1.709  0.3412  0.6000 -0.3414
    6CHTO   O61 2211   4.606   5.185   1.849  0.1085 -0.3207  0.0043
    6CHTO   C95 2212   4.638   5.325   1.830 -0.2728 -0.4991  0.2219
    6CHTO  H182 2213   4.647   5.338   1.722 -1.7057  1.5746  0.3290
    6CHTO  C106 2214   4.516   5.418   1.876  0.7335  0.2784  0.4159
    6CHTO   O69 2215   4.462   5.385   2.009 -0.7889 -0.0287 -0.1912
    6CHTO  H169 2216   4.388   5.442   2.017  1.9020  3.6754 -0.4943
    6CHTO   O63 2217   4.636   4.944   1.828 -0.4807 -0.2136  0.5244
    6CHTO   C96 2218   4.559   4.887   1.677  0.4039  0.1114  0.0914
    6CHTO  H183 2219   4.621   4.907   1.589 -1.4939 -0.8260 -1.5042
    6CHTO   C98 2220   4.417   4.958   1.641  0.2745  0.2292 -0.0828
    6CHTO  H185 2221   4.335   4.932   1.710  0.8387  0.7268  0.7909
    6CHTO   O67 2222   4.426   5.100   1.648  0.6920  0.5186 -0.6702
    6CHTO  H167 2223   4.341   5.139   1.650  0.2765 -0.3872  1.3734
    6CHTO  C102 2224   4.368   4.906   1.495  0.0247 -0.3002 -0.1632
    6CHTO  H189 2225   4.432   4.959   1.423  0.0024 -0.6033 -0.4072
    6CHTO   N18 2226   4.224   4.950   1.457  0.2731  0.0973  0.3896
    6CHTO  H176 2227   4.148   4.891   1.505  0.6543  0.1493  1.0696
    6CHTO  H177 2228   4.215   4.943   1.350 -0.8596  1.9073  0.3474
    6CHTO  C105 2229   4.394   4.754   1.480 -1.2065 -0.2056  0.1660
    6CHTO  H192 2230   4.307   4.704   1.438 -1.1768 -0.8465  0.8624
    6CHTO   O65 2231   4.428   4.683   1.607  0.2753 -0.2097 -0.3558
    6CHTO  C100 2232   4.545   4.728   1.677  0.0111 -0.1352 -0.5996
    6CHTO  H187 2233   4.526   4.702   1.782 -0.1184 -1.1442 -0.8718
    6CHTO  C107 2234   4.683   4.656   1.631  0.1179 -0.0782  0.1417
    6CHTO   O70 2235   4.677   4.513   1.621 -0.3366  0.2726  0.2595
    6CHTO  H170 2236   4.640   4.472   1.545 -0.4626 -0.6370  0.8063
    6CHTO   O57 2237   4.523   4.751   1.376 -0.3044  0.4695  0.6820
    6CHTO   C85 2238   4.510   4.660   1.267 -0.5991  0.0101  0.7298
    6CHTO  H157 2239   4.412   4.610   1.281 -0.5147 -0.3721 -0.0185
    6CHTO   C83 2240   4.609   4.545   1.287 -0.3146 -0.3966 -0.1442
    6CHTO  H155 2241   4.588   4.501   1.385 -0.1394 -1.0129 -0.3792
    6CHTO   O56 2242   4.744   4.595   1.299  0.1499  0.4093 -0.2646
    6CHTO  H135 2243   4.807   4.532   1.327  0.6365  0.3510 -1.4719
    6CHTO   C81 2244   4.591   4.445   1.167  0.0851 -0.2496 -0.7943
    6CHTO  H153 2245   4.485   4.420   1.165  0.1852 -0.8306  1.1340
    6CHTO   N14 2246   4.651   4.315   1.184  0.0050  1.3696 -0.2508
    6CHTO  H141 2247   4.627   4.264   1.275  0.7368  0.2320 -0.6867
    6CHTO  H142 2248   4.645   4.249   1.101  0.2511  0.4338  0.4682
    6CHTO   C79 2249   4.634   4.508   1.038 -0.3136  0.2037  0.4458
    6CHTO  H151 2250   4.599   4.444   0.957  0.9082  1.1946 -0.8941
    6CHTO   O52 2251   4.558   4.627   1.012 -0.1214 -0.3002  0.7093
    6CHTO   C86 2252   4.526   4.718   1.119 -0.0650 -0.2890  0.2415
    6CHTO  H158 2253   4.613   4.787   1.114 -0.2392 -0.2138 -2.3876
    6CHTO   C90 2254   4.403   4.804   1.077  0.6274 -0.4197 -0.5397
    6CHTO   O60 2255   4.283   4.738   1.050 -0.4898 -0.1309  0.7732
    6CHTO  H138 2256   4.299   4.680   0.978 -0.0996  0.6600  0.2247
    6CHTO   O50 2257   4.772   4.538   1.017  1.0026 -0.4689 -0.3747
    6CHTO   C73 2258   4.909   4.535   0.959  0.0732 -0.2625  0.1468
    6CHTO  H145 2259   4.909   4.526   0.850 -1.7179  0.7663  0.0523
    6CHTO   C74 2260   4.990   4.423   1.014 -0.1428  1.0023 -0.4029
    6CHTO  H146 2261   4.918   4.345   0.989  2.6636 -1.4202 -1.2251
    6CHTO   O54 2262   5.103   4.408   0.931 -0.2009  0.0615  0.1949
    6CHTO  H133 2263   5.163   4.474   0.961  1.5365 -0.6626 -1.5430
    6CHTO   C75 2264   5.015   4.430   1.168  0.0582 -0.0479  0.2536
    6CHTO  H147 2265   4.923   4.417   1.227  0.4547 -0.6707  0.7446
    6CHTO   N13 2266   5.101   4.318   1.220  0.5811 -0.1880  0.7030
    6CHTO  H139 2267   5.052   4.226   1.192 -0.3465  1.3854 -3.2665
    6CHTO  H140 2268   5.191   4.319   1.160 -0.3296 -0.1824 -0.7029
    6CHTO   C76 2269   5.071   4.585   1.198 -0.0499  0.2764 -0.2602
    6CHTO  H148 2270   5.166   4.593   1.145  0.9056  2.8837  1.7736
    6CHTO   O49 2271   4.976   4.678   1.147 -0.3245 -0.2813 -0.7025
    6CHTO   C77 2272   4.977   4.664   1.003 -0.6812 -0.6359  0.4906
    6CHTO  H149 2273   5.080   4.670   0.969 -0.7931  2.8857  0.6299
    6CHTO   C88 2274   4.897   4.787   0.957 -0.1214 -0.2759  0.3966
    6CHTO   O58 2275   4.923   4.804   0.800 -0.1657 -0.1294 -0.0722
    6CHTO  H136 2276   5.014   4.821   0.786 -0.4065  1.8902  0.4841
    6CHTO   O51 2277   5.078   4.601   1.359  0.2421 -0.8424 -0.2331
    6CHTO   C78 2278   5.170   4.707   1.432 -0.1508 -0.2983 -0.3759
    6CHTO  H150 2279   5.170   4.676   1.539 -0.8358  1.7691  0.2299
    6CHTO   C80 2280   5.099   4.847   1.418 -0.4563  0.0790  0.1218
    6CHTO  H152 2281   5.107   4.866   1.308  2.3190  0.8290  0.3982
    6CHTO   O55 2282   4.967   4.847   1.464  0.0130 -0.3740  0.0045
    6CHTO  H134 2283   4.920   4.921   1.431  0.4155  1.0049  2.4478
    6CHTO   C84 2284   5.188   4.947   1.502 -0.0984  0.4068  0.1798
    6CHTO  H156 2285   5.160   4.916   1.603 -1.5067 -0.7162 -0.5312
    6CHTO   N15 2286   5.133   5.090   1.498 -0.6776  0.3564 -0.1981
    6CHTO  H143 2287   5.046   5.117   1.443 -1.8273 -2.9918 -0.1459
    6CHTO  H144 2288   5.131   5.125   1.599  0.3436  0.2008 -0.1196
    6CHTO   C87 2289   5.336   4.944   1.445  0.2898 -0.0531 -0.4758
    6CHTO  H159 2290   5.314   4.960   1.339 -1.0672  2.0574  0.1058
    6CHTO   O53 2291   5.383   4.799   1.472 -0.6757  0.5590 -0.4776
    6CHTO   C82 2292   5.313   4.707   1.389 -0.7041  0.2143  0.0612
    6CHTO  H154 2293   5.322   4.736   1.284  0.1008  0.9858  0.3322
    6CHTO   C89 2294   5.378   4.569   1.408 -0.2602  0.4616 -0.2921
    6CHTO   O59 2295   5.506   4.573   1.354  0.4440 -0.0932  0.0584
    6CHTO  H137 2296   5.527   4.489   1.318  2.5992  1.2690 -2.0090
    6CHTO   O45 2297   5.448   5.037   1.500  0.0438 -0.1823  0.5053
    6CHTO   C67 2298   5.567   5.049   1.419 -0.5168  0.1551  0.7459
    6CHTO  H124 2299   5.574   4.983   1.332  0.5807 -0.0928  1.0190
    6CHTO   C65 2300   5.584   5.198   1.373  0.4133 -0.0862  0.0672
    6CHTO  H122 2301   5.484   5.228   1.342 -0.9821 -2.6796  1.9029
    6CHTO   O44 2302   5.678   5.214   1.264 -0.2317  0.6281  0.2395
    6CHTO  H102 2303   5.648   5.171   1.186  2.5722  0.5432 -0.8560
    6CHTO   C63 2304   5.610   5.291   1.494 -0.1370  0.5611 -0.2651
    6CHTO  H120 2305   5.535   5.275   1.572  2.4342  1.1293  2.4088
    6CHTO   N11 2306   5.601   5.438   1.471 -0.0562  0.4773  0.0389
    6CHTO  H108 2307   5.611   5.465   1.368  3.3005  0.3652  0.2801
    6CHTO  H109 2308   5.515   5.476   1.523 -1.8462 -0.8644 -1.8986
    6CHTO   C61 2309   5.746   5.241   1.560  0.4681  0.0691  0.7903
    6CHTO  H118 2310   5.747   5.296   1.655  1.5130  0.4722  0.5521
    6CHTO   O40 2311   5.731   5.102   1.599 -0.5654  0.0733 -0.1070
    6CHTO   C68 2312   5.691   5.000   1.503 -0.3596 -0.7168 -0.0558
    6CHTO  H125 2313   5.666   4.900   1.544  2.6657 -2.4875 -2.3147
    6CHTO   C72 2314   5.818   4.976   1.407  0.0233  0.6311  0.1992
    6CHTO   O48 2315   5.915   4.890   1.462 -0.1626  0.3259  0.1003
    6CHTO  H105 2316   5.969   4.934   1.525 -0.7839 -0.8618  1.5135
    6CHTO   O38 2317   5.871   5.267   1.486  0.5147  0.4393 -0.1077
    6CHTO   C55 2318   5.979   5.336   1.558  0.1030  0.5177 -0.0410
    6CHTO  H112 2319   5.944   5.367   1.657  1.2658  0.3765  0.4187
    6CHTO   C56 2320   6.015   5.463   1.469  0.8338  0.6549 -0.5329
    6CHTO  H113 2321   6.052   5.412   1.379  0.4104 -0.5795 -0.0147
    6CHTO   O42 2322   5.906   5.535   1.430 -0.3006 -0.5044 -0.6927
    6CHTO  H100 2323   5.938   5.582   1.355  2.5226 -1.5816 -0.2230
    6CHTO   C57 2324   6.126   5.545   1.534  0.4659  0.2082  0.1377
    6CHTO  H114 2325   6.080   5.575   1.628 -1.2665  0.0600 -0.6588
    6CHTO   N10 2326   6.167   5.663   1.449 -0.4420  0.4179 -0.3628
    6CHTO  H106 2327   6.077   5.710   1.413 -0.4163  1.2622  0.6402
    6CHTO  H107 2328   6.212   5.732   1.520  2.0787  0.3879 -1.8949
    6CHTO   C58 2329   6.249   5.455   1.561  0.1146 -0.3454 -0.1834
    6CHTO  H115 2330   6.297   5.420   1.467  1.5015 -3.6035  1.6778
    6CHTO   O37 2331   6.214   5.340   1.643  0.0668  0.5835 -0.5685
    6CHTO   C59 2332   6.114   5.257   1.581 -0.2901  0.0848  0.0021
    6CHTO  H116 2333   6.155   5.219   1.488  0.8212 -0.1229  0.5670
    6CHTO   C70 2334   6.096   5.130   1.663 -0.2331  1.1254  0.0350
    6CHTO   O46 2335   6.090   5.150   1.804 -0.4615  0.7719  0.1049
    6CHTO  H103 2336   6.009   5.122   1.843 -0.4875  0.7082  0.0063
    6CHTO   O39 2337   6.360   5.529   1.653 -0.1895 -0.3370  0.4798
    6CHTO   C60 2338   6.492   5.469   1.646 -1.0385  0.3792 -0.4099
    6CHTO  H117 2339   6.480   5.363   1.626 -2.2615  0.7362 -1.6599
    6CHTO   C62 2340   6.578   5.533   1.532  0.0206  1.0729  0.2242
    6CHTO  H119 2341   6.527   5.504   1.438  0.0505 -0.9852  0.8216
    6CHTO   O43 2342   6.568   5.678   1.549 -0.0649  0.4843 -0.4139
    6CHTO  H101 2343   6.480   5.703   1.527 -1.4076 -2.6282  1.0326
    6CHTO   C66 2344   6.734   5.482   1.534 -1.1668 -0.2592 -0.4938
    6CHTO  H123 2345   6.737   5.375   1.514 -0.9659 -0.4773  0.6965
    6CHTO   N12 2346   6.811   5.545   1.417 -0.7521 -0.6701  0.2763
    6CHTO  H110 2347   6.743   5.594   1.348 -0.1763  0.4046  0.4688
    6CHTO  H111 2348   6.878   5.623   1.450  0.3910 -1.1046 -0.9577
    6CHTO   C69 2349   6.798   5.510   1.676  0.0640  0.2041 -0.2915
    6CHTO  H126 2350   6.806   5.618   1.703 -0.7409  0.0014  0.8167
    6CHTO   O41 2351   6.705   5.441   1.788 -0.0749 -0.3687  0.3615
    6CHTO   C64 2352   6.568   5.489   1.785  0.4332 -0.7548 -0.4009
    6CHTO  H121 2353   6.563   5.598   1.804  2.9531 -0.6329 -0.2738
    6CHTO   C71 2354   6.480   5.408   1.885  0.5882 -0.1971 -0.1947
    6CHTO   O47 2355   6.477   5.266   1.855 -1.1002  1.1042 -0.6222
    6CHTO  H104 2356   6.421   5.229   1.922  0.0414 -1.6178 -1.1361
    6CHTO   O34 2357   6.939   5.443   1.696  0.1945  0.3524  0.4656
    6CHTO   C49 2358   7.082   5.451   1.623  0.0175 -0.2858  0.2022
    6CHTO   H91 2359   7.062   5.411   1.523  2.8589 -0.1478 -0.4724
    6CHTO   C47 2360   7.177   5.356   1.689  0.2354  0.5066 -0.1720
    6CHTO   H89 2361   7.266   5.354   1.622 -0.7276  3.0843 -1.5771
    6CHTO   O33 2362   7.114   5.230   1.679  0.2093  0.8605 -0.2634
    6CHTO   H70 2363   7.173   5.161   1.658 -0.6144  0.5286 -1.5517
    6CHTO   C45 2364   7.208   5.412   1.837  0.3947  0.3037 -0.5284
    6CHTO   H87 2365   7.115   5.434   1.891 -0.1843 -0.6024 -1.1533
    6CHTO    N8 2366   7.283   5.308   1.919 -0.1875  0.4182  0.1563
    6CHTO   H75 2367   7.388   5.314   1.892 -1.3315  1.4814 -4.4919
    6CHTO   H76 2368   7.274   5.345   2.019  0.5733  1.0160  0.0087
    6CHTO   C43 2369   7.287   5.551   1.823 -0.4972  0.2000 -0.0735
    6CHTO   H85 2370   7.294   5.594   1.923 -1.1301 -1.3877  0.6666
    6CHTO   O29 2371   7.213   5.636   1.734  0.0195 -0.1714 -0.2486
    6CHTO   C50 2372   7.145   5.593   1.615  0.0880  0.7483  0.9855
    6CHTO   H92 2373   7.069   5.666   1.585 -2.4569 -1.3595  2.1436
    6CHTO   C54 2374   7.244   5.602   1.493 -0.5852  0.1142 -0.1880
    6CHTO   O36 2375   7.258   5.737   1.448  0.5886  0.3878  0.1183
    6CHTO   H72 2376   7.170   5.769   1.446  0.8661  1.2140  0.8461
    6CHTO   O27 2377   7.420   5.531   1.775  0.1276  0.2257 -0.1783
    6CHTO   C37 2378   7.536   5.612   1.789 -0.2420  0.7794  0.2664
    6CHTO   H79 2379   7.614   5.579   1.719  0.4542 -1.3175  1.9742
    6CHTO   C38 2380   7.507   5.763   1.755 -0.3269  0.0170 -0.4668
    6CHTO   H80 2381   7.407   5.786   1.793  0.5571 -0.9055  2.5028
    6CHTO   O31 2382   7.501   5.774   1.606  0.0806  0.0511  0.0897
    6CHTO   H68 2383   7.413   5.797   1.583 -0.1672 -0.5699  0.3825
    6CHTO   C39 2384   7.609   5.866   1.823  0.5069  0.4062  0.4861
    6CHTO   H81 2385   7.706   5.855   1.775  0.0470 -1.0593 -0.1368
    6CHTO    N7 2386   7.568   6.007   1.787 -0.2257 -0.0462 -0.2200
    6CHTO   H73 2387   7.646   6.078   1.810 -1.1235  0.9725 -0.3249
    6CHTO   H74 2388   7.477   6.046   1.829 -0.3924 -0.0647 -0.5592
    6CHTO   C40 2389   7.624   5.835   1.975 -0.2125 -0.0125  0.4212
    6CHTO   H82 2390   7.533   5.841   2.034 -0.1992  0.0564  0.4352
    6CHTO   O26 2391   7.683   5.706   1.978  0.2541 -0.3738  0.1480
    6CHTO   C41 2392   7.585   5.600   1.941 -0.2494  0.2210  0.0909
    6CHTO   H83 2393   7.507   5.618   2.016 -0.0518 -0.2893  0.4189
    6CHTO   C52 2394   7.639   5.457   1.964 -0.3931  0.0346  0.0267
    6CHTO   O35 2395   7.626   5.419   2.128  0.4145  0.2617 -0.1329
    6CHTO   H71 2396   7.539   5.425   2.161  0.5090 -1.7881  0.5435
    6CHTO   O28 2397   7.716   5.920   2.048  0.3918 -0.1033 -0.0590
    6CHTO   C42 2398   7.699   5.942   2.194  0.5029 -0.7112 -0.0781
    6CHTO   H84 2399   7.801   5.976   2.214  0.8494 -1.3177 -0.7808
    6CHTO   C44 2400   7.679   5.818   2.284 -0.1485 -0.2092  0.6640
    6CHTO   H86 2401   7.600   5.754   2.243  0.3364 -1.1796  1.2117
    6CHTO   O32 2402   7.801   5.738   2.274 -0.7888 -0.1145 -0.1643
    6CHTO   H69 2403   7.815   5.717   2.184 -1.3581 -1.9444  0.1496
    6CHTO   C48 2404   7.639   5.844   2.431 -0.3846  0.3056 -0.1191
    6CHTO   H90 2405   7.730   5.869   2.484 -0.4301  0.0496  0.0807
    6CHTO    N9 2406   7.598   5.730   2.508  0.3519  0.4446  0.8056
    6CHTO   H77 2407   7.658   5.708   2.594  0.4016 -0.0481  0.6446
    6CHTO   H78 2408   7.577   5.642   2.449  0.5399  1.4875 -0.8496
    6CHTO   C51 2409   7.532   5.964   2.431  0.6783 -0.5752 -0.5179
    6CHTO   H93 2410   7.441   5.930   2.381  0.3875 -1.9822  0.9220
    6CHTO   O30 2411   7.590   6.074   2.369 -0.1205 -0.2082 -0.0233
    6CHTO   C46 2412   7.605   6.066   2.224  0.3333  0.0636 -0.2596
    6CHTO   H88 2413   7.509   6.049   2.174  1.2851 -1.9396 -1.4330
    6CHTO   C53 2414   7.667   6.200   2.184  0.0671  0.2993 -0.1393
    6CHTO   O72 2415   7.556   6.291   2.187  0.2550 -0.7101 -0.0957
    6CHTO  H199 2416   7.536   6.333   2.106 -1.1811  0.8808  1.0420
    6CHTO   O22 2417   7.499   6.020   2.561 -0.9202  0.2940 -0.2315
    6CHTO   C31 2418   7.405   6.135   2.582  0.2050  0.0818  0.0943
    6CHTO   H59 2419   7.463   6.225   2.555  0.7537 -0.6303 -1.1563
    6CHTO   C29 2420   7.277   6.131   2.500 -0.1489  0.1556  0.4148
    6CHTO   H57 2421   7.217   6.039   2.513 -0.9716  0.9998  2.7705
    6CHTO   O21 2422   7.310   6.138   2.362 -0.3838  0.4941 -0.1425
    6CHTO   H37 2423   7.238   6.106   2.312 -1.7167 -0.5029  2.3526
    6CHTO   C27 2424   7.186   6.252   2.533 -0.1809  1.0800 -0.1934
    6CHTO   H55 2425   7.244   6.345   2.530  1.0195  0.3973  1.0728
    6CHTO    N5 2426   7.059   6.271   2.455 -0.1314 -0.4103 -0.6204
    6CHTO   H43 2427   7.028   6.173   2.422 -0.2671 -0.7816  0.6074
    6CHTO   H44 2428   7.089   6.335   2.374  0.2750 -1.4998 -1.3452
    6CHTO   C25 2429   7.151   6.246   2.685 -0.0294  0.7771  0.0881
    6CHTO   H53 2430   7.100   6.151   2.709 -0.8945  1.0440 -0.6922
    6CHTO   O17 2431   7.278   6.254   2.758  0.5222  0.6341 -0.1093
    6CHTO   C32 2432   7.362   6.141   2.730 -0.3264 -0.1853 -0.1470
    6CHTO   H60 2433   7.318   6.044   2.757 -1.4711 -0.2193 -2.0937
    6CHTO   C36 2434   7.491   6.150   2.824 -0.1734  0.2568  0.4118
    6CHTO   O25 2435   7.464   6.182   2.962  0.1443 -0.2505  0.3516
    6CHTO   H40 2436   7.410   6.258   2.973  0.6966  0.1214  0.4939
    6CHTO   O15 2437   7.064   6.378   2.745 -0.0330 -0.7815  0.2901
    6CHTO   C19 2438   6.946   6.440   2.795  0.2420 -0.8924  0.6809
    6CHTO   H47 2439   6.955   6.418   2.903  0.8143  0.4422  0.9073
    6CHTO   C20 2440   6.927   6.591   2.765 -0.5016 -0.9467 -0.6310
    6CHTO   H48 2441   6.933   6.610   2.657 -0.3897  0.1902 -0.4397
    6CHTO   O19 2442   7.032   6.675   2.829  0.3939 -0.1041 -0.8811
    6CHTO   H35 2443   7.005   6.684   2.918  1.1744 -0.1952 -0.6258
    6CHTO   C21 2444   6.787   6.648   2.812 -0.2101  0.3109  0.2333
    6CHTO   H49 2445   6.776   6.634   2.920  0.0153 -0.3289  0.1762
    6CHTO    N4 2446   6.770   6.791   2.779  0.2675  0.4630 -0.1172
    6CHTO   H41 2447   6.700   6.830   2.852  0.6188 -1.5966  1.3604
    6CHTO   H42 2448   6.867   6.834   2.796  0.0153  0.7692  0.5618
    6CHTO   C22 2449   6.678   6.561   2.746 -0.7588 -0.9026 -0.5584
    6CHTO   H50 2450   6.688   6.575   2.638  0.2087 -1.3951 -0.5351
    6CHTO   O14 2451   6.694   6.428   2.782  0.7709  0.4029 -0.3872
    6CHTO   C23 2452   6.821   6.368   2.746  0.0558  0.2448 -0.0205
    6CHTO   H51 2453   6.814   6.359   2.637 -4.9398  0.3609  0.1855
    6CHTO   C34 2454   6.800   6.221   2.794 -0.6605  0.3634 -0.5378
    6CHTO   O23 2455   6.837   6.176   2.926 -0.3761 -0.2910  0.2203
    6CHTO   H38 2456   6.888   6.099   2.908 -0.8980 -0.3812 -0.8830
    6CHTO   O16 2457   6.548   6.599   2.792  0.0432 -0.4096 -0.4296
    6CHTO   C24 2458   6.428   6.627   2.688  0.2837  0.5626  0.2629
    6CHTO   H52 2459   6.444   6.574   2.594  2.3648  1.1356  0.2734
    6CHTO   C26 2460   6.409   6.778   2.669  0.0946  0.4850 -0.6307
    6CHTO   H54 2461   6.414   6.825   2.769 -2.7158  1.5069 -0.9256
    6CHTO   O20 2462   6.514   6.820   2.592 -0.4884 -0.1695  0.0275
    6CHTO   H36 2463   6.587   6.826   2.651 -0.2974  1.8759 -0.3878
    6CHTO   C30 2464   6.272   6.819   2.603  0.4986 -0.4224  0.3406
    6CHTO   H58 2465   6.273   6.802   2.494 -0.1180  2.1982 -0.1026
    6CHTO    N6 2466   6.234   6.961   2.612 -0.1265  0.2693  0.3299
    6CHTO   H45 2467   6.217   7.007   2.516 -1.5422 -0.5623  0.1662
    6CHTO   H46 2468   6.321   7.009   2.656 -0.0058  0.0589  0.3223
    6CHTO   C33 2469   6.151   6.729   2.655  0.1923  0.3084  0.2689
    6CHTO   H61 2470   6.127   6.768   2.755  0.3356  0.6738  0.1586
    6CHTO   O18 2471   6.199   6.593   2.656 -0.6479 -0.4285 -0.2406
    6CHTO   C28 2472   6.306   6.559   2.750  0.3117  0.8474  0.4634
    6CHTO   H56 2473   6.288   6.599   2.850 -0.2240 -1.1935  1.2093
    6CHTO   C35 2474   6.322   6.405   2.753  0.3379  0.3620 -0.1522
    6CHTO   O24 2475   6.221   6.338   2.825  0.1461 -0.3572  0.0732
    6CHTO   H39 2476   6.255   6.298   2.902  0.1108  1.1180  0.8848
    6CHTO    O9 2477   6.027   6.737   2.578  0.4975  0.2500  0.0610
    6CHTO   C13 2478   5.894   6.809   2.653  0.3154  0.2999 -0.9354
    6CHTO   H26 2479   5.937   6.896   2.708  0.2801 -0.9841  1.1762
    6CHTO   C11 2480   5.837   6.703   2.754 -0.6738  0.5007 -0.0354
    6CHTO   H24 2481   5.904   6.687   2.839 -1.3024  3.1321  1.0221
    6CHTO    O8 2482   5.822   6.575   2.687  0.2598  0.2969  0.0580
    6CHTO    H3 2483   5.899   6.522   2.677 -1.3958 -2.3513  0.6379
    6CHTO    C9 2484   5.702   6.749   2.814  0.2129 -0.1878 -0.3151
    6CHTO   H22 2485   5.723   6.833   2.882  1.5060 -0.4250 -0.4102
    6CHTO    N2 2486   5.648   6.658   2.917 -0.6585 -0.2682 -0.5726
    6CHTO   H10 2487   5.663   6.692   3.019  1.6038  1.1568 -1.3621
    6CHTO   H11 2488   5.702   6.564   2.911  0.0832  0.0885  0.2981
    6CHTO    C7 2489   5.597   6.795   2.706 -0.0588  0.1056 -0.6724
    6CHTO   H20 2490   5.526   6.855   2.767 -0.5304 -1.1792  0.0639
    6CHTO    O4 2491   5.657   6.877   2.608 -0.4721 -0.3836  0.9838
    6CHTO   C14 2492   5.790   6.874   2.559  0.0364 -0.2564 -0.2031
    6CHTO   H27 2493   5.823   6.976   2.531 -0.7900  0.2490  0.6073
    6CHTO   C18 2494   5.776   6.798   2.427 -0.2031 -0.1465 -0.5313
    6CHTO   O13 2495   5.874   6.802   2.326 -1.0084  0.5273 -0.7223
    6CHTO    H7 2496   5.916   6.718   2.323 -1.0676  0.4932 -0.5666
    6CHTO    O2 2497   5.522   6.673   2.623  0.6825 -0.1762  0.1697
    6CHTO    C1 2498   5.384   6.695   2.587  0.3765  0.0201 -1.2264
    6CHTO   H14 2499   5.370   6.629   2.499 -1.6923 -1.0935 -0.0960
    6CHTO    C2 2500   5.358   6.845   2.532 -0.2820 -0.5230 -0.0653
    6CHTO   H15 2501   5.379   6.922   2.608  0.7346 -0.4191 -0.4491
    6CHTO    O6 2502   5.441   6.879   2.419  0.3422  0.0097  0.5058
    6CHTO    H1 2503   5.421   6.850   2.332  1.3876  0.6553  0.0432
    6CHTO    C3 2504   5.206   6.869   2.503 -0.3289 -0.3160  0.5726
    6CHTO   H16 2505   5.180   6.821   2.407 -0.4612  1.7933 -0.4754
    6CHTO    N1 2506   5.170   7.013   2.482 -0.2209 -0.2747  0.5113
    6CHTO    H8 2507   5.089   7.022   2.411 -0.6430  0.1580  1.0387
    6CHTO    H9 2508   5.255   7.064   2.441 -0.3921 -0.4101 -0.0133
    6CHTO    C4 2509   5.112   6.805   2.612  0.6956 -0.2685 -0.4158
    6CHTO   H17 2510   5.121   6.869   2.699  1.4613 -0.6136 -0.2421
    6CHTO    O1 2511   5.156   6.679   2.645 -0.4474 -0.2323 -0.3053
    6CHTO    C5 2512   5.287   6.655   2.699  0.1804 -0.1826  0.7257
    6CHTO   H18 2513   5.316   6.723   2.780  0.1786  2.9443 -1.7754
    6CHTO   C16 2514   5.294   6.514   2.750 -0.7692 -0.2211  0.3280
    6CHTO   O11 2515   5.402   6.470   2.841 -0.2189  0.4996 -0.5705
    6CHTO    H5 2516   5.474   6.530   2.843 -0.7339  1.0982  1.1816
    6CHTO    O3 2517   4.982   6.773   2.557 -0.0039  0.6829 -0.2482
    6CHTO    C6 2518   4.864   6.789   2.644 -0.2847 -0.0722  0.4582
    6CHTO   H19 2519   4.891   6.808   2.748  0.0101 -1.8814  0.7362
    6CHTO    C8 2520   4.778   6.917   2.597  0.4904  0.4671  0.1003
    6CHTO   H21 2521   4.750   6.905   2.492  0.0571  1.2225  0.1284
    6CHTO    O7 2522   4.861   7.034   2.621 -0.2622 -0.2856 -0.1572
    6CHTO    H2 2523   4.936   7.034   2.565 -0.5325  1.5886 -0.5449
    6CHTO   C12 2524   4.648   6.936   2.669 -0.0648 -0.0977 -0.4085
    6CHTO   H25 2525   4.673   6.956   2.775  1.3500  0.4782 -0.8366
    6CHTO    N3 2526   4.558   7.044   2.619 -0.0692  0.6329 -0.2304
    6CHTO   H12 2527   4.474   7.040   2.687 -0.3061 -4.7639 -0.6384
    6CHTO   H13 2528   4.607   7.141   2.617  1.5017 -0.1400  0.0840
    6CHTO   C15 2529   4.564   6.801   2.661 -0.3467  0.6598 -0.3291
    6CHTO   H28 2530   4.540   6.767   2.560  1.7276  1.0719 -0.9855
    6CHTO   O10 2531   4.448   6.777   2.763  0.5247  0.1375 -0.3985
    6CHTO    H4 2532   4.371   6.803   2.717  0.2280 -0.4333 -0.2276
    6CHTO    O5 2533   4.647   6.688   2.705 -0.1092 -0.4583  0.1876
    6CHTO   C10 2534   4.774   6.657   2.638  0.3420  0.5791  0.8332
    6CHTO   H23 2535   4.749   6.656   2.532  1.6159  1.2941  0.5204
    6CHTO   C17 2536   4.842   6.527   2.686 -0.1980  0.4213 -0.4435
    6CHTO   O12 2537   4.748   6.420   2.692 -0.4035  0.2811 -0.1033
    6CHTO    H6 2538   4.768   6.358   2.760  0.1811  0.3382 -0.2188
    7CHTO  H203 2539   4.856   2.344   2.622 -1.8242  4.4415  0.7218
    7CHTO   O82 2540   4.926   2.375   2.567 -0.7313  0.5111 -0.2390
    7CHTO  C123 2541   5.013   2.482   2.590  0.6964  0.2429 -0.2999
    7CHTO  H227 2542   4.958   2.577   2.582 -2.0161 -1.1479  1.1932
    7CHTO   O77 2543   5.059   2.466   2.734  0.1965  0.1808  0.3937
    7CHTO  C118 2544   5.160   2.552   2.789  0.0186 -0.0633 -0.0049
    7CHTO  H222 2545   5.123   2.656   2.792 -1.1430 -0.5013  2.8512
    7CHTO  C125 2546   5.191   2.517   2.937 -0.4832  0.2729 -0.0218
    7CHTO   O84 2547   5.075   2.558   3.012  0.9185 -0.3548 -0.0006
    7CHTO  H205 2548   5.085   2.510   3.092  1.8665  0.3857  0.3285
    7CHTO  C114 2549   5.275   2.546   2.694 -1.0493  0.1487  0.3280
    7CHTO  H218 2550   5.309   2.443   2.687 -0.3001  0.3798  0.5833
    7CHTO  C116 2551   5.251   2.580   2.553 -0.1661  0.4163  0.6763
    7CHTO  H220 2552   5.218   2.687   2.553  1.3395  0.9344 -1.9718
    7CHTO   O79 2553   5.377   2.579   2.474  0.2622 -0.3341  0.2876
    7CHTO  H201 2554   5.376   2.621   2.390 -1.2166  1.5143  1.1717
    7CHTO  C120 2555   5.138   2.485   2.491 -0.2080 -0.4072  0.2001
    7CHTO  H224 2556   5.179   2.382   2.485 -2.4537 -1.2926 -0.5666
    7CHTO   N21 2557   5.104   2.525   2.353 -0.5591 -0.5339  0.3555
    7CHTO  H211 2558   5.025   2.598   2.364 -3.9287 -3.6770 -1.6583
    7CHTO  H212 2559   5.186   2.550   2.288 -0.5043  0.1241  0.6733
    7CHTO   O75 2560   5.372   2.629   2.768 -0.5575  0.1078 -0.2023
    7CHTO  C112 2561   5.520   2.581   2.776  0.2493 -0.0975 -0.0119
    7CHTO  H216 2562   5.534   2.516   2.688  0.2183 -1.1591  0.7511
    7CHTO   O73 2563   5.540   2.510   2.894 -0.2342  0.3664 -0.9056
    7CHTO  C113 2564   5.673   2.455   2.911  0.2873 -0.0623 -0.7323
    7CHTO  H217 2565   5.707   2.381   2.836  1.4160 -1.1163  0.7798
    7CHTO  C124 2566   5.680   2.388   3.044 -0.2285  0.5841 -0.0631
    7CHTO   O83 2567   5.809   2.339   3.093  0.4278  0.6833 -0.3656
    7CHTO  H204 2568   5.806   2.245   3.091  1.9520  0.6313 -0.8464
    7CHTO  C109 2569   5.777   2.569   2.902  0.0578 -0.0005  0.0917
    7CHTO  H213 2570   5.765   2.629   2.994 -0.6155 -1.9987  1.3595
    7CHTO  C110 2571   5.767   2.651   2.777  0.1586  0.7255  0.1236
    7CHTO  H214 2572   5.803   2.592   2.692 -0.6014 -0.2635  0.4884
    7CHTO   O78 2573   5.865   2.758   2.773  0.0067  0.0653 -0.4948
    7CHTO  H200 2574   5.846   2.810   2.848 -1.4133 -0.3769 -0.5310
    7CHTO  C111 2575   5.621   2.702   2.770  0.0222  0.5565  0.2337
    7CHTO  H215 2576   5.604   2.765   2.859 -0.8874 -0.2586  0.6440
    7CHTO   N19 2577   5.586   2.786   2.653 -0.3035  0.0576  0.3595
    7CHTO  H207 2578   5.627   2.739   2.565  0.5629  0.0023  0.7825
    7CHTO  H208 2579   5.610   2.892   2.655  0.6628 -0.1437 -0.2927
    7CHTO   O74 2580   5.917   2.510   2.913  0.8456 -0.4043 -0.0939
    7CHTO  C115 2581   6.010   2.612   2.992 -0.0467  0.0657 -0.7894
    7CHTO  H219 2582   5.962   2.710   3.001 -2.0292 -1.0112  0.8089
    7CHTO   O76 2583   6.035   2.565   3.146  0.3855  0.4278  0.2752
    7CHTO  C122 2584   6.127   2.457   3.156  0.5076 -0.3090  0.1452
    7CHTO  H226 2585   6.076   2.369   3.116  1.7262 -0.6872 -0.5860
    7CHTO  C126 2586   6.164   2.431   3.302  0.4215 -0.3036 -0.0920
    7CHTO   O85 2587   6.049   2.388   3.382 -0.0537 -0.2203  0.2484
    7CHTO  H206 2588   6.038   2.296   3.376 -2.9070  0.2395 -3.5316
    7CHTO  C121 2589   6.252   2.468   3.076 -0.6107  0.5098 -0.6198
    7CHTO  H225 2590   6.315   2.548   3.120 -0.7914  1.2120 -1.6348
    7CHTO   O81 2591   6.328   2.346   3.083  0.1218 -0.2608  0.1798
    7CHTO  H202 2592   6.279   2.275   3.046 -1.0009 -0.1894  1.4855
    7CHTO  C119 2593   6.218   2.496   2.929  0.5709  0.5903  0.0854
    7CHTO  H223 2594   6.316   2.508   2.882 -0.4269  0.9746 -1.9438
    7CHTO  C117 2595   6.134   2.632   2.907  0.0587 -0.4903 -0.7288
    7CHTO  H221 2596   6.095   2.644   2.806 -1.5074  1.8247  0.1072
    7CHTO   N20 2597   6.203   2.764   2.943  0.0357 -0.3649 -0.1027
    7CHTO  H209 2598   6.180   2.780   3.047 -0.9757  1.9643 -0.6557
    7CHTO  H210 2599   6.174   2.850   2.884  1.4426  0.4325  0.3281
    7CHTO   O80 2600   6.159   2.372   2.856  0.1641 -0.4847  0.2764
    7CHTO  C103 2601   6.214   2.332   2.703  0.0786  0.4658  0.2609
    7CHTO  H190 2602   6.173   2.399   2.627  0.9265  2.6386  1.6792
    7CHTO  C101 2603   6.374   2.319   2.696 -0.0851  0.1246  0.5808
    7CHTO  H188 2604   6.407   2.261   2.783  0.2545 -0.9009 -0.2220
    7CHTO   O68 2605   6.446   2.462   2.701 -0.3890 -0.2897  0.2880
    7CHTO  H168 2606   6.399   2.512   2.764 -0.6694 -0.8964  0.5649
    7CHTO   C99 2607   6.411   2.233   2.560 -0.0194  0.0875 -0.2081
    7CHTO  H186 2608   6.376   2.289   2.471 -1.4656  1.0732  0.9599
    7CHTO   N17 2609   6.557   2.202   2.545 -0.3203 -0.5614  0.2488
    7CHTO  H174 2610   6.620   2.290   2.551 -0.9757 -0.0561 -0.2636
    7CHTO  H175 2611   6.565   2.159   2.446 -0.1179 -1.8337  0.8077
    7CHTO   C97 2612   6.330   2.098   2.569  0.2213 -0.1846 -0.3483
    7CHTO  H184 2613   6.360   2.036   2.655  0.1203 -0.1539 -0.2913
    7CHTO   O64 2614   6.193   2.124   2.570 -0.0215 -0.3607  0.1788
    7CHTO  C104 2615   6.150   2.186   2.686  0.0996  0.6938  0.4551
    7CHTO  H191 2616   6.161   2.128   2.778 -0.4776 -1.0696 -0.5719
    7CHTO  C108 2617   5.997   2.191   2.665  0.1597 -0.2282 -0.1950
    7CHTO   O71 2618   5.941   2.057   2.679 -0.5001 -0.0016 -0.0614
    7CHTO  H171 2619   5.961   2.014   2.598  2.3497 -0.2532  0.7145
    7CHTO   O62 2620   6.314   2.016   2.449 -0.0389 -0.1684 -0.2824
    7CHTO   C91 2621   6.331   1.876   2.460 -0.5333 -0.5697 -0.8803
    7CHTO  H178 2622   6.436   1.850   2.449  0.0074  0.9479  0.4589
    7CHTO   C92 2623   6.261   1.811   2.337 -0.2201 -0.1506  0.4807
    7CHTO  H179 2624   6.284   1.876   2.251 -2.4417 -0.2935 -0.2382
    7CHTO   O66 2625   6.313   1.677   2.314  0.4780  0.2513 -0.2531
    7CHTO  H166 2626   6.407   1.677   2.318  0.4114 -1.8080  1.9101
    7CHTO   C93 2627   6.104   1.807   2.346 -0.3532 -0.0611  1.2421
    7CHTO  H180 2628   6.079   1.718   2.286 -1.3799 -0.4116  2.1803
    7CHTO   N16 2629   6.031   1.923   2.289  0.3541  0.9778 -0.4707
    7CHTO  H172 2630   6.051   2.004   2.357 -0.1792  2.1686 -1.7093
    7CHTO  H173 2631   5.925   1.904   2.280  0.5906 -1.0098  0.6448
    7CHTO   C94 2632   6.059   1.774   2.486  0.1324 -0.5008  0.1488
    7CHTO  H181 2633   6.026   1.862   2.542  0.3942  0.4862 -1.2125
    7CHTO   O61 2634   6.163   1.720   2.564  0.6042 -0.5688  0.0457
    7CHTO   C95 2635   6.274   1.812   2.591  0.3929  0.3809 -0.1017
    7CHTO  H182 2636   6.242   1.884   2.667 -0.1777 -0.4409  0.4394
    7CHTO  C106 2637   6.378   1.711   2.659  0.5074 -0.0989  0.4818
    7CHTO   O69 2638   6.495   1.779   2.713 -0.3289  0.8216 -0.2921
    7CHTO  H169 2639   6.503   1.862   2.669  3.5856  0.6786 -0.0517
    7CHTO   O63 2640   5.939   1.675   2.473 -0.2407  0.2205  0.0008
    7CHTO   C96 2641   5.833   1.705   2.585  0.1296  0.4043  0.4060
    7CHTO  H183 2642   5.812   1.811   2.575  0.3202  0.3888 -0.2170
    7CHTO   C98 2643   5.875   1.670   2.735 -0.0650 -0.1610  0.2975
    7CHTO  H185 2644   5.962   1.732   2.761 -0.9132  0.6896  1.1284
    7CHTO   O67 2645   5.773   1.710   2.830  0.2527  0.5816  0.6108
    7CHTO  H167 2646   5.725   1.785   2.802 -0.3259  0.2497  0.7152
    7CHTO  C102 2647   5.898   1.516   2.759 -0.1948 -0.2142  0.3387
    7CHTO  H189 2648   5.883   1.497   2.866 -1.7093  1.4734  0.4391
    7CHTO   N18 2649   6.038   1.468   2.719  0.1577 -0.1574 -0.1327
    7CHTO  H176 2650   6.051   1.389   2.646 -0.2589  0.7314 -1.1857
    7CHTO  H177 2651   6.085   1.451   2.815  0.3726  0.4922 -0.1198
    7CHTO  C105 2652   5.779   1.437   2.700  0.0417  0.6246 -0.3124
    7CHTO  H192 2653   5.814   1.356   2.636 -3.7414 -0.0029 -1.6792
    7CHTO   O65 2654   5.676   1.506   2.626 -0.3366  0.3069  0.2971
    7CHTO  C100 2655   5.715   1.617   2.541 -0.1045  0.3966  0.1066
    7CHTO  H187 2656   5.730   1.576   2.441 -0.9067  1.6762 -0.5420
    7CHTO  C107 2657   5.586   1.698   2.534  0.5151  0.4939  0.2111
    7CHTO   O70 2658   5.556   1.765   2.406  0.0830  0.0714 -0.2728
    7CHTO  H170 2659   5.505   1.714   2.347  0.0431  1.4007 -1.4128
    7CHTO   O57 2660   5.699   1.372   2.834 -0.0763  0.0772  0.2247
    7CHTO   C85 2661   5.725   1.243   2.885  0.1163 -0.0453  0.1695
    7CHTO  H157 2662   5.806   1.193   2.828  0.1120 -0.8643  0.8628
    7CHTO   C83 2663   5.608   1.149   2.850 -0.3211  0.1236 -0.4892
    7CHTO  H155 2664   5.590   1.160   2.743  3.4976 -0.2121 -1.2619
    7CHTO   O56 2665   5.481   1.190   2.913  0.1502 -0.5469 -0.1734
    7CHTO  H135 2666   5.442   1.271   2.888  0.5600 -0.3392 -0.1450
    7CHTO   C81 2667   5.642   1.001   2.884 -0.0803 -0.1735 -0.1682
    7CHTO  H153 2668   5.731   0.972   2.827 -0.7523  1.3190 -2.0074
    7CHTO   N14 2669   5.537   0.904   2.827  0.0522  0.1117 -0.2299
    7CHTO  H141 2670   5.437   0.915   2.863 -0.7532 -2.4689 -1.5878
    7CHTO  H142 2671   5.574   0.806   2.848 -0.2414 -0.1567 -0.9437
    7CHTO   C79 2672   5.681   0.983   3.032  0.0837  0.0368 -0.2752
    7CHTO  H151 2673   5.725   0.883   3.037 -1.2925 -0.5196  1.1261
    7CHTO   O52 2674   5.771   1.084   3.074 -0.2372 -0.2763 -0.2681
    7CHTO   C86 2675   5.744   1.225   3.040 -0.0359 -0.6522  0.9185
    7CHTO  H158 2676   5.652   1.253   3.095  0.5800 -1.0926  2.2019
    7CHTO   C90 2677   5.857   1.312   3.102  1.0123 -0.2449  0.3523
    7CHTO   O60 2678   5.868   1.300   3.240 -0.1785 -0.0463  0.0042
    7CHTO  H138 2679   5.826   1.368   3.289  1.2751  0.6396  0.3322
    7CHTO   O50 2680   5.567   0.998   3.123  0.4015  0.0026 -0.6715
    7CHTO   C73 2681   5.559   0.899   3.225 -0.1740 -0.1511  0.1821
    7CHTO  H145 2682   5.660   0.864   3.251 -0.4236 -0.8127  0.2577
    7CHTO   C74 2683   5.470   0.784   3.169 -0.4421 -0.0401  0.8714
    7CHTO  H146 2684   5.512   0.747   3.074 -0.7903  0.1605  0.6384
    7CHTO   O54 2685   5.481   0.671   3.261 -0.0899  0.6809  0.0284
    7CHTO  H133 2686   5.402   0.621   3.266 -0.3659  0.9538 -1.2682
    7CHTO   C75 2687   5.329   0.844   3.151 -0.2853 -0.2477 -0.5946
    7CHTO  H147 2688   5.334   0.927   3.080 -4.2382  0.4334 -0.1955
    7CHTO   N13 2689   5.237   0.750   3.082 -0.5704 -0.3856 -0.0586
    7CHTO  H139 2690   5.283   0.658   3.051  1.8913  0.7345  0.1538
    7CHTO  H140 2691   5.197   0.794   2.992 -2.0407 -1.5056  0.0239
    7CHTO   C76 2692   5.275   0.907   3.286 -0.6380 -0.2111 -0.5672
    7CHTO  H148 2693   5.267   0.830   3.363 -0.3187  2.3395  2.0778
    7CHTO   O49 2694   5.362   1.010   3.336  0.2995 -0.6158  0.1665
    7CHTO   C77 2695   5.495   0.956   3.356  0.0123  0.3254 -0.6372
    7CHTO  H149 2696   5.498   0.876   3.430  1.6915  2.0921  1.2708
    7CHTO   C88 2697   5.585   1.061   3.429 -0.4480  0.0108 -0.2383
    7CHTO   O58 2698   5.557   1.220   3.394  0.2503  0.1546 -0.1740
    7CHTO  H136 2699   5.480   1.247   3.440  0.0376  1.7735 -1.4554
    7CHTO   O51 2700   5.122   0.990   3.261 -0.0075 -0.1522 -0.3094
    7CHTO   C78 2701   5.069   1.013   3.405  0.2704 -0.1585 -0.0310
    7CHTO  H150 2702   5.145   1.022   3.485  1.4049 -0.9248 -1.0186
    7CHTO   C80 2703   4.976   0.897   3.447  0.9214  0.5510  0.2286
    7CHTO  H152 2704   4.897   0.882   3.371  1.5126  0.1897 -0.3238
    7CHTO   O55 2705   5.049   0.770   3.450  0.1449 -0.7364 -0.0699
    7CHTO  H134 2706   5.095   0.762   3.369 -0.5755 -1.3370 -0.4238
    7CHTO   C84 2707   4.914   0.912   3.588  0.5301 -0.7164  0.7065
    7CHTO  H156 2708   4.997   0.887   3.653  0.3734  2.7506  2.3353
    7CHTO   N15 2709   4.810   0.811   3.627  0.0595  0.1143  0.3479
    7CHTO  H143 2710   4.777   0.822   3.729 -0.8058  0.5615  0.0219
    7CHTO  H144 2711   4.845   0.711   3.612 -0.1544  0.3713 -2.0238
    7CHTO   C87 2712   4.857   1.052   3.605 -0.0140  0.5594 -0.4410
    7CHTO  H159 2713   4.761   1.065   3.555 -1.6657 -1.2282  2.1352
    7CHTO   O53 2714   4.947   1.156   3.564 -0.2223  0.5445 -0.4602
    7CHTO   C82 2715   4.982   1.141   3.427  0.7040 -0.1363  0.6457
    7CHTO  H154 2716   4.896   1.124   3.361 -0.8174 -1.8666  3.0036
    7CHTO   C89 2717   5.055   1.266   3.379  0.0489  0.1191 -0.0371
    7CHTO   O59 2718   4.961   1.376   3.400  0.4393 -0.3748  0.0603
    7CHTO  H137 2719   4.908   1.407   3.329  1.1581  2.7990  0.8023
    7CHTO   O45 2720   4.821   1.075   3.772  0.0505 -0.2166  0.2279
    7CHTO   C67 2721   4.903   1.167   3.849  0.2204  0.3698  0.6855
    7CHTO  H124 2722   4.995   1.196   3.798 -1.5403  2.7609 -1.2777
    7CHTO   C65 2723   4.821   1.302   3.871 -0.2637 -0.2255 -0.2755
    7CHTO  H122 2724   4.716   1.275   3.863 -0.6375  1.2965 -0.6740
    7CHTO   O44 2725   4.865   1.397   3.764  0.1691 -0.3290 -0.0944
    7CHTO  H102 2726   4.793   1.444   3.724  1.0719  1.6924  0.5667
    7CHTO   C63 2727   4.837   1.363   4.019  0.0773 -0.2582  0.3499
    7CHTO  H120 2728   4.774   1.306   4.088 -1.8189  0.4152 -0.8173
    7CHTO   N11 2729   4.781   1.502   4.046 -0.4264 -0.6700 -0.7233
    7CHTO  H108 2730   4.821   1.575   3.979  1.8558 -1.2052  0.0196
    7CHTO  H109 2731   4.818   1.538   4.140  1.1110 -1.1556 -1.1338
    7CHTO   C61 2732   4.983   1.336   4.058 -0.4118  0.0319  0.6726
    7CHTO  H118 2733   4.990   1.373   4.162  0.4129 -0.3983  0.7706
    7CHTO   O40 2734   5.019   1.198   4.064  0.4125  0.2601 -0.2250
    7CHTO   C68 2735   4.940   1.110   3.984  0.2996  0.6502  0.2185
    7CHTO  H125 2736   4.848   1.084   4.040  0.3043 -1.3981 -0.6739
    7CHTO   C72 2737   5.013   0.981   3.959  0.2021 -0.3387 -0.1864
    7CHTO   O48 2738   5.033   0.913   4.083  0.2176 -0.0914 -0.2440
    7CHTO  H105 2739   4.995   0.827   4.088  0.8419 -0.4529 -1.3194
    7CHTO   O38 2740   5.081   1.414   3.977 -0.6740 -0.3096 -1.2245
    7CHTO   C55 2741   5.208   1.454   4.031  0.5769  0.1660  1.0478
    7CHTO  H112 2742   5.227   1.400   4.124  1.7534  2.7569  2.3742
    7CHTO   C56 2743   5.194   1.620   4.060  0.0322  0.0517 -0.2034
    7CHTO  H113 2744   5.151   1.660   3.967  0.0533  1.1601  0.2624
    7CHTO   O42 2745   5.104   1.656   4.160 -0.0110 -0.5850  0.1436
    7CHTO  H100 2746   5.018   1.671   4.124  0.3481 -0.3017 -0.6152
    7CHTO   C57 2747   5.334   1.679   4.079 -0.1446 -0.1458 -0.2731
    7CHTO  H114 2748   5.370   1.662   4.180 -1.0915 -0.3928  0.0181
    7CHTO   N10 2749   5.340   1.827   4.068 -0.3703 -0.0361 -0.1146
    7CHTO  H106 2750   5.440   1.856   4.038 -0.2576  0.3617  0.6333
    7CHTO  H107 2751   5.265   1.874   4.007 -0.4287 -0.2732 -0.2269
    7CHTO   C58 2752   5.437   1.610   3.979  0.0747 -0.7309  0.1353
    7CHTO  H115 2753   5.413   1.647   3.877  0.6157 -0.2006  0.1934
    7CHTO   O37 2754   5.438   1.465   3.981  0.0865  0.0308  0.7625
    7CHTO   C59 2755   5.317   1.407   3.932 -0.6512 -0.4693 -0.0615
    7CHTO  H116 2756   5.300   1.441   3.829  0.6335  1.5555  0.3606
    7CHTO   C70 2757   5.327   1.260   3.922 -0.4294  0.3137 -0.3560
    7CHTO   O46 2758   5.315   1.214   3.792  0.1005  0.0260 -0.3067
    7CHTO  H103 2759   5.335   1.122   3.794  1.9991  0.4498  1.1329
    7CHTO   O39 2760   5.597   1.652   4.021 -0.1276 -1.0907  0.1942
    7CHTO   C60 2761   5.706   1.588   3.951  1.0926 -0.6153 -0.1249
    7CHTO  H117 2762   5.716   1.482   3.975  0.2730 -0.7541 -0.3853
    7CHTO   C62 2763   5.692   1.591   3.798 -0.5701  0.0773 -0.3000
    7CHTO  H119 2764   5.610   1.522   3.770 -0.3734  0.6981 -2.5524
    7CHTO   O43 2765   5.667   1.724   3.746  0.2217 -0.3327 -0.4838
    7CHTO  H101 2766   5.746   1.773   3.759 -0.2456  0.2431  0.1889
    7CHTO   C66 2767   5.823   1.529   3.731 -0.4572 -0.2284  0.2777
    7CHTO  H123 2768   5.832   1.426   3.767  0.9840 -1.4164 -3.2427
    7CHTO   N12 2769   5.812   1.525   3.586  0.2010  0.7343 -0.1452
    7CHTO  H110 2770   5.869   1.445   3.541  0.2193  1.0488 -0.6768
    7CHTO  H111 2771   5.711   1.527   3.547 -0.2078 -1.5838  0.6946
    7CHTO   C69 2772   5.944   1.609   3.772 -0.0521  0.4575  0.2057
    7CHTO  H126 2773   5.951   1.713   3.735  2.7640 -0.0818 -0.8914
    7CHTO   O41 2774   5.958   1.611   3.909 -0.4312  0.4739  0.0866
    7CHTO   C64 2775   5.841   1.663   3.993 -0.5578  0.1014  0.4820
    7CHTO  H121 2776   5.824   1.770   3.970 -0.0415 -0.4039 -2.5646
    7CHTO   C71 2777   5.888   1.629   4.140  0.3078 -0.4039 -0.6654
    7CHTO   O47 2778   6.015   1.695   4.167  0.4534 -0.2840  0.5096
    7CHTO  H104 2779   6.086   1.636   4.151  1.1331 -0.1143  2.6478
    7CHTO   O34 2780   6.069   1.545   3.720 -0.4237 -0.4367  0.2042
    7CHTO   C49 2781   6.187   1.461   3.729  0.4144  0.2439 -0.2423
    7CHTO   H91 2782   6.252   1.511   3.802 -2.3977  1.0540  1.7642
    7CHTO   C47 2783   6.257   1.449   3.595 -0.2426  0.8560  0.2047
    7CHTO   H89 2784   6.356   1.399   3.609 -0.1424  1.0003  0.0219
    7CHTO   O33 2785   6.287   1.584   3.556  0.2072  0.0292  0.6930
    7CHTO   H70 2786   6.346   1.629   3.613  0.1477  3.0286 -1.5093
    7CHTO   C45 2787   6.171   1.363   3.498 -0.6337  0.2918 -0.5578
    7CHTO   H87 2788   6.072   1.410   3.489 -1.6566 -1.7408 -0.0766
    7CHTO    N8 2789   6.234   1.346   3.364  0.1255 -0.6602  0.8363
    7CHTO   H75 2790   6.257   1.441   3.319  1.6567 -0.3723  2.1874
    7CHTO   H76 2791   6.181   1.276   3.301  0.3198  1.8463 -2.1957
    7CHTO   C43 2792   6.145   1.225   3.566 -0.3433  0.4195  0.1822
    7CHTO   H85 2793   6.077   1.176   3.497 -0.4063  0.8760 -0.0799
    7CHTO   O29 2794   6.087   1.243   3.695 -0.4405  0.0776  0.5014
    7CHTO   C50 2795   6.145   1.325   3.794 -0.1705 -0.5759 -0.0404
    7CHTO   H92 2796   6.065   1.343   3.867  0.6286  0.1994  0.6591
    7CHTO   C54 2797   6.268   1.267   3.868 -0.4792  0.2125 -0.1416
    7CHTO   O36 2798   6.317   1.354   3.970 -0.3493  0.7176  0.1502
    7CHTO   H72 2799   6.407   1.380   3.969 -0.5081  1.2867  0.3203
    7CHTO   O27 2800   6.267   1.145   3.583 -0.3463  0.0561 -0.0057
    7CHTO   C37 2801   6.337   1.024   3.607  0.5373  0.6299 -0.0955
    7CHTO   H79 2802   6.368   1.038   3.712 -0.1944  1.3079  0.0330
    7CHTO   C38 2803   6.243   0.904   3.589 -0.0098 -0.0955  0.3501
    7CHTO   H80 2804   6.200   0.905   3.487  1.1100 -3.3852 -0.2100
    7CHTO   O31 2805   6.134   0.902   3.675  0.1647  0.5276  0.0756
    7CHTO   H68 2806   6.095   0.818   3.690  2.5197 -0.5477  0.3822
    7CHTO   C39 2807   6.319   0.761   3.601  0.6145 -0.8774 -1.0594
    7CHTO   H81 2808   6.348   0.749   3.706  1.9735  1.7918 -1.0864
    7CHTO    N7 2809   6.237   0.637   3.579 -0.0230  0.3023 -0.2100
    7CHTO   H73 2810   6.168   0.640   3.496 -1.0015 -0.1970  0.5765
    7CHTO   H74 2811   6.182   0.619   3.670 -1.1855  0.5718 -0.8470
    7CHTO   C40 2812   6.454   0.764   3.509 -0.2720 -0.8196 -1.1383
    7CHTO   H82 2813   6.413   0.757   3.408 -0.4680 -3.4106 -0.9204
    7CHTO   O26 2814   6.529   0.885   3.529  0.1432 -0.7075  0.2356
    7CHTO   C41 2815   6.458   1.009   3.516  0.6093 -0.0521 -0.4216
    7CHTO   H83 2816   6.412   1.004   3.416 -0.4785 -0.5944  0.0973
    7CHTO   C52 2817   6.557   1.125   3.526  0.2895 -0.2385  0.6829
    7CHTO   O35 2818   6.608   1.141   3.679  0.0152  0.1172  0.5532
    7CHTO   H71 2819   6.655   1.063   3.701 -1.6428 -1.4028 -1.1152
    7CHTO   O28 2820   6.538   0.654   3.543 -0.4932  0.3463 -0.0050
    7CHTO   C42 2821   6.663   0.627   3.482 -0.7735  0.1736  0.0883
    7CHTO   H84 2822   6.687   0.531   3.527 -0.9212  0.1553  0.1272
    7CHTO   C44 2823   6.779   0.725   3.525  1.0226  0.2435  0.4011
    7CHTO   H86 2824   6.757   0.825   3.487 -0.2780 -0.3282 -0.4250
    7CHTO   O32 2825   6.784   0.724   3.668  0.0839 -0.1001  0.0743
    7CHTO   H69 2826   6.773   0.639   3.708  1.5671 -0.3053  0.0963
    7CHTO   C48 2827   6.920   0.691   3.459  0.0700 -0.6625  0.2827
    7CHTO   H90 2828   6.949   0.596   3.503 -0.8998 -0.3311  1.6543
    7CHTO    N9 2829   7.031   0.799   3.490 -0.2436 -0.2015  0.4206
    7CHTO   H77 2830   7.015   0.846   3.586  1.0546 -1.3017  1.1797
    7CHTO   H78 2831   7.130   0.756   3.485 -0.3909 -0.5479  0.4588
    7CHTO   C51 2832   6.897   0.675   3.304 -1.0289  0.7035 -0.1319
    7CHTO   H93 2833   6.879   0.778   3.273  3.2891  1.7974  0.7906
    7CHTO   O30 2834   6.787   0.587   3.273  0.6007 -0.1726  0.2182
    7CHTO   C46 2835   6.645   0.613   3.331  0.6201 -0.1367  0.4571
    7CHTO   H88 2836   6.604   0.702   3.281  0.2916 -0.2764  0.4748
    7CHTO   C53 2837   6.558   0.481   3.309  0.7280 -0.6330  0.3710
    7CHTO   O72 2838   6.417   0.489   3.341  0.2331 -0.0407  0.0097
    7CHTO  H199 2839   6.378   0.404   3.330 -0.1466  0.4041 -2.3596
    7CHTO   O22 2840   7.014   0.619   3.244 -0.6926  0.1681  0.1207
    7CHTO   C31 2841   7.030   0.629   3.098  0.0176 -0.0944  0.4148
    7CHTO   H59 2842   7.134   0.601   3.071  1.2028  2.6251  1.9408
    7CHTO   C29 2843   6.932   0.542   3.015  0.0385  0.2064  0.1379
    7CHTO   H57 2844   6.831   0.565   3.052 -1.0739  1.7838 -3.7279
    7CHTO   O21 2845   6.950   0.403   3.045 -0.2651 -0.0303  0.4840
    7CHTO   H37 2846   6.982   0.386   3.131  0.1960 -3.4041 -0.2710
    7CHTO   C27 2847   6.933   0.574   2.855 -0.5743 -0.3193 -0.4809
    7CHTO   H55 2848   7.025   0.532   2.814 -0.7333 -0.5026 -0.6526
    7CHTO    N5 2849   6.814   0.518   2.791  0.2082  0.5239  0.3056
    7CHTO   H43 2850   6.761   0.605   2.755  0.5219  1.2874  1.6627
    7CHTO   H44 2851   6.841   0.453   2.708 -0.4875  1.5041 -0.7126
    7CHTO   C25 2852   6.946   0.729   2.824 -0.1694  0.0585  0.1410
    7CHTO   H53 2853   6.853   0.784   2.843 -0.8165 -1.1396  0.4980
    7CHTO   O17 2854   7.057   0.784   2.903 -0.1850  0.0499 -0.0729
    7CHTO   C32 2855   7.019   0.779   3.048 -0.6221  0.6177 -0.4941
    7CHTO   H60 2856   6.916   0.812   3.059 -0.0531  2.0950  0.4209
    7CHTO   C36 2857   7.105   0.885   3.131 -0.3463  0.3911  0.5040
    7CHTO   O25 2858   7.247   0.853   3.155  1.0114 -0.0139  0.3862
    7CHTO   H40 2859   7.283   0.882   3.237  1.0783  1.4492 -0.1442
    7CHTO   O15 2860   6.990   0.742   2.678 -0.5357  0.4628  0.0920
    7CHTO   C19 2861   6.981   0.842   2.569 -0.1199  0.0926  0.6693
    7CHTO   H47 2862   7.035   0.796   2.485  0.7362  1.0694  0.6703
    7CHTO   C20 2863   6.843   0.870   2.522 -0.4951 -0.0105 -0.1036
    7CHTO   H48 2864   6.775   0.894   2.604 -0.0457  2.1440 -0.3414
    7CHTO   O19 2865   6.804   0.737   2.482 -0.3702  0.0048  0.1154
    7CHTO   H35 2866   6.720   0.736   2.441  0.1373 -0.2738 -0.9162
    7CHTO   C21 2867   6.841   0.976   2.411  0.9556 -0.4911 -0.5423
    7CHTO   H49 2868   6.909   0.947   2.331  0.7009 -1.9611 -0.2519
    7CHTO    N4 2869   6.705   0.994   2.354  0.3896  0.2739 -0.0826
    7CHTO   H41 2870   6.685   1.082   2.295 -1.7902  0.7624  1.3323
    7CHTO   H42 2871   6.621   0.983   2.420 -1.5071 -0.0515 -2.4677
    7CHTO   C22 2872   6.913   1.104   2.456  0.1140  0.8618 -0.9080
    7CHTO   H50 2873   6.853   1.146   2.537  1.3294  2.1184 -0.6529
    7CHTO   O14 2874   7.046   1.074   2.501 -0.1179 -0.2822  0.4357
    7CHTO   C23 2875   7.064   0.972   2.601 -0.0659 -0.1803  0.6268
    7CHTO   H51 2876   7.033   1.024   2.693 -1.8568 -1.5829  0.8716
    7CHTO   C34 2877   7.205   0.942   2.625 -0.2892  0.1044  0.2620
    7CHTO   O23 2878   7.272   0.922   2.500  0.1286  0.3272  0.2091
    7CHTO   H38 2879   7.323   0.997   2.477 -1.2250  0.8695 -1.1970
    7CHTO   O16 2880   6.924   1.203   2.347 -0.1542  0.4203 -0.5951
    7CHTO   C24 2881   6.943   1.360   2.413  0.1926  0.1666  0.5870
    7CHTO   H52 2882   6.965   1.360   2.520  1.3175 -1.0148  0.3608
    7CHTO   C26 2883   6.814   1.437   2.388 -0.4607 -0.3688 -0.8747
    7CHTO   H54 2884   6.783   1.422   2.283 -1.6798 -0.0399 -0.5768
    7CHTO   O20 2885   6.707   1.361   2.461 -0.1320 -0.1637 -0.2553
    7CHTO   H36 2886   6.626   1.403   2.441 -0.7062 -1.7559 -1.4188
    7CHTO   C30 2887   6.818   1.584   2.426 -0.4242 -0.8365  0.4536
    7CHTO   H58 2888   6.823   1.600   2.534 -0.6944 -3.0490  0.8091
    7CHTO    N6 2889   6.697   1.651   2.385  0.5024 -0.5457  0.0753
    7CHTO   H45 2890   6.619   1.589   2.426  0.0461 -0.3999 -0.5627
    7CHTO   H46 2891   6.693   1.750   2.429  0.6038  0.1424 -1.4115
    7CHTO   C33 2892   6.954   1.653   2.377  0.1787  0.0718  0.6058
    7CHTO   H61 2893   6.949   1.677   2.270 -0.2785  2.4736  1.1373
    7CHTO   O18 2894   7.072   1.568   2.404  0.0557  0.4173 -0.4958
    7CHTO   C28 2895   7.060   1.438   2.341  0.8886  0.1051 -0.0039
    7CHTO   H56 2896   7.036   1.445   2.235  0.9800  1.0857  0.0400
    7CHTO   C35 2897   7.194   1.365   2.355  0.0838  0.3910 -0.2182
    7CHTO   O24 2898   7.306   1.421   2.283 -0.1494  0.7183  0.2971
    7CHTO   H39 2899   7.317   1.510   2.309 -1.8110  1.2159 -0.6484
    7CHTO    O9 2900   6.968   1.783   2.442 -0.2265 -0.5392 -0.7680
    7CHTO   C13 2901   7.110   1.857   2.407 -0.5574 -0.0593  0.2372
    7CHTO   H26 2902   7.154   1.802   2.321 -0.1810  0.3362  0.1750
    7CHTO   C11 2903   7.202   1.843   2.537  1.0370 -0.0668  0.3008
    7CHTO   H24 2904   7.227   1.737   2.554  0.4992 -0.5737 -1.8879
    7CHTO    O8 2905   7.122   1.884   2.655  0.6061 -0.5811  0.1183
    7CHTO    H3 2906   7.175   1.943   2.704 -0.0010  0.7430 -0.7751
    7CHTO    C9 2907   7.328   1.929   2.519 -0.4541 -0.5531 -0.2600
    7CHTO   H22 2908   7.382   1.895   2.429 -1.2751 -2.8554  0.1092
    7CHTO    N2 2909   7.424   1.905   2.631 -0.1019 -0.3631 -0.3317
    7CHTO   H10 2910   7.449   1.802   2.651  0.5410  0.0068  0.8105
    7CHTO   H11 2911   7.407   1.964   2.720 -0.0776  0.2156 -0.7048
    7CHTO    C7 2912   7.297   2.078   2.497 -0.0688  0.2140  0.2896
    7CHTO   H20 2913   7.395   2.125   2.474  0.3613 -0.6820  0.2654
    7CHTO    O4 2914   7.209   2.089   2.384  0.3421  0.2979 -0.5567
    7CHTO   C14 2915   7.090   2.007   2.363  0.0810  0.1215  0.2835
    7CHTO   H27 2916   7.070   2.006   2.254  0.1596  0.7970  0.2608
    7CHTO   C18 2917   6.972   2.074   2.439 -0.1635  0.2372 -0.1212
    7CHTO   O13 2918   6.951   2.211   2.417  0.0720 -1.5254  0.0546
    7CHTO    H7 2919   6.954   2.253   2.501 -0.5052 -1.7464  0.1911
    7CHTO    O2 2920   7.235   2.152   2.637 -0.0019 -0.4466 -0.2619
    7CHTO    C1 2921   7.270   2.289   2.668  0.5504  0.1501 -0.3995
    7CHTO   H14 2922   7.230   2.338   2.576 -2.1453 -0.0468  0.6261
    7CHTO    C2 2923   7.419   2.332   2.695 -0.1502  0.1476  0.1162
    7CHTO   H15 2924   7.458   2.253   2.760  0.9005  2.0548  1.8389
    7CHTO    O6 2925   7.481   2.311   2.569 -0.9264  0.6053 -0.0200
    7CHTO    H1 2926   7.573   2.324   2.582 -1.3896  1.0094  3.1038
    7CHTO    C3 2927   7.446   2.483   2.743 -0.2315 -0.0738  0.1162
    7CHTO   H16 2928   7.425   2.539   2.650 -0.0233  0.2869  0.2847
    7CHTO    N1 2929   7.589   2.503   2.796 -0.4069  0.3604  0.8464
    7CHTO    H8 2930   7.599   2.431   2.876  2.6567  0.1122  0.2931
    7CHTO    H9 2931   7.661   2.474   2.721 -2.7418  0.4211 -1.5035
    7CHTO    C4 2932   7.328   2.512   2.838  0.3708  0.5262  0.1168
    7CHTO   H17 2933   7.344   2.465   2.935  0.7317  1.4761  0.5249
    7CHTO    O1 2934   7.201   2.489   2.780  0.0678 -0.3948 -0.1900
    7CHTO    C5 2935   7.178   2.348   2.782 -0.4301 -0.1143  0.4041
    7CHTO   H18 2936   7.210   2.314   2.880  1.6196 -1.0621 -0.5460
    7CHTO   C16 2937   7.033   2.317   2.763 -0.1905  0.6891 -0.7069
    7CHTO   O11 2938   6.960   2.330   2.884  0.1022  0.0676  0.4477
    7CHTO    H5 2939   6.881   2.279   2.885  0.1502 -0.0048  0.5280
    7CHTO    O3 2940   7.320   2.651   2.852 -0.3507 -0.0364  0.3440
    7CHTO    C6 2941   7.335   2.728   2.978 -0.1419  0.0063  0.6028
    7CHTO   H19 2942   7.350   2.660   3.061  1.4317 -0.5462 -0.1189
    7CHTO    C8 2943   7.455   2.831   2.963 -0.9829  0.3884 -0.3317
    7CHTO   H21 2944   7.461   2.866   2.860 -0.2539 -0.7437 -0.6912
    7CHTO    O7 2945   7.578   2.759   2.990 -0.0493  0.1131 -0.7207
    7CHTO    H2 2946   7.590   2.690   2.927  4.1829  0.1759 -0.1136
    7CHTO   C12 2947   7.437   2.950   3.059 -0.5727  0.7104 -0.2947
    7CHTO   H25 2948   7.488   2.920   3.153 -1.2839  0.8148  0.1256
    7CHTO    N3 2949   7.519   3.063   3.006 -0.6002 -0.0548  0.0989
    7CHTO   H12 2950   7.521   3.134   3.087  0.7910 -1.6158  1.4695
    7CHTO   H13 2951   7.471   3.116   2.926  0.0027 -0.0751 -0.2811
    7CHTO   C15 2952   7.298   3.000   3.094  0.1622  1.0911 -0.0184
    7CHTO   H28 2953   7.249   3.072   3.029  0.4579  1.0489 -0.2874
    7CHTO   O10 2954   7.294   3.068   3.238 -0.4021  0.0166 -0.5715
    7CHTO    H4 2955   7.373   3.118   3.246  1.3559 -2.4669 -1.6821
    7CHTO    O5 2956   7.213   2.890   3.124 -0.0792  0.1855 -0.6644
    7CHTO   C10 2957   7.198   2.802   3.005  0.1171 -0.7757  0.3969
    7CHTO   H23 2958   7.166   2.857   2.917  0.2121  0.0074  0.8536
    7CHTO   C17 2959   7.085   2.699   3.041 -0.4585 -0.0884 -0.0365
    7CHTO   O12 2960   6.957   2.760   3.067  0.3290  0.0282  0.0099
    7CHTO    H6 2961   6.944   2.814   2.991  1.2652 -0.8474 -0.7835
    8CHTO  H203 2962   7.017   8.495   1.966 -0.9446  0.6955 -2.4681
    8CHTO   O82 2963   6.987   8.567   2.018 -0.0467 -0.4461 -0.3023
    8CHTO  C123 2964   6.886   8.653   1.965 -0.0511  0.1826  0.6788
    8CHTO  H227 2965   6.934   8.748   1.934  1.4711 -1.0423 -0.8383
    8CHTO   O77 2966   6.835   8.582   1.845 -0.0845 -0.4131  0.3278
    8CHTO  C118 2967   6.718   8.637   1.785  0.1452  0.2753 -0.5415
    8CHTO  H222 2968   6.747   8.733   1.741  1.2730 -0.5666 -1.6729
    8CHTO  C125 2969   6.660   8.536   1.669  0.0804 -0.1657 -0.5084
    8CHTO   O84 2970   6.647   8.406   1.720  0.3912  0.3060 -0.1742
    8CHTO  H205 2971   6.670   8.354   1.645 -0.6439 -0.8133  0.2726
    8CHTO  C114 2972   6.600   8.655   1.886  0.7304 -1.1436 -0.4854
    8CHTO  H218 2973   6.563   8.557   1.918  0.0411 -0.4154  0.9899
    8CHTO  C116 2974   6.639   8.741   2.008  0.8286 -0.3158  0.2148
    8CHTO  H220 2975   6.663   8.848   1.989  0.0425 -0.0745  0.5474
    8CHTO   O79 2976   6.526   8.744   2.095 -0.3709  0.1738  0.4288
    8CHTO  H201 2977   6.473   8.820   2.081  0.5068  0.7158 -0.0008
    8CHTO  C120 2978   6.769   8.673   2.070 -1.1723  0.7397 -0.3052
    8CHTO  H224 2979   6.731   8.577   2.110  3.3588 -0.8740  0.3728
    8CHTO   N21 2980   6.820   8.758   2.183  0.4324 -0.3868 -0.7136
    8CHTO  H211 2981   6.927   8.744   2.183  0.5372  0.2341  0.9342
    8CHTO  H212 2982   6.786   8.724   2.280  2.0069 -1.3788 -0.4881
    8CHTO   O75 2983   6.492   8.700   1.800 -0.7303  0.3891 -0.0364
    8CHTO  C112 2984   6.394   8.821   1.865  0.1172  0.2454 -0.4906
    8CHTO  H216 2985   6.450   8.890   1.929  2.0819 -1.2734 -0.5327
    8CHTO   O73 2986   6.287   8.751   1.932  0.0466 -0.2572  0.6253
    8CHTO  C113 2987   6.190   8.838   1.991  0.3867 -0.0936 -0.7253
    8CHTO  H217 2988   6.244   8.907   2.060 -0.5855  2.6511 -2.6010
    8CHTO  C124 2989   6.093   8.755   2.071  0.0468  0.0297  0.1283
    8CHTO   O83 2990   6.143   8.748   2.205 -0.3185  0.5536  0.3177
    8CHTO  H204 2991   6.122   8.668   2.249 -1.9014  0.8402  0.1011
    8CHTO  C109 2992   6.121   8.932   1.887 -0.3794 -0.2280 -0.5815
    8CHTO  H213 2993   6.052   8.872   1.826 -0.2948 -0.1494 -0.7537
    8CHTO  C110 2994   6.222   9.008   1.801  0.8168 -0.1402  0.8725
    8CHTO  H214 2995   6.272   9.078   1.868  1.3257  1.3254 -0.9938
    8CHTO   O78 2996   6.159   9.082   1.697  0.9772 -0.7649  0.0838
    8CHTO  H200 2997   6.212   9.158   1.686  1.0539 -0.0054  4.5621
    8CHTO  C111 2998   6.329   8.912   1.744  0.5134  0.5118  0.0035
    8CHTO  H215 2999   6.285   8.846   1.668  2.8059 -0.2985 -0.6729
    8CHTO   N19 3000   6.436   8.995   1.678  0.1465 -0.3400 -0.0290
    8CHTO  H207 3001   6.465   8.945   1.587 -0.6552  0.8271 -0.9558
    8CHTO  H208 3002   6.517   9.016   1.746  2.1777 -0.1655 -2.4034
    8CHTO   O74 3003   6.038   9.030   1.964 -0.1129 -0.0294 -0.6883
    8CHTO  C115 3004   5.893   8.995   1.970  0.0144 -0.3774 -1.0873
    8CHTO  H219 3005   5.877   8.888   1.959 -0.0453 -0.6041  0.9611
    8CHTO   O76 3006   5.835   9.027   2.115 -0.4273  0.3963 -0.2477
    8CHTO  C122 3007   5.819   9.168   2.141 -0.5354  0.1780  0.2122
    8CHTO  H226 3008   5.917   9.215   2.139 -0.0974 -0.6906  0.9074
    8CHTO  C126 3009   5.760   9.198   2.282  0.6005 -0.2197 -0.0672
    8CHTO   O85 3010   5.662   9.101   2.320 -0.3856  0.2190 -0.0611
    8CHTO  H206 3011   5.581   9.102   2.274  0.9774  0.0659 -2.5538
    8CHTO  C121 3012   5.717   9.231   2.034  0.0087  0.3832  0.2284
    8CHTO  H225 3013   5.629   9.165   2.047  0.2331  0.2157  0.8711
    8CHTO   O81 3014   5.674   9.360   2.062 -0.0749  0.3455 -0.0195
    8CHTO  H202 3015   5.724   9.405   2.128  0.8167  0.4292 -0.7506
    8CHTO  C119 3016   5.790   9.216   1.892  0.0432  0.2841 -0.1219
    8CHTO  H223 3017   5.728   9.267   1.819  0.7684 -0.4453 -1.2603
    8CHTO  C117 3018   5.820   9.071   1.851  0.2663  0.3793  0.5858
    8CHTO  H221 3019   5.893   9.068   1.770  0.1816  2.0092  0.4262
    8CHTO   N20 3020   5.704   8.993   1.792 -0.2732  0.1830  0.2680
    8CHTO  H209 3021   5.638   8.974   1.875 -0.2056  0.9162  0.4946
    8CHTO  H210 3022   5.731   8.912   1.725  1.6679  2.4210 -1.7354
    8CHTO   O80 3023   5.925   9.301   1.877 -0.6134  0.2445 -0.2145
    8CHTO  C103 3024   5.918   9.475   1.878  0.1044 -0.0348 -0.4365
    8CHTO  H190 3025   5.814   9.507   1.876  0.2982  0.7510  1.0436
    8CHTO  C101 3026   5.986   9.534   2.011  0.0673 -0.2765 -0.5769
    8CHTO  H188 3027   6.083   9.486   2.026 -0.5579 -2.3157 -2.8100
    8CHTO   O68 3028   5.883   9.501   2.126 -0.0745 -0.5469 -0.2517
    8CHTO  H168 3029   5.850   9.414   2.117  1.5808 -1.2778  0.6461
    8CHTO   C99 3030   6.016   9.684   1.994 -0.4236  0.4837  0.7706
    8CHTO  H186 3031   5.920   9.734   1.972 -0.9523 -0.5482  0.7162
    8CHTO   N17 3032   6.079   9.754   2.104 -0.2899  0.3037  0.3018
    8CHTO  H174 3033   6.184   9.771   2.083  0.1834 -2.9580 -0.3078
    8CHTO  H175 3034   6.083   9.709   2.202  0.0021 -0.0679  0.1227
    8CHTO   C97 3035   6.107   9.702   1.868  0.0869  0.0289  0.3406
    8CHTO  H184 3036   6.195   9.638   1.880  0.5758  0.7903  0.8132
    8CHTO   O64 3037   6.026   9.660   1.760 -0.2262  0.3557  0.2474
    8CHTO  C104 3038   5.991   9.525   1.746  0.2113  0.1169 -0.0808
    8CHTO  H191 3039   6.077   9.462   1.725  0.5911  1.1322 -1.6980
    8CHTO  C108 3040   5.888   9.495   1.634  0.2743 -0.0502 -0.6552
    8CHTO   O71 3041   5.929   9.557   1.509 -0.4363 -0.1881 -0.0329
    8CHTO  H171 3042   5.996   9.508   1.467 -1.0979 -0.5515 -0.6815
    8CHTO   O62 3043   6.143   9.834   1.817 -0.2318  0.1449 -0.8928
    8CHTO   C91 3044   6.239   9.850   1.708  0.3487 -0.4004  0.2850
    8CHTO  H178 3045   6.310   9.768   1.712  0.8788  0.1115  1.9526
    8CHTO   C92 3046   6.333   9.970   1.758 -0.4093  0.3530  0.3049
    8CHTO  H179 3047   6.356   9.956   1.865 -1.9031 -0.3405  0.5508
    8CHTO   O66 3048   6.464   9.959   1.695 -0.2145 -0.3253 -0.3090
    8CHTO  H166 3049   6.454   9.978   1.603  3.1252  3.1764 -0.0993
    8CHTO   C93 3050   6.270  10.112   1.712 -0.0063 -0.5059 -0.2584
    8CHTO  H180 3051   6.352  10.184   1.706 -0.5094  0.0870 -0.1302
    8CHTO   N16 3052   6.187  10.179   1.818 -0.6182  0.8517  0.4620
    8CHTO  H172 3053   6.091  10.129   1.825 -0.2592  0.2503  1.0969
    8CHTO  H173 3054   6.242  10.188   1.910  0.0152  0.1545  0.1530
    8CHTO   C94 3055   6.192  10.112   1.574 -0.0270 -0.0042  0.0690
    8CHTO  H181 3056   6.084  10.110   1.590 -0.2995 -0.5678 -1.7194
    8CHTO   O61 3057   6.234   9.994   1.505  0.2778  0.3328 -0.1561
    8CHTO   C95 3058   6.176   9.879   1.559 -0.5036 -0.3878  0.6392
    8CHTO  H182 3059   6.068   9.886   1.560 -0.4655  0.1607  0.6277
    8CHTO  C106 3060   6.205   9.744   1.478 -0.1159 -0.0564 -0.5528
    8CHTO   O69 3061   6.166   9.755   1.344 -0.2898 -0.0387 -0.9208
    8CHTO  H169 3062   6.210   9.823   1.297 -0.1394  2.2946  2.3923
    8CHTO   O63 3063   6.228  10.231   1.490  0.3890  0.1563  0.3904
    8CHTO   C96 3064   6.144  10.254   1.373  0.6837 -0.2419 -0.4970
    8CHTO  H183 3065   6.063  10.182   1.364  0.0324  0.7498 -3.3923
    8CHTO   C98 3066   6.222  10.253   1.237  0.0108 -0.0387 -0.1431
    8CHTO  H185 3067   6.297  10.332   1.225  0.2454 -0.0552  1.1310
    8CHTO   O67 3068   6.290  10.128   1.224 -0.1170 -0.3370 -0.2722
    8CHTO  H167 3069   6.264  10.080   1.148  1.0338  0.3602 -1.1238
    8CHTO  C102 3070   6.119  10.262   1.120  0.0256  0.0122  0.2616
    8CHTO  H189 3071   6.052  10.175   1.125 -1.0453  0.8646  1.0526
    8CHTO   N18 3072   6.180  10.259   0.983 -1.1356 -0.2705 -0.2495
    8CHTO  H176 3073   6.287  10.251   0.972 -0.9648  1.2263  0.1629
    8CHTO  H177 3074   6.130  10.184   0.923 -0.5533 -0.6541 -0.2630
    8CHTO  C105 3075   6.031  10.387   1.131  0.8706  0.3924  0.0963
    8CHTO  H192 3076   6.091  10.475   1.111 -0.1663  0.6699 -1.9890
    8CHTO   O65 3077   5.976  10.402   1.265  0.2261  0.4648 -0.5216
    8CHTO  C100 3078   6.062  10.385   1.379  0.3218 -0.0742  1.2594
    8CHTO  H187 3079   6.129  10.472   1.374  1.4268 -0.8849  1.7707
    8CHTO  C107 3080   5.973  10.386   1.504 -0.1298  0.8123 -0.5268
    8CHTO   O70 3081   5.882  10.283   1.530  0.3166 -0.1541  0.3359
    8CHTO  H170 3082   5.881  10.224   1.457  1.0090 -1.3079  1.2415
    8CHTO   O57 3083   5.905  10.373   1.014  0.0679  0.4084  0.1014
    8CHTO   C85 3084   5.879  10.496   0.939  0.1343 -0.2563 -0.0977
    8CHTO  H157 3085   5.972  10.513   0.881 -0.4886  0.4486 -0.8961
    8CHTO   C83 3086   5.847  10.620   1.026 -0.3574  0.3495 -0.3984
    8CHTO  H155 3087   5.937  10.640   1.084  0.6952  0.1626 -1.9373
    8CHTO   O56 3088   5.735  10.590   1.111  0.7277  0.2539  0.7561
    8CHTO  H135 3089   5.757  10.599   1.202  0.5708  0.5057  0.7695
    8CHTO   C81 3090   5.814  10.740   0.935  0.1368  0.8351  0.6989
    8CHTO  H153 3091   5.901  10.753   0.870 -0.1494 -0.2817  0.0890
    8CHTO   N14 3092   5.806  10.869   1.005 -0.4013 -0.5709 -0.2671
    8CHTO  H141 3093   5.792  10.960   0.951  0.9240  0.0398  0.3679
    8CHTO  H142 3094   5.740  10.869   1.090  0.0675 -0.5245  0.0998
    8CHTO   C79 3095   5.687  10.713   0.844  0.5221 -0.6541  0.3931
    8CHTO  H151 3096   5.688  10.792   0.769 -0.4107 -1.2061 -0.2071
    8CHTO   O52 3097   5.714  10.594   0.764  0.2525  0.0945 -0.4080
    8CHTO   C86 3098   5.760  10.477   0.838 -0.8143 -0.3252  0.1340
    8CHTO  H158 3099   5.670  10.438   0.889 -0.1556 -0.8172  0.9237
    8CHTO   C90 3100   5.796  10.367   0.735  0.6271 -0.0714  0.7664
    8CHTO   O60 3101   5.680  10.334   0.653  0.2050 -0.0441  0.2124
    8CHTO  H138 3102   5.708  10.266   0.595 -0.6738  1.0787 -1.5493
    8CHTO   O50 3103   5.555  10.707   0.903  0.5073 -0.2191  0.2899
    8CHTO   C73 3104   5.409  10.695   0.914  0.5638  0.6850 -0.1145
    8CHTO  H145 3105   5.365  10.708   0.814  2.4284  1.9004 -0.8103
    8CHTO   C74 3106   5.369  10.811   1.010  0.6447 -0.1381  0.6977
    8CHTO  H146 3107   5.397  10.910   0.971  0.2391 -0.2047  0.2244
    8CHTO   O54 3108   5.226  10.813   1.015 -0.4168  0.5641  0.7391
    8CHTO  H133 3109   5.187  10.736   1.051 -1.9431  1.0501  0.1452
    8CHTO   C75 3110   5.443  10.784   1.157 -0.1079  0.5839  0.7981
    8CHTO  H147 3111   5.552  10.796   1.145 -0.3477  3.2692  1.0440
    8CHTO   N13 3112   5.419  10.900   1.254 -0.0182  0.0913 -0.3475
    8CHTO  H139 3113   5.429  10.995   1.204 -1.8148  0.6458  0.3067
    8CHTO  H140 3114   5.479  10.894   1.344  2.5693  0.7093 -1.9720
    8CHTO   C76 3115   5.402  10.635   1.206  0.1108 -0.2344  0.3207
    8CHTO  H148 3116   5.303  10.639   1.250  0.9411 -2.2800  2.4568
    8CHTO   O49 3117   5.423  10.534   1.094 -0.3724 -1.0511  0.0531
    8CHTO   C77 3118   5.357  10.562   0.969  0.6404 -0.7047  0.2036
    8CHTO  H149 3119   5.249  10.572   0.983  0.3470  0.5960 -2.6017
    8CHTO   C88 3120   5.402  10.460   0.867  0.6112  0.0565 -0.4493
    8CHTO   O58 3121   5.373  10.318   0.922 -0.2356  0.4735 -0.1026
    8CHTO  H136 3122   5.432  10.302   0.993 -0.9722 -0.0317  0.4096
    8CHTO   O51 3123   5.493  10.594   1.298 -0.6581 -0.2318  1.0376
    8CHTO   C78 3124   5.437  10.463   1.378  0.1395 -0.1647 -0.0923
    8CHTO  H150 3125   5.357  10.425   1.311  0.2236  1.0744 -0.8979
    8CHTO   C80 3126   5.375  10.498   1.517 -0.0458 -0.0186  0.2791
    8CHTO  H152 3127   5.450  10.556   1.575  1.4602  1.2289 -2.8344
    8CHTO   O55 3128   5.268  10.594   1.496 -0.2099  0.9798  0.5826
    8CHTO  H134 3129   5.195  10.543   1.465  1.7632 -0.7627 -1.3229
    8CHTO   C84 3130   5.322  10.363   1.590  0.2693  0.7582 -0.6273
    8CHTO  H156 3131   5.245  10.316   1.529  1.9145  0.0783 -2.2146
    8CHTO   N15 3132   5.261  10.387   1.723 -0.0423 -0.5708  0.3294
    8CHTO  H143 3133   5.345  10.421   1.780  0.3087 -0.3683 -0.3148
    8CHTO  H144 3134   5.190  10.467   1.723  0.4211 -0.1292 -2.5538
    8CHTO   C87 3135   5.434  10.258   1.595 -0.0371 -0.2253  0.5974
    8CHTO  H159 3136   5.513  10.294   1.660  0.7982  2.3092 -1.7456
    8CHTO   O53 3137   5.496  10.233   1.453  0.2144  0.6936  0.5990
    8CHTO   C82 3138   5.547  10.352   1.385  0.0238  0.1069  0.0910
    8CHTO  H154 3139   5.635  10.383   1.441 -0.5918  0.4059  0.9113
    8CHTO   C89 3140   5.597  10.314   1.241 -0.6130 -0.1753 -0.4870
    8CHTO   O59 3141   5.718  10.240   1.274 -0.1752 -0.6246  0.5798
    8CHTO  H137 3142   5.704  10.148   1.260 -0.9333 -0.5288  0.6779
    8CHTO   O45 3143   5.379  10.113   1.640 -0.1499 -0.0408  0.5192
    8CHTO   C67 3144   5.457  10.036   1.735 -0.4045 -0.1519  0.2170
    8CHTO  H124 3145   5.412   9.937   1.734 -0.7780 -0.0280  2.2741
    8CHTO   C65 3146   5.610  10.020   1.690 -0.0681  0.1635 -0.2408
    8CHTO  H122 3147   5.636  10.099   1.620 -0.0606 -0.3195 -0.7877
    8CHTO   O44 3148   5.615   9.893   1.618  0.0585 -0.0581 -0.0958
    8CHTO  H102 3149   5.706   9.885   1.595  0.3821 -0.1029  1.1664
    8CHTO   C63 3150   5.704  10.042   1.814  0.4511 -0.3281 -1.0377
    8CHTO  H120 3151   5.709  10.146   1.847  3.3085 -1.6169  3.1299
    8CHTO   N11 3152   5.852  10.025   1.791  0.0213  0.2332  0.1279
    8CHTO  H108 3153   5.878   9.933   1.744 -1.3487  0.8423 -1.9094
    8CHTO  H109 3154   5.892  10.094   1.720 -0.0822 -1.1465 -1.2927
    8CHTO   C61 3155   5.646   9.965   1.941 -0.3989  0.5126 -0.3833
    8CHTO  H118 3156   5.717   9.996   2.018  1.5557 -1.6504 -1.2500
    8CHTO   O40 3157   5.517  10.007   1.977  0.5609  0.1106 -0.3944
    8CHTO   C68 3158   5.433  10.091   1.884  0.4165  0.0389  0.3505
    8CHTO  H125 3159   5.465  10.195   1.907 -0.7499  0.5785 -0.4392
    8CHTO   C72 3160   5.279  10.077   1.926 -0.4136  0.3965  0.5807
    8CHTO   O48 3161   5.270  10.119   2.059 -0.1283  0.1872 -0.2820
    8CHTO  H105 3162   5.190  10.168   2.067 -0.6246 -0.0161 -3.3436
    8CHTO   O38 3163   5.658   9.821   1.922 -0.2360  0.2934 -0.7604
    8CHTO   C55 3164   5.566   9.720   1.976 -0.3906 -0.2844  0.4197
    8CHTO  H112 3165   5.632   9.632   1.979 -0.7418 -0.5217  1.0527
    8CHTO   C56 3166   5.442   9.701   1.890  0.1833  0.1334 -0.5581
    8CHTO  H113 3167   5.397   9.801   1.876 -0.9153 -0.4111 -0.9968
    8CHTO   O42 3168   5.493   9.653   1.765  0.3753  0.8272 -0.2439
    8CHTO  H100 3169   5.554   9.712   1.727  0.3483  0.5159 -0.7757
    8CHTO   C57 3170   5.336   9.606   1.958  0.0417 -0.4089 -0.6914
    8CHTO  H114 3171   5.376   9.505   1.949  3.4550  0.9962 -2.1609
    8CHTO   N10 3172   5.208   9.609   1.879  0.5714 -0.0534 -0.2004
    8CHTO  H106 3173   5.223   9.549   1.790  0.2764  1.1673 -1.0907
    8CHTO  H107 3174   5.181   9.708   1.845  0.0893 -0.9131 -2.4389
    8CHTO   C58 3175   5.317   9.655   2.101  0.0751  0.4582  0.0183
    8CHTO  H115 3176   5.279   9.759   2.097 -0.4845  0.3465  1.8668
    8CHTO   O37 3177   5.441   9.649   2.174  0.0354  0.0710  0.1242
    8CHTO   C59 3178   5.533   9.746   2.133  0.7518 -0.5547 -0.0692
    8CHTO  H116 3179   5.475   9.836   2.150 -0.2487 -1.1145 -0.4587
    8CHTO   C70 3180   5.651   9.740   2.226  0.0540 -0.1358 -0.8330
    8CHTO   O46 3181   5.618   9.767   2.364  0.7716 -0.7667 -0.4744
    8CHTO  H103 3182   5.663   9.844   2.395 -0.9241  0.4276 -0.9170
    8CHTO   O39 3183   5.217   9.571   2.202  0.3956 -0.2404 -0.4186
    8CHTO   C60 3184   5.097   9.640   2.243 -0.2037 -0.0530  0.0241
    8CHTO  H117 3185   5.100   9.745   2.214 -0.1681 -0.3077 -0.8963
    8CHTO   C62 3186   4.964   9.586   2.187  0.1112 -0.4021  0.1198
    8CHTO  H119 3187   4.972   9.579   2.076  0.2940  2.2816 -0.0663
    8CHTO   O43 3188   4.931   9.460   2.249  0.2738  0.4362  0.6396
    8CHTO  H101 3189   4.928   9.394   2.183  2.0483  0.8988  0.0575
    8CHTO   C66 3190   4.853   9.710   2.212  0.8590 -0.1535  0.5910
    8CHTO  H123 3191   4.897   9.805   2.183 -0.3228  0.7906  1.8019
    8CHTO   N12 3192   4.722   9.676   2.141  0.7881  0.2521  0.1803
    8CHTO  H110 3193   4.630   9.682   2.197  1.3419  1.3475  0.9939
    8CHTO  H111 3194   4.728   9.728   2.047  1.6722 -2.0713 -1.0910
    8CHTO   C69 3195   4.832   9.711   2.370  0.1327  0.2521  0.0671
    8CHTO  H126 3196   4.784   9.614   2.391  0.3818 -0.4540 -2.4729
    8CHTO   O41 3197   4.971   9.737   2.443  0.0762  0.2176  0.8541
    8CHTO   C64 3198   5.094   9.637   2.392 -1.3728 -0.3684  0.0705
    8CHTO  H121 3199   5.089   9.532   2.429  0.4620 -0.2797  0.6367
    8CHTO   C71 3200   5.216   9.697   2.468 -0.1956  0.0013  0.1880
    8CHTO   O47 3201   5.339   9.630   2.460  0.3058  0.2293  0.0584
    8CHTO  H104 3202   5.385   9.681   2.396 -0.8306  2.7394  1.1817
    8CHTO   O34 3203   4.711   9.832   2.406 -0.0434 -0.7836 -0.1880
    8CHTO   C49 3204   4.697   9.988   2.395  0.0256  0.3411  0.1566
    8CHTO   H91 3205   4.721  10.039   2.488 -0.2215 -1.0999  1.0298
    8CHTO   C47 3206   4.551  10.019   2.350  0.0200  0.7914 -0.7746
    8CHTO   H89 3207   4.535  10.129   2.358  0.5194  0.8706 -0.8598
    8CHTO   O33 3208   4.467   9.951   2.444 -0.0489 -0.2854  0.2763
    8CHTO   H70 3209   4.377   9.944   2.419 -0.2444 -2.4228  1.3987
    8CHTO   C45 3210   4.528   9.970   2.200 -0.0692  0.5302  0.2632
    8CHTO   H87 3211   4.566   9.867   2.192 -0.2986  0.4119  0.7062
    8CHTO    N8 3212   4.386   9.973   2.156  0.9082  0.2701 -0.0590
    8CHTO   H75 3213   4.353   9.882   2.108 -0.5627  1.4398 -1.3019
    8CHTO   H76 3214   4.363  10.055   2.089 -3.2507 -0.6528  0.0668
    8CHTO   C43 3215   4.623  10.053   2.109  0.5522  0.4283  0.1109
    8CHTO   H85 3216   4.607  10.026   2.004 -0.0323  1.1448  0.0104
    8CHTO   O29 3217   4.758  10.031   2.148  0.4373  0.0839 -0.4710
    8CHTO   C50 3218   4.795  10.048   2.289 -0.1211  0.6487 -0.3196
    8CHTO   H92 3219   4.895  10.001   2.293  0.0686  1.0265 -0.6243
    8CHTO   C54 3220   4.822  10.192   2.320 -0.1076  0.0111  0.0367
    8CHTO   O36 3221   4.918  10.254   2.233 -0.1676 -0.3882  0.2576
    8CHTO   H72 3222   4.876  10.296   2.160 -3.4983 -1.3183  1.5259
    8CHTO   O27 3223   4.594  10.193   2.105  0.2401 -0.7931 -0.2748
    8CHTO   C37 3224   4.549  10.300   2.026 -0.4265 -0.1557 -0.3051
    8CHTO   H79 3225   4.505  10.260   1.934 -0.9559 -0.9911  0.3132
    8CHTO   C38 3226   4.431  10.372   2.094 -0.0790  0.7245  0.0074
    8CHTO   H80 3227   4.469  10.408   2.190  2.3547  0.7948 -0.9632
    8CHTO   O31 3228   4.319  10.276   2.112 -0.6633 -0.1885  0.1601
    8CHTO   H68 3229   4.258  10.327   2.162 -1.7828 -0.8492 -0.5026
    8CHTO   C39 3230   4.382  10.503   2.019 -0.4329 -0.8424 -0.4513
    8CHTO   H81 3231   4.327  10.462   1.934 -0.0056 -2.5037  0.0498
    8CHTO    N7 3232   4.290  10.600   2.090 -0.4218  0.4005  0.4638
    8CHTO   H73 3233   4.342  10.689   2.119  0.6481  1.4594 -4.2488
    8CHTO   H74 3234   4.195  10.621   2.043 -0.9025 -2.7721 -0.0927
    8CHTO   C40 3235   4.508  10.580   1.957  0.4658  0.9192  0.3212
    8CHTO   H82 3236   4.561  10.636   2.034  0.9577 -1.1873  1.5433
    8CHTO   O26 3237   4.594  10.490   1.890  0.3341  0.4197  0.1184
    8CHTO   C41 3238   4.658  10.402   1.985  0.4479 -0.7334  0.3406
    8CHTO   H83 3239   4.700  10.457   2.071  0.7198 -1.5246  0.7122
    8CHTO   C52 3240   4.772  10.340   1.916  0.2281 -0.4294  0.0827
    8CHTO   O35 3241   4.726  10.272   1.795 -0.2781 -0.0328  0.0579
    8CHTO   H71 3242   4.772  10.191   1.781  1.6104  0.7411  1.5155
    8CHTO   O28 3243   4.477  10.674   1.852 -0.3124 -0.6051 -0.4710
    8CHTO   C42 3244   4.488  10.647   1.702 -0.3591 -0.0108 -0.1551
    8CHTO   H84 3245   4.450  10.735   1.650 -1.0928 -0.0157  0.3664
    8CHTO   C44 3246   4.403  10.532   1.644  0.1755 -0.0208  0.0283
    8CHTO   H86 3247   4.451  10.437   1.664  0.0395 -0.5079 -1.8770
    8CHTO   O32 3248   4.276  10.547   1.706 -0.7429  0.2988 -0.8050
    8CHTO   H69 3249   4.225  10.469   1.697  0.3437 -0.7877  1.9388
    8CHTO   C48 3250   4.401  10.536   1.482 -0.0789  0.0191  0.0846
    8CHTO   H90 3251   4.351  10.627   1.448 -0.3125  0.5420  1.7998
    8CHTO    N9 3252   4.332  10.425   1.410 -0.5519  0.0294 -0.3413
    8CHTO   H77 3253   4.316  10.327   1.452 -1.2210  0.8278  1.3119
    8CHTO   H78 3254   4.343  10.426   1.302  0.6990 -1.0844 -0.2384
    8CHTO   C51 3255   4.545  10.543   1.422  0.1626 -0.7747  0.4540
    8CHTO   H93 3256   4.585  10.443   1.439  0.3978 -0.6603  0.5674
    8CHTO   O30 3257   4.620  10.644   1.493 -0.5432 -0.3409  0.2030
    8CHTO   C46 3258   4.630  10.627   1.648 -0.1504 -0.7432  0.3533
    8CHTO   H88 3259   4.683  10.535   1.673 -1.8599 -2.1402 -1.0744
    8CHTO   C53 3260   4.723  10.746   1.688 -0.3795  0.5072 -0.1291
    8CHTO   O72 3261   4.679  10.878   1.669  0.1010  0.2684  0.0535
    8CHTO  H199 3262   4.726  10.923   1.602 -0.8794 -0.3272 -1.0454
    8CHTO   O22 3263   4.553  10.581   1.282 -0.1848  0.2372  0.1611
    8CHTO   C31 3264   4.656  10.531   1.184 -0.0931 -0.1421 -0.0240
    8CHTO   H59 3265   4.648  10.594   1.093 -2.4088 -0.2688  0.0673
    8CHTO   C29 3266   4.801  10.549   1.231  0.0121  0.0426 -0.1844
    8CHTO   H57 3267   4.799  10.510   1.333 -0.7707  1.1809  0.2526
    8CHTO   O21 3268   4.826  10.691   1.240  0.8493  0.2823  0.7249
    8CHTO   H37 3269   4.902  10.721   1.287  2.5758 -1.2958 -0.9520
    8CHTO   C27 3270   4.909  10.471   1.153  0.0853 -0.6829  0.0461
    8CHTO   H55 3271   4.918  10.511   1.051  1.6410 -0.4703  0.2538
    8CHTO    N5 3272   5.040  10.479   1.221 -0.3422  0.0398  0.0508
    8CHTO   H43 3273   5.022  10.474   1.327  0.6480  0.6663  0.2578
    8CHTO   H44 3274   5.111  10.404   1.190  0.2156  0.9837 -0.9821
    8CHTO   C25 3275   4.859  10.322   1.135  0.5811  0.7712  0.4428
    8CHTO   H53 3276   4.828  10.283   1.233 -0.5020  0.8746  0.1528
    8CHTO   O17 3277   4.731  10.320   1.064  0.0349  0.2058  0.1034
    8CHTO   C32 3278   4.630  10.383   1.140 -0.5949  0.3722  0.7803
    8CHTO   H60 3279   4.609  10.322   1.228  2.2991 -0.0317  1.2200
    8CHTO   C36 3280   4.499  10.375   1.066 -0.1189  0.2393  0.3055
    8CHTO   O25 3281   4.526  10.429   0.932  0.0546  0.0896 -0.1784
    8CHTO   H40 3282   4.522  10.522   0.936 -2.4545 -0.0280  1.4003
    8CHTO   O15 3283   4.958  10.230   1.048 -0.3351  0.3758 -0.3868
    8CHTO   C19 3284   4.973  10.221   0.898  0.0416  0.0325  0.1370
    8CHTO   H47 3285   4.884  10.167   0.863  1.7026 -2.0633 -0.9587
    8CHTO   C20 3286   4.991  10.351   0.815 -0.1416  0.7098 -0.4424
    8CHTO   H48 3287   5.075  10.411   0.853  0.0736  0.2495 -0.1926
    8CHTO   O19 3288   4.864  10.415   0.830  0.0464  0.2447 -0.5695
    8CHTO   H35 3289   4.865  10.504   0.799  1.2390  0.3014 -0.3696
    8CHTO   C21 3290   5.019  10.328   0.660 -0.2096 -0.6637 -0.7769
    8CHTO   H49 3291   4.938  10.269   0.618 -1.5461  0.4458  0.1971
    8CHTO    N4 3292   5.047  10.446   0.582 -0.2319 -0.3601 -0.0470
    8CHTO   H41 3293   5.054  10.418   0.478  1.8129  1.5456 -0.4625
    8CHTO   H42 3294   5.138  10.496   0.609  1.1980 -2.3234 -1.1367
    8CHTO   C22 3295   5.134  10.223   0.649  0.3915  0.1335  0.8013
    8CHTO   H50 3296   5.227  10.274   0.676  0.3990  0.1832  0.6797
    8CHTO   O14 3297   5.103  10.106   0.726  0.2158  0.4649 -0.4625
    8CHTO   C23 3298   5.093  10.131   0.863 -0.1045 -0.2506 -0.0897
    8CHTO   H51 3299   5.188  10.179   0.889 -0.4171  1.2450 -1.5930
    8CHTO   C34 3300   5.099   9.996   0.936  0.2957  0.1251 -0.5561
    8CHTO   O23 3301   5.189   9.897   0.885 -0.1173 -0.2605 -0.7800
    8CHTO   H38 3302   5.201   9.837   0.956 -0.0901  1.3325  0.5689
    8CHTO   O16 3303   5.146  10.170   0.516 -0.6248 -0.2790  0.6346
    8CHTO   C24 3304   5.281  10.062   0.510  0.0500  0.0960  1.2778
    8CHTO   H52 3305   5.302  10.018   0.607  0.4013 -2.4444  0.0747
    8CHTO   C26 3306   5.394  10.143   0.451  0.2391 -0.1800  0.5715
    8CHTO   H54 3307   5.363  10.189   0.355 -0.4392  2.7736  2.1332
    8CHTO   O20 3308   5.430  10.235   0.557 -0.0442  0.0351  0.2747
    8CHTO   H36 3309   5.354  10.287   0.571 -0.3266  0.3556 -2.1486
    8CHTO   C30 3310   5.514  10.051   0.409 -0.4811  0.5065  0.1009
    8CHTO   H58 3311   5.549  10.008   0.504 -0.6943  0.0732 -0.0150
    8CHTO    N6 3312   5.633  10.126   0.346 -0.2011 -0.2335 -0.5981
    8CHTO   H45 3313   5.607  10.186   0.260  1.9236 -0.0993 -1.1648
    8CHTO   H46 3314   5.714  10.058   0.322 -1.3239 -1.6652 -0.3753
    8CHTO   C33 3315   5.471   9.922   0.335  0.7530  0.0733 -0.4411
    8CHTO   H61 3316   5.434   9.951   0.235  0.5558 -1.0411 -0.6954
    8CHTO   O18 3317   5.369   9.858   0.411  0.3561 -0.0489 -0.1735
    8CHTO   C28 3318   5.255   9.943   0.419  0.0832  0.0528 -0.0467
    8CHTO   H56 3319   5.213   9.980   0.325 -1.8320 -0.5229  0.5655
    8CHTO   C35 3320   5.134   9.855   0.467  0.3470  0.0631  0.1210
    8CHTO   O24 3321   5.093   9.741   0.391 -0.6796  0.2149 -0.6962
    8CHTO   H39 3322   5.059   9.679   0.453  1.7374 -0.6349 -0.1432
    8CHTO    O9 3323   5.582   9.834   0.310  0.3628 -0.0056  0.3055
    8CHTO   C13 3324   5.561   9.712   0.221 -0.4018  0.2048  0.0244
    8CHTO   H26 3325   5.477   9.732   0.151 -0.0990 -0.9006 -0.6762
    8CHTO   C11 3326   5.535   9.575   0.306  0.2362 -0.2242 -0.2095
    8CHTO   H24 3327   5.426   9.557   0.307  0.3372 -0.9032  2.4562
    8CHTO    O8 3328   5.579   9.597   0.442 -0.2059  0.6499  0.0363
    8CHTO    H3 3329   5.657   9.649   0.444 -1.3473  2.3562  3.0780
    8CHTO    C9 3330   5.600   9.452   0.244  0.1164  0.0501 -0.4074
    8CHTO   H22 3331   5.547   9.443   0.148 -0.0431 -1.1455 -0.2046
    8CHTO    N2 3332   5.570   9.320   0.317 -0.4294  0.2785  0.2096
    8CHTO   H10 3333   5.600   9.230   0.265  2.0344  0.5382  1.1639
    8CHTO   H11 3334   5.475   9.316   0.369 -1.9259 -0.8864 -2.4778
    8CHTO    C7 3335   5.748   9.470   0.229  0.5336  1.0286 -0.0153
    8CHTO   H20 3336   5.771   9.392   0.154  0.9980  0.7506  0.4171
    8CHTO    O4 3337   5.783   9.599   0.174 -0.2523 -0.1261  0.0582
    8CHTO   C14 3338   5.691   9.684   0.115  0.3854 -0.8756  0.6234
    8CHTO   H27 3339   5.647   9.637   0.024 -1.7853  2.8330 -0.3594
    8CHTO   C18 3340   5.752   9.817   0.069  0.5375  0.1444  0.8263
    8CHTO   O13 3341   5.668   9.906  -0.009 -0.5663  0.0916  0.0136
    8CHTO    H7 3342   5.718   9.940  -0.080 -0.4856  2.7164  1.2619
    8CHTO    O2 3343   5.825   9.447   0.360 -0.0986  0.2391 -0.1483
    8CHTO    C1 3344   5.967   9.440   0.368  0.1141 -0.2318  0.1481
    8CHTO   H14 3345   5.989   9.462   0.474  1.8983 -1.6759  0.1020
    8CHTO    C2 3346   6.056   9.539   0.270 -0.5009 -0.1879  0.5338
    8CHTO   H15 3347   6.024   9.524   0.166  3.4422  1.6059 -1.0133
    8CHTO    O6 3348   6.024   9.673   0.319 -0.0156  0.2150 -0.1399
    8CHTO    H1 3349   6.048   9.739   0.257  0.2020  0.7140  0.4706
    8CHTO    C3 3350   6.210   9.517   0.280 -0.1950  0.0838 -0.4609
    8CHTO   H16 3351   6.256   9.543   0.377 -0.0726  0.6601 -0.6693
    8CHTO    N1 3352   6.290   9.602   0.177 -0.2671 -0.7382 -0.6932
    8CHTO    H8 3353   6.337   9.688   0.220 -0.6627 -0.8294 -0.0770
    8CHTO    H9 3354   6.359   9.543   0.118 -0.5443 -0.6347 -1.1267
    8CHTO    C4 3355   6.236   9.366   0.259 -0.1510 -0.4249 -0.5444
    8CHTO   H17 3356   6.216   9.341   0.155  0.9515 -1.0672 -0.6113
    8CHTO    O1 3357   6.163   9.283   0.344 -0.1290 -0.0115 -0.3765
    8CHTO    C5 3358   6.016   9.299   0.343  0.2194  0.6069 -0.2899
    8CHTO   H18 3359   5.984   9.260   0.246 -0.9507 -2.5056  1.2627
    8CHTO   C16 3360   5.958   9.203   0.448  0.2196 -0.2074 -0.4661
    8CHTO   O11 3361   5.946   9.066   0.405  0.2513 -0.1202 -0.1672
    8CHTO    H5 3362   6.025   9.034   0.366 -0.3566 -1.8992  0.0317
    8CHTO    O3 3363   6.376   9.327   0.280 -0.1366  0.6153  0.7573
    8CHTO    C6 3364   6.438   9.229   0.184 -0.4880 -0.7201  0.4191
    8CHTO   H19 3365   6.370   9.209   0.101 -0.8598 -2.1640  1.0545
    8CHTO    C8 3366   6.568   9.285   0.122 -0.3081  0.1731  0.2452
    8CHTO   H21 3367   6.630   9.322   0.204 -0.6356  4.0636 -1.1435
    8CHTO    O7 3368   6.526   9.398   0.034 -0.5619 -0.0720  0.3581
    8CHTO    H2 3369   6.488   9.469   0.082 -2.3585  1.2034 -2.7947
    8CHTO   C12 3370   6.642   9.181   0.031 -0.2330  1.0362  0.1486
    8CHTO   H25 3371   6.573   9.158  -0.053 -0.6920 -0.3537  0.8780
    8CHTO    N3 3372   6.773   9.227  -0.025 -0.1762 -0.1558  0.2458
    8CHTO   H12 3373   6.828   9.141  -0.061 -0.1049 -0.1416  0.3225
    8CHTO   H13 3374   6.832   9.292   0.037  0.3293  1.4717 -1.8621
    8CHTO   C15 3375   6.659   9.042   0.105  0.2602 -0.2248  0.4508
    8CHTO   H28 3376   6.722   9.048   0.194  0.4505 -0.8918  0.3669
    8CHTO   O10 3377   6.705   8.918   0.001 -0.0663 -0.0865 -0.2351
    8CHTO    H4 3378   6.730   8.848   0.058 -0.6031  1.1263  1.5304
    8CHTO    O5 3379   6.524   9.006   0.150 -0.9163 -0.0525 -0.1165
    8CHTO   C10 3380   6.466   9.091   0.251 -0.4385  0.7026  0.1157
    8CHTO   H23 3381   6.531   9.105   0.337 -0.3561 -0.3934  0.2363
    8CHTO   C17 3382   6.333   9.022   0.290 -0.0202 -1.0296 -0.1160
    8CHTO   O12 3383   6.350   8.906   0.365  0.6022  0.2336 -0.1497
    8CHTO    H6 3384   6.364   8.929   0.455  0.8173 -1.3923  0.2458
    9CHTO  H203 3385   7.833   4.766   0.980 -1.6391 -2.0170 -0.2152
    9CHTO   O82 3386   7.871   4.687   0.946  0.4868 -0.9545 -0.3808
    9CHTO  C123 3387   7.793   4.640   0.828  0.2917  0.4263  0.2663
    9CHTO  H227 3388   7.686   4.652   0.849 -0.1973 -1.5467 -0.9217
    9CHTO   O77 3389   7.837   4.724   0.715 -0.1110  0.0015 -0.1604
    9CHTO  C118 3390   7.751   4.701   0.601 -0.1346 -0.3922 -0.0590
    9CHTO  H222 3391   7.648   4.732   0.622  0.3238  3.3504 -2.6628
    9CHTO  C125 3392   7.811   4.807   0.491  0.5590 -0.5918 -0.1130
    9CHTO   O84 3393   7.711   4.830   0.384  0.5226  0.8458  0.3678
    9CHTO  H205 3394   7.685   4.742   0.362 -0.9574  1.5778 -0.8871
    9CHTO  C114 3395   7.755   4.556   0.553 -0.8155 -0.4839  0.5493
    9CHTO  H218 3396   7.851   4.532   0.506 -1.1994  1.1105 -1.1113
    9CHTO  C116 3397   7.743   4.453   0.672  0.1172  0.1614 -0.0324
    9CHTO  H220 3398   7.637   4.462   0.706 -0.2873  2.3436 -1.7212
    9CHTO   O79 3399   7.772   4.325   0.620 -0.5312 -0.0089 -0.3258
    9CHTO  H201 3400   7.853   4.335   0.573 -0.7450 -3.4037 -1.5739
    9CHTO  C120 3401   7.834   4.494   0.795  0.0305 -0.8059 -0.1061
    9CHTO  H224 3402   7.939   4.477   0.763  0.1317 -0.7098  0.1814
    9CHTO   N21 3403   7.808   4.393   0.902 -0.6340 -0.0104 -0.1025
    9CHTO  H211 3404   7.873   4.398   0.988 -1.4627  1.4414  0.4600
    9CHTO  H212 3405   7.709   4.408   0.943 -0.1849  1.4123  0.4811
    9CHTO   O75 3406   7.649   4.538   0.453  0.4588 -0.0809 -0.2168
    9CHTO  C112 3407   7.674   4.424   0.329 -1.1283 -0.1899  0.0425
    9CHTO  H216 3408   7.592   4.435   0.256 -0.4581 -0.2073 -0.7244
    9CHTO   O73 3409   7.675   4.291   0.389  0.0266 -0.2467 -0.2102
    9CHTO  C113 3410   7.661   4.192   0.287 -0.1978 -0.3075 -0.1858
    9CHTO  H217 3411   7.568   4.214   0.230 -0.7622 -3.6756 -0.7159
    9CHTO  C124 3412   7.639   4.064   0.365  0.3648 -0.2467 -0.1530
    9CHTO   O83 3413   7.628   3.945   0.288  0.4149  0.2598  0.3252
    9CHTO  H204 3414   7.614   3.956   0.196  0.0346  1.7507  0.5596
    9CHTO  C109 3415   7.786   4.193   0.194 -0.1375  0.3358 -1.1729
    9CHTO  H213 3416   7.870   4.151   0.251 -0.6940  0.7035 -0.0641
    9CHTO  C110 3417   7.822   4.335   0.140  0.3337  0.7493 -0.5693
    9CHTO  H214 3418   7.766   4.346   0.048 -0.1129  0.1436 -0.3733
    9CHTO   O78 3419   7.952   4.333   0.075  0.7030 -0.7869 -0.4049
    9CHTO  H200 3420   7.940   4.357  -0.015  0.5166  0.7193  0.0126
    9CHTO  C111 3421   7.806   4.450   0.241 -0.7042  0.2485  0.1278
    9CHTO  H215 3422   7.893   4.449   0.309 -1.1355  2.4477  0.7468
    9CHTO   N19 3423   7.807   4.583   0.178  0.5121 -0.2388 -0.2282
    9CHTO  H207 3424   7.798   4.576   0.071  0.0086 -1.5719 -0.0962
    9CHTO  H208 3425   7.740   4.659   0.217  1.8679  1.2107 -0.6793
    9CHTO   O74 3426   7.763   4.107   0.070 -0.1931 -0.5371  0.0586
    9CHTO  C115 3427   7.878   4.029   0.024  0.8818  0.4621 -0.2022
    9CHTO  H219 3428   7.965   4.060   0.082  0.0407 -0.6953  1.7481
    9CHTO   O76 3429   7.853   3.871   0.062 -0.5317  0.8546 -0.6026
    9CHTO  C122 3430   7.738   3.810  -0.004 -0.0540 -0.7688  0.6297
    9CHTO  H226 3431   7.650   3.856   0.041  0.5389 -0.4828  1.5164
    9CHTO  C126 3432   7.737   3.659   0.034  0.0748 -0.2109 -0.4799
    9CHTO   O85 3433   7.615   3.593   0.016 -0.2742  0.7298  0.5008
    9CHTO  H206 3434   7.586   3.607  -0.072 -1.6751  0.7205  0.9416
    9CHTO  C121 3435   7.754   3.834  -0.167  0.3802  0.1829  0.2524
    9CHTO  H225 3436   7.838   3.775  -0.210  0.4347  0.7676 -0.4439
    9CHTO   O81 3437   7.632   3.796  -0.224 -0.2415  0.1513  0.6990
    9CHTO  H202 3438   7.606   3.706  -0.221 -0.7958  0.1750 -2.2055
    9CHTO  C119 3439   7.769   3.988  -0.206  0.0022 -0.1222  0.3480
    9CHTO  H223 3440   7.777   3.993  -0.315 -4.9938 -0.9197 -0.1943
    9CHTO  C117 3441   7.891   4.055  -0.135 -0.9086  0.2405 -0.9902
    9CHTO  H221 3442   7.896   4.164  -0.143 -0.5394  0.4304  1.3708
    9CHTO   N20 3443   8.024   4.004  -0.183 -0.0210  0.1640  0.0765
    9CHTO  H209 3444   8.063   3.918  -0.131 -0.0734  0.9180  1.3738
    9CHTO  H210 3445   8.097   4.083  -0.193  0.6325 -0.2283  1.6571
    9CHTO   O80 3446   7.624   4.058  -0.182 -0.3292  0.0469 -0.7733
    9CHTO  C103 3447   7.604   4.208  -0.173 -0.5590 -0.9050 -0.4346
    9CHTO  H190 3448   7.662   4.256  -0.094 -1.2493 -0.2600 -0.3097
    9CHTO  C101 3449   7.623   4.304  -0.301 -0.5590  0.7605  0.1083
    9CHTO  H188 3450   7.558   4.268  -0.381  1.2671 -1.3785 -0.4374
    9CHTO   O68 3451   7.759   4.300  -0.347  0.4666  0.4556  0.2857
    9CHTO  H168 3452   7.782   4.228  -0.404  0.1005 -1.1571  2.1233
    9CHTO   C99 3453   7.574   4.455  -0.269 -0.0500 -0.1294 -0.8216
    9CHTO  H186 3454   7.644   4.494  -0.192  0.0604 -3.0043  0.6117
    9CHTO   N17 3455   7.564   4.547  -0.389  0.6810  0.1516  0.5258
    9CHTO  H174 3456   7.570   4.478  -0.471 -0.2900  1.3001 -0.5283
    9CHTO  H175 3457   7.641   4.622  -0.383  2.5646 -1.6644 -0.2481
    9CHTO   C97 3458   7.435   4.457  -0.195 -0.1086  0.1786  0.2578
    9CHTO  H184 3459   7.355   4.432  -0.266  1.1088 -2.9691 -0.1161
    9CHTO   O64 3460   7.435   4.361  -0.082 -0.6635  0.1455 -0.0658
    9CHTO  C104 3461   7.450   4.221  -0.131 -0.1976 -0.1710 -0.2311
    9CHTO  H191 3462   7.385   4.198  -0.215 -0.8960 -2.2467  0.8325
    9CHTO  C108 3463   7.411   4.127  -0.015 -0.6273  0.2719 -0.9437
    9CHTO   O71 3464   7.272   4.135   0.015  0.5712  0.0030 -0.5202
    9CHTO  H171 3465   7.223   4.122  -0.064 -0.1386 -1.0888  0.0902
    9CHTO   O62 3466   7.400   4.579  -0.131  0.7321  0.6513 -0.0096
    9CHTO   C91 3467   7.260   4.616  -0.121 -0.2804 -0.2152 -0.5175
    9CHTO  H178 3468   7.206   4.551  -0.190  0.8071  0.2648 -1.8423
    9CHTO   C92 3469   7.260   4.759  -0.187 -0.0090  0.0016  0.0654
    9CHTO  H179 3470   7.315   4.762  -0.282 -0.5132  1.0100 -0.2028
    9CHTO   O66 3471   7.125   4.795  -0.223 -0.4949  0.3600  0.1666
    9CHTO  H166 3472   7.091   4.744  -0.294 -1.1342  0.4252  0.4169
    9CHTO   C93 3473   7.306   4.881  -0.097  0.3946 -0.4425 -0.2328
    9CHTO  H180 3474   7.283   4.970  -0.158 -0.5597 -0.0448  0.6991
    9CHTO   N16 3475   7.448   4.889  -0.063  0.3023  0.4401  0.4015
    9CHTO  H172 3476   7.485   4.989  -0.042  0.4296  0.4684  0.0526
    9CHTO  H173 3477   7.474   4.820   0.015 -0.0944  0.2086  0.3287
    9CHTO   C94 3478   7.219   4.887   0.043  0.0556  0.0658 -0.9270
    9CHTO  H181 3479   7.285   4.890   0.129 -0.4058 -1.2289 -0.5097
    9CHTO   O61 3480   7.144   4.763   0.060  0.4036 -0.0393 -0.0516
    9CHTO   C95 3481   7.202   4.636   0.031 -0.2302  0.0208 -0.0238
    9CHTO  H182 3482   7.281   4.615   0.103 -1.4239 -1.3968  0.9080
    9CHTO  C106 3483   7.092   4.541   0.073  0.6505 -0.0312  0.6185
    9CHTO   O69 3484   7.134   4.401   0.054  0.3511 -0.0280  0.1186
    9CHTO  H169 3485   7.105   4.356   0.132  0.4099  0.0823  0.2050
    9CHTO   O63 3486   7.132   5.021   0.029 -0.2753  0.3845  0.0739
    9CHTO   C96 3487   6.995   5.011   0.112  0.2763 -0.5089 -0.6973
    9CHTO  H183 3488   6.998   4.921   0.173  1.0464 -0.2244 -0.3073
    9CHTO   C98 3489   6.870   5.008   0.024  0.3438  0.9078  0.1669
    9CHTO  H185 3490   6.870   5.094  -0.045  1.2054  0.2892 -0.6103
    9CHTO   O67 3491   6.892   4.892  -0.056 -0.7792 -0.6929  0.0127
    9CHTO  H167 3492   6.843   4.876  -0.134  2.2249 -1.6704 -1.7738
    9CHTO  C102 3493   6.732   5.006   0.107  0.4115  0.5398 -0.2866
    9CHTO  H189 3494   6.735   4.905   0.152  2.7751  0.4032 -0.6901
    9CHTO   N18 3495   6.604   5.014   0.027 -0.1102 -0.0867 -0.5058
    9CHTO  H176 3496   6.563   5.112   0.046 -0.0379 -0.0910 -0.3276
    9CHTO  H177 3497   6.613   4.996  -0.079 -0.4091  0.1189 -0.5682
    9CHTO  C105 3498   6.750   5.113   0.218  0.4239  0.1305 -0.1139
    9CHTO  H192 3499   6.753   5.212   0.172 -1.0049  0.3766  0.2748
    9CHTO   O65 3500   6.870   5.105   0.297  0.4552 -0.8039  0.3638
    9CHTO  C100 3501   6.983   5.132   0.216 -0.6606 -0.4283 -0.4516
    9CHTO  H187 3502   6.976   5.228   0.162  0.7186 -0.0908 -0.0361
    9CHTO  C107 3503   7.115   5.150   0.306  0.6256 -0.3937  0.0073
    9CHTO   O70 3504   7.200   5.250   0.244 -0.0320  0.1978 -0.0539
    9CHTO  H170 3505   7.154   5.330   0.256  0.0876  0.0050  1.7666
    9CHTO   O57 3506   6.618   5.101   0.320  0.0053 -0.1505 -0.5215
    9CHTO   C85 3507   6.529   5.217   0.329 -0.1190 -0.6555 -0.1344
    9CHTO  H157 3508   6.503   5.246   0.225 -0.4416 -1.7368 -0.3642
    9CHTO   C83 3509   6.609   5.339   0.391 -0.3370 -0.0396  0.0079
    9CHTO  H155 3510   6.684   5.368   0.318 -1.1273  0.7961 -0.4772
    9CHTO   O56 3511   6.673   5.295   0.511  0.0006 -0.1249  0.1195
    9CHTO  H135 3512   6.750   5.344   0.533  0.6533 -1.1237  0.1183
    9CHTO   C81 3513   6.516   5.461   0.413  0.9303  0.5145  0.6246
    9CHTO  H153 3514   6.473   5.487   0.316  2.4339  1.2516  0.1422
    9CHTO   N14 3515   6.587   5.583   0.457 -0.3024  0.0780  0.5910
    9CHTO  H141 3516   6.628   5.583   0.556  0.8544 -0.7415  0.1238
    9CHTO  H142 3517   6.666   5.584   0.384 -0.3551 -0.4703  0.5251
    9CHTO   C79 3518   6.393   5.425   0.508  0.2525  0.5609  0.2146
    9CHTO  H151 3519   6.319   5.505   0.502  0.5185  0.6926 -1.3740
    9CHTO   O52 3520   6.321   5.313   0.451  0.9030  0.8534  0.5779
    9CHTO   C86 3521   6.399   5.193   0.414 -0.3491 -0.2418  0.5523
    9CHTO  H158 3522   6.417   5.154   0.516 -3.2292 -1.4699  0.6339
    9CHTO   C90 3523   6.310   5.093   0.347  0.0836 -0.1436 -0.0350
    9CHTO   O60 3524   6.373   4.970   0.334  0.1976 -0.1735 -0.1434
    9CHTO  H138 3525   6.316   4.905   0.368  0.1633 -0.4669 -0.7475
    9CHTO   O50 3526   6.413   5.419   0.652 -0.5521 -0.2225  0.1870
    9CHTO   C73 3527   6.421   5.387   0.795  0.3275  0.0713  0.1643
    9CHTO  H145 3528   6.339   5.323   0.830 -1.0788  1.3306 -0.7451
    9CHTO   C74 3529   6.420   5.520   0.869  0.1782 -0.4159  0.3126
    9CHTO  H146 3530   6.328   5.570   0.834  0.2209 -0.0100  0.7731
    9CHTO   O54 3531   6.405   5.489   1.005  0.2336 -0.0591  0.0883
    9CHTO  H133 3532   6.403   5.560   1.067 -0.4752 -0.0525  0.0633
    9CHTO   C75 3533   6.548   5.606   0.835 -0.1373 -0.9335  0.1816
    9CHTO  H147 3534   6.549   5.632   0.728 -2.2301  0.0494  0.3673
    9CHTO   N13 3535   6.567   5.734   0.904  0.3201  0.2499 -0.2399
    9CHTO  H139 3536   6.481   5.793   0.876  0.9993  1.0309 -0.6799
    9CHTO  H140 3537   6.668   5.772   0.903  0.7620 -0.8752  0.5224
    9CHTO   C76 3538   6.676   5.522   0.852 -0.0695 -0.9613 -0.2871
    9CHTO  H148 3539   6.682   5.498   0.959  0.6602  0.1060 -0.0812
    9CHTO   O49 3540   6.664   5.397   0.775  0.0068 -0.1258  0.3363
    9CHTO   C77 3541   6.554   5.325   0.828  0.5054 -0.6259 -0.4868
    9CHTO  H149 3542   6.558   5.315   0.936 -2.3620  1.1643 -0.1662
    9CHTO   C88 3543   6.538   5.180   0.783 -0.2677 -0.1059  0.4934
    9CHTO   O58 3544   6.626   5.123   0.811 -0.1107 -0.4189  0.5556
    9CHTO  H136 3545   6.630   5.037   0.772 -1.2558  0.6490 -2.0634
    9CHTO   O51 3546   6.818   5.586   0.802  0.0108 -0.2252 -0.0045
    9CHTO   C78 3547   6.935   5.491   0.809  0.1553  0.2108 -0.6288
    9CHTO  H150 3548   6.897   5.388   0.821  0.2053  0.3976  1.2146
    9CHTO   C80 3549   7.022   5.531   0.934  0.8746  0.4055 -0.2543
    9CHTO  H152 3550   7.047   5.639   0.932 -0.3348  0.6964 -0.0927
    9CHTO   O55 3551   6.938   5.507   1.050  0.1191  0.4689  0.0607
    9CHTO  H134 3552   6.972   5.561   1.119  0.7418  0.7854 -0.4868
    9CHTO   C84 3553   7.156   5.445   0.948 -0.8900  0.7182 -0.3285
    9CHTO  H156 3554   7.122   5.342   0.964 -2.3778  1.2590  0.0975
    9CHTO   N15 3555   7.246   5.477   1.063 -0.0337  0.9914 -0.1577
    9CHTO  H143 3556   7.200   5.446   1.155  0.2187  0.5333 -0.1787
    9CHTO  H144 3557   7.343   5.431   1.062 -0.3411  0.3523 -1.3897
    9CHTO   C87 3558   7.230   5.440   0.813  0.2092 -0.5177 -0.0603
    9CHTO  H159 3559   7.259   5.543   0.792 -2.9942  0.0122 -2.2081
    9CHTO   O53 3560   7.122   5.402   0.697  0.0123 -0.1301 -0.1873
    9CHTO   C82 3561   7.015   5.495   0.677 -0.7053 -0.4303  0.4312
    9CHTO  H154 3562   7.054   5.597   0.672  2.0740 -1.3123  2.6286
    9CHTO   C89 3563   6.937   5.466   0.553  0.1333 -0.6547  0.2924
    9CHTO   O59 3564   6.998   5.519   0.432 -0.3084 -0.0859 -0.6490
    9CHTO  H137 3565   7.030   5.605   0.448 -4.0094  1.1214  0.9193
    9CHTO   O45 3566   7.360   5.325   0.812  0.2717 -0.3917 -0.2176
    9CHTO   C67 3567   7.309   5.189   0.799 -0.0386  0.0839 -0.4150
    9CHTO  H124 3568   7.204   5.189   0.829 -0.3901  2.0802 -1.5184
    9CHTO   C65 3569   7.318   5.148   0.648 -0.2378 -0.2443  0.0390
    9CHTO  H122 3570   7.313   5.236   0.585  0.9191 -0.1158  0.1081
    9CHTO   O44 3571   7.204   5.064   0.613  0.0395  0.1629 -0.5274
    9CHTO  H102 3572   7.218   5.044   0.522 -0.0832 -0.9408 -0.3163
    9CHTO   C63 3573   7.458   5.081   0.622 -0.6717  0.8888  0.2511
    9CHTO  H120 3574   7.538   5.142   0.664 -0.0067 -0.6274  1.2497
    9CHTO   N11 3575   7.499   5.066   0.479 -0.6362  0.3132 -0.1584
    9CHTO  H108 3576   7.500   5.164   0.435 -0.3806  0.1601 -0.4972
    9CHTO  H109 3577   7.434   5.000   0.425 -1.3848 -0.5933  1.8390
    9CHTO   C61 3578   7.454   4.940   0.702 -0.0311  0.7017 -0.2046
    9CHTO  H118 3579   7.557   4.924   0.738 -0.9521 -0.4884  2.0233
    9CHTO   O40 3580   7.370   4.950   0.834 -0.2164  0.5216  0.2281
    9CHTO   C68 3581   7.379   5.090   0.895  0.3554  0.4353 -0.0747
    9CHTO  H125 3582   7.485   5.116   0.916 -0.4261  2.6956  1.2242
    9CHTO   C72 3583   7.303   5.090   1.033 -0.6464 -0.0855  0.5346
    9CHTO   O48 3584   7.351   5.173   1.142 -0.5931  0.2425 -0.0931
    9CHTO  H105 3585   7.315   5.259   1.145  0.4448  0.7235 -0.8565
    9CHTO   O38 3586   7.411   4.834   0.616  0.5374  0.1777 -0.5035
    9CHTO   C55 3587   7.315   4.735   0.650  0.3486  0.0156 -0.0989
    9CHTO  H112 3588   7.234   4.787   0.703 -0.3980 -0.2628 -0.9682
    9CHTO   C56 3589   7.387   4.627   0.739  0.2179 -0.1974 -0.4446
    9CHTO  H113 3590   7.475   4.598   0.680  1.7514  0.0731  1.6358
    9CHTO   O42 3591   7.450   4.684   0.855 -0.4048 -0.3050  0.0571
    9CHTO  H100 3592   7.524   4.629   0.869  0.9369  1.5292  0.4288
    9CHTO   C57 3593   7.292   4.500   0.754  0.4303 -0.2079 -0.2481
    9CHTO  H114 3594   7.211   4.524   0.823  0.6368  1.9806 -0.7428
    9CHTO   N10 3595   7.366   4.383   0.814  0.4540  0.2624 -0.0702
    9CHTO  H106 3596   7.445   4.345   0.751 -0.9905  0.0455 -1.7858
    9CHTO  H107 3597   7.409   4.403   0.911  0.9055  1.7896 -0.5641
    9CHTO   C58 3598   7.225   4.457   0.618 -0.2165  0.5334  0.1404
    9CHTO  H115 3599   7.303   4.407   0.558  0.4668 -0.6773  2.0005
    9CHTO   O37 3600   7.174   4.564   0.541  0.5124  0.0100 -0.0547
    9CHTO   C59 3601   7.268   4.674   0.517 -0.5510  0.7090 -0.0248
    9CHTO  H116 3602   7.343   4.631   0.451 -1.2717 -1.1004  0.3050
    9CHTO   C70 3603   7.210   4.780   0.431  0.5813 -0.2217  0.0777
    9CHTO   O46 3604   7.074   4.812   0.458  0.1906 -0.5616  0.9485
    9CHTO  H103 3605   7.049   4.900   0.438  3.4358  0.4251  1.0058
    9CHTO   O39 3606   7.095   4.363   0.649 -0.0382 -0.1454  0.6233
    9CHTO   C60 3607   7.118   4.222   0.620  0.2625  0.6428 -0.2048
    9CHTO  H117 3608   7.222   4.205   0.591  0.2445 -0.6316  0.4263
    9CHTO   C62 3609   7.088   4.133   0.748  0.0595 -0.4683 -0.8360
    9CHTO  H119 3610   7.154   4.179   0.824  1.2459 -0.2792 -1.9604
    9CHTO   O43 3611   6.951   4.138   0.795  0.1376 -0.0963 -0.3201
    9CHTO  H101 3612   6.939   4.079   0.867 -2.4300  2.2128  1.2548
    9CHTO   C66 3613   7.144   3.988   0.720 -0.4037  0.0745 -0.1210
    9CHTO  H123 3614   7.245   3.995   0.679 -0.3897  0.2428 -0.0567
    9CHTO   N12 3615   7.144   3.897   0.839 -0.6315  0.4208  0.4129
    9CHTO  H110 3616   7.173   3.962   0.920  0.6565  0.4879 -0.0994
    9CHTO  H111 3617   7.205   3.808   0.834 -0.1219  0.7339  1.0473
    9CHTO   C69 3618   7.051   3.930   0.612 -0.1365 -0.0217 -0.2078
    9CHTO  H126 3619   6.945   3.918   0.640 -0.7884 -0.1672 -2.6012
    9CHTO   O41 3620   7.061   4.032   0.480  0.2953 -0.0063  0.2388
    9CHTO   C64 3621   7.028   4.171   0.505 -0.2221 -0.8914  1.2105
    9CHTO  H121 3622   6.923   4.195   0.530  0.3653  1.4864  1.4905
    9CHTO   C71 3623   7.056   4.254   0.372 -0.1858  0.8111 -0.4490
    9CHTO   O47 3624   7.183   4.245   0.310 -0.3562 -0.0719 -0.4617
    9CHTO  H104 3625   7.243   4.311   0.338 -1.4475  1.7606 -2.3627
    9CHTO   O34 3626   7.105   3.786   0.567 -0.0054  0.0578  1.2234
    9CHTO   C49 3627   7.147   3.736   0.419  0.3425  0.6983 -0.3358
    9CHTO   H91 3628   7.084   3.784   0.345  0.9252  3.2725  0.7740
    9CHTO   C47 3629   7.149   3.581   0.415 -0.0318 -0.1120 -0.5269
    9CHTO   H89 3630   7.186   3.552   0.315  2.9001 -0.9123  0.7209
    9CHTO   O33 3631   7.020   3.530   0.437  0.4444  0.5396 -0.1989
    9CHTO   H70 3632   7.002   3.458   0.380  0.7868 -0.0010  0.3727
    9CHTO   C45 3633   7.251   3.519   0.527  0.1455  0.7750  0.0785
    9CHTO   H87 3634   7.189   3.511   0.618 -0.5544 -2.9275 -0.6084
    9CHTO    N8 3635   7.295   3.384   0.497  0.1306  0.2052 -0.6414
    9CHTO   H75 3636   7.385   3.390   0.437  1.1363  1.4784  0.9552
    9CHTO   H76 3637   7.332   3.340   0.589  0.8123  2.0364 -0.0213
    9CHTO   C43 3638   7.366   3.627   0.557 -0.2656  0.3114 -0.9496
    9CHTO   H85 3639   7.305   3.685   0.626 -1.2977 -2.3394  0.4490
    9CHTO   O29 3640   7.405   3.704   0.441  0.2839  0.4336 -0.5864
    9CHTO   C50 3641   7.295   3.783   0.397  0.1851  0.6604 -0.2276
    9CHTO   H92 3642   7.304   3.877   0.454 -2.0799  1.7625 -1.6293
    9CHTO   C54 3643   7.316   3.834   0.261 -0.0320  0.6565  0.7197
    9CHTO   O36 3644   7.317   3.736   0.159 -0.6001  0.0262 -0.1377
    9CHTO   H72 3645   7.299   3.770   0.074  1.7712 -0.1868 -0.7705
    9CHTO   O27 3646   7.475   3.580   0.642  0.5102 -0.0688 -0.1079
    9CHTO   C37 3647   7.549   3.644   0.753  0.8406 -0.6211  0.1734
    9CHTO   H79 3648   7.646   3.597   0.774  1.2652 -0.7942 -2.0459
    9CHTO   C38 3649   7.574   3.792   0.728  0.3617 -0.2193 -0.0327
    9CHTO   H80 3650   7.477   3.836   0.700  0.4068 -0.1651 -0.1041
    9CHTO   O31 3651   7.658   3.797   0.610  0.1029  0.1163  0.4856
    9CHTO   H68 3652   7.621   3.775   0.526 -3.3239  2.4492  1.2910
    9CHTO   C39 3653   7.625   3.870   0.852 -0.8597  0.3861  0.5247
    9CHTO   H81 3654   7.720   3.821   0.873 -1.7542 -2.2051 -1.2754
    9CHTO    N7 3655   7.651   4.018   0.829 -0.4443 -0.0995  0.3233
    9CHTO   H73 3656   7.579   4.068   0.766  1.2097  0.9497 -0.7531
    9CHTO   H74 3657   7.752   4.034   0.796 -0.4710  1.2642  0.8946
    9CHTO   C40 3658   7.533   3.837   0.973  0.7873  0.3343 -0.2388
    9CHTO   H82 3659   7.431   3.875   0.964  1.0790  1.0801 -0.4438
    9CHTO   O26 3660   7.533   3.691   0.991  0.8224 -0.6777 -0.2407
    9CHTO   C41 3661   7.465   3.626   0.882  0.1836 -0.2103  0.0203
    9CHTO   H83 3662   7.366   3.668   0.862  0.0061  0.3387  1.8787
    9CHTO   C52 3663   7.441   3.476   0.912  0.3034 -0.2679  0.6602
    9CHTO   O35 3664   7.556   3.397   0.951  0.1988 -0.0737  0.4249
    9CHTO   H71 3665   7.597   3.436   1.026  0.3171 -0.1712  0.4092
    9CHTO   O28 3666   7.599   3.870   1.098  0.0245  0.6539 -0.5110
    9CHTO   C42 3667   7.509   3.918   1.202 -0.0673 -0.1762 -0.5737
    9CHTO   H84 3668   7.561   3.909   1.297 -1.1267 -0.4094 -0.0047
    9CHTO   C44 3669   7.374   3.838   1.219 -1.0190  0.0088  0.1502
    9CHTO   H86 3670   7.318   3.832   1.125 -1.4973  3.0970  0.1955
    9CHTO   O32 3671   7.409   3.709   1.268 -0.0750 -0.6299 -0.6652
    9CHTO   H69 3672   7.426   3.644   1.203 -0.3017  0.3902 -1.7756
    9CHTO   C48 3673   7.270   3.915   1.314 -0.8363  0.0381  0.2861
    9CHTO   H90 3674   7.312   3.924   1.414 -1.3053  0.0159  0.4834
    9CHTO    N9 3675   7.136   3.847   1.333  0.0107  0.0533 -0.1765
    9CHTO   H77 3676   7.147   3.748   1.292  1.4670  0.4024 -0.6716
    9CHTO   H78 3677   7.116   3.852   1.439  0.8643 -0.1863  0.0055
    9CHTO   C51 3678   7.257   4.064   1.269 -0.3868  0.3611 -0.0714
    9CHTO   H93 3679   7.222   4.068   1.166 -1.0367 -0.1736  0.1302
    9CHTO   O30 3680   7.385   4.126   1.277 -0.3631 -0.6595  0.1854
    9CHTO   C46 3681   7.479   4.071   1.182 -0.1549  0.4471  1.4854
    9CHTO   H88 3682   7.448   4.097   1.081 -1.0685 -2.0958  1.0690
    9CHTO   C53 3683   7.603   4.158   1.194  0.8550 -0.3336  0.4154
    9CHTO   O72 3684   7.654   4.143   1.326 -0.4209  0.2599 -0.1265
    9CHTO  H199 3685   7.712   4.072   1.346 -0.7287  0.4174  1.3688
    9CHTO   O22 3686   7.169   4.144   1.357  0.3182 -0.0073 -0.0990
    9CHTO   C31 3687   7.115   4.272   1.322 -0.3691 -0.9512  0.1198
    9CHTO   H59 3688   7.080   4.314   1.419  0.4500  2.3149 -0.9426
    9CHTO   C29 3689   7.213   4.376   1.267  0.4365 -0.1350  0.6814
    9CHTO   H57 3690   7.263   4.330   1.180 -0.4331  0.6149 -0.2252
    9CHTO   O21 3691   7.321   4.396   1.360 -0.4092 -0.1551  0.1069
    9CHTO   H37 3692   7.289   4.417   1.446 -1.3933 -1.7648  0.1696
    9CHTO   C27 3693   7.146   4.512   1.219  0.9845  0.0910 -0.2026
    9CHTO   H55 3694   7.118   4.565   1.311  1.2670  0.3269 -0.2511
    9CHTO    N5 3695   7.238   4.598   1.140 -0.3533 -0.2781  0.3391
    9CHTO   H43 3696   7.315   4.636   1.205 -0.2392  1.9450 -1.0366
    9CHTO   H44 3697   7.281   4.537   1.062  0.7000 -0.0127  0.7137
    9CHTO   C25 3698   7.021   4.468   1.135 -0.1001  0.5942  0.2026
    9CHTO   H53 3699   7.060   4.433   1.039  0.4413 -1.7965  1.2466
    9CHTO   O17 3700   6.930   4.382   1.204  0.1841  0.0111  0.1190
    9CHTO   C32 3701   6.988   4.258   1.237  0.5756  0.0963 -0.4857
    9CHTO   H60 3702   7.021   4.209   1.145 -2.0201 -2.0656 -0.3340
    9CHTO   C36 3703   6.888   4.163   1.315  0.1017  0.1511  0.6451
    9CHTO   O25 3704   6.804   4.096   1.225 -0.0036  0.5181 -0.3631
    9CHTO   H40 3705   6.730   4.064   1.273  0.0600 -0.5537 -0.9608
    9CHTO   O15 3706   6.933   4.593   1.102  0.1414  0.2197  0.0183
    9CHTO   C19 3707   6.872   4.672   0.999 -0.4776  0.1908 -0.1465
    9CHTO   H47 3708   6.773   4.704   1.035 -0.4698 -0.0885  0.1193
    9CHTO   C20 3709   6.957   4.794   0.964  0.3845 -0.1839  0.1963
    9CHTO   H48 3710   7.061   4.765   0.942  0.4364 -0.7997  1.2208
    9CHTO   O19 3711   6.974   4.877   1.083 -0.1217  0.0453 -0.2646
    9CHTO   H35 3712   7.038   4.940   1.056 -0.7028  0.1638 -1.3912
    9CHTO   C21 3713   6.894   4.870   0.841  0.5038 -0.0543 -0.3948
    9CHTO   H49 3714   6.801   4.916   0.873  0.9397  1.3065 -1.0187
    9CHTO    N4 3715   6.982   4.981   0.796 -0.0224  0.3057  0.4456
    9CHTO   H41 3716   6.987   5.008   0.692 -1.2313  2.8861  0.9957
    9CHTO   H42 3717   6.944   5.063   0.856 -0.5298  0.1243  0.3784
    9CHTO   C22 3718   6.872   4.772   0.721 -0.3046 -0.1558  0.4118
    9CHTO   H50 3719   6.975   4.749   0.693  0.0553 -0.9718  2.3203
    9CHTO   O14 3720   6.789   4.662   0.763  0.5198 -0.1362  0.3967
    9CHTO   C23 3721   6.847   4.585   0.867 -0.2509 -0.1756  0.2200
    9CHTO   H51 3722   6.942   4.548   0.825 -1.4338 -2.6810 -0.2907
    9CHTO   C34 3723   6.769   4.466   0.901  0.1419 -0.4379  0.7423
    9CHTO   O23 3724   6.744   4.376   0.790 -0.0254 -0.1587  0.0017
    9CHTO   H38 3725   6.827   4.336   0.771  1.0157  0.6857  2.5581
    9CHTO   O16 3726   6.812   4.832   0.608 -0.2604 -0.3028  0.2175
    9CHTO   C24 3727   6.712   4.731   0.515 -0.1553  0.8223 -0.0177
    9CHTO   H52 3728   6.701   4.632   0.558  1.2784 -0.0139 -1.4942
    9CHTO   C26 3729   6.773   4.693   0.379 -0.8342  0.4507  0.2425
    9CHTO   H54 3730   6.801   4.786   0.326 -0.4651  0.2474  0.0766
    9CHTO   O20 3731   6.896   4.618   0.399  0.1678  0.6439  0.1118
    9CHTO   H36 3732   6.916   4.567   0.323  0.0251 -1.0688  1.1896
    9CHTO   C30 3733   6.676   4.616   0.290  0.0287  0.0897  1.1350
    9CHTO   H58 3734   6.664   4.513   0.327 -0.5872  0.9647  3.5107
    9CHTO    N6 3735   6.727   4.603   0.150 -0.0297  0.2859  0.4470
    9CHTO   H45 3736   6.826   4.645   0.137  0.6632 -1.7494 -0.9990
    9CHTO   H46 3737   6.661   4.634   0.070 -0.8001 -1.5358  0.3497
    9CHTO   C33 3738   6.534   4.682   0.291  0.0448  0.5862 -0.5878
    9CHTO   H61 3739   6.540   4.778   0.236  0.6346  0.4937 -0.6926
    9CHTO   O18 3740   6.486   4.713   0.425 -0.0640  0.7828  0.2390
    9CHTO   C28 3741   6.573   4.797   0.499  0.0993  0.4517  0.9930
    9CHTO   H56 3742   6.589   4.887   0.441 -1.0646 -0.7397 -1.2110
    9CHTO   C35 3743   6.513   4.832   0.633  0.1195 -0.2998 -0.5982
    9CHTO   O24 3744   6.380   4.888   0.633  0.2565 -0.1544  0.4940
    9CHTO   H39 3745   6.316   4.820   0.628  0.1546 -0.0005 -0.4778
    9CHTO    O9 3746   6.438   4.597   0.223  0.3482  0.1080 -0.5188
    9CHTO   C13 3747   6.398   4.606   0.074  0.4869  0.5752 -0.1289
    9CHTO   H26 3748   6.493   4.628   0.021 -0.1127  3.0763 -0.2206
    9CHTO   C11 3749   6.289   4.720   0.050  0.1854  0.1185 -0.1092
    9CHTO   H24 3750   6.344   4.814   0.066 -1.4492  1.1337 -0.2960
    9CHTO    O8 3751   6.184   4.713   0.148  0.0985 -0.0257 -0.0953
    9CHTO    H3 3752   6.145   4.798   0.144 -0.0728 -0.1521 -1.3947
    9CHTO    C9 3753   6.232   4.715  -0.096  0.0163  0.1500  0.1974
    9CHTO   H22 3754   6.317   4.732  -0.163 -0.1677 -1.1899 -0.3718
    9CHTO    N2 3755   6.137   4.823  -0.132 -0.3585 -0.7691  0.0355
    9CHTO   H10 3756   6.132   4.904  -0.061 -0.4302  0.6753 -1.5732
    9CHTO   H11 3757   6.168   4.871  -0.224 -0.6435 -0.4499  0.1043
    9CHTO    C7 3758   6.163   4.575  -0.103 -0.3876  0.0611  0.7894
    9CHTO   H20 3759   6.177   4.546  -0.209 -0.4998 -1.0225  1.0598
    9CHTO    O4 3760   6.216   4.473  -0.025 -0.1194  0.3169  0.4821
    9CHTO   C14 3761   6.355   4.465   0.006  0.3163 -0.6361 -0.0826
    9CHTO   H27 3762   6.413   4.449  -0.088 -2.5185  1.9889 -2.3624
    9CHTO   C18 3763   6.380   4.347   0.094  1.1567  0.6062  0.4655
    9CHTO   O13 3764   6.520   4.313   0.118  0.0796 -0.0563 -0.0043
    9CHTO    H7 3765   6.573   4.390   0.123  0.0051  0.0501 -0.8578
    9CHTO    O2 3766   5.984   4.585  -0.080 -0.0452  0.6338  0.3461
    9CHTO    C1 3767   5.922   4.472  -0.026  0.4282  0.3199  0.2349
    9CHTO   H14 3768   5.981   4.432   0.060 -0.5049 -1.8814 -0.1112
    9CHTO    C2 3769   5.902   4.354  -0.133  0.6763  0.2927  0.4344
    9CHTO   H15 3770   5.864   4.399  -0.225  1.9621 -1.1147 -0.8278
    9CHTO    O6 3771   6.026   4.284  -0.165  0.1874 -0.1670 -0.0070
    9CHTO    H1 3772   6.099   4.340  -0.182  0.3746 -1.1678 -2.8382
    9CHTO    C3 3773   5.790   4.250  -0.075  0.1410 -0.4477 -0.1470
    9CHTO   H16 3774   5.842   4.198   0.007 -0.9067 -2.2564 -0.5883
    9CHTO    N1 3775   5.744   4.138  -0.170 -0.5174  0.1101  0.8608
    9CHTO    H8 3776   5.834   4.089  -0.206 -0.0684 -1.0456  3.4793
    9CHTO    H9 3777   5.700   4.064  -0.105 -1.3384 -0.0144  0.1785
    9CHTO    C4 3778   5.670   4.327  -0.011  0.6014 -0.5227 -0.2549
    9CHTO   H17 3779   5.613   4.377  -0.091  0.8375  1.9497  1.0647
    9CHTO    O1 3780   5.705   4.424   0.084  0.3546 -0.6054 -0.4915
    9CHTO    C5 3781   5.788   4.523   0.029 -0.7478  0.3815 -0.3698
    9CHTO   H18 3782   5.735   4.578  -0.049 -0.3915  2.3916  0.7677
    9CHTO   C16 3783   5.813   4.628   0.144  0.2736 -0.4497 -0.1832
    9CHTO   O11 3784   5.706   4.710   0.169  0.7052 -0.6134  0.4662
    9CHTO    H5 3785   5.626   4.668   0.142 -0.1081  1.4627 -0.4516
    9CHTO    O3 3786   5.574   4.244   0.057  0.3113  0.1701 -0.5758
    9CHTO    C6 3787   5.450   4.318   0.089  0.2554 -0.1864 -1.0548
    9CHTO   H19 3788   5.464   4.426   0.100  0.9136 -0.5622  2.1707
    9CHTO    C8 3789   5.336   4.301  -0.014  0.4899 -0.6138 -0.3216
    9CHTO   H21 3790   5.317   4.194  -0.025 -3.4568  0.0754 -0.8556
    9CHTO    O7 3791   5.382   4.368  -0.129  0.4523 -0.0229 -0.1468
    9CHTO    H2 3792   5.460   4.333  -0.166  0.9728  0.5719  0.3642
    9CHTO   C12 3793   5.200   4.366   0.039  0.1011  0.1317  0.1807
    9CHTO   H25 3794   5.208   4.476   0.050  1.1580  0.1329 -0.5043
    9CHTO    N3 3795   5.088   4.346  -0.056  0.7967 -0.2207 -0.5967
    9CHTO   H12 3796   5.085   4.244  -0.092 -1.4333  0.1024 -1.3920
    9CHTO   H13 3797   5.098   4.405  -0.145  0.7244 -0.6318 -0.8801
    9CHTO   C15 3798   5.171   4.303   0.180  0.0184 -0.2180  0.0552
    9CHTO   H28 3799   5.152   4.196   0.176 -0.4312 -0.1888  1.2343
    9CHTO   O10 3800   5.042   4.380   0.252  0.2116  0.1837  0.1209
    9CHTO    H4 3801   5.016   4.461   0.213  0.5727 -0.0282 -0.5748
    9CHTO    O5 3802   5.278   4.325   0.277 -0.1087  0.2614 -0.7838
    9CHTO   C10 3803   5.402   4.269   0.232 -0.1980 -0.0528  0.0792
    9CHTO   H23 3804   5.387   4.161   0.234  1.2012 -0.2928 -1.1011
    9CHTO   C17 3805   5.507   4.292   0.339  0.0468  0.2178  0.4592
    9CHTO   O12 3806   5.471   4.220   0.461  0.2926 -0.5718 -0.0367
    9CHTO    H6 3807   5.420   4.270   0.522 -0.1846  0.6505 -1.4125
   10CHTO  H203 3808   4.192   6.783   0.348 -1.2575  0.1951  0.1900
   10CHTO   O82 3809   4.160   6.795   0.260 -0.0169  0.0935 -0.2789
   10CHTO  C123 3810   4.078   6.915   0.243  0.1376 -0.0150 -0.1824
   10CHTO  H227 3811   4.069   6.929   0.134 -1.3911  0.6488  0.0227
   10CHTO   O77 3812   3.956   6.890   0.309 -0.5878  0.0818  0.0617
   10CHTO  C118 3813   3.849   6.980   0.255  0.4695  0.0067 -0.0297
   10CHTO  H222 3814   3.841   6.981   0.145  1.9460  0.7939 -0.1356
   10CHTO  C125 3815   3.714   6.926   0.314  0.1969 -0.3836 -0.0250
   10CHTO   O84 3816   3.674   6.807   0.251 -0.0264 -0.5169 -0.4559
   10CHTO  H205 3817   3.604   6.829   0.193  0.9813 -1.2625 -1.9654
   10CHTO  C114 3818   3.881   7.125   0.305 -0.5272 -0.6021 -0.5247
   10CHTO  H218 3819   3.881   7.120   0.414 -0.6787 -0.3067 -0.5111
   10CHTO  C116 3820   4.025   7.168   0.264  0.7205  0.6077 -0.4958
   10CHTO  H220 3821   4.013   7.191   0.156  0.0448 -2.6957 -1.1749
   10CHTO   O79 3822   4.046   7.285   0.342  0.1270 -0.7793 -0.0562
   10CHTO  H201 3823   4.007   7.359   0.300  1.4566 -0.7472 -1.2687
   10CHTO  C120 3824   4.133   7.055   0.301  0.6649  0.6065 -0.3629
   10CHTO  H224 3825   4.138   7.060   0.412 -1.5662 -1.0143 -0.1605
   10CHTO   N21 3826   4.273   7.096   0.254  0.3447 -0.6501  0.3417
   10CHTO  H211 3827   4.338   7.019   0.214  0.7695 -0.6027  0.9380
   10CHTO  H212 3828   4.327   7.139   0.336  1.1555 -0.5620 -0.2336
   10CHTO   O75 3829   3.781   7.211   0.256 -0.6056 -0.0593  0.2419
   10CHTO  C112 3830   3.711   7.302   0.380 -0.4390  0.2600 -0.1658
   10CHTO  H216 3831   3.781   7.372   0.429 -0.9620  0.3977  0.3886
   10CHTO   O73 3832   3.654   7.208   0.472 -0.3108 -0.1620 -0.5663
   10CHTO  C113 3833   3.601   7.260   0.591  0.1597 -0.4403  0.1675
   10CHTO  H217 3834   3.686   7.310   0.642  0.1671 -0.7288  0.4381
   10CHTO  C124 3835   3.576   7.136   0.674  0.0927  0.0995 -0.2436
   10CHTO   O83 3836   3.498   7.030   0.605 -0.0503  0.1257 -0.4194
   10CHTO  H204 3837   3.406   7.043   0.601 -0.3941 -1.9595  0.1065
   10CHTO  C109 3838   3.481   7.352   0.549  0.5489 -0.2282  0.0782
   10CHTO  H213 3839   3.401   7.287   0.512 -2.2053  3.2176 -0.2187
   10CHTO  C110 3840   3.536   7.462   0.440 -0.4479 -0.0247  0.5230
   10CHTO  H214 3841   3.606   7.536   0.479 -0.0093  0.6561 -1.5342
   10CHTO   O78 3842   3.418   7.529   0.387 -0.4051  0.2012 -0.0167
   10CHTO  H200 3843   3.430   7.622   0.393  1.0025  0.0688 -0.3825
   10CHTO  C111 3844   3.597   7.383   0.322 -1.0429  0.2773 -0.4641
   10CHTO  H215 3845   3.527   7.305   0.289 -0.7698 -0.1025 -0.1482
   10CHTO   N19 3846   3.643   7.454   0.197 -0.0937 -0.2393 -0.0857
   10CHTO  H207 3847   3.616   7.400   0.107 -0.1984  1.1976 -0.9394
   10CHTO  H208 3848   3.617   7.558   0.210  0.1199 -0.3377  1.2134
   10CHTO   O74 3849   3.432   7.411   0.672 -0.0255 -0.4877 -0.2040
   10CHTO  C115 3850   3.278   7.484   0.671 -0.2138 -1.1394 -0.1776
   10CHTO  H219 3851   3.269   7.561   0.594 -0.1631  0.0870  1.0408
   10CHTO   O76 3852   3.158   7.373   0.629 -0.0747 -0.1341  0.8566
   10CHTO  C122 3853   3.139   7.274   0.732  0.1583  0.4912 -0.3278
   10CHTO  H226 3854   3.218   7.201   0.717  0.0126 -0.2836  2.3699
   10CHTO  C126 3855   3.005   7.195   0.703 -0.1546 -0.3844  0.8175
   10CHTO   O85 3856   3.019   7.091   0.605  0.5040  0.3096  0.7324
   10CHTO  H206 3857   3.094   7.092   0.548  0.9886 -0.1374  1.3564
   10CHTO  C121 3858   3.135   7.342   0.877 -0.6526  1.1234  0.1771
   10CHTO  H225 3859   3.040   7.307   0.921 -0.3189  1.1881  0.9602
   10CHTO   O81 3860   3.248   7.294   0.944 -0.3625  0.3298 -0.5701
   10CHTO  H202 3861   3.240   7.306   1.036 -1.2204 -2.0501 -0.3190
   10CHTO  C119 3862   3.125   7.497   0.879  0.2941 -1.1574  0.0207
   10CHTO  H223 3863   3.041   7.539   0.824  0.2775  0.1444  1.0399
   10CHTO  C117 3864   3.260   7.550   0.806 -0.4795  0.0146 -0.4194
   10CHTO  H221 3865   3.350   7.526   0.863  0.1604 -0.9713 -1.8133
   10CHTO   N20 3866   3.271   7.704   0.796  0.2532  0.1798 -0.5399
   10CHTO  H209 3867   3.202   7.749   0.727  0.4575 -0.6587 -1.2977
   10CHTO  H210 3868   3.296   7.758   0.886 -0.3738  1.0873 -0.8979
   10CHTO   O80 3869   3.107   7.565   1.024  0.2024  0.1970 -0.3227
   10CHTO  C103 3870   2.971   7.642   1.064 -0.4209 -0.1186  0.7191
   10CHTO  H190 3871   2.928   7.694   0.979 -2.1870  0.1562  1.7666
   10CHTO  C101 3872   2.860   7.551   1.137  0.2274 -0.4498 -0.1028
   10CHTO  H188 3873   2.906   7.489   1.213 -2.7123  0.6981  2.7038
   10CHTO   O68 3874   2.794   7.457   1.031  0.0415  0.5154 -0.6998
   10CHTO  H168 3875   2.731   7.505   0.981 -0.5156  0.7172  0.1763
   10CHTO   C99 3876   2.747   7.630   1.231 -0.6097  0.1313 -0.0862
   10CHTO  H186 3877   2.683   7.695   1.169  0.3664  0.5796 -0.6396
   10CHTO   N17 3878   2.665   7.541   1.316 -0.3788 -0.4481  0.4218
   10CHTO  H174 3879   2.672   7.438   1.284 -0.3502 -1.0276  2.2565
   10CHTO  H175 3880   2.562   7.570   1.335 -0.1559  1.6060 -1.2965
   10CHTO   C97 3881   2.835   7.725   1.323  0.0583 -0.1667  0.4535
   10CHTO  H184 3882   2.892   7.663   1.394  0.5389  0.4932  0.6484
   10CHTO   O64 3883   2.919   7.819   1.249 -0.1767 -0.0426 -0.0545
   10CHTO  C104 3884   3.019   7.757   1.165  0.0558  0.8575  0.1437
   10CHTO  H191 3885   3.087   7.713   1.237 -1.1557  0.4964  1.0742
   10CHTO  C108 3886   3.094   7.875   1.093 -0.4816  0.0012  0.3048
   10CHTO   O71 3887   3.148   7.973   1.187 -0.4930  0.4188 -0.4005
   10CHTO  H171 3888   3.075   8.012   1.231  0.1342  0.9590  0.1893
   10CHTO   O62 3889   2.755   7.819   1.386 -0.4267 -0.2381 -0.8473
   10CHTO   C91 3890   2.727   7.812   1.531 -0.6667 -0.8612 -0.1744
   10CHTO  H178 3891   2.726   7.706   1.556  1.6899 -0.9846 -0.5455
   10CHTO   C92 3892   2.580   7.870   1.545 -0.2482 -0.5408  0.2676
   10CHTO  H179 3893   2.579   7.974   1.509 -2.0790 -0.6033  0.0891
   10CHTO   O66 3894   2.496   7.788   1.467 -0.0991  0.5223  0.2517
   10CHTO  H166 3895   2.490   7.703   1.506 -0.0320  0.5687  0.3631
   10CHTO   C93 3896   2.531   7.887   1.695  0.8396 -0.4940  0.9596
   10CHTO  H180 3897   2.510   7.785   1.732 -0.7779 -0.1427  1.0590
   10CHTO   N16 3898   2.407   7.964   1.710  0.1121  0.7484  0.0548
   10CHTO  H172 3899   2.390   8.016   1.803  0.8575  2.9057 -0.9675
   10CHTO  H173 3900   2.325   7.918   1.657  1.5637  1.7977 -3.3053
   10CHTO   C94 3901   2.638   7.952   1.785  0.0860 -0.0828 -0.2269
   10CHTO  H181 3902   2.649   8.058   1.763  1.4778  0.1426  1.5592
   10CHTO   O61 3903   2.773   7.899   1.766  0.5132 -0.6113  0.3131
   10CHTO   C95 3904   2.819   7.899   1.632 -0.6253  0.2852  0.5323
   10CHTO  H182 3905   2.821   8.002   1.596  1.0573 -0.0042 -0.2849
   10CHTO  C106 3906   2.972   7.850   1.623 -0.3841  0.1218  0.0753
   10CHTO   O69 3907   3.060   7.921   1.711 -0.1885 -0.5125  0.0868
   10CHTO  H169 3908   3.147   7.919   1.675 -1.5751 -0.3433 -3.3903
   10CHTO   O63 3909   2.603   7.919   1.939 -0.0789 -0.4387 -0.4632
   10CHTO   C96 3910   2.645   7.786   2.005  0.0596  0.4289 -0.8343
   10CHTO  H183 3911   2.707   7.729   1.935  2.3947  0.7606  0.8825
   10CHTO   C98 3912   2.536   7.694   2.054 -0.1759 -0.9204 -0.5362
   10CHTO  H185 3913   2.471   7.760   2.114 -0.4632 -0.8989 -0.8669
   10CHTO   O67 3914   2.462   7.643   1.942 -0.2219  0.5981 -0.3879
   10CHTO  H167 3915   2.513   7.602   1.875 -0.0928  0.8182 -0.4251
   10CHTO  C102 3916   2.584   7.580   2.161  0.6446 -0.5523 -0.5224
   10CHTO  H189 3917   2.654   7.515   2.107  0.8247  0.2631 -1.2795
   10CHTO   N18 3918   2.470   7.494   2.212  0.4134  0.3354  0.2161
   10CHTO  H176 3919   2.388   7.492   2.142 -0.0653  1.0335  0.7552
   10CHTO  H177 3920   2.431   7.531   2.305 -2.1929  1.0040 -1.0868
   10CHTO  C105 3921   2.669   7.651   2.269 -0.3075  0.0487 -0.3587
   10CHTO  H192 3922   2.608   7.720   2.326  0.0508 -0.3360  0.5036
   10CHTO   O65 3923   2.784   7.715   2.208 -0.8311 -0.2992 -0.0661
   10CHTO  C100 3924   2.746   7.825   2.120  0.1980  0.2715 -0.4198
   10CHTO  H187 3925   2.687   7.894   2.182 -1.0424 -0.9735 -0.2077
   10CHTO  C107 3926   2.870   7.888   2.065  0.4063  0.3798 -0.1254
   10CHTO   O70 3927   2.928   7.962   2.177 -0.9146 -0.0818 -0.2509
   10CHTO  H170 3928   2.991   7.906   2.219 -0.3091 -0.6081 -1.8162
   10CHTO   O57 3929   2.730   7.530   2.374 -0.1527  0.0985 -0.1458
   10CHTO   C85 3930   2.694   7.563   2.504 -0.4279  0.1280  0.0418
   10CHTO  H157 3931   2.591   7.603   2.491 -0.8822 -1.8235 -2.6958
   10CHTO   C83 3932   2.772   7.687   2.565 -0.3469 -0.6153 -0.6579
   10CHTO  H155 3933   2.763   7.773   2.500  2.5633  0.5601  0.4248
   10CHTO   O56 3934   2.912   7.664   2.563 -0.2727 -0.9407  0.2704
   10CHTO  H135 3935   2.939   7.605   2.630  1.9770 -0.1074  0.1319
   10CHTO   C81 3936   2.722   7.727   2.709  0.0580 -0.2334 -0.2344
   10CHTO  H153 3937   2.620   7.762   2.697  0.3068  0.3632 -0.6696
   10CHTO   N14 3938   2.781   7.852   2.764  0.3072 -0.1773  0.5109
   10CHTO  H141 3939   2.737   7.867   2.860 -0.8520 -2.4518  0.3799
   10CHTO  H142 3940   2.886   7.835   2.779 -0.4263 -3.6695  2.1519
   10CHTO   C79 3941   2.725   7.594   2.800  0.1637 -0.7873 -0.0811
   10CHTO  H151 3942   2.659   7.616   2.884  1.5072 -0.0097  0.7990
   10CHTO   O52 3943   2.658   7.477   2.742 -0.5368 -0.2233  0.1143
   10CHTO   C86 3944   2.696   7.449   2.602  0.7176  0.1443 -0.3588
   10CHTO  H158 3945   2.800   7.416   2.623 -0.1767 -1.8164  1.1991
   10CHTO   C90 3946   2.623   7.319   2.552  0.7511  0.0295 -0.1583
   10CHTO   O60 3947   2.682   7.236   2.455  0.1507  0.2280 -0.4006
   10CHTO  H138 3948   2.758   7.192   2.488 -1.0640 -1.1611  0.6712
   10CHTO   O50 3949   2.852   7.562   2.854  0.0950 -0.2928  0.1632
   10CHTO   C73 3950   2.924   7.494   2.964 -0.3763  0.5558  0.5450
   10CHTO  H145 3951   2.882   7.393   2.980  0.4331  0.1467  0.1310
   10CHTO   C74 3952   2.901   7.571   3.096  0.1964  0.6138 -0.1355
   10CHTO  H146 3953   2.792   7.576   3.105  0.3711 -0.6180  3.6801
   10CHTO   O54 3954   2.947   7.486   3.201 -0.5053 -0.0113  0.0566
   10CHTO  H133 3955   3.040   7.475   3.193 -1.0035 -2.5418 -2.6584
   10CHTO   C75 3956   2.967   7.709   3.093 -0.7498 -0.4953  0.1283
   10CHTO  H147 3957   2.921   7.772   3.015  0.0985 -0.5424 -0.4123
   10CHTO   N13 3958   2.940   7.783   3.225 -0.3161 -0.0107 -0.4092
   10CHTO  H139 3959   3.022   7.853   3.236  0.8846 -1.0285 -2.6515
   10CHTO  H140 3960   2.957   7.714   3.306  0.1989 -0.7582 -1.1503
   10CHTO   C76 3961   3.114   7.697   3.041  0.1056  0.6582 -0.2102
   10CHTO  H148 3962   3.172   7.645   3.117  1.6279  1.3691 -0.8695
   10CHTO   O49 3963   3.124   7.621   2.917  0.1350 -0.2886 -0.1635
   10CHTO   C77 3964   3.077   7.487   2.937  0.4793  1.3757 -0.1638
   10CHTO  H149 3965   3.131   7.443   3.021 -1.7930  0.2176  0.7537
   10CHTO   C88 3966   3.115   7.398   2.820 -0.2442 -0.3775 -0.1476
   10CHTO   O58 3967   3.249   7.392   2.801 -0.2326 -0.2046 -0.4024
   10CHTO  H136 3968   3.270   7.459   2.739 -0.1626  2.2419  2.1746
   10CHTO   O51 3969   3.166   7.856   3.002 -0.2210  0.3745  0.2976
   10CHTO   C78 3970   3.303   7.854   2.939  0.5644 -0.6336 -0.5746
   10CHTO  H150 3971   3.338   7.755   2.903  0.4364 -0.5539 -0.9221
   10CHTO   C80 3972   3.416   7.910   3.034  0.0570  0.0894 -0.5955
   10CHTO  H152 3973   3.384   8.007   3.079  0.1479  0.8346 -2.1037
   10CHTO   O55 3974   3.413   7.818   3.145 -0.3058  0.6322  1.1034
   10CHTO  H134 3975   3.476   7.831   3.213  2.5725  0.6825 -1.4786
   10CHTO   C84 3976   3.567   7.919   2.960 -0.3074 -0.5873 -0.4740
   10CHTO  H156 3977   3.591   7.816   2.935  0.3600 -0.3960 -0.6143
   10CHTO   N15 3978   3.673   7.966   3.050  0.0302  0.4030 -0.2645
   10CHTO  H143 3979   3.656   8.069   3.075 -1.6348 -0.3022  1.6085
   10CHTO  H144 3980   3.674   7.919   3.146 -0.6537  1.5820  0.3289
   10CHTO   C87 3981   3.548   8.011   2.836  0.2096  0.1966 -0.2137
   10CHTO  H159 3982   3.516   8.111   2.864 -0.0311  0.0973 -0.1309
   10CHTO   O53 3983   3.437   7.943   2.748 -0.2176  0.2029 -0.2237
   10CHTO   C82 3984   3.307   7.948   2.814 -0.4120  0.7401  0.8025
   10CHTO  H154 3985   3.289   8.051   2.845  2.4739  2.1081 -1.7612
   10CHTO   C89 3986   3.206   7.911   2.704 -0.2290 -0.0810  0.1009
   10CHTO   O59 3987   3.226   7.781   2.645 -0.4740 -0.2403  0.0603
   10CHTO  H137 3988   3.169   7.718   2.685 -0.9345 -0.1084 -0.3737
   10CHTO   O45 3989   3.702   8.012   2.754 -0.2319 -0.1473 -0.6747
   10CHTO   C67 3990   3.727   8.120   2.664 -0.2489  0.1432  0.3152
   10CHTO  H124 3991   3.664   8.121   2.575  1.0264  0.2262 -0.5939
   10CHTO   C65 3992   3.719   8.256   2.731  0.4861  0.4846  0.2306
   10CHTO  H122 3993   3.617   8.254   2.770 -0.5348  1.5645 -2.2422
   10CHTO   O44 3994   3.718   8.364   2.647 -0.1759 -0.2229  0.2156
   10CHTO  H102 3995   3.724   8.447   2.691  0.7682  0.2514 -0.7981
   10CHTO   C63 3996   3.816   8.250   2.857  0.0462 -0.6057 -0.4082
   10CHTO  H120 3997   3.796   8.159   2.914 -0.6216 -0.3614 -0.2491
   10CHTO   N11 3998   3.798   8.355   2.958 -0.3592 -0.2455  0.2176
   10CHTO  H108 3999   3.856   8.346   3.048 -2.3519  0.4659  1.6169
   10CHTO  H109 4000   3.697   8.379   2.984 -1.1399 -0.3357 -2.6346
   10CHTO   C61 4001   3.966   8.240   2.806 -0.1834  0.6566  0.2541
   10CHTO  H118 4002   4.032   8.202   2.885 -0.5360 -1.3152 -0.3572
   10CHTO   O40 4003   3.980   8.153   2.695  0.2835 -0.1763 -0.6649
   10CHTO   C68 4004   3.880   8.100   2.611 -0.2982 -0.1748 -0.3382
   10CHTO  H125 4005   3.896   7.990   2.605 -1.0167 -0.1985 -1.8699
   10CHTO   C72 4006   3.896   8.156   2.465 -0.2792 -0.3349 -0.7932
   10CHTO   O48 4007   4.009   8.104   2.393  0.0960 -0.4109  0.1184
   10CHTO  H105 4008   3.991   8.012   2.397 -1.1469 -0.2930 -2.1554
   10CHTO   O38 4009   4.014   8.359   2.746  0.5754 -0.6313  0.2313
   10CHTO   C55 4010   4.148   8.412   2.761  0.0001  0.1942  0.2164
   10CHTO  H112 4011   4.211   8.322   2.757 -0.9821 -0.4404 -1.4736
   10CHTO   C56 4012   4.163   8.493   2.896  0.0400 -0.2237  0.2425
   10CHTO  H113 4013   4.079   8.563   2.908  1.1725  1.0373  1.0001
   10CHTO   O42 4014   4.152   8.399   3.002 -0.2602 -0.2021 -0.1136
   10CHTO  H100 4015   4.201   8.435   3.073  0.3362 -1.4782  0.1457
   10CHTO   C57 4016   4.301   8.577   2.902 -0.0450  0.3394  0.4302
   10CHTO  H114 4017   4.378   8.499   2.898  0.2215  0.5685  1.0166
   10CHTO   N10 4018   4.310   8.657   3.029 -1.2215 -0.2600  0.0819
   10CHTO  H106 4019   4.356   8.602   3.110 -3.3544 -1.7494  0.3341
   10CHTO  H107 4020   4.364   8.748   3.011 -1.1558 -0.3370 -0.1028
   10CHTO   C58 4021   4.299   8.663   2.777 -0.4225  0.7291 -0.2865
   10CHTO  H115 4022   4.208   8.726   2.782 -1.9279 -1.4481  0.2733
   10CHTO   O37 4023   4.299   8.576   2.664  0.1510  0.0263 -0.0521
   10CHTO   C59 4024   4.172   8.507   2.642 -1.0294 -0.4819  0.3683
   10CHTO  H116 4025   4.095   8.583   2.643 -0.1743  0.3945  1.0484
   10CHTO   C70 4026   4.169   8.415   2.521 -0.5477  0.4450 -0.3571
   10CHTO   O46 4027   4.216   8.476   2.400  0.5022  1.0817 -0.4484
   10CHTO  H103 4028   4.195   8.567   2.397  1.1415  1.2691  0.5385
   10CHTO   O39 4029   4.437   8.764   2.758 -0.2359  0.2071  0.1019
   10CHTO   C60 4030   4.398   8.902   2.736  0.1582  0.2338  0.6608
   10CHTO  H117 4031   4.290   8.918   2.747  0.1801 -0.8138  2.4733
   10CHTO   C62 4032   4.459   8.997   2.831 -0.3138  0.1973  0.0098
   10CHTO  H119 4033   4.421   8.966   2.931  1.9869  0.5626  1.0259
   10CHTO   O43 4034   4.599   9.000   2.839  0.0334 -0.1487 -0.3637
   10CHTO  H101 4035   4.638   8.915   2.825  2.0833  0.9979 -1.9451
   10CHTO   C66 4036   4.398   9.145   2.809 -0.1496  0.1991  0.1753
   10CHTO  H123 4037   4.289   9.138   2.812 -0.1410 -0.2887 -0.4836
   10CHTO   N12 4038   4.441   9.241   2.917 -0.1409 -0.3769  0.2789
   10CHTO  H110 4039   4.536   9.284   2.888 -0.6822  0.8921  0.3734
   10CHTO  H111 4040   4.361   9.314   2.922 -0.1120 -0.2888 -0.5137
   10CHTO   C69 4041   4.426   9.195   2.661  0.2808  0.8950 -0.9294
   10CHTO  H126 4042   4.534   9.219   2.653  0.1450  1.9065  0.1676
   10CHTO   O41 4043   4.370   9.092   2.564  0.0332  0.1712  0.0618
   10CHTO   C64 4044   4.427   8.954   2.590  0.2207 -0.3864 -0.9031
   10CHTO  H121 4045   4.537   8.953   2.574  0.2496 -3.1986 -0.7918
   10CHTO   C71 4046   4.380   8.858   2.475 -0.1244  0.1011  0.1542
   10CHTO   O47 4047   4.239   8.836   2.466 -0.2850 -0.5461 -0.1382
   10CHTO  H104 4048   4.220   8.809   2.378  0.0860 -0.3969 -0.2665
   10CHTO   O34 4049   4.375   9.312   2.639 -0.0021  0.5843 -0.2835
   10CHTO   C49 4050   4.263   9.427   2.599  0.0385  0.1238 -0.7943
   10CHTO   H91 4051   4.307   9.524   2.627  0.2034 -0.4494  0.9890
   10CHTO   C47 4052   4.137   9.403   2.680  0.5105 -0.1788  0.2093
   10CHTO   H89 4053   4.159   9.452   2.777  0.3176 -1.7655  1.0648
   10CHTO   O33 4054   4.105   9.262   2.702 -0.2132  0.3418  0.0456
   10CHTO   H70 4055   4.121   9.258   2.795  2.7713  2.6524 -0.2851
   10CHTO   C45 4056   4.000   9.466   2.613 -0.3344  0.2450  0.0264
   10CHTO   H87 4057   3.950   9.393   2.547 -3.0876  3.0269 -1.0703
   10CHTO    N8 4058   3.908   9.512   2.721  0.2493 -0.4992  0.2069
   10CHTO   H75 4059   3.850   9.434   2.766  1.1299 -0.8910  0.6660
   10CHTO   H76 4060   3.964   9.558   2.801  0.6164 -1.9676  0.7948
   10CHTO   C43 4061   4.042   9.581   2.510 -0.7119  0.5020  0.1731
   10CHTO   H85 4062   3.947   9.607   2.464 -1.6860 -1.8514  0.7455
   10CHTO   O29 4063   4.138   9.524   2.410 -0.2295  0.0120 -0.4609
   10CHTO   C50 4064   4.242   9.435   2.448  0.9572 -0.0475  0.4943
   10CHTO   H92 4065   4.219   9.335   2.408  0.4676  0.7800 -1.3310
   10CHTO   C54 4066   4.375   9.469   2.376  0.0071  0.2237 -0.2455
   10CHTO   O36 4067   4.355   9.479   2.236  0.4323  0.4350 -0.0448
   10CHTO   H72 4068   4.429   9.527   2.205  0.2657 -0.3869 -1.8129
   10CHTO   O27 4069   4.091   9.698   2.576 -0.6834 -0.1087  0.3292
   10CHTO   C37 4070   4.175   9.814   2.544 -0.0502  0.2207 -0.4342
   10CHTO   H79 4071   4.266   9.780   2.494  0.2540  1.5482 -0.8008
   10CHTO   C38 4072   4.089   9.915   2.461  0.2842  0.5962 -0.7689
   10CHTO   H80 4073   3.988   9.915   2.507 -0.2823 -0.7669 -1.9820
   10CHTO   O31 4074   4.065   9.860   2.335  0.4387 -0.1997 -0.4230
   10CHTO   H68 4075   4.150   9.837   2.300 -0.2151 -4.6059  0.6079
   10CHTO   C39 4076   4.149  10.063   2.440  0.3329  0.1293  0.3244
   10CHTO   H81 4077   4.225  10.056   2.362  2.4951 -0.9806  2.4659
   10CHTO    N7 4078   4.044  10.156   2.390 -0.5519 -0.1369  0.1352
   10CHTO   H73 4079   4.032  10.124   2.288  0.3295 -1.1118  0.3215
   10CHTO   H74 4080   4.092  10.252   2.401  0.2063 -0.4086 -0.8020
   10CHTO   C40 4081   4.214  10.117   2.574 -0.1492 -0.6810  0.3609
   10CHTO   H82 4082   4.141  10.167   2.638 -0.8800 -0.8136 -0.3646
   10CHTO   O26 4083   4.284  10.011   2.646  0.0782 -0.5582  0.4436
   10CHTO   C41 4084   4.218   9.884   2.674  0.3765  0.2850 -0.3333
   10CHTO   H83 4085   4.136   9.905   2.745 -0.8136  0.0713 -1.6173
   10CHTO   C52 4086   4.326   9.800   2.750  0.5847  0.4334  0.2449
   10CHTO   O35 4087   4.389   9.874   2.861  0.4128  0.3522 -0.7394
   10CHTO   H71 4088   4.442   9.942   2.825  1.3953  0.1706  0.3492
   10CHTO   O28 4089   4.333  10.195   2.543 -0.1189 -0.1575  0.4257
   10CHTO   C42 4090   4.347  10.335   2.591 -0.6293 -0.5464 -0.0942
   10CHTO   H84 4091   4.325  10.321   2.696 -3.4536 -1.0725 -0.7009
   10CHTO   C44 4092   4.259  10.443   2.534  1.0151  0.6388 -0.3876
   10CHTO   H86 4093   4.254  10.426   2.426  0.1823  0.7565 -0.3660
   10CHTO   O32 4094   4.128  10.430   2.592  0.1182  0.1704 -0.5395
   10CHTO   H69 4095   4.095  10.345   2.570 -0.5056 -0.0710  1.2509
   10CHTO   C48 4096   4.315  10.594   2.552  0.2290 -0.4173  0.6605
   10CHTO   H90 4097   4.306  10.618   2.658  0.7907  3.3169 -0.0566
   10CHTO    N9 4098   4.226  10.698   2.488 -0.1047 -0.3238 -0.0220
   10CHTO   H77 4099   4.262  10.693   2.387  3.6674 -1.5077  1.2754
   10CHTO   H78 4100   4.257  10.796   2.520 -0.8111 -0.2516  0.4587
   10CHTO   C51 4101   4.465  10.598   2.511  0.5225 -0.2642  0.5187
   10CHTO   H93 4102   4.469  10.563   2.408  0.1227  1.6339 -0.1643
   10CHTO   O30 4103   4.524  10.504   2.604 -0.3217  0.0489  0.1732
   10CHTO   C46 4104   4.497  10.367   2.575 -0.4469  0.3510  0.3504
   10CHTO   H88 4105   4.527  10.346   2.473 -2.9694 -0.8625 -0.1826
   10CHTO   C53 4106   4.582  10.279   2.683 -0.3151  0.1231  0.5704
   10CHTO   O72 4107   4.538  10.290   2.816 -0.3138  0.5683 -0.1806
   10CHTO  H199 4108   4.460  10.343   2.815 -1.3397 -0.9234 -1.4714
   10CHTO   O22 4109   4.534  10.728   2.529 -0.0992 -0.5962  0.0433
   10CHTO   C31 4110   4.649  10.753   2.442 -0.0254 -0.2165  0.5100
   10CHTO   H59 4111   4.689  10.852   2.471 -1.8124  0.6323  0.1585
   10CHTO   C29 4112   4.766  10.646   2.454  0.3482 -0.1850 -0.2145
   10CHTO   H57 4113   4.720  10.554   2.415 -2.4469  1.2558 -0.4860
   10CHTO   O21 4114   4.808  10.622   2.591  0.2046  0.3243  0.0440
   10CHTO   H37 4115   4.832  10.701   2.635 -0.0795  0.4875 -0.0958
   10CHTO   C27 4116   4.890  10.681   2.357 -0.3302  0.0460 -0.4164
   10CHTO   H55 4117   4.945  10.768   2.397 -1.2521 -0.3702  1.8388
   10CHTO    N5 4118   4.989  10.571   2.345 -0.4427 -0.3059  0.0069
   10CHTO   H43 4119   4.939  10.490   2.294  0.1812 -0.2312 -0.7292
   10CHTO   H44 4120   5.071  10.601   2.281  1.5849 -0.4334  2.4577
   10CHTO   C25 4121   4.834  10.719   2.217  0.3868  0.2363  0.0157
   10CHTO   H53 4122   4.807  10.624   2.168  1.0862  0.8260 -1.5265
   10CHTO   O17 4123   4.727  10.810   2.225  0.7965  0.0238  0.0531
   10CHTO   C32 4124   4.608  10.773   2.293  0.2017  0.7798 -0.2986
   10CHTO   H60 4125   4.574  10.676   2.258 -2.1486  1.1044  0.9993
   10CHTO   C36 4126   4.502  10.886   2.289  0.4849  0.3391  0.3000
   10CHTO   O25 4127   4.548  11.014   2.315 -0.4454  0.1952  0.3497
   10CHTO   H40 4128   4.538  11.057   2.232  1.6023  0.7185  0.3372
   10CHTO   O15 4129   4.953  10.778   2.126  1.0553 -0.4333  0.2660
   10CHTO   C19 4130   4.984  10.835   1.998  0.0309  0.0067  0.0693
   10CHTO   H47 4131   4.923  10.783   1.922  1.0745 -0.7922 -0.2337
   10CHTO   C20 4132   4.942  10.987   1.970  0.2757 -0.0952  0.0522
   10CHTO   H48 4133   4.984  11.050   2.050  0.7930 -1.7491  1.1129
   10CHTO   O19 4134   4.801  10.980   1.977  0.6764  0.1389 -0.6206
   10CHTO   H35 4135   4.756  11.040   1.921  1.4498  0.8101 -0.5312
   10CHTO   C21 4136   4.999  11.033   1.830  0.5300  0.9045 -0.0484
   10CHTO   H49 4137   4.949  10.969   1.757 -3.6076  1.0861  2.5174
   10CHTO    N4 4138   4.967  11.176   1.796  0.3169 -0.2067  0.0780
   10CHTO   H41 4139   5.050  11.241   1.816  1.6667 -1.6994 -0.5473
   10CHTO   H42 4140   4.882  11.205   1.856  0.7029  2.1030 -0.4617
   10CHTO   C22 4141   5.150  11.006   1.822 -0.9132  0.6440  0.5006
   10CHTO   H50 4142   5.197  11.061   1.904 -0.6020 -0.0042  0.7519
   10CHTO   O14 4143   5.169  10.863   1.828  0.1876 -1.0097 -0.5372
   10CHTO   C23 4144   5.130  10.803   1.958  0.0082 -0.0312  0.0578
   10CHTO   H51 4145   5.204  10.844   2.027  0.9358 -0.6325 -0.5697
   10CHTO   C34 4146   5.168  10.652   1.947  0.1706 -0.8131  1.0099
   10CHTO   O23 4147   5.302  10.610   1.971 -0.2185  0.2498  0.3307
   10CHTO   H38 4148   5.311  10.523   1.936  1.1691 -0.1373  1.5873
   10CHTO   O16 4149   5.215  11.049   1.698  0.1669  0.4312 -0.3494
   10CHTO   C24 4150   5.381  11.097   1.711  0.0062  0.0007  0.3110
   10CHTO   H52 4151   5.424  11.075   1.809  0.6409 -0.1940 -0.0072
   10CHTO   C26 4152   5.390  11.244   1.671 -0.0347  0.3025  0.0501
   10CHTO   H54 4153   5.349  11.257   1.568  1.1320  0.8004 -0.3665
   10CHTO   O20 4154   5.319  11.324   1.764  0.0295  0.1746  0.0633
   10CHTO   H36 4155   5.228  11.300   1.771 -0.2383 -0.2983 -3.5929
   10CHTO   C30 4156   5.541  11.283   1.655 -0.7578 -0.6313 -0.3046
   10CHTO   H58 4157   5.588  11.275   1.754  0.7972  0.8603 -0.9056
   10CHTO    N6 4158   5.565  11.417   1.605  0.3998  0.6655  0.1728
   10CHTO   H45 4159   5.532  11.494   1.674  0.4118  0.5570  0.3011
   10CHTO   H46 4160   5.525  11.433   1.506 -0.5570 -2.0983  0.0754
   10CHTO   C33 4161   5.611  11.177   1.560  0.5477  0.5205 -0.6977
   10CHTO   H61 4162   5.569  11.171   1.459 -0.5267 -2.4199 -0.1395
   10CHTO   O18 4163   5.590  11.043   1.617 -0.0553 -0.8062  0.2373
   10CHTO   C28 4164   5.451  11.000   1.612  0.4236 -0.1253 -0.7117
   10CHTO   H56 4165   5.410  11.013   1.512  2.9557  0.0151 -1.7917
   10CHTO   C35 4166   5.438  10.853   1.663 -0.2981 -0.0784  0.3747
   10CHTO   O24 4167   5.496  10.830   1.791 -0.1087  0.3048 -0.6283
   10CHTO   H39 4168   5.583  10.864   1.794 -0.2359  0.6777 -1.2665
   10CHTO    O9 4169   5.752  11.199   1.533  0.5585  0.0547  0.4275
   10CHTO   C13 4170   5.824  11.100   1.414 -0.3514 -0.3250  0.8693
   10CHTO   H26 4171   5.768  11.109   1.318  0.3775 -2.0303  0.2681
   10CHTO   C11 4172   5.835  10.949   1.457 -0.5028 -0.3264  0.3045
   10CHTO   H24 4173   5.735  10.904   1.451  0.7804 -3.1369 -0.8885
   10CHTO    O8 4174   5.876  10.927   1.593 -0.0847  0.4273 -0.1567
   10CHTO    H3 4175   5.967  10.950   1.599  0.5733 -1.7735 -1.1113
   10CHTO    C9 4176   5.920  10.882   1.349 -0.6983 -0.0491 -0.3687
   10CHTO   H22 4177   5.872  10.908   1.253 -1.6854  0.8911  0.3691
   10CHTO    N2 4178   5.932  10.733   1.362 -0.0955 -0.1409  0.0901
   10CHTO   H10 4179   5.970  10.682   1.275 -1.5324  1.2978 -1.4063
   10CHTO   H11 4180   6.003  10.717   1.443 -0.4997  2.5052  1.0001
   10CHTO    C7 4181   6.062  10.950   1.336  0.2393  0.3447 -0.1050
   10CHTO   H20 4182   6.098  10.903   1.241 -1.0448  1.4335 -1.1447
   10CHTO    O4 4183   6.048  11.091   1.297 -0.1296  0.7731 -1.0722
   10CHTO   C14 4184   5.966  11.167   1.385 -0.3340 -0.7239  0.1837
   10CHTO   H27 4185   5.943  11.261   1.330  0.3264  0.1727  1.4187
   10CHTO   C18 4186   6.026  11.210   1.518 -0.3034 -0.0097 -0.8216
   10CHTO   O13 4187   6.109  11.326   1.505 -0.0504  0.1077 -0.4719
   10CHTO    H7 4188   6.142  11.326   1.593 -0.0529 -0.7650 -0.4640
   10CHTO    O2 4189   6.158  10.935   1.485  0.0613 -0.2535  0.0913
   10CHTO    C1 4190   6.289  10.874   1.485  0.7035 -0.0223  0.2377
   10CHTO   H14 4191   6.340  10.921   1.571  1.0876 -0.0657  0.0318
   10CHTO    C2 4192   6.375  10.908   1.357  0.5831 -0.2307  0.1475
   10CHTO   H15 4193   6.311  10.898   1.268  0.4597 -1.2947  0.3527
   10CHTO    O6 4194   6.426  11.043   1.376  0.5431 -0.4788 -0.1457
   10CHTO    H1 4195   6.488  11.042   1.446  0.0901  0.4176  0.2686
   10CHTO    C3 4196   6.498  10.809   1.334  0.0911 -0.6122 -0.0912
   10CHTO   H16 4197   6.573  10.845   1.407 -1.3572  2.2921  0.0356
   10CHTO    N1 4198   6.560  10.833   1.198 -0.5503 -0.6831 -0.1312
   10CHTO    H8 4199   6.551  10.749   1.130 -2.6091 -0.4481 -0.1952
   10CHTO    H9 4200   6.661  10.870   1.202 -0.8843  0.5296 -2.2643
   10CHTO    C4 4201   6.459  10.657   1.366 -0.1457  0.2603 -0.3740
   10CHTO   H17 4202   6.384  10.619   1.297  0.8141 -1.2205 -0.6321
   10CHTO    O1 4203   6.409  10.657   1.501  0.2808  0.4330  0.2616
   10CHTO    C5 4204   6.279  10.717   1.512  0.0939 -0.1915  0.3568
   10CHTO   H18 4205   6.217  10.664   1.439  0.2806  3.7996 -2.8391
   10CHTO   C16 4206   6.236  10.687   1.662  0.9368 -0.1619  1.0855
   10CHTO   O11 4207   6.215  10.547   1.670 -0.2214 -0.1064 -0.7788
   10CHTO    H5 4208   6.301  10.508   1.668  0.0987  0.6119 -1.7028
   10CHTO    O3 4209   6.574  10.568   1.372 -0.4099 -0.2125  0.6412
   10CHTO    C6 4210   6.554  10.432   1.323  0.4563 -0.5132 -0.0923
   10CHTO   H19 4211   6.447  10.414   1.322  0.3838 -0.2074  1.1412
   10CHTO    C8 4212   6.617  10.412   1.187  0.6381 -0.5446  0.2790
   10CHTO   H21 4213   6.719  10.450   1.186  0.9031 -1.2558 -0.8995
   10CHTO    O7 4214   6.550  10.490   1.084 -0.2807  0.2703 -0.1787
   10CHTO    H2 4215   6.584  10.578   1.081 -3.0850  1.5438  2.6573
   10CHTO   C12 4216   6.627  10.258   1.143  0.3494  0.5654 -0.1108
   10CHTO   H25 4217   6.523  10.231   1.116  0.6882 -0.0910 -0.7693
   10CHTO    N3 4218   6.708  10.238   1.025 -0.3157 -0.5176 -0.5910
   10CHTO   H12 4219   6.736  10.333   0.982 -2.1210  0.7772  0.9944
   10CHTO   H13 4220   6.666  10.172   0.950  0.6725 -0.6186 -1.0645
   10CHTO   C15 4221   6.683  10.178   1.267  0.1996  0.0339  0.3090
   10CHTO   H28 4222   6.786  10.209   1.282  0.1608  0.3793 -0.1453
   10CHTO   O10 4223   6.665  10.020   1.232  0.0888 -0.5052  1.0586
   10CHTO    H4 4224   6.728   9.997   1.166  0.8463 -0.5622  1.7860
   10CHTO    O5 4225   6.610  10.200   1.386  0.5821  0.3382  0.5043
   10CHTO   C10 4226   6.615  10.335   1.432 -0.3741  0.1832  0.4025
   10CHTO   H23 4227   6.720  10.362   1.444  0.1754 -2.0055  0.6869
   10CHTO   C17 4228   6.544  10.332   1.566 -0.3526 -0.8477 -0.0179
   10CHTO   O12 4229   6.584  10.438   1.654  0.0907 -0.0585 -0.0788
   10CHTO    H6 4230   6.511  10.466   1.707  1.0241  2.1035  0.1242
   11CHTO  H203 4231   5.966   5.477   0.707  1.2143 -0.8434 -1.8123
   11CHTO   O82 4232   6.010   5.559   0.700  0.1004 -0.0580  0.0325
   11CHTO  C123 4233   6.059   5.590   0.834 -0.1317  0.1976 -0.1390
   11CHTO  H227 4234   6.133   5.515   0.864 -0.9414 -0.9538 -0.9629
   11CHTO   O77 4235   6.112   5.726   0.816  0.7102 -0.5650  0.2012
   11CHTO  C118 4236   6.166   5.777   0.935 -0.0377 -0.3731  0.4821
   11CHTO  H222 4237   6.239   5.708   0.980 -0.9250 -1.0201  0.9567
   11CHTO  C125 4238   6.233   5.911   0.891 -0.6932 -0.0022  0.3467
   11CHTO   O84 4239   6.314   5.910   0.768  0.0045 -0.0143 -0.0655
   11CHTO  H205 4240   6.278   5.846   0.709  0.6904  0.6916 -1.2597
   11CHTO  C114 4241   6.055   5.805   1.040  0.1648  0.4875  0.2232
   11CHTO  H218 4242   5.985   5.879   1.003  1.0389  1.6170  0.7819
   11CHTO  C116 4243   5.972   5.673   1.075  0.4004  0.4251 -0.4185
   11CHTO  H220 4244   6.045   5.613   1.132 -0.5756  0.3303  0.7381
   11CHTO   O79 4245   5.856   5.703   1.160 -0.7090 -0.2165 -0.8971
   11CHTO  H201 4246   5.790   5.636   1.157 -1.2892  0.3638 -1.2792
   11CHTO  C120 4247   5.932   5.608   0.932 -0.6661 -0.2204  0.2330
   11CHTO  H224 4248   5.861   5.674   0.876  2.6789  3.4454  0.1095
   11CHTO   N21 4249   5.865   5.481   0.959 -0.2674  0.2394 -0.0384
   11CHTO  H211 4250   5.931   5.395   0.956  0.0044  0.4414  0.0610
   11CHTO  H212 4251   5.807   5.478   1.050  1.0429 -2.0856  0.7666
   11CHTO   O75 4252   6.129   5.846   1.158 -0.3753  0.4013 -0.4481
   11CHTO  C112 4253   6.072   5.950   1.253 -0.2658 -0.3839  0.8039
   11CHTO  H216 4254   6.087   5.922   1.359 -1.1013 -2.6458  0.3628
   11CHTO   O73 4255   5.927   5.957   1.225  0.7673 -0.1096 -0.1948
   11CHTO  C113 4256   5.841   6.046   1.301  0.4069 -0.1246 -0.0443
   11CHTO  H217 4257   5.854   6.013   1.406  2.7102 -1.0465 -0.5696
   11CHTO  C124 4258   5.697   6.033   1.247  0.1266  0.2204  0.7299
   11CHTO   O83 4259   5.669   6.030   1.105  0.1863 -0.5567  0.6699
   11CHTO  H204 4260   5.598   6.086   1.079  0.7092  0.2776  1.0195
   11CHTO  C109 4261   5.887   6.192   1.283  0.1698 -0.3607 -0.0525
   11CHTO  H213 4262   5.884   6.207   1.174 -1.0660 -2.2042 -0.2818
   11CHTO  C110 4263   6.046   6.196   1.318  0.4654 -0.3630 -0.0493
   11CHTO  H214 4264   6.059   6.172   1.424  2.7202  1.9965  0.2643
   11CHTO   O78 4265   6.092   6.328   1.299  0.3505 -0.6025 -0.3462
   11CHTO  H200 4266   6.098   6.349   1.208  0.8497  0.4088 -0.0840
   11CHTO  C111 4267   6.130   6.088   1.239 -0.5115 -0.0476  0.0316
   11CHTO  H215 4268   6.122   6.107   1.131 -0.2507  1.7074  0.3074
   11CHTO   N19 4269   6.276   6.095   1.281 -0.0956  0.0591  0.3119
   11CHTO  H207 4270   6.300   5.998   1.322 -0.7558  0.0505  0.6857
   11CHTO  H208 4271   6.298   6.177   1.347 -0.3791  0.8808 -0.6025
   11CHTO   O74 4272   5.804   6.289   1.356  0.7900  0.3216  0.0907
   11CHTO  C115 4273   5.759   6.401   1.273  0.3606 -0.2752 -0.5719
   11CHTO  H219 4274   5.834   6.428   1.198 -0.4466 -2.1169 -2.0804
   11CHTO   O76 4275   5.634   6.366   1.193 -0.4220  0.1499  0.8351
   11CHTO  C122 4276   5.514   6.317   1.265  0.0215 -0.0863  0.5177
   11CHTO  H226 4277   5.537   6.222   1.314 -0.7574 -0.8931 -0.6673
   11CHTO  C126 4278   5.393   6.305   1.167 -0.3941  0.6465  0.7270
   11CHTO   O85 4279   5.274   6.254   1.234  0.2890 -0.1081 -0.4987
   11CHTO  H206 4280   5.209   6.321   1.251 -0.8768 -1.0040 -1.3179
   11CHTO  C121 4281   5.485   6.425   1.382  0.1548 -0.1946 -0.1488
   11CHTO  H225 4282   5.381   6.457   1.359  0.1177  0.1839  0.5444
   11CHTO   O81 4283   5.488   6.369   1.512 -0.1083  0.0330  0.2855
   11CHTO  H202 4284   5.417   6.309   1.526 -0.0726 -0.0006  0.3215
   11CHTO  C119 4285   5.575   6.554   1.370  0.0240  0.6417  0.4126
   11CHTO  H223 4286   5.551   6.605   1.277 -0.3299  1.1042  0.7561
   11CHTO  C117 4287   5.727   6.521   1.377  0.0826  0.0823 -0.5967
   11CHTO  H221 4288   5.759   6.496   1.478 -2.0945  1.8257  0.5523
   11CHTO   N20 4289   5.806   6.644   1.350  0.1967  0.6991  0.4694
   11CHTO  H209 4290   5.787   6.687   1.253 -0.1896  2.4030  1.2665
   11CHTO  H210 4291   5.791   6.725   1.420 -0.4192  1.7182 -0.8174
   11CHTO   O80 4292   5.514   6.667   1.471  0.2760  0.4154  0.2532
   11CHTO  C103 4293   5.557   6.674   1.629 -0.5255 -0.1211 -0.3582
   11CHTO  H190 4294   5.549   6.577   1.677 -0.2100 -0.1671 -0.3952
   11CHTO  C101 4295   5.691   6.742   1.671 -1.0976  0.3198 -0.5695
   11CHTO  H188 4296   5.713   6.819   1.596 -0.7991  0.9542  0.1674
   11CHTO   O68 4297   5.797   6.655   1.669 -0.0017 -0.5630 -0.5302
   11CHTO  H168 4298   5.875   6.702   1.649 -1.6353  2.0664 -0.8391
   11CHTO   C99 4299   5.693   6.816   1.815  0.4611 -1.1244  0.1730
   11CHTO  H186 4300   5.691   6.743   1.899 -0.3341 -0.6810  0.5454
   11CHTO   N17 4301   5.808   6.904   1.855 -0.1025 -0.3298  0.1090
   11CHTO  H174 4302   5.802   6.996   1.798 -1.2458 -0.1943  0.4344
   11CHTO  H175 4303   5.802   6.920   1.962 -0.1665 -0.7262  0.1654
   11CHTO   C97 4304   5.565   6.898   1.832 -0.0847  0.2072 -0.2553
   11CHTO  H184 4305   5.563   6.977   1.756  3.4571  0.3186 -0.3184
   11CHTO   O64 4306   5.459   6.808   1.820 -0.1533 -0.5887 -0.8792
   11CHTO  C104 4307   5.443   6.764   1.681  0.2875  0.4497 -0.1779
   11CHTO  H191 4308   5.423   6.848   1.614 -0.0410 -0.8971 -1.8272
   11CHTO  C108 4309   5.317   6.673   1.671 -0.0407  0.2890  0.3528
   11CHTO   O71 4310   5.192   6.746   1.706 -0.0523 -0.0708 -0.0629
   11CHTO  H171 4311   5.146   6.773   1.629 -0.9376  2.0652  1.1877
   11CHTO   O62 4312   5.539   6.952   1.966  0.2135 -0.5222 -0.0387
   11CHTO   C91 4313   5.438   7.049   1.980  0.0313 -0.5834 -0.0414
   11CHTO  H178 4314   5.363   7.023   1.904  0.3818 -2.5184  0.2550
   11CHTO   C92 4315   5.484   7.195   1.938  0.2249 -0.2251  0.1041
   11CHTO  H179 4316   5.528   7.195   1.837 -0.9899  1.4515 -0.4389
   11CHTO   O66 4317   5.372   7.286   1.943  0.2974 -0.3938  0.6465
   11CHTO  H166 4318   5.317   7.276   2.018  0.7630  1.7336  1.3162
   11CHTO   C93 4319   5.580   7.266   2.044  1.1143  0.8826 -0.4924
   11CHTO  H180 4320   5.572   7.375   2.034 -2.0198  0.8478  0.9811
   11CHTO   N16 4321   5.726   7.248   2.025  0.1656  0.3263  0.0232
   11CHTO  H172 4322   5.768   7.333   1.973  0.7043 -0.4289 -0.7769
   11CHTO  H173 4323   5.778   7.213   2.112  1.9072  2.0162 -0.2995
   11CHTO   C94 4324   5.531   7.229   2.194  0.5168  0.4654 -1.3666
   11CHTO  H181 4325   5.589   7.148   2.237 -0.2437  1.0298  0.8051
   11CHTO   O61 4326   5.396   7.180   2.199  0.1657 -0.1245 -0.2137
   11CHTO   C95 4327   5.373   7.056   2.128 -0.1079  0.2945 -0.7712
   11CHTO  H182 4328   5.418   6.972   2.182  0.5936  0.8261 -0.5264
   11CHTO  C106 4329   5.219   7.013   2.112  0.4358 -0.6108 -0.7811
   11CHTO   O69 4330   5.187   6.900   2.028 -0.1763  0.3604 -0.0150
   11CHTO  H169 4331   5.206   6.822   2.076 -1.5313  0.5932  0.9341
   11CHTO   O63 4332   5.529   7.351   2.288  0.4268  0.1764  0.4218
   11CHTO   C96 4333   5.636   7.356   2.393 -0.1361 -0.5510 -1.0294
   11CHTO  H183 4334   5.726   7.316   2.347  0.2157  0.4965 -1.2571
   11CHTO   C98 4335   5.604   7.283   2.521 -0.3803  0.4168  0.4169
   11CHTO  H185 4336   5.504   7.316   2.553 -0.0192  1.3066  0.6576
   11CHTO   O67 4337   5.589   7.145   2.485 -0.2588  0.4363 -0.0359
   11CHTO  H167 4338   5.663   7.098   2.451  0.6555  2.0522 -0.3360
   11CHTO  C102 4339   5.722   7.290   2.626 -0.2186 -0.5288  0.7105
   11CHTO  H189 4340   5.803   7.232   2.580 -0.5693 -0.2456 -0.2950
   11CHTO   N18 4341   5.700   7.228   2.754 -0.3748 -0.3490 -0.5183
   11CHTO  H176 4342   5.782   7.248   2.821 -1.7286  1.6310  0.5918
   11CHTO  H177 4343   5.672   7.124   2.740 -0.2554 -0.0550 -3.3622
   11CHTO  C105 4344   5.767   7.438   2.637 -0.6621  0.0253 -0.0743
   11CHTO  H192 4345   5.696   7.497   2.695 -0.1860 -0.3492  0.8915
   11CHTO   O65 4346   5.787   7.507   2.514  0.3734  0.0315  0.1989
   11CHTO  C100 4347   5.675   7.495   2.428 -0.5095  0.3364  0.7590
   11CHTO  H187 4348   5.595   7.553   2.475 -0.6771 -0.9918  2.1697
   11CHTO  C107 4349   5.702   7.588   2.303  0.2893  0.3601 -0.3476
   11CHTO   O70 4350   5.697   7.728   2.328  0.1044 -0.1552  0.1076
   11CHTO  H170 4351   5.682   7.763   2.243  0.1809  1.2287  0.6596
   11CHTO   O57 4352   5.924   7.427   2.724 -0.3520  0.2435 -0.3416
   11CHTO   C85 4353   5.966   7.538   2.803  0.2746 -0.5015  0.5702
   11CHTO  H157 4354   5.881   7.561   2.870 -1.3449 -0.6675 -1.3746
   11CHTO   C83 4355   5.977   7.668   2.717  0.2476  0.1411 -0.2414
   11CHTO  H155 4356   5.886   7.691   2.661 -0.2431  1.5923  1.1119
   11CHTO   O56 4357   6.075   7.648   2.610  0.8067 -0.3936 -0.3011
   11CHTO  H135 4358   6.160   7.683   2.630  0.2310 -0.2048  1.9785
   11CHTO   C81 4359   6.013   7.790   2.803 -0.5043  0.3141 -0.6111
   11CHTO  H153 4360   5.942   7.788   2.886 -0.2382 -1.7120 -0.3956
   11CHTO   N14 4361   6.012   7.921   2.742  0.8100 -0.0284  0.2512
   11CHTO  H141 4362   6.034   7.918   2.638  0.2339  3.9798 -0.0803
   11CHTO  H142 4363   5.914   7.961   2.753  0.3810 -1.0147  0.0228
   11CHTO   C79 4364   6.157   7.760   2.873  0.1848  0.7427  0.4067
   11CHTO  H151 4365   6.185   7.849   2.929  1.6770  0.7311 -0.2995
   11CHTO   O52 4366   6.140   7.637   2.957 -0.4755  0.5955  0.0753
   11CHTO   C86 4367   6.096   7.521   2.875  0.5828 -0.1545 -0.7326
   11CHTO  H158 4368   6.182   7.506   2.807 -0.0635 -0.1259 -1.5568
   11CHTO   C90 4369   6.093   7.397   2.965 -0.4015  0.1410  0.5016
   11CHTO   O60 4370   5.999   7.404   3.074 -0.3873  0.0980 -0.1585
   11CHTO  H138 4371   6.029   7.469   3.134 -0.5044 -1.3162  1.4909
   11CHTO   O50 4372   6.267   7.752   2.777 -0.8225  0.3967  0.2383
   11CHTO   C73 4373   6.403   7.755   2.823  0.3933 -0.1893 -0.4801
   11CHTO  H145 4374   6.408   7.705   2.920 -0.3977  0.8732  0.1172
   11CHTO   C74 4375   6.456   7.902   2.837 -0.3447  0.5812  0.0926
   11CHTO  H146 4376   6.389   7.952   2.909 -1.9467 -1.4085  0.0441
   11CHTO   O54 4377   6.584   7.897   2.908 -0.1789  0.0389  0.0484
   11CHTO  H133 4378   6.580   7.832   2.975 -1.9347  0.9032  0.8154
   11CHTO   C75 4379   6.453   7.965   2.705 -0.4800 -0.8249  0.5025
   11CHTO  H147 4380   6.350   7.962   2.666 -0.6070 -0.3160  0.7998
   11CHTO   N13 4381   6.489   8.111   2.695  0.2862  0.2082  0.4790
   11CHTO  H139 4382   6.422   8.176   2.751 -1.8225 -1.8961  0.4866
   11CHTO  H140 4383   6.486   8.135   2.590 -0.9020 -1.6831  0.0482
   11CHTO   C76 4384   6.536   7.879   2.595 -0.0779  0.3967 -0.5953
   11CHTO  H148 4385   6.644   7.891   2.609 -0.0556 -0.3462 -0.1018
   11CHTO   O49 4386   6.498   7.735   2.599  0.1682 -0.5480  0.1606
   11CHTO   C77 4387   6.494   7.673   2.725  0.7230  0.2070 -0.0736
   11CHTO  H149 4388   6.595   7.665   2.767  0.6762 -1.1772 -0.2082
   11CHTO   C88 4389   6.453   7.525   2.715 -0.0465 -0.4320  0.3162
   11CHTO   O58 4390   6.450   7.471   2.840 -0.1887  0.4091  0.3019
   11CHTO  H136 4391   6.362   7.450   2.862 -0.0833  0.1491  0.4745
   11CHTO   O51 4392   6.490   7.913   2.452  0.1534  0.7027 -0.6976
   11CHTO   C78 4393   6.613   7.921   2.347 -0.4509 -0.2499  0.0947
   11CHTO  H150 4394   6.699   7.865   2.390 -0.4084  0.7426  1.3287
   11CHTO   C80 4395   6.650   8.066   2.312 -0.3760 -0.2823 -0.2672
   11CHTO  H152 4396   6.559   8.120   2.281 -0.3391 -0.6871 -1.0876
   11CHTO   O55 4397   6.693   8.133   2.434  0.4592  0.5251 -0.3396
   11CHTO  H134 4398   6.639   8.106   2.506  0.4481  0.1154 -0.5006
   11CHTO   C84 4399   6.757   8.064   2.195  0.4262  0.3552 -0.3095
   11CHTO  H156 4400   6.855   8.036   2.234  0.8863  0.6000 -1.2631
   11CHTO   N15 4401   6.780   8.206   2.159 -0.1509  0.0443 -0.2526
   11CHTO  H143 4402   6.874   8.218   2.109  0.0436  1.2612  0.4010
   11CHTO  H144 4403   6.702   8.231   2.090  0.5827 -0.1838 -1.1878
   11CHTO   C87 4404   6.705   7.980   2.072 -1.3460  0.3826 -0.3163
   11CHTO  H159 4405   6.615   8.029   2.036 -0.1862  0.8477 -2.6994
   11CHTO   O53 4406   6.675   7.842   2.124  0.2149 -0.1194  0.8900
   11CHTO   C82 4407   6.569   7.843   2.222 -0.6496 -0.0463  0.0637
   11CHTO  H154 4408   6.470   7.879   2.196 -0.6698  0.3104  0.6318
   11CHTO   C89 4409   6.547   7.694   2.264  0.3612 -0.1040 -0.5496
   11CHTO   O59 4410   6.411   7.661   2.308  0.1132  0.2514 -0.1975
   11CHTO  H137 4411   6.420   7.612   2.387  2.4306  3.1522  1.4640
   11CHTO   O45 4412   6.809   7.973   1.971 -0.2493 -0.3887 -0.5022
   11CHTO   C67 4413   6.764   7.930   1.839  0.3583 -0.5147 -0.0637
   11CHTO  H124 4414   6.673   7.874   1.860  0.1346  0.3902  1.5571
   11CHTO   C65 4415   6.730   8.055   1.753  0.5642 -0.0556  0.0707
   11CHTO  H122 4416   6.783   8.139   1.800 -0.6218  0.0712  1.1985
   11CHTO   O44 4417   6.588   8.077   1.760 -0.1848  0.7016 -0.1446
   11CHTO  H102 4418   6.549   8.011   1.706  0.3124  0.1975  0.1074
   11CHTO   C63 4419   6.794   8.034   1.609 -0.1080  0.7093  0.1001
   11CHTO  H120 4420   6.902   8.044   1.618  0.3892 -1.6498 -2.4042
   11CHTO   N11 4421   6.770   8.139   1.503 -0.5305 -0.6422  0.1495
   11CHTO  H108 4422   6.787   8.236   1.545 -2.3261  0.2336 -1.1204
   11CHTO  H109 4423   6.686   8.125   1.438  0.0559  2.0416 -1.2480
   11CHTO   C61 4424   6.771   7.888   1.563  0.4367  0.4147  0.1880
   11CHTO  H118 4425   6.808   7.874   1.460  1.7735  0.1728  0.6929
   11CHTO   O40 4426   6.838   7.784   1.640 -0.3373 -0.6608 -0.1027
   11CHTO   C68 4427   6.878   7.824   1.779 -0.3820  0.7017  0.0769
   11CHTO  H125 4428   6.977   7.871   1.764  0.1202 -0.0520  1.0257
   11CHTO   C72 4429   6.900   7.690   1.866  0.1575 -0.0142  0.5790
   11CHTO   O48 4430   6.981   7.707   1.982 -0.5302 -0.1397 -0.0426
   11CHTO  H105 4431   7.050   7.767   1.964 -1.0026  0.9280  1.6322
   11CHTO   O38 4432   6.628   7.858   1.564 -0.1953  0.0522 -0.1697
   11CHTO   C55 4433   6.584   7.763   1.463 -0.6785 -0.1160 -0.0525
   11CHTO  H112 4434   6.667   7.700   1.426 -1.9892 -1.1096 -1.3561
   11CHTO   C56 4435   6.514   7.845   1.344  0.0251 -0.0311 -0.4578
   11CHTO  H113 4436   6.464   7.936   1.380  1.4980  1.2962 -1.7161
   11CHTO   O42 4437   6.627   7.904   1.277 -0.5880 -0.0312 -0.3377
   11CHTO  H100 4438   6.594   7.977   1.227 -2.8756  0.2435  1.5093
   11CHTO   C57 4439   6.426   7.754   1.247 -0.2107  0.5324 -0.4937
   11CHTO  H114 4440   6.506   7.696   1.201 -2.0500 -1.4635 -1.2413
   11CHTO   N10 4441   6.352   7.829   1.150  0.4877  0.6678 -0.2616
   11CHTO  H106 4442   6.327   7.929   1.182  0.1744  0.3434  0.5304
   11CHTO  H107 4443   6.426   7.831   1.071  0.8312 -0.1063  0.0313
   11CHTO   C58 4444   6.331   7.665   1.328  0.2528  0.2449  0.1157
   11CHTO  H115 4445   6.249   7.722   1.377 -0.7448 -1.7803  0.8693
   11CHTO   O37 4446   6.404   7.596   1.441  0.0537 -0.0607  0.0972
   11CHTO   C59 4447   6.484   7.665   1.533  0.4091  0.3270 -0.0617
   11CHTO  H116 4448   6.418   7.717   1.602  1.1027 -2.4480  2.8094
   11CHTO   C70 4449   6.564   7.563   1.609  0.4645 -0.0140 -0.0779
   11CHTO   O46 4450   6.494   7.480   1.708  0.1850 -0.1917 -1.0818
   11CHTO  H103 4451   6.481   7.397   1.667 -0.7858 -1.3348  1.4494
   11CHTO   O39 4452   6.281   7.540   1.241 -0.2018  0.6844 -0.1632
   11CHTO   C60 4453   6.163   7.473   1.296  0.0061  0.4169  0.0044
   11CHTO  H117 4454   6.162   7.494   1.403 -1.2493 -1.1112  0.3229
   11CHTO   C62 4455   6.023   7.532   1.247 -0.2893  0.2926  0.3705
   11CHTO  H119 4456   6.037   7.641   1.261  1.2987  0.0486  0.8198
   11CHTO   O43 4457   6.011   7.510   1.101  0.1355  0.1129  0.7743
   11CHTO  H101 4458   5.982   7.586   1.056 -2.5922  0.2892  2.7044
   11CHTO   C66 4459   5.896   7.478   1.333 -0.2529  0.4429  0.2562
   11CHTO  H123 4460   5.917   7.509   1.435  0.1911  1.7151 -0.2145
   11CHTO   N12 4461   5.768   7.534   1.293  0.0006 -0.4226 -0.4071
   11CHTO  H110 4462   5.773   7.639   1.267  1.0853 -1.0953 -3.1964
   11CHTO  H111 4463   5.720   7.481   1.211 -3.6684 -0.6187  1.7620
   11CHTO   C69 4464   5.898   7.322   1.314  0.5519  0.7269  0.0588
   11CHTO  H126 4465   5.876   7.297   1.208 -2.7647  0.2564  0.7917
   11CHTO   O41 4466   6.037   7.260   1.370  0.3431  0.2038 -0.1113
   11CHTO   C64 4467   6.161   7.318   1.279 -0.0855 -0.6975  0.2972
   11CHTO  H121 4468   6.136   7.288   1.175  1.0448  1.1565 -0.5245
   11CHTO   C71 4469   6.292   7.265   1.325 -0.1143 -0.0875 -0.1421
   11CHTO   O47 4470   6.378   7.274   1.205 -0.0809 -0.1359  0.0763
   11CHTO  H104 4471   6.359   7.202   1.148  1.1501  0.7901 -1.5452
   11CHTO   O34 4472   5.769   7.252   1.407  0.8106 -0.7773 -0.5045
   11CHTO   C49 4473   5.657   7.165   1.461  0.2081 -0.0530 -0.1498
   11CHTO   H91 4474   5.693   7.144   1.561  0.1092  1.4224  0.2037
   11CHTO   C47 4475   5.636   7.042   1.373 -0.4336 -0.3706  0.4886
   11CHTO   H89 4476   5.569   6.973   1.429 -0.4107  2.6419  4.4196
   11CHTO   O33 4477   5.762   6.979   1.338  0.5639  0.1627 -0.1954
   11CHTO   H70 4478   5.838   7.026   1.369 -0.5396  1.8144  0.0782
   11CHTO   C45 4479   5.563   7.081   1.235 -0.9560  0.5532 -0.3821
   11CHTO   H87 4480   5.638   7.139   1.179  0.8423 -0.3607  1.0351
   11CHTO    N8 4481   5.523   6.967   1.151 -0.1406 -0.2912 -0.0087
   11CHTO   H75 4482   5.515   7.005   1.050 -0.3468  1.5834  0.6928
   11CHTO   H76 4483   5.431   6.922   1.186 -1.3358  0.9925 -1.4429
   11CHTO   C43 4484   5.440   7.180   1.246 -0.4042 -0.3874  0.0384
   11CHTO   H85 4485   5.414   7.214   1.146  0.1696  0.6191  0.2171
   11CHTO   O29 4486   5.481   7.294   1.332  0.2252  0.5480 -0.1454
   11CHTO   C50 4487   5.535   7.261   1.463 -0.0316 -0.5285 -0.8308
   11CHTO   H92 4488   5.561   7.359   1.505 -0.8666 -0.1855 -1.0972
   11CHTO   C54 4489   5.425   7.205   1.562 -0.2945 -0.4987 -0.2890
   11CHTO   O36 4490   5.316   7.303   1.585 -0.0901  0.6030 -0.3578
   11CHTO   H72 4491   5.272   7.271   1.661  0.4264 -0.3364 -0.4555
   11CHTO   O27 4492   5.320   7.121   1.299 -0.0665  0.0261  0.7632
   11CHTO   C37 4493   5.179   7.128   1.308  0.1893 -0.1955 -0.3457
   11CHTO   H79 4494   5.157   7.139   1.415  2.3864  1.3679 -0.0196
   11CHTO   C38 4495   5.103   7.241   1.230 -0.2431  0.0908 -0.0776
   11CHTO   H80 4496   5.112   7.217   1.123 -1.7086  0.5018 -0.3066
   11CHTO   O31 4497   5.158   7.369   1.256  0.0563  0.0564 -0.3675
   11CHTO   H68 4498   5.144   7.432   1.187 -1.3981  1.7701  1.4506
   11CHTO   C39 4499   4.950   7.232   1.265  0.0101 -0.1489  0.7191
   11CHTO   H81 4500   4.942   7.244   1.373 -0.0316 -0.8320  0.7935
   11CHTO    N7 4501   4.860   7.332   1.196 -0.1637 -0.2516 -0.0195
   11CHTO   H73 4502   4.778   7.371   1.255 -0.1356 -0.3785  0.1049
   11CHTO   H74 4503   4.852   7.345   1.089  2.7186  0.2839 -0.1987
   11CHTO   C40 4504   4.891   7.091   1.235 -0.3746 -0.6491  0.8008
   11CHTO   H82 4505   4.886   7.079   1.127 -0.0885 -1.7568  0.9036
   11CHTO   O26 4506   4.984   6.992   1.292  0.3610  0.0446 -0.4574
   11CHTO   C41 4507   5.125   6.989   1.251  0.6143 -0.5536  0.1042
   11CHTO   H83 4508   5.160   6.985   1.147 -1.8808 -3.0165 -0.7289
   11CHTO   C52 4509   5.186   6.855   1.316  0.1597  0.4256 -0.1872
   11CHTO   O35 4510   5.126   6.725   1.296 -0.2818 -0.0519  0.3001
   11CHTO   H71 4511   5.075   6.736   1.219 -1.0698 -1.8632  0.5335
   11CHTO   O28 4512   4.775   7.056   1.315  0.0420 -0.5343  0.2678
   11CHTO   C42 4513   4.694   6.937   1.280 -0.6095 -0.3391  1.4146
   11CHTO   H84 4514   4.752   6.890   1.201  1.5212  1.9427  1.5616
   11CHTO   C44 4515   4.561   6.972   1.220  0.1065  0.3042 -0.4577
   11CHTO   H86 4516   4.501   7.020   1.297 -0.2757 -1.0145  0.0838
   11CHTO   O32 4517   4.579   7.071   1.119 -0.2377  0.1637 -0.0254
   11CHTO   H69 4518   4.545   7.051   1.034  0.6237  0.4309 -0.4395
   11CHTO   C48 4519   4.469   6.854   1.168  0.7766 -0.2015 -0.7709
   11CHTO   H90 4520   4.509   6.799   1.083 -0.2135 -2.1768 -0.0095
   11CHTO    N9 4521   4.334   6.897   1.116 -0.0915  1.0059  0.0346
   11CHTO   H77 4522   4.327   6.886   1.009  3.2797 -1.4100 -0.0138
   11CHTO   H78 4523   4.305   6.998   1.139 -0.5902  0.7150  0.7280
   11CHTO   C51 4524   4.457   6.745   1.285 -0.0406  0.4076  0.5460
   11CHTO   H93 4525   4.393   6.782   1.365 -0.8089  2.0811 -0.8034
   11CHTO   O30 4526   4.592   6.706   1.329  0.1959 -0.0243 -0.0205
   11CHTO   C46 4527   4.668   6.829   1.384 -0.4896 -0.3608 -0.0904
   11CHTO   H88 4528   4.608   6.869   1.466 -0.5481 -0.5671 -0.0314
   11CHTO   C53 4529   4.799   6.778   1.450 -0.1360  0.7918  0.3943
   11CHTO   O72 4530   4.775   6.745   1.592 -0.3468 -0.0962 -0.4710
   11CHTO  H199 4531   4.692   6.701   1.598 -0.6087  0.3875 -0.5567
   11CHTO   O22 4532   4.397   6.625   1.240 -0.3141  0.0186  0.3496
   11CHTO   C31 4533   4.400   6.505   1.326  0.4656 -1.4133 -0.2332
   11CHTO   H59 4534   4.463   6.530   1.414 -0.5944  1.2523 -0.1830
   11CHTO   C29 4535   4.262   6.472   1.382 -0.1453 -0.2596  0.5123
   11CHTO   H57 4536   4.197   6.458   1.294 -0.0958  1.1198  0.2391
   11CHTO   O21 4537   4.216   6.586   1.446  0.6455 -0.3382 -0.6910
   11CHTO   H37 4538   4.125   6.576   1.463  1.2306 -1.0038  2.4699
   11CHTO   C27 4539   4.259   6.346   1.476  0.4674  0.8218 -0.5619
   11CHTO   H55 4540   4.312   6.371   1.569  1.8999 -0.5216 -0.9926
   11CHTO    N5 4541   4.124   6.292   1.512  0.1062  0.1256 -0.1730
   11CHTO   H43 4542   4.115   6.189   1.482  0.4145  0.6396 -2.1356
   11CHTO   H44 4543   4.034   6.349   1.493 -0.0232 -0.1234 -0.3002
   11CHTO   C25 4544   4.351   6.228   1.426 -0.3277 -0.3486 -0.4553
   11CHTO   H53 4545   4.293   6.175   1.348 -0.1017  1.5495 -1.9471
   11CHTO   O17 4546   4.470   6.283   1.360  0.1686 -0.2067  0.0110
   11CHTO   C32 4547   4.447   6.376   1.264 -0.9692  0.1917 -0.5380
   11CHTO   H60 4548   4.379   6.341   1.186 -2.6611 -0.3443  1.1490
   11CHTO   C36 4549   4.584   6.387   1.188  0.8601  0.4431  0.5523
   11CHTO   O25 4550   4.585   6.484   1.077  0.0878 -0.6111 -0.5560
   11CHTO   H40 4551   4.586   6.571   1.112  1.3834 -1.2172  0.9598
   11CHTO   O15 4552   4.398   6.123   1.539 -0.1693 -0.6103  0.3188
   11CHTO   C19 4553   4.391   5.978   1.561  0.3063  0.3896 -0.8318
   11CHTO   H47 4554   4.496   5.948   1.569  0.2472 -0.3276 -2.5160
   11CHTO   C20 4555   4.330   5.941   1.703  0.1161  0.3653  0.5305
   11CHTO   H48 4556   4.231   5.986   1.713  0.7471  1.3519  2.5294
   11CHTO   O19 4557   4.414   5.992   1.806 -0.4045 -0.0334  0.1902
   11CHTO   H35 4558   4.376   5.966   1.888  0.9928 -0.0264  0.8500
   11CHTO   C21 4559   4.313   5.784   1.719 -0.5050  0.1956  0.1141
   11CHTO   H49 4560   4.414   5.743   1.719  0.5200  2.6034  1.1059
   11CHTO    N4 4561   4.247   5.747   1.844 -0.3517 -0.4285 -0.3885
   11CHTO   H41 4562   4.282   5.809   1.926 -0.0186 -0.0304 -0.8269
   11CHTO   H42 4563   4.274   5.645   1.867  2.6005 -0.0233 -1.8493
   11CHTO   C22 4564   4.254   5.724   1.587  0.5369 -0.9097 -0.5690
   11CHTO   H50 4565   4.157   5.772   1.572  1.7528  1.6515 -0.4440
   11CHTO   O14 4566   4.331   5.759   1.475  0.3597  0.0569  0.0303
   11CHTO   C23 4567   4.337   5.895   1.433 -0.8234  0.2156 -0.2814
   11CHTO   H51 4568   4.230   5.913   1.412 -1.0115  0.9883  1.2064
   11CHTO   C34 4569   4.419   5.915   1.306 -0.1578  0.7459 -0.2047
   11CHTO   O23 4570   4.560   5.885   1.331  0.6399 -0.3337 -0.1362
   11CHTO   H38 4571   4.580   5.825   1.262  3.3823  0.8465 -0.4484
   11CHTO   O16 4572   4.241   5.582   1.588 -0.6001 -0.5653  0.4412
   11CHTO   C24 4573   4.159   5.532   1.442  0.1696 -0.3482  0.0347
   11CHTO   H52 4574   4.160   5.609   1.366 -0.4962  0.5910  0.9613
   11CHTO   C26 4575   4.014   5.499   1.481  0.5401  0.2270  0.3206
   11CHTO   H54 4576   4.015   5.432   1.569 -0.4249 -0.7587 -0.4057
   11CHTO   O20 4577   3.953   5.616   1.529 -0.1084  0.0009  0.5299
   11CHTO   H36 4578   3.952   5.679   1.459 -0.2926 -0.3444  0.2238
   11CHTO   C30 4579   3.944   5.441   1.358  0.1607  0.0149 -0.0585
   11CHTO   H58 4580   3.916   5.518   1.285 -0.8795 -1.3153 -1.0942
   11CHTO    N6 4581   3.806   5.392   1.392 -0.3801  0.3840 -0.6871
   11CHTO   H45 4582   3.795   5.345   1.489  0.8977  1.0845 -0.1927
   11CHTO   H46 4583   3.730   5.467   1.374 -0.7352 -0.2550 -1.9222
   11CHTO   C33 4584   4.031   5.337   1.272  0.0538 -0.1940  0.7765
   11CHTO   H61 4585   4.020   5.233   1.307  1.0634 -1.2910 -2.0603
   11CHTO   O18 4586   4.171   5.364   1.266  0.2464  0.2764  0.0621
   11CHTO   C28 4587   4.228   5.403   1.393  0.0508  0.1726 -0.3147
   11CHTO   H56 4588   4.226   5.326   1.470 -2.1357  0.1385 -0.3750
   11CHTO   C35 4589   4.380   5.442   1.385 -0.6430 -0.1193 -0.5026
   11CHTO   O24 4590   4.406   5.544   1.285 -0.7467 -0.1871  0.1469
   11CHTO   H39 4591   4.416   5.626   1.328 -0.4257 -1.1178  1.9108
   11CHTO    O9 4592   3.969   5.337   1.140  0.1813 -0.0421  0.0232
   11CHTO   C13 4593   3.979   5.444   1.057  0.0995  0.0260 -0.2174
   11CHTO   H26 4594   4.021   5.531   1.112 -0.4036 -1.0128  1.8517
   11CHTO   C11 4595   3.837   5.482   0.998 -0.6308 -0.2283 -0.3323
   11CHTO   H24 4596   3.765   5.501   1.079  0.6010 -0.8743  0.9268
   11CHTO    O8 4597   3.783   5.381   0.917  0.1285  0.4334  0.0423
   11CHTO    H3 4598   3.739   5.319   0.972 -0.2058  1.8351  1.3926
   11CHTO    C9 4599   3.854   5.615   0.922  0.1078  0.1722 -0.1091
   11CHTO   H22 4600   3.871   5.692   0.998 -1.1197  0.5539 -0.2090
   11CHTO    N2 4601   3.731   5.670   0.861  0.7393 -0.4724  0.2870
   11CHTO   H10 4602   3.740   5.643   0.757  1.7910 -2.2686  0.8204
   11CHTO   H11 4603   3.731   5.778   0.858 -0.8944 -0.4389  0.6860
   11CHTO    C7 4604   3.984   5.603   0.830 -0.3879 -0.1745  0.3988
   11CHTO   H20 4605   4.059   5.658   0.891 -1.9467  1.6794  0.7101
   11CHTO    O4 4606   4.036   5.474   0.813  0.1723  0.0414  0.0805
   11CHTO   C14 4607   4.085   5.417   0.932  0.3995  0.8719  0.2510
   11CHTO   H27 4608   4.183   5.468   0.940 -0.0258  1.5493  1.3703
   11CHTO   C18 4609   4.113   5.266   0.899  0.3628 -0.6308 -0.1855
   11CHTO   O13 4610   4.141   5.173   1.005  0.7010 -0.0436  0.1094
   11CHTO    H7 4611   4.060   5.171   1.052  0.4097  1.3008 -0.3058
   11CHTO    O2 4612   3.981   5.680   0.681 -0.1382 -0.3435  0.3287
   11CHTO    C1 4613   4.080   5.791   0.661  0.2696 -0.0357 -0.4252
   11CHTO   H14 4614   4.146   5.784   0.751  3.6240 -1.2915 -2.8966
   11CHTO    C2 4615   4.013   5.935   0.657 -0.1550  0.6269 -0.0701
   11CHTO   H15 4616   3.940   5.951   0.577  1.0860  0.3834 -1.2643
   11CHTO    O6 4617   3.940   5.967   0.781 -0.0557  0.3826 -0.4256
   11CHTO    H1 4618   3.933   6.060   0.778 -0.6740  0.4596  2.1721
   11CHTO    C3 4619   4.128   6.046   0.631  0.5113  0.1201 -0.1043
   11CHTO   H16 4620   4.185   6.039   0.725 -1.7433  0.2066  1.2938
   11CHTO    N1 4621   4.084   6.186   0.627  0.1261 -0.4765 -0.2605
   11CHTO    H8 4622   4.004   6.186   0.555  1.7352 -1.0811 -2.0833
   11CHTO    H9 4623   4.155   6.256   0.586  0.1133  0.9681  2.0864
   11CHTO    C4 4624   4.215   6.004   0.510 -0.5368  0.3432 -0.1493
   11CHTO   H17 4625   4.161   6.021   0.416  0.6761  1.4225 -0.6636
   11CHTO    O1 4626   4.256   5.864   0.510 -0.4995 -0.1489 -0.0501
   11CHTO    C5 4627   4.156   5.760   0.537  0.6711 -0.0939 -0.2708
   11CHTO   H18 4628   4.083   5.768   0.456  0.7798 -1.1379 -0.4722
   11CHTO   C16 4629   4.220   5.619   0.534  0.0967 -0.6374  0.7264
   11CHTO   O11 4630   4.335   5.590   0.611  0.1293  0.0725 -0.1933
   11CHTO    H5 4631   4.326   5.632   0.694  0.7466  1.3944 -0.7812
   11CHTO    O3 4632   4.346   6.070   0.506 -0.7521  0.3168 -0.1567
   11CHTO    C6 4633   4.413   6.065   0.380 -0.2863 -0.0473 -0.1311
   11CHTO   H19 4634   4.392   5.980   0.315  2.5793  0.4277 -1.8013
   11CHTO    C8 4635   4.390   6.203   0.308  0.2732 -0.3075 -0.0944
   11CHTO   H21 4636   4.411   6.285   0.377  0.4203 -0.9681  0.6574
   11CHTO    O7 4637   4.249   6.209   0.278 -0.3051  0.0143  0.2820
   11CHTO    H2 4638   4.216   6.148   0.215 -1.6159  0.3040  0.6847
   11CHTO   C12 4639   4.494   6.227   0.184 -0.3229  0.5850 -0.1580
   11CHTO   H25 4640   4.456   6.166   0.100  2.5676  0.6378 -1.5527
   11CHTO    N3 4641   4.497   6.375   0.145 -0.2851  0.3026 -0.0163
   11CHTO   H12 4642   4.400   6.403   0.109 -0.2534 -0.6439 -0.8316
   11CHTO   H13 4643   4.576   6.395   0.074  0.7582 -2.8418  0.1846
   11CHTO   C15 4644   4.638   6.179   0.217  0.2366  0.0774 -0.7741
   11CHTO   H28 4645   4.689   6.249   0.282 -0.6219 -0.2844  0.3139
   11CHTO   O10 4646   4.715   6.147   0.094 -0.1271  0.1649  0.1921
   11CHTO    H4 4647   4.798   6.191   0.096 -0.7120  1.3017 -0.1419
   11CHTO    O5 4648   4.636   6.051   0.283  0.4830 -0.3992 -0.1618
   11CHTO   C10 4649   4.562   6.052   0.408  0.4604 -0.7028  0.1932
   11CHTO   H23 4650   4.600   6.127   0.477 -1.6904  1.4705 -0.8907
   11CHTO   C17 4651   4.597   5.919   0.478  0.0854 -0.5386 -0.0077
   11CHTO   O12 4652   4.736   5.886   0.492  0.5424 -0.3520 -0.8499
   11CHTO    H6 4653   4.767   5.855   0.409  2.5607  0.1328 -0.3069
   12CHTO  H203 4654   5.463   2.233   2.676  0.4042 -4.5161  1.2786
   12CHTO   O82 4655   5.445   2.266   2.762  0.3912 -0.0493 -0.2742
   12CHTO  C123 4656   5.410   2.156   2.849 -0.6703  0.4073 -0.5300
   12CHTO  H227 4657   5.419   2.190   2.953 -0.1126 -1.0566 -0.0955
   12CHTO   O77 4658   5.273   2.128   2.814 -0.1669 -0.0498 -0.6185
   12CHTO  C118 4659   5.204   2.024   2.886  0.0772 -0.4172  0.3301
   12CHTO  H222 4660   5.195   2.053   2.992 -0.2570 -0.7478  0.3909
   12CHTO  C125 4661   5.052   2.016   2.822 -0.1046 -0.2432 -0.2490
   12CHTO   O84 4662   5.000   2.147   2.846  0.5598 -0.6250  0.6365
   12CHTO  H205 4663   4.921   2.164   2.798 -0.7723  0.0470  2.9784
   12CHTO  C114 4664   5.277   1.887   2.861  0.5175  0.8119 -0.4157
   12CHTO  H218 4665   5.261   1.858   2.757  0.0649  1.3981 -0.5155
   12CHTO  C116 4666   5.434   1.899   2.893  0.0394 -0.3815  0.5065
   12CHTO  H220 4667   5.447   1.891   3.003 -0.2237  0.6506  0.6223
   12CHTO   O79 4668   5.509   1.789   2.847 -0.2174  0.1938  0.0039
   12CHTO  H201 4669   5.469   1.713   2.884 -1.2083  2.4209  3.7380
   12CHTO  C120 4670   5.497   2.030   2.830 -0.1109 -0.4540  0.8524
   12CHTO  H224 4671   5.522   2.011   2.723  1.7912 -0.1218  1.2218
   12CHTO   N21 4672   5.635   2.057   2.879  0.3413 -0.3936 -0.3948
   12CHTO  H211 4673   5.699   1.971   2.871  0.3048 -0.7144  2.2835
   12CHTO  H212 4674   5.676   2.139   2.822 -0.6089  0.6603  0.4187
   12CHTO   O75 4675   5.208   1.798   2.958 -0.7781  0.2791 -0.0926
   12CHTO  C112 4676   5.159   1.665   2.895 -0.1919 -0.2579 -1.0069
   12CHTO  H216 4677   5.220   1.646   2.805  2.0325 -0.2701  0.4593
   12CHTO   O73 4678   5.017   1.679   2.870  0.1205 -0.6513  0.3184
   12CHTO  C113 4679   4.963   1.574   2.793 -0.1738  0.6032 -1.3083
   12CHTO  H217 4680   5.019   1.542   2.703 -1.0420 -2.3278 -0.8712
   12CHTO  C124 4681   4.815   1.604   2.746  0.0589  0.6765  0.0516
   12CHTO   O83 4682   4.796   1.720   2.668  0.5579 -0.0115 -0.4045
   12CHTO  H204 4683   4.813   1.798   2.717  0.0538  0.6840 -1.3174
   12CHTO  C109 4684   4.974   1.450   2.884 -0.8223 -0.6776  0.4094
   12CHTO  H213 4685   4.916   1.466   2.977 -1.1295 -0.4998  0.1915
   12CHTO  C110 4686   5.119   1.418   2.926  0.1308  0.1832  0.2440
   12CHTO  H214 4687   5.173   1.387   2.836 -2.8688 -1.7240 -0.9509
   12CHTO   O78 4688   5.131   1.295   3.001 -0.2700  0.2325  0.4578
   12CHTO  H200 4689   5.216   1.259   2.986 -1.1167 -1.1676 -1.2688
   12CHTO  C111 4690   5.184   1.541   2.993 -0.9472 -0.5509 -0.0395
   12CHTO  H215 4691   5.130   1.555   3.088 -2.5325  0.4121 -1.0535
   12CHTO   N19 4692   5.328   1.521   3.017 -0.1285 -0.3085 -0.4989
   12CHTO  H207 4693   5.375   1.589   3.087 -0.8540  0.7202 -0.9998
   12CHTO  H208 4694   5.384   1.531   2.926 -2.6413 -1.5473 -2.2331
   12CHTO   O74 4695   4.916   1.341   2.811 -0.2092  0.2499  0.4134
   12CHTO  C115 4696   4.782   1.296   2.864  0.1903  0.1786  0.1501
   12CHTO  H219 4697   4.764   1.338   2.963 -2.7863  2.5484 -1.3124
   12CHTO   O76 4698   4.661   1.342   2.776 -0.1390 -0.2909  0.1304
   12CHTO  C122 4699   4.638   1.266   2.654 -0.6593 -0.2322  0.0285
   12CHTO  H226 4700   4.710   1.295   2.578 -2.6898  0.0371 -1.8632
   12CHTO  C126 4701   4.504   1.316   2.586 -0.2807 -0.0565 -0.3537
   12CHTO   O85 4702   4.461   1.224   2.484  0.0039 -0.9792 -0.5746
   12CHTO  H206 4703   4.508   1.242   2.405  1.6094  2.6071  1.0973
   12CHTO  C121 4704   4.649   1.113   2.663  0.0468 -0.3105  0.3573
   12CHTO  H225 4705   4.556   1.069   2.620 -0.0035 -0.5561  0.7116
   12CHTO   O81 4706   4.749   1.066   2.578 -0.2835  0.5436  0.3601
   12CHTO  H202 4707   4.762   1.117   2.500 -1.9724 -1.4627 -1.2842
   12CHTO  C119 4708   4.671   1.062   2.807  0.3821  0.1726  0.0069
   12CHTO  H223 4709   4.577   1.097   2.850 -1.1794 -1.2345 -2.1521
   12CHTO  C117 4710   4.789   1.134   2.878  0.0106 -0.5159  0.0195
   12CHTO  H221 4711   4.888   1.103   2.846  0.1385 -1.3176  1.1705
   12CHTO   N20 4712   4.784   1.105   3.029 -0.1832  0.5707  0.6368
   12CHTO  H209 4713   4.696   1.155   3.065 -0.3406  0.6109  0.1948
   12CHTO  H210 4714   4.863   1.151   3.087  1.0768  0.2492 -0.7957
   12CHTO   O80 4715   4.657   0.898   2.829 -0.4465  0.3089  0.1904
   12CHTO  C103 4716   4.537   0.846   2.914 -0.0671  0.1809  0.6216
   12CHTO  H190 4717   4.515   0.913   2.997 -2.5225 -0.0188  0.1500
   12CHTO  C101 4718   4.405   0.831   2.832  0.7855  0.0753 -0.1548
   12CHTO  H188 4719   4.433   0.782   2.738 -0.3561 -0.9661  0.0412
   12CHTO   O68 4720   4.350   0.988   2.791 -0.4658 -0.0891 -0.2773
   12CHTO  H168 4721   4.272   0.978   2.741 -0.8412  0.7386  0.1351
   12CHTO   C99 4722   4.295   0.760   2.921 -0.5008  0.1956 -1.1957
   12CHTO  H186 4723   4.283   0.821   3.013  0.8121 -2.0642  0.5076
   12CHTO   N17 4724   4.160   0.750   2.865 -0.1754 -0.0724  0.5795
   12CHTO  H174 4725   4.136   0.645   2.872 -0.3719 -0.1206 -0.6388
   12CHTO  H175 4726   4.088   0.815   2.912  0.2541 -0.5007  1.8311
   12CHTO   C97 4727   4.355   0.623   2.965  0.1540 -0.1194  0.2424
   12CHTO  H184 4728   4.375   0.563   2.874 -0.9991 -1.7074  1.0251
   12CHTO   O64 4729   4.478   0.642   3.041  0.0425 -0.1265 -0.5939
   12CHTO  C104 4730   4.579   0.701   2.968 -0.5601 -0.1722  0.6478
   12CHTO  H191 4731   4.598   0.636   2.883 -0.4186 -0.7292  1.1053
   12CHTO  C108 4732   4.707   0.697   3.056 -0.0964  0.1237  0.3419
   12CHTO   O71 4733   4.692   0.754   3.185 -0.0308 -0.4900  0.2234
   12CHTO  H171 4734   4.764   0.811   3.205 -0.0389  0.1228 -1.4298
   12CHTO   O62 4735   4.263   0.560   3.051  0.5326 -0.8224  0.6137
   12CHTO   C91 4736   4.313   0.434   3.094 -0.4262 -0.3221  0.2202
   12CHTO  H178 4737   4.405   0.413   3.041 -0.3404 -0.9753  0.6169
   12CHTO   C92 4738   4.196   0.330   3.045 -0.0420  0.3770 -0.2965
   12CHTO  H179 4739   4.093   0.358   3.069  0.3194  1.9114 -0.4675
   12CHTO   O66 4740   4.186   0.345   2.900 -0.0920  0.4666 -0.7430
   12CHTO  H166 4741   4.269   0.321   2.864 -0.4366  0.6563 -1.6614
   12CHTO   C93 4742   4.242   0.184   3.089 -0.7893  0.3577  0.1254
   12CHTO  H180 4743   4.337   0.159   3.039 -0.7628  1.0736 -0.1826
   12CHTO   N16 4744   4.147   0.080   3.040  0.3952  0.1774 -0.5804
   12CHTO  H172 4745   4.105   0.038   3.131  0.2337 -2.7717 -1.9672
   12CHTO  H173 4746   4.197   0.013   2.972  0.4766 -1.8103  1.3547
   12CHTO   C94 4747   4.267   0.188   3.246  0.1550  0.4592 -1.0972
   12CHTO  H181 4748   4.176   0.216   3.298 -0.8107 -0.7412 -2.1046
   12CHTO   O61 4749   4.368   0.287   3.271 -0.7231 -0.0774 -0.4044
   12CHTO   C95 4750   4.338   0.426   3.246 -0.2474 -0.4039  0.0159
   12CHTO  H182 4751   4.249   0.450   3.303 -0.3561 -1.1006  0.1441
   12CHTO  C106 4752   4.448   0.506   3.304 -0.2189  0.4172  0.3387
   12CHTO   O69 4753   4.582   0.464   3.291 -0.0433 -0.2804  0.2538
   12CHTO  H169 4754   4.633   0.502   3.222  1.8349 -0.2441  1.6252
   12CHTO   O63 4755   4.327   0.051   3.300  0.4013 -0.0096  0.1584
   12CHTO   C96 4756   4.363   0.037   3.441 -0.1050 -0.4187  0.7105
   12CHTO  H183 4757   4.323   0.118   3.501 -0.4985 -0.1933  0.1474
   12CHTO   C98 4758   4.513   0.040   3.474  0.1375 -0.1749  0.2130
   12CHTO  H185 4759   4.560  -0.026   3.399 -4.8090 -1.0169 -2.3352
   12CHTO   O67 4760   4.551   0.175   3.451  0.0366  0.6432  0.0020
   12CHTO  H167 4761   4.522   0.232   3.519  0.4174  0.2055  0.5365
   12CHTO  C102 4762   4.556  -0.009   3.618 -1.1371  0.1726  0.5785
   12CHTO  H189 4763   4.524   0.063   3.695 -1.1213 -1.2723  1.9510
   12CHTO   N18 4764   4.704  -0.025   3.637  0.1161  0.4328  0.1306
   12CHTO  H176 4765   4.745   0.032   3.555  1.4952 -2.0847 -0.9952
   12CHTO  H177 4766   4.717   0.019   3.735  0.4305 -2.4258  1.4145
   12CHTO  C105 4767   4.485  -0.146   3.640 -0.7369  0.2989 -0.2867
   12CHTO  H192 4768   4.517  -0.214   3.561  0.6398  0.1736  0.3657
   12CHTO   O65 4769   4.338  -0.137   3.626  0.7839  0.2054 -0.2635
   12CHTO  C100 4770   4.302  -0.105   3.484  0.5852  0.3408 -0.0410
   12CHTO  H187 4771   4.334  -0.179   3.410  2.8055  1.4039 -0.1752
   12CHTO  C107 4772   4.148  -0.100   3.483  0.0569  0.0655  0.4937
   12CHTO   O70 4773   4.080  -0.126   3.356  0.1362  0.3608  0.3939
   12CHTO  H170 4774   4.006  -0.183   3.358 -0.1123  0.5614 -2.1973
   12CHTO   O57 4775   4.547  -0.208   3.805  0.3343  0.3093 -0.2893
   12CHTO   C85 4776   4.500  -0.140   3.929 -0.5674  0.2214 -0.2705
   12CHTO  H157 4777   4.412  -0.083   3.893 -0.7248  1.0566  1.3845
   12CHTO   C83 4778   4.597  -0.037   3.984 -0.3440  0.0012  0.1922
   12CHTO  H155 4779   4.606   0.046   3.915  4.5191 -0.8802 -0.3517
   12CHTO   O56 4780   4.732  -0.103   3.973 -0.1948  0.1038  0.7933
   12CHTO  H135 4781   4.785  -0.043   4.022 -1.7624  3.5117 -1.4961
   12CHTO   C81 4782   4.558   0.015   4.124 -0.2697 -0.8487  0.3110
   12CHTO  H153 4783   4.460   0.061   4.108  0.8785  1.7790  0.4781
   12CHTO   N14 4784   4.645   0.122   4.170  0.2606  0.0048  0.3856
   12CHTO  H141 4785   4.747   0.090   4.175  0.9415  2.2339  1.1950
   12CHTO  H142 4786   4.617   0.170   4.261  0.7696  1.7237 -0.3538
   12CHTO   C79 4787   4.552  -0.102   4.222  0.6604  0.1193 -0.5558
   12CHTO  H151 4788   4.512  -0.064   4.316 -0.7998  2.5158 -2.1002
   12CHTO   O52 4789   4.443  -0.184   4.171 -0.5023  0.2097  0.1745
   12CHTO   C86 4790   4.455  -0.243   4.035 -0.4678 -0.2743  0.2260
   12CHTO  H158 4791   4.529  -0.324   4.051  1.3932  1.7205  2.2461
   12CHTO   C90 4792   4.327  -0.316   3.992  0.3151  0.1291  0.3398
   12CHTO   O60 4793   4.217  -0.222   3.994  0.0791 -0.8166 -0.2283
   12CHTO  H138 4794   4.130  -0.250   4.017 -0.2957 -0.8922 -1.6821
   12CHTO   O50 4795   4.669  -0.187   4.231  0.1409 -0.3510  0.1590
   12CHTO   C73 4796   4.742  -0.279   4.317  0.0064 -0.4954  0.0226
   12CHTO  H145 4797   4.671  -0.350   4.362  0.0087 -1.0206 -0.7912
   12CHTO   C74 4798   4.810  -0.195   4.431  0.9043  0.1721  0.2363
   12CHTO  H146 4799   4.736  -0.139   4.490 -0.8823  0.4710 -2.2162
   12CHTO   O54 4800   4.868  -0.290   4.525 -0.4897  0.0080  0.1062
   12CHTO  H133 4801   4.799  -0.321   4.580 -0.8244  0.4185 -0.0836
   12CHTO   C75 4802   4.911  -0.104   4.356 -0.1231  0.4423 -0.3310
   12CHTO  H147 4803   4.863  -0.040   4.280  0.5082 -1.8480 -2.7445
   12CHTO   N13 4804   4.956   0.013   4.425  0.1036 -0.8436 -0.6996
   12CHTO  H139 4805   5.011  -0.028   4.508  1.8153 -1.2745 -1.9942
   12CHTO  H140 4806   4.873   0.066   4.468  2.2748  1.5133  0.7838
   12CHTO   C76 4807   5.023  -0.193   4.274  0.3176  0.3140 -0.1844
   12CHTO  H148 4808   5.077  -0.251   4.348  0.9046 -0.2805 -1.0714
   12CHTO   O49 4809   4.945  -0.275   4.173 -0.1926 -0.4376 -0.1206
   12CHTO   C77 4810   4.852  -0.360   4.238 -0.1724  0.4225 -0.3957
   12CHTO  H149 4811   4.909  -0.426   4.303 -0.8283 -0.2882 -0.5355
   12CHTO   C88 4812   4.802  -0.451   4.133 -0.4218  0.0073  0.1949
   12CHTO   O58 4813   4.922  -0.543   4.073  0.3065 -0.1048  0.3197
   12CHTO  H136 4814   4.890  -0.585   3.996 -0.6005  1.5629 -0.2410
   12CHTO   O51 4815   5.132  -0.096   4.206  0.2917  0.1384 -0.0584
   12CHTO   C78 4816   5.237  -0.157   4.106 -0.0028  1.0535 -0.6123
   12CHTO  H150 4817   5.180  -0.210   4.027 -2.2831  1.9488  0.3814
   12CHTO   C80 4818   5.329  -0.256   4.180 -0.4632 -0.6307 -0.4396
   12CHTO  H152 4819   5.370  -0.203   4.269 -1.5209 -2.4927  1.2109
   12CHTO   O55 4820   5.243  -0.368   4.214 -0.2647 -0.5255 -0.0975
   12CHTO  H134 4821   5.289  -0.434   4.262  5.2411  1.9383 -1.5944
   12CHTO   C84 4822   5.440  -0.315   4.090  0.1765 -0.2957  0.5232
   12CHTO  H156 4823   5.396  -0.383   4.017  3.3198 -1.3693 -0.4634
   12CHTO   N15 4824   5.546  -0.395   4.159  0.4480  0.1362 -0.7027
   12CHTO  H143 4825   5.621  -0.430   4.092 -1.0759 -2.0415 -1.3540
   12CHTO  H144 4826   5.592  -0.340   4.238 -1.5028  0.2179  0.4247
   12CHTO   C87 4827   5.506  -0.198   4.010  0.8761  0.2348 -0.6024
   12CHTO  H159 4828   5.578  -0.145   4.073  2.1151 -0.7866 -1.1434
   12CHTO   O53 4829   5.417  -0.113   3.948 -0.3256  0.0378  0.0712
   12CHTO   C82 4830   5.326  -0.047   4.042 -0.3861  0.0585 -0.5525
   12CHTO  H154 4831   5.390   0.006   4.112  0.2512 -1.8714  0.3869
   12CHTO   C89 4832   5.232   0.054   3.968  0.1675 -0.5008  0.8137
   12CHTO   O59 4833   5.299   0.160   3.899 -0.5334 -0.1576  0.3415
   12CHTO  H137 4834   5.252   0.240   3.903  0.3153  0.2875  1.9376
   12CHTO   O45 4835   5.593  -0.274   3.890  0.4593  0.4960  0.0552
   12CHTO   C67 4836   5.674  -0.191   3.800 -0.1950  0.4942 -0.4221
   12CHTO  H124 4837   5.760  -0.246   3.763 -0.6752 -0.6449  0.1521
   12CHTO   C65 4838   5.588  -0.157   3.673  0.3165  0.1922 -0.7721
   12CHTO  H122 4839   5.483  -0.166   3.705  0.8872 -2.2563  0.5579
   12CHTO   O44 4840   5.605  -0.264   3.580 -0.2545 -0.2876 -0.8328
   12CHTO  H102 4841   5.565  -0.233   3.501 -1.8487 -2.1519 -0.7941
   12CHTO   C63 4842   5.605  -0.009   3.623  0.5043 -0.0825  0.1271
   12CHTO  H120 4843   5.569   0.060   3.700 -0.6839  0.5881 -1.0266
   12CHTO   N11 4844   5.522   0.031   3.503  0.1700  0.0110  0.2704
   12CHTO  H108 4845   5.593   0.085   3.444  0.9109 -1.8627 -0.5988
   12CHTO  H109 4846   5.444   0.098   3.532  1.0361  1.2336 -0.2196
   12CHTO   C61 4847   5.757   0.027   3.621  0.0781 -0.2420 -0.0326
   12CHTO  H118 4848   5.764   0.124   3.570  0.2020  0.2756  0.9757
   12CHTO   O40 4849   5.791   0.046   3.766 -0.5316 -0.0774  0.4817
   12CHTO   C68 4850   5.743  -0.050   3.866  0.0064  0.3570 -0.7082
   12CHTO  H125 4851   5.659  -0.005   3.922 -0.3794  0.1020 -1.0770
   12CHTO   C72 4852   5.863  -0.073   3.961  0.6826 -0.2545  0.0788
   12CHTO   O48 4853   5.835  -0.171   4.059  0.2339 -0.4824  0.0673
   12CHTO  H105 4854   5.915  -0.209   4.091  0.6495  1.4479  1.4093
   12CHTO   O38 4855   5.838  -0.082   3.559 -0.1919 -0.4282 -0.0505
   12CHTO   C55 4856   5.956  -0.033   3.494 -0.8451 -0.0167 -0.2717
   12CHTO  H112 4857   5.982   0.067   3.533 -1.9644 -0.7075  2.3592
   12CHTO   C56 4858   5.932  -0.031   3.344  0.4198  0.3428  0.1967
   12CHTO  H113 4859   5.887  -0.124   3.307  0.0892 -0.5650  2.7390
   12CHTO   O42 4860   5.830   0.076   3.318 -0.0958 -0.0269 -0.6261
   12CHTO  H100 4861   5.746   0.071   3.359  0.2489 -1.3389 -0.0682
   12CHTO   C57 4862   6.068  -0.002   3.273  1.0473 -0.4920 -0.3484
   12CHTO  H114 4863   6.102   0.100   3.291 -1.1420  0.2527 -0.1988
   12CHTO   N10 4864   6.057  -0.011   3.123  0.0921  0.1171 -0.6619
   12CHTO  H106 4865   5.951  -0.001   3.105  0.2972  2.6478 -0.5768
   12CHTO  H107 4866   6.108   0.069   3.071 -0.5889 -1.1956 -3.4646
   12CHTO   C58 4867   6.179  -0.100   3.320  0.9052  0.4545 -0.4041
   12CHTO  H115 4868   6.163  -0.203   3.282  0.9975 -0.2079  1.3026
   12CHTO   O37 4869   6.194  -0.105   3.466  0.1052  0.1413  0.0343
   12CHTO   C59 4870   6.074  -0.136   3.537 -0.0641 -1.0316  0.3746
   12CHTO  H116 4871   6.051  -0.241   3.522 -1.6772 -0.6836  0.2401
   12CHTO   C70 4872   6.104  -0.125   3.685 -0.0397  0.6153 -0.3515
   12CHTO   O46 4873   6.182  -0.237   3.736 -0.2775  0.2239  0.3508
   12CHTO  H103 4874   6.226  -0.216   3.817 -0.3005  0.4468  0.3048
   12CHTO   O39 4875   6.320  -0.045   3.276  1.1029 -0.3838  0.1481
   12CHTO   C60 4876   6.435  -0.132   3.290 -0.2702  0.2740  0.2060
   12CHTO  H117 4877   6.412  -0.223   3.344  3.1057 -1.5022 -1.1829
   12CHTO   C62 4878   6.492  -0.170   3.149 -0.2143  1.5379 -0.3390
   12CHTO  H119 4879   6.403  -0.197   3.088 -1.8324 -1.3090  3.1358
   12CHTO   O43 4880   6.541  -0.065   3.074 -0.0458 -0.7205 -0.0825
   12CHTO  H101 4881   6.538  -0.095   2.985 -1.3385 -0.1864 -0.2312
   12CHTO   C66 4882   6.595  -0.299   3.171  0.2986 -0.4101  0.3859
   12CHTO  H123 4883   6.540  -0.375   3.226 -0.5954 -0.3610 -0.4336
   12CHTO   N12 4884   6.632  -0.359   3.041  0.2158 -0.3631  0.3220
   12CHTO  H110 4885   6.667  -0.461   3.045 -1.5950 -0.9791  1.0420
   12CHTO  H111 4886   6.563  -0.340   2.960 -0.1301  0.1973  0.7436
   12CHTO   C69 4887   6.722  -0.245   3.245  0.1445 -0.1331  0.7125
   12CHTO  H126 4888   6.775  -0.173   3.180  0.7539 -0.2538  1.0707
   12CHTO   O41 4889   6.692  -0.175   3.372  0.5228  0.0485 -0.2293
   12CHTO   C64 4890   6.554  -0.066   3.367 -0.2669 -0.2031 -0.0882
   12CHTO  H121 4891   6.594   0.023   3.314 -0.5664 -0.0863 -0.1175
   12CHTO   C71 4892   6.509  -0.025   3.512 -0.7871  0.9201 -0.3341
   12CHTO   O47 4893   6.504  -0.150   3.578  0.6596  0.2826 -0.5197
   12CHTO  H104 4894   6.418  -0.163   3.614  0.3943 -0.5569 -1.4361
   12CHTO   O34 4895   6.805  -0.353   3.269  0.7092  0.4938 -0.0919
   12CHTO   C49 4896   6.891  -0.427   3.369 -0.1472 -0.2098  0.5373
   12CHTO   H91 4897   6.993  -0.389   3.373  0.1693 -1.0757  0.8050
   12CHTO   C47 4898   6.901  -0.579   3.327 -0.4530  0.0966  0.4163
   12CHTO   H89 4899   6.976  -0.616   3.400 -0.1476  2.1627  1.1786
   12CHTO   O33 4900   6.950  -0.585   3.191 -0.4300 -0.5515 -0.2503
   12CHTO   H70 4901   7.038  -0.618   3.194 -0.7064 -1.3968 -1.0475
   12CHTO   C45 4902   6.762  -0.657   3.332  0.6834  0.3541  0.0406
   12CHTO   H87 4903   6.715  -0.632   3.235 -1.2092 -2.3748  0.1865
   12CHTO    N8 4904   6.779  -0.807   3.339  0.7763  0.6954  0.2528
   12CHTO   H75 4905   6.681  -0.847   3.357  1.0008  0.9450  2.1938
   12CHTO   H76 4906   6.822  -0.846   3.248  1.5924 -0.4468  1.1089
   12CHTO   C43 4907   6.664  -0.593   3.434  0.5776 -0.3506  0.3956
   12CHTO   H85 4908   6.612  -0.518   3.375  3.4779  1.9158  0.5573
   12CHTO   O29 4909   6.734  -0.528   3.548  0.3114  0.1971  0.1451
   12CHTO   C50 4910   6.825  -0.420   3.511  0.2860 -0.0507 -0.0914
   12CHTO   H92 4911   6.757  -0.333   3.511  1.7288  1.1206 -1.1015
   12CHTO   C54 4912   6.918  -0.401   3.633  0.2157  0.2675 -0.8029
   12CHTO   O36 4913   6.840  -0.339   3.733 -0.3751 -0.3194  0.0600
   12CHTO   H72 4914   6.788  -0.267   3.702 -2.4362 -2.3544 -1.2944
   12CHTO   O27 4915   6.558  -0.686   3.471  0.6339  0.1312  0.5304
   12CHTO   C37 4916   6.409  -0.696   3.471 -0.2386 -0.1821 -0.5788
   12CHTO   H79 4917   6.375  -0.638   3.383  2.3277  2.2377 -0.0211
   12CHTO   C38 4918   6.367  -0.846   3.462  0.1329  0.1160  0.0748
   12CHTO   H80 4919   6.430  -0.900   3.534  2.0497  1.9449 -0.1707
   12CHTO   O31 4920   6.408  -0.890   3.335  0.1349 -0.0027  0.1729
   12CHTO   H68 4921   6.349  -0.880   3.262  0.4880  3.3277  0.2745
   12CHTO   C39 4922   6.212  -0.868   3.485 -0.2436 -0.2192  0.0017
   12CHTO   H81 4923   6.163  -0.811   3.406 -0.7185  0.3973  0.7280
   12CHTO    N7 4924   6.168  -1.005   3.475 -0.0129  0.8182 -0.0421
   12CHTO   H73 4925   6.139  -1.058   3.564  0.4438 -2.0437 -1.5433
   12CHTO   H74 4926   6.079  -1.012   3.415 -0.4904 -0.2252  0.7745
   12CHTO   C40 4927   6.167  -0.798   3.622  0.1821 -0.1618 -0.3155
   12CHTO   H82 4928   6.214  -0.851   3.705  0.9320 -0.0470 -0.6601
   12CHTO   O26 4929   6.212  -0.660   3.617  0.5555 -0.2563 -0.3428
   12CHTO   C41 4930   6.356  -0.631   3.598  0.9161 -0.7731 -0.8021
   12CHTO   H83 4931   6.407  -0.669   3.687  0.5060  0.6557  0.0523
   12CHTO   C52 4932   6.362  -0.483   3.590  0.3343 -0.6014 -0.2248
   12CHTO   O35 4933   6.284  -0.402   3.474  0.5074 -0.2371 -0.3362
   12CHTO   H71 4934   6.326  -0.318   3.464  0.2313 -0.1648 -0.9143
   12CHTO   O28 4935   6.029  -0.795   3.657 -0.3355  0.1927  0.3536
   12CHTO   C42 4936   5.920  -0.739   3.574 -0.2362 -0.5166  0.0504
   12CHTO   H84 4937   5.932  -0.792   3.480  1.7181  2.2428 -1.3297
   12CHTO   C44 4938   5.929  -0.585   3.534 -0.6654  0.7531 -0.0908
   12CHTO   H86 4939   5.949  -0.528   3.624 -0.0714  0.4145 -0.0115
   12CHTO   O32 4940   6.046  -0.568   3.455  0.3449  0.1105  0.7067
   12CHTO   H69 4941   6.036  -0.623   3.379 -2.2401  1.5768 -0.0785
   12CHTO   C48 4942   5.801  -0.538   3.458 -0.2659  0.1871  0.4598
   12CHTO   H90 4943   5.796  -0.601   3.369 -1.0320 -1.4404  1.6181
   12CHTO    N9 4944   5.806  -0.390   3.410 -0.3641  0.4405 -0.0827
   12CHTO   H77 4945   5.737  -0.368   3.330 -1.8933 -1.2538  0.7455
   12CHTO   H78 4946   5.780  -0.326   3.493 -2.0103 -0.8317  0.3967
   12CHTO   C51 4947   5.679  -0.580   3.534  0.7670 -0.1765  0.9180
   12CHTO   H93 4948   5.692  -0.532   3.631  0.1361  1.3726  0.2392
   12CHTO   O30 4949   5.663  -0.720   3.544 -0.5267 -0.6067  0.5621
   12CHTO   C46 4950   5.781  -0.779   3.635  0.2223 -0.4668  0.1193
   12CHTO   H88 4951   5.764  -0.740   3.736 -2.7985 -2.7930  0.5635
   12CHTO   C53 4952   5.761  -0.932   3.637  0.3581  0.4218  0.3663
   12CHTO   O72 4953   5.663  -0.972   3.730  0.3168 -0.4020  0.4754
   12CHTO  H199 4954   5.588  -1.001   3.682  0.3303 -1.8671  1.3175
   12CHTO   O22 4955   5.559  -0.529   3.470 -0.6890 -0.1381 -0.4255
   12CHTO   C31 4956   5.418  -0.561   3.521  0.8840 -0.1125  0.4245
   12CHTO   H59 4957   5.404  -0.671   3.521 -0.2592  0.0336 -0.6761
   12CHTO   C29 4958   5.390  -0.516   3.666  0.0561 -0.2768 -0.0637
   12CHTO   H57 4959   5.410  -0.408   3.674 -2.4688  0.2638 -0.7597
   12CHTO   O21 4960   5.482  -0.579   3.756 -0.6406 -0.4161 -0.0185
   12CHTO   H37 4961   5.453  -0.660   3.792 -0.2415 -1.0424 -1.1113
   12CHTO   C27 4962   5.241  -0.540   3.716  0.1190  0.0581  0.4916
   12CHTO   H55 4963   5.221  -0.648   3.711 -0.2133  0.2018 -1.4432
   12CHTO    N5 4964   5.214  -0.493   3.857 -0.2180  0.5743 -0.1124
   12CHTO   H43 4965   5.115  -0.453   3.871  0.5852  2.9061 -0.8239
   12CHTO   H44 4966   5.237  -0.566   3.933 -0.8235  2.2218  1.6920
   12CHTO   C25 4967   5.142  -0.481   3.610  0.5959 -0.4310  0.1467
   12CHTO   H53 4968   5.152  -0.372   3.613  1.8103 -0.4760 -1.6708
   12CHTO   O17 4969   5.172  -0.547   3.483  0.1359 -0.3909 -0.3520
   12CHTO   C32 4970   5.303  -0.503   3.427 -0.1593 -0.5212  0.3324
   12CHTO   H60 4971   5.299  -0.394   3.426 -0.8249 -0.5378  0.7100
   12CHTO   C36 4972   5.317  -0.547   3.282  0.4297 -0.5818 -0.3123
   12CHTO   O25 4973   5.205  -0.510   3.203  0.6209 -0.3710  0.0630
   12CHTO   H40 4974   5.135  -0.551   3.248 -0.5797  0.1142 -1.3171
   12CHTO   O15 4975   4.988  -0.512   3.642  0.1219 -0.0378  0.1583
   12CHTO   C19 4976   4.873  -0.448   3.576  0.5102 -0.3959 -0.6655
   12CHTO   H47 4977   4.878  -0.350   3.625 -2.0198  0.5766 -2.2167
   12CHTO   C20 4978   4.877  -0.429   3.420  0.0327 -0.0389 -0.4020
   12CHTO   H48 4979   4.892  -0.525   3.369 -0.5043  0.5528 -1.7058
   12CHTO   O19 4980   4.990  -0.346   3.392  0.3159  0.2657 -0.2829
   12CHTO   H35 4981   5.063  -0.368   3.447  0.0129 -0.7568 -0.2871
   12CHTO   C21 4982   4.743  -0.360   3.365 -0.3280  0.4071 -0.5168
   12CHTO   H49 4983   4.739  -0.257   3.400 -2.0771 -0.1063  0.8684
   12CHTO    N4 4984   4.735  -0.340   3.218 -0.3990 -0.2675 -0.3981
   12CHTO   H41 4985   4.685  -0.247   3.196 -1.6466 -1.0300 -0.8536
   12CHTO   H42 4986   4.833  -0.337   3.173 -1.3502 -0.6252 -2.5407
   12CHTO   C22 4987   4.625  -0.435   3.423  0.0084 -0.2663  0.1142
   12CHTO   H50 4988   4.633  -0.534   3.378 -0.5274 -0.2063 -0.1219
   12CHTO   O14 4989   4.626  -0.437   3.565 -0.5739  0.3296 -0.3974
   12CHTO   C23 4990   4.737  -0.508   3.619 -0.5907 -0.2782 -0.4337
   12CHTO   H51 4991   4.724  -0.613   3.586 -1.4036 -0.2078 -0.3563
   12CHTO   C34 4992   4.731  -0.499   3.769 -0.5862 -0.0187 -0.3110
   12CHTO   O23 4993   4.616  -0.571   3.824  0.0388  0.3944 -0.5177
   12CHTO   H38 4994   4.549  -0.522   3.867  0.8361 -0.6475  1.9845
   12CHTO   O16 4995   4.494  -0.381   3.390 -0.4520  0.0673 -0.2303
   12CHTO   C24 4996   4.398  -0.485   3.332 -1.3756 -0.0632  0.0414
   12CHTO   H52 4997   4.450  -0.579   3.311  4.3993  3.3025 -1.7036
   12CHTO   C26 4998   4.342  -0.419   3.197 -0.2517  0.3123 -0.2438
   12CHTO   H54 4999   4.324  -0.311   3.217  0.4639  0.0974  1.6494
   12CHTO   O20 5000   4.448  -0.417   3.102 -0.2635  0.4766  0.1606
   12CHTO   H36 5001   4.425  -0.396   3.014  1.1124  0.8731 -0.1152
   12CHTO   C30 5002   4.217  -0.494   3.143  0.2399 -0.7180  0.5416
   12CHTO   H58 5003   4.244  -0.588   3.091  0.4077 -0.3084 -0.1116
   12CHTO    N6 5004   4.148  -0.407   3.042 -0.4879  0.2091 -0.3621
   12CHTO   H45 5005   4.093  -0.469   2.972 -0.3907  0.7571 -0.9288
   12CHTO   H46 5006   4.078  -0.338   3.085 -1.2692 -0.8875  0.1529
   12CHTO   C33 5007   4.118  -0.542   3.255  0.4186  0.0570  0.0064
   12CHTO   H61 5008   4.072  -0.447   3.282 -0.1937 -0.2830  0.1629
   12CHTO   O18 5009   4.187  -0.597   3.367 -0.0091  0.0809 -0.3066
   12CHTO   C28 5010   4.286  -0.514   3.432  0.1661  0.0876  0.2594
   12CHTO   H56 5011   4.244  -0.423   3.474 -1.7615  0.0202 -1.4652
   12CHTO   C35 5012   4.335  -0.588   3.560 -0.1088 -0.0448  0.0543
   12CHTO   O24 5013   4.231  -0.616   3.660 -0.0816 -0.4240  0.1838
   12CHTO   H39 5014   4.280  -0.650   3.733 -1.5644  0.4928  1.6583
   12CHTO    O9 5015   4.008  -0.628   3.210  0.0939 -0.1776 -0.4058
   12CHTO   C13 5016   4.061  -0.781   3.183 -0.1190  0.3169 -0.1777
   12CHTO   H26 5017   4.172  -0.780   3.178 -0.0944 -1.2687 -0.4909
   12CHTO   C11 5018   3.998  -0.846   3.055  0.0112 -0.2437 -0.4157
   12CHTO   H24 5019   4.025  -0.787   2.966  2.1507 -2.6133 -1.4133
   12CHTO    O8 5020   3.856  -0.838   3.060  0.2265  0.0485  0.0036
   12CHTO    H3 5021   3.833  -0.750   3.084  1.4576  0.8040 -1.4939
   12CHTO    C9 5022   4.054  -0.988   3.040 -0.3608  0.4726 -1.0919
   12CHTO   H22 5023   4.163  -0.978   3.043 -0.3356  0.3523 -1.6380
   12CHTO    N2 5024   4.011  -1.046   2.910 -0.1785  0.0120  0.4548
   12CHTO   H10 5025   3.905  -1.065   2.895 -0.3022  2.1697 -1.6747
   12CHTO   H11 5026   4.072  -1.123   2.865  0.1485  0.4519  0.1418
   12CHTO    C7 5027   4.005  -1.082   3.161 -0.2729 -0.2278  0.2488
   12CHTO   H20 5028   4.066  -1.173   3.148  0.0507 -0.1479  1.2050
   12CHTO    O4 5029   4.047  -1.021   3.281 -0.1511  0.0652  0.2575
   12CHTO   C14 5030   4.043  -0.883   3.306  0.3497  0.1212 -0.0195
   12CHTO   H27 5031   4.128  -0.866   3.375  1.7610  1.0657 -1.9463
   12CHTO   C18 5032   3.919  -0.850   3.386  0.3039 -0.2299 -0.2743
   12CHTO   O13 5033   3.951  -0.735   3.459 -0.0215 -0.0732  0.0286
   12CHTO    H7 5034   3.869  -0.700   3.491  0.8913  2.3788 -0.2041
   12CHTO    O2 5035   3.835  -1.111   3.170 -0.3432  0.2804  0.2168
   12CHTO    C1 5036   3.797  -1.205   3.266 -0.1158  0.3660 -0.1010
   12CHTO   H14 5037   3.857  -1.185   3.357  2.1103 -0.3925 -1.3582
   12CHTO    C2 5038   3.823  -1.358   3.224 -0.7234 -0.0479 -0.4647
   12CHTO   H15 5039   3.767  -1.372   3.130 -0.1008  0.3295 -0.8963
   12CHTO    O6 5040   3.964  -1.391   3.195 -0.2583 -0.2670 -0.3835
   12CHTO    H1 5041   3.978  -1.420   3.107  0.5569  1.1838 -0.7455
   12CHTO    C3 5042   3.769  -1.450   3.342 -0.0182 -0.2427  0.2156
   12CHTO   H16 5043   3.837  -1.431   3.427  0.5596  0.0413 -0.2983
   12CHTO    N1 5044   3.778  -1.597   3.317 -0.2270 -0.3253  0.3493
   12CHTO    H8 5045   3.762  -1.615   3.212 -2.0330 -0.9176  0.7075
   12CHTO    H9 5046   3.869  -1.648   3.344  0.6937  0.0261 -1.9523
   12CHTO    C4 5047   3.628  -1.404   3.394 -0.2917 -0.1064 -1.2701
   12CHTO   H17 5048   3.548  -1.422   3.322 -3.8134  0.9170  2.2279
   12CHTO    O1 5049   3.626  -1.265   3.427 -0.0181 -0.1611 -0.6878
   12CHTO    C5 5050   3.652  -1.179   3.310 -0.6056 -0.1482 -0.3692
   12CHTO   H18 5051   3.582  -1.200   3.229  0.5300  0.3897 -1.5016
   12CHTO   C16 5052   3.615  -1.045   3.368 -0.6640 -0.3682  0.1135
   12CHTO   O11 5053   3.500  -1.029   3.446  0.5005  0.7455 -0.4907
   12CHTO    H5 5054   3.458  -1.112   3.463  2.3613 -0.5724 -2.0658
   12CHTO    O3 5055   3.590  -1.471   3.519 -1.2044 -0.8055  0.4129
   12CHTO    C6 5056   3.446  -1.506   3.523  0.0338  0.2155  0.1099
   12CHTO   H19 5057   3.389  -1.442   3.455 -1.9100 -0.8331  0.6991
   12CHTO    C8 5058   3.421  -1.657   3.479  0.3001  0.1283 -0.2139
   12CHTO   H21 5059   3.494  -1.719   3.532 -1.4825 -2.4100 -0.6622
   12CHTO    O7 5060   3.450  -1.676   3.341 -1.0977  0.0225  0.6377
   12CHTO    H2 5061   3.371  -1.675   3.291  0.2560  1.2918 -1.5135
   12CHTO   C12 5062   3.277  -1.717   3.523 -0.0186 -0.2707  0.0884
   12CHTO   H25 5063   3.203  -1.673   3.453 -0.1191 -1.2558 -0.4311
   12CHTO    N3 5064   3.277  -1.859   3.500 -0.1573  0.3230  0.5844
   12CHTO   H12 5065   3.264  -1.881   3.395 -2.0782 -1.5007  1.1480
   12CHTO   H13 5066   3.205  -1.904   3.567 -1.1936  2.5880  1.0497
   12CHTO   C15 5067   3.238  -1.665   3.667  0.5892  0.6303  0.0233
   12CHTO   H28 5068   3.299  -1.718   3.740  0.1912  0.8701  0.5303
   12CHTO   O10 5069   3.098  -1.693   3.685  0.2241 -0.3226 -0.9448
   12CHTO    H4 5070   3.060  -1.687   3.770  0.3894  0.3681 -0.9237
   12CHTO    O5 5071   3.256  -1.524   3.689  0.1692 -0.4591 -0.1180
   12CHTO   C10 5072   3.385  -1.476   3.660 -0.3263 -0.4045 -0.1959
   12CHTO   H23 5073   3.456  -1.519   3.730 -1.5985  1.0718  2.0334
   12CHTO   C17 5074   3.381  -1.321   3.671 -0.1805  0.1740 -0.3357
   12CHTO   O12 5075   3.341  -1.272   3.802  0.3043 -0.1476  0.2156
   12CHTO    H6 5076   3.260  -1.225   3.797 -0.0556 -0.7490  0.3030
   13CHTO  H203 5077   7.293   4.992   1.850  0.9569 -0.0461 -0.5391
   13CHTO   O82 5078   7.257   4.910   1.876  0.9090 -0.0924 -0.7567
   13CHTO  C123 5079   7.138   4.936   1.946 -0.0026 -0.3713  0.0529
   13CHTO  H227 5080   7.160   5.022   2.011 -0.4479 -0.1187 -0.1362
   13CHTO   O77 5081   7.035   4.971   1.844  0.0983  0.3733  0.3861
   13CHTO  C118 5082   6.921   5.037   1.902 -0.5576 -0.6384  0.0827
   13CHTO  H222 5083   6.958   5.131   1.946 -1.1052 -0.0118 -0.7833
   13CHTO  C125 5084   6.817   5.067   1.792  0.1968 -0.5550 -0.5575
   13CHTO   O84 5085   6.846   5.182   1.701 -0.3581 -0.2302 -0.8660
   13CHTO  H205 5086   6.798   5.256   1.734  0.4313 -0.4614  0.8611
   13CHTO  C114 5087   6.859   4.955   2.020  0.0630  1.1933 -0.3439
   13CHTO  H218 5088   6.805   4.872   1.976  0.3971 -0.1011  1.6012
   13CHTO  C116 5089   6.956   4.891   2.120 -0.1827 -0.4393  0.6498
   13CHTO  H220 5090   7.002   4.968   2.186  0.5946 -1.2639  1.0841
   13CHTO   O79 5091   6.886   4.798   2.204 -0.5186 -0.2272  0.2987
   13CHTO  H201 5092   6.833   4.847   2.263 -1.3208  0.0088 -0.6091
   13CHTO  C120 5093   7.068   4.821   2.042 -0.2045  0.3349 -0.2654
   13CHTO  H224 5094   7.022   4.746   1.976 -1.9727  1.5490 -0.4574
   13CHTO   N21 5095   7.175   4.750   2.121  0.2033  0.1178 -0.0883
   13CHTO  H211 5096   7.133   4.656   2.155  0.0659  0.6631  1.2611
   13CHTO  H212 5097   7.270   4.730   2.072  0.6754 -0.5493  1.0802
   13CHTO   O75 5098   6.773   5.045   2.091 -0.2896  0.5392  0.6130
   13CHTO  C112 5099   6.648   5.005   2.177 -0.0332  0.5042  0.1848
   13CHTO  H216 5100   6.666   4.905   2.218 -1.5064 -0.1627 -0.7529
   13CHTO   O73 5101   6.534   5.003   2.086  0.7154 -1.1312  0.3781
   13CHTO  C113 5102   6.400   5.009   2.142 -0.0714 -0.9894 -0.2302
   13CHTO  H217 5103   6.388   4.921   2.208  2.1621 -0.2077  1.2582
   13CHTO  C124 5104   6.302   5.001   2.026  0.1389  0.4307  0.3008
   13CHTO   O83 5105   6.302   4.866   1.970 -0.1220 -0.3071 -0.0389
   13CHTO  H204 5106   6.253   4.810   2.026 -1.4840  0.4176 -0.4898
   13CHTO  C109 5107   6.377   5.129   2.234  0.3546 -0.1566  0.2149
   13CHTO  H213 5108   6.384   5.217   2.168  0.6609 -0.5113 -0.2313
   13CHTO  C110 5109   6.481   5.118   2.341 -0.1564 -0.3687 -0.4906
   13CHTO  H214 5110   6.465   5.029   2.402 -1.1566  0.8703  1.1119
   13CHTO   O78 5111   6.457   5.225   2.440  0.5957 -0.0656 -0.1892
   13CHTO  H200 5112   6.407   5.189   2.510 -1.1974  1.0149 -0.8795
   13CHTO  C111 5113   6.625   5.115   2.290  0.0599 -0.5396  0.2528
   13CHTO  H215 5114   6.632   5.213   2.242 -0.6334 -0.3899  0.4501
   13CHTO   N19 5115   6.736   5.110   2.388 -0.0509 -0.7239 -0.1121
   13CHTO  H207 5116   6.751   5.012   2.431  0.6164  0.3611  2.2189
   13CHTO  H208 5117   6.826   5.136   2.334 -1.0210  1.4524 -0.7071
   13CHTO   O74 5118   6.241   5.119   2.292  0.3270  0.4445  0.4784
   13CHTO  C115 5119   6.145   5.238   2.255  0.3832 -0.4261  0.1363
   13CHTO  H219 5120   6.201   5.331   2.245 -0.3198  0.1525  1.5026
   13CHTO   O76 5121   6.065   5.217   2.119 -0.0655 -0.0776  0.4282
   13CHTO  C122 5122   5.966   5.324   2.094 -0.5093 -0.0073 -0.7327
   13CHTO  H226 5123   5.902   5.299   2.010 -1.9300  1.9520 -0.2531
   13CHTO  C126 5124   6.047   5.449   2.045 -0.3584 -0.0160  0.5530
   13CHTO   O85 5125   6.138   5.432   1.930 -0.2653  0.3366  0.4998
   13CHTO  H206 5126   6.113   5.352   1.888 -0.5187  0.7214 -0.0888
   13CHTO  C121 5127   5.873   5.356   2.216  0.2751 -0.8266  0.1071
   13CHTO  H225 5128   5.812   5.444   2.187 -0.9939 -1.4586  0.8336
   13CHTO   O81 5129   5.783   5.243   2.232 -0.3380 -0.1488 -0.6079
   13CHTO  H202 5130   5.697   5.256   2.196  0.4658  1.1547 -2.0793
   13CHTO  C119 5131   5.955   5.388   2.344  0.6057 -0.9493  0.1603
   13CHTO  H223 5132   6.019   5.475   2.323  2.3938 -1.6119  2.6781
   13CHTO  C117 5133   6.042   5.256   2.380  0.5236 -0.0007 -0.3565
   13CHTO  H221 5134   5.986   5.163   2.396 -1.5196  0.8886 -1.9884
   13CHTO   N20 5135   6.117   5.279   2.513  0.3292 -0.3844  0.5729
   13CHTO  H209 5136   6.225   5.283   2.511  0.2991  0.1957 -1.5416
   13CHTO  H210 5137   6.062   5.218   2.583 -0.0482 -0.6988  0.0045
   13CHTO   O80 5138   5.870   5.446   2.470 -0.3329  0.3602  0.2617
   13CHTO  C103 5139   5.754   5.585   2.447 -0.1302 -0.3660  0.0562
   13CHTO  H190 5140   5.730   5.622   2.547 -2.5200  3.7291 -1.9338
   13CHTO  C101 5141   5.801   5.715   2.357  0.6440  0.3659  0.6286
   13CHTO  H188 5142   5.826   5.673   2.259 -1.1848 -0.2136  0.3814
   13CHTO   O68 5143   5.928   5.775   2.415 -0.3496 -0.5472 -0.1648
   13CHTO  H168 5144   5.904   5.817   2.495  1.2733 -0.2715  0.1878
   13CHTO   C99 5145   5.673   5.813   2.344 -0.4333  0.0737 -0.3648
   13CHTO  H186 5146   5.651   5.852   2.446 -0.7067 -0.3223 -0.2708
   13CHTO   N17 5147   5.702   5.936   2.264 -0.5792 -0.8138  0.7333
   13CHTO  H174 5148   5.810   5.939   2.256 -0.6030 -3.4430 -1.5296
   13CHTO  H175 5149   5.670   6.030   2.305 -1.2353 -0.9910  0.6260
   13CHTO   C97 5150   5.547   5.735   2.302  0.2034 -0.5025  0.3637
   13CHTO  H184 5151   5.568   5.706   2.198  2.5963 -1.7924  1.1728
   13CHTO   O64 5152   5.523   5.620   2.387 -0.2179 -0.1345 -0.8181
   13CHTO  C104 5153   5.621   5.521   2.388  1.0446 -0.4863  0.1030
   13CHTO  H191 5154   5.636   5.478   2.289 -0.9404  3.7982 -2.2192
   13CHTO  C108 5155   5.584   5.403   2.482  0.3458 -0.1476  0.6586
   13CHTO   O71 5156   5.454   5.352   2.448 -0.2058 -0.3854 -0.2334
   13CHTO  H171 5157   5.394   5.424   2.439  0.2796 -0.1908 -1.9434
   13CHTO   O62 5158   5.424   5.821   2.312 -0.0459 -0.8198  0.1083
   13CHTO   C91 5159   5.302   5.757   2.261 -0.4075  0.3934  0.4315
   13CHTO  H178 5160   5.325   5.652   2.243  1.3827  0.4846  2.0820
   13CHTO   C92 5161   5.272   5.832   2.126 -0.7435 -0.5556  0.5998
   13CHTO  H179 5162   5.246   5.938   2.141 -0.2012  0.0076 -2.0935
   13CHTO   O66 5163   5.390   5.837   2.038 -0.0625  0.0291  0.0906
   13CHTO  H166 5164   5.363   5.903   1.977 -0.4230 -0.5506 -0.3747
   13CHTO   C93 5165   5.150   5.762   2.059 -0.6744 -0.1024  0.3937
   13CHTO  H180 5166   5.183   5.661   2.032 -1.4742 -0.3493  0.3166
   13CHTO   N16 5167   5.111   5.831   1.934  0.0008  0.2564  0.4377
   13CHTO  H172 5168   5.085   5.934   1.956  0.8863  0.1056  2.2688
   13CHTO  H173 5169   5.197   5.833   1.868  1.4870  2.4968  2.3600
   13CHTO   C94 5170   5.030   5.753   2.166  0.0180 -0.2146  0.1117
   13CHTO  H181 5171   4.977   5.847   2.181  1.9987  0.4953  3.2200
   13CHTO   O61 5172   5.070   5.709   2.293 -0.5440 -0.1224  0.7566
   13CHTO   C95 5173   5.186   5.771   2.350 -0.0376  0.0671 -0.2560
   13CHTO  H182 5174   5.162   5.876   2.364 -2.2773 -0.2849 -1.3380
   13CHTO  C106 5175   5.216   5.722   2.500  0.5196  0.1759  0.0560
   13CHTO   O69 5176   5.236   5.579   2.509 -0.5631 -0.8173  0.2833
   13CHTO  H169 5177   5.325   5.549   2.512  0.9393  3.1848 -0.3410
   13CHTO   O63 5178   4.924   5.645   2.105 -0.4607  0.0628 -0.8743
   13CHTO   C96 5179   4.771   5.687   2.141 -0.4108 -0.7606  0.1102
   13CHTO  H183 5180   4.703   5.616   2.094  0.9305 -1.5675 -0.6544
   13CHTO   C98 5181   4.722   5.825   2.099  0.1806 -0.2476  0.0683
   13CHTO  H185 5182   4.794   5.902   2.129  0.5845 -0.8088  0.5567
   13CHTO   O67 5183   4.716   5.829   1.953  0.1996  0.3385  0.2401
   13CHTO  H167 5184   4.661   5.901   1.929  1.6228  1.3563 -0.0454
   13CHTO  C102 5185   4.582   5.860   2.167 -0.7612  0.1769 -0.3208
   13CHTO  H189 5186   4.510   5.795   2.114 -0.5058  0.5525 -1.1313
   13CHTO   N18 5187   4.530   5.999   2.143 -0.4904 -0.1179 -0.2806
   13CHTO  H176 5188   4.509   6.053   2.235 -1.8242 -1.7758  0.4199
   13CHTO  H177 5189   4.444   6.005   2.079 -1.4738 -0.0490  1.0164
   13CHTO  C105 5190   4.564   5.819   2.317  0.1930 -1.2207  0.1592
   13CHTO  H192 5191   4.610   5.896   2.379 -0.5319 -0.0037 -0.7718
   13CHTO   O65 5192   4.623   5.692   2.338 -0.0728 -0.2507  0.7193
   13CHTO  C100 5193   4.760   5.658   2.298  0.0177  0.2831  0.3222
   13CHTO  H187 5194   4.830   5.722   2.353 -1.9184  0.6341  2.4430
   13CHTO  C107 5195   4.785   5.506   2.320 -0.0962 -0.2352 -0.3406
   13CHTO   O70 5196   4.790   5.463   2.457 -0.0003  0.5600  0.7885
   13CHTO  H170 5197   4.817   5.527   2.521  0.2234 -1.7273  3.0624
   13CHTO   O57 5198   4.391   5.827   2.376  0.0725 -0.0926 -0.3592
   13CHTO   C85 5199   4.268   5.773   2.311 -0.3234 -0.0454 -0.0064
   13CHTO  H157 5200   4.308   5.724   2.220  2.5977 -0.6094  1.5072
   13CHTO   C83 5201   4.180   5.880   2.255 -0.3284  0.4965  0.5412
   13CHTO  H155 5202   4.240   5.945   2.191 -0.5396  0.4130  0.2555
   13CHTO   O56 5203   4.145   5.955   2.370  0.3789  0.4209 -0.4142
   13CHTO  H135 5204   4.069   6.011   2.369 -0.1173 -0.2179  0.6551
   13CHTO   C81 5205   4.052   5.828   2.182  0.5901 -0.5386 -0.3579
   13CHTO  H153 5206   4.078   5.781   2.087  2.4455 -0.9782  0.3320
   13CHTO   N14 5207   3.967   5.942   2.149 -0.5901 -0.3931  0.1006
   13CHTO  H141 5208   4.028   5.995   2.078  0.0168  1.1278  1.7344
   13CHTO  H142 5209   3.873   5.916   2.105 -0.6038 -0.1085 -0.0392
   13CHTO   C79 5210   3.977   5.720   2.273  0.2431 -0.0277  0.3522
   13CHTO  H151 5211   3.917   5.657   2.207  0.4494  2.0935 -1.9533
   13CHTO   O52 5212   4.077   5.618   2.324  0.3042 -0.1036  0.1873
   13CHTO   C86 5213   4.185   5.682   2.399 -0.6037  0.7620  0.5027
   13CHTO  H158 5214   4.125   5.736   2.475  0.5085  1.1536  1.1138
   13CHTO   C90 5215   4.274   5.576   2.485 -1.3467 -0.6494  0.0826
   13CHTO   O60 5216   4.343   5.483   2.400 -0.1535  0.0569 -0.7214
   13CHTO  H138 5217   4.278   5.434   2.353 -0.0173 -0.3154 -0.5249
   13CHTO   O50 5218   3.901   5.775   2.385 -0.2622 -0.1114  0.1314
   13CHTO   C73 5219   3.766   5.727   2.406  0.0270 -0.0010  1.1239
   13CHTO  H145 5220   3.733   5.675   2.315  1.8876 -1.2377  1.1194
   13CHTO   C74 5221   3.674   5.853   2.437  0.1580  0.1533 -0.5753
   13CHTO  H146 5222   3.675   5.922   2.351 -1.6020  0.3418 -0.4523
   13CHTO   O54 5223   3.534   5.812   2.458  0.2506  0.5222 -0.6643
   13CHTO  H133 5224   3.477   5.886   2.451  0.9052  0.8661 -2.6545
   13CHTO   C75 5225   3.717   5.919   2.570  0.2770  0.0628  0.1016
   13CHTO  H147 5226   3.824   5.943   2.564 -0.0863  1.5200 -0.7941
   13CHTO   N13 5227   3.653   6.052   2.605  1.2679  0.2376  0.6952
   13CHTO  H139 5228   3.723   6.133   2.613 -0.7217  1.9783  0.7158
   13CHTO  H140 5229   3.601   6.083   2.516  2.1538  0.1889  0.1571
   13CHTO   C76 5230   3.699   5.813   2.686  0.3254 -0.5567  0.0802
   13CHTO  H148 5231   3.593   5.791   2.702  0.1920  0.7741  1.0831
   13CHTO   O49 5232   3.769   5.691   2.656 -0.3437 -0.3098  0.3620
   13CHTO   C77 5233   3.744   5.627   2.525 -0.3520  0.0023  0.0176
   13CHTO  H149 5234   3.643   5.588   2.519 -0.4554  0.3561 -0.5861
   13CHTO   C88 5235   3.838   5.501   2.521 -0.1699 -0.2487  0.5222
   13CHTO   O58 5236   3.804   5.417   2.624 -0.1805 -0.1088  0.1236
   13CHTO  H136 5237   3.824   5.328   2.605  1.6118  0.4337 -0.6178
   13CHTO   O51 5238   3.766   5.884   2.836 -0.2697  0.0712 -0.0454
   13CHTO   C78 5239   3.929   5.857   2.868  0.0577  0.4954  0.3209
   13CHTO  H150 5240   3.962   5.902   2.964 -0.7840 -2.5633  2.1075
   13CHTO   C80 5241   4.021   5.911   2.757  0.6915  0.0363 -0.0733
   13CHTO  H152 5242   3.991   5.871   2.658 -0.8993  0.4449  0.2200
   13CHTO   O55 5243   3.993   6.052   2.765 -0.1998  0.9924  0.0418
   13CHTO  H134 5244   3.929   6.073   2.700  0.0052 -0.4409 -0.6549
   13CHTO   C84 5245   4.174   5.879   2.803  1.5518 -0.7735  0.0456
   13CHTO  H156 5246   4.192   5.922   2.902  1.1031  0.1316 -0.2503
   13CHTO   N15 5247   4.281   5.934   2.713 -0.2134 -0.7696  0.2608
   13CHTO  H143 5248   4.248   6.002   2.637  2.6499  0.3450 -0.0492
   13CHTO  H144 5249   4.354   5.985   2.772  0.2727 -0.6177 -0.4747
   13CHTO   C87 5250   4.190   5.728   2.834  0.4921 -0.1256 -0.9534
   13CHTO  H159 5251   4.166   5.671   2.744 -1.1499 -0.4195 -0.3341
   13CHTO   O53 5252   4.085   5.678   2.923 -0.2254 -0.2768 -0.1247
   13CHTO   C82 5253   3.954   5.698   2.877  0.1030 -0.1266  0.2137
   13CHTO  H154 5254   3.946   5.653   2.778  0.4872 -1.8523  0.9387
   13CHTO   C89 5255   3.865   5.615   2.973 -0.4584 -0.2322 -0.2500
   13CHTO   O59 5256   3.884   5.477   2.947 -0.0110  0.2020 -0.3717
   13CHTO  H137 5257   3.830   5.424   3.003 -0.3321  0.5337 -0.3642
   13CHTO   O45 5258   4.334   5.708   2.920 -0.5738 -0.1254 -0.1433
   13CHTO   C67 5259   4.406   5.596   2.871  0.0381 -0.0536  0.4072
   13CHTO  H124 5260   4.336   5.526   2.827 -0.6161  0.4057  0.7031
   13CHTO   C65 5261   4.490   5.653   2.764  0.6361 -0.3539  0.3211
   13CHTO  H122 5262   4.418   5.705   2.701  0.2631  0.4293  1.3800
   13CHTO   O44 5263   4.537   5.549   2.675  0.1424 -0.2206  0.0252
   13CHTO  H102 5264   4.492   5.554   2.593  0.5520  0.4882 -0.1547
   13CHTO   C63 5265   4.602   5.754   2.805  0.2126 -0.7919  0.0824
   13CHTO  H120 5266   4.560   5.839   2.859  2.6054 -0.2995  1.2370
   13CHTO   N11 5267   4.674   5.830   2.693  0.1560  0.0573 -0.2735
   13CHTO  H108 5268   4.627   5.799   2.602  0.1795 -0.4382 -0.1162
   13CHTO  H109 5269   4.778   5.810   2.678  0.0557 -0.5281 -0.1745
   13CHTO   C61 5270   4.691   5.678   2.915 -0.0051 -0.2976 -0.5993
   13CHTO  H118 5271   4.750   5.750   2.974  1.4869 -0.8116 -1.4272
   13CHTO   O40 5272   4.614   5.599   3.018  0.1167  0.4847  0.2797
   13CHTO   C68 5273   4.492   5.523   2.982  0.3466  0.0193  1.0726
   13CHTO  H125 5274   4.432   5.515   3.076 -0.3698 -1.2231  0.5219
   13CHTO   C72 5275   4.524   5.380   2.940 -0.1054 -0.0057  0.1001
   13CHTO   O48 5276   4.408   5.300   2.919  0.4253  0.0591 -0.0617
   13CHTO  H105 5277   4.332   5.347   2.948 -0.6988 -0.3273 -2.3188
   13CHTO   O38 5278   4.778   5.579   2.850  0.4166 -0.3922 -0.1330
   13CHTO   C55 5279   4.901   5.549   2.916 -0.4217 -0.3022  0.5139
   13CHTO  H112 5280   4.946   5.485   2.838 -2.1596 -1.7488  0.6723
   13CHTO   C56 5281   4.893   5.474   3.055  0.7736 -0.7781 -0.2575
   13CHTO  H113 5282   4.830   5.537   3.119 -0.3492 -1.1598 -0.9813
   13CHTO   O42 5283   4.830   5.347   3.022  0.3293  0.3295 -0.0110
   13CHTO  H100 5284   4.740   5.354   3.000  0.3538 -0.9518 -0.5630
   13CHTO   C57 5285   5.032   5.452   3.127 -0.1036  0.5456  0.0679
   13CHTO  H114 5286   5.077   5.376   3.063  1.7287  0.8450  0.9649
   13CHTO   N10 5287   5.018   5.383   3.261  0.2667 -0.5394  0.4423
   13CHTO  H106 5288   5.001   5.452   3.342 -2.0704  0.9425 -1.2271
   13CHTO  H107 5289   5.099   5.314   3.281 -0.5844 -1.5911  0.2774
   13CHTO   C58 5290   5.111   5.585   3.126 -0.2844  0.5246  0.4725
   13CHTO  H115 5291   5.056   5.660   3.187 -3.1784 -1.5218  0.5226
   13CHTO   O37 5292   5.121   5.633   2.990 -0.0387  1.2260 -0.1522
   13CHTO   C59 5293   4.997   5.672   2.928  0.5228 -0.1565 -0.5733
   13CHTO  H116 5294   4.957   5.751   2.991  1.7209  0.5176 -0.6465
   13CHTO   C70 5295   5.017   5.732   2.788 -0.3569  0.2175 -0.1024
   13CHTO   O46 5296   5.091   5.858   2.787 -0.7441  0.3102  0.3746
   13CHTO  H103 5297   5.035   5.923   2.825  1.6991  1.4714  2.0504
   13CHTO   O39 5298   5.261   5.561   3.185 -0.3954 -0.5060 -0.4028
   13CHTO   C60 5299   5.354   5.669   3.189  0.1055 -0.4925  0.3953
   13CHTO  H117 5300   5.350   5.706   3.086  0.5268 -2.0291 -0.1748
   13CHTO   C62 5301   5.322   5.778   3.295  0.1358  0.2043  0.7319
   13CHTO  H119 5302   5.230   5.838   3.279  1.4360  2.5725  1.8413
   13CHTO   O43 5303   5.293   5.719   3.421 -0.2552  0.0279 -0.4066
   13CHTO  H101 5304   5.368   5.676   3.457 -0.2372 -0.7515 -1.3531
   13CHTO   C66 5305   5.432   5.897   3.300  0.2344  0.2101  0.2777
   13CHTO  H123 5306   5.428   5.958   3.210 -0.8118  1.1071  0.9313
   13CHTO   N12 5307   5.394   5.998   3.404  0.0149 -0.3562  0.1773
   13CHTO  H110 5308   5.291   5.986   3.432  0.5612 -1.0135  2.0076
   13CHTO  H111 5309   5.407   6.100   3.370  0.2215  0.2224  1.9289
   13CHTO   C69 5310   5.580   5.846   3.306  0.0860  0.2342 -0.6302
   13CHTO  H126 5311   5.596   5.805   3.408  1.4779  1.4398 -0.3581
   13CHTO   O41 5312   5.604   5.738   3.206 -0.0346 -0.2322  0.2009
   13CHTO   C64 5313   5.492   5.609   3.212 -0.5089 -0.1378 -0.0515
   13CHTO  H121 5314   5.494   5.561   3.312  2.7742 -0.5392 -0.2406
   13CHTO   C71 5315   5.546   5.509   3.108  0.9457  0.0590  0.0766
   13CHTO   O47 5316   5.688   5.479   3.131  0.2781  0.3468 -0.2403
   13CHTO  H104 5317   5.738   5.534   3.075  2.7049 -2.3163 -0.8198
   13CHTO   O34 5318   5.677   5.972   3.289 -0.7829  0.4111 -0.3585
   13CHTO   C49 5319   5.828   5.938   3.306 -1.0076  0.2756 -0.2417
   13CHTO   H91 5320   5.831   5.830   3.291 -0.0598  0.1437  0.7687
   13CHTO   C47 5321   5.864   5.962   3.454  0.0269 -0.1463  0.1439
   13CHTO   H89 5322   5.968   5.923   3.456  0.4282  0.6401 -2.9210
   13CHTO   O33 5323   5.781   5.877   3.536  0.1702  0.0677 -0.4432
   13CHTO   H70 5324   5.826   5.800   3.563 -0.7568 -1.4798 -3.1987
   13CHTO   C45 5325   5.842   6.118   3.485  0.8243 -0.4023  0.0084
   13CHTO   H87 5326   5.741   6.136   3.526  0.6903  0.7602 -0.7934
   13CHTO    N8 5327   5.936   6.156   3.593  0.3280 -0.1071  0.4073
   13CHTO   H75 5328   5.922   6.100   3.684 -0.1566  0.3447  0.6156
   13CHTO   H76 5329   5.954   6.261   3.610 -2.3970  0.2025  1.6361
   13CHTO   C43 5330   5.849   6.202   3.350 -0.8275 -0.1768 -0.1120
   13CHTO   H85 5331   5.746   6.196   3.315 -2.2284  2.8165  3.1849
   13CHTO   O29 5332   5.942   6.160   3.252 -0.0502  0.3675 -0.6432
   13CHTO   C50 5333   5.924   6.022   3.215  0.5280 -0.0299 -0.2807
   13CHTO   H92 5334   5.879   6.026   3.115 -1.9150 -1.5951  0.7335
   13CHTO   C54 5335   6.071   5.971   3.200  0.5020 -0.1080  0.0235
   13CHTO   O36 5336   6.160   6.042   3.115 -0.2031  0.0402 -0.4442
   13CHTO   H72 5337   6.174   6.127   3.152  2.3793 -0.0570 -1.1178
   13CHTO   O27 5338   5.864   6.345   3.372 -0.2101 -0.3329 -0.4620
   13CHTO   C37 5339   5.792   6.465   3.366  0.0243  0.7063 -0.3484
   13CHTO   H79 5340   5.702   6.454   3.304 -2.0719 -0.6590  2.8457
   13CHTO   C38 5341   5.762   6.508   3.513 -0.0034 -0.2169  0.2979
   13CHTO   H80 5342   5.860   6.513   3.564  0.5502  1.2172 -0.8753
   13CHTO   O31 5343   5.679   6.408   3.576  0.0041  0.1526  0.0943
   13CHTO   H68 5344   5.669   6.418   3.669  1.4808  0.4245  0.2356
   13CHTO   C39 5345   5.689   6.646   3.513 -0.1008 -0.0483  0.0038
   13CHTO   H81 5346   5.600   6.635   3.451  1.3689  0.2122 -2.2201
   13CHTO    N7 5347   5.656   6.693   3.652 -0.1515 -0.2149  0.6787
   13CHTO   H73 5348   5.588   6.777   3.652  0.6325  0.4228  0.8957
   13CHTO   H74 5349   5.749   6.696   3.707 -0.8400 -0.8204  1.8882
   13CHTO   C40 5350   5.772   6.756   3.435 -0.5163 -0.5560 -0.8745
   13CHTO   H82 5351   5.861   6.780   3.493 -2.1579  1.3659  0.9374
   13CHTO   O26 5352   5.806   6.708   3.301 -0.1284 -0.1579  0.2169
   13CHTO   C41 5353   5.879   6.578   3.303  0.7259  0.3636  0.2279
   13CHTO   H83 5354   5.967   6.599   3.366  0.4799  2.8788 -0.2022
   13CHTO   C52 5355   5.917   6.530   3.159  0.2076  0.6930  0.1731
   13CHTO   O35 5356   6.022   6.595   3.108  0.3256 -0.7871 -0.2004
   13CHTO   H71 5357   6.085   6.528   3.089 -0.5520 -1.5121 -0.5980
   13CHTO   O28 5358   5.697   6.878   3.420  0.3589  0.4963  0.0575
   13CHTO   C42 5359   5.763   7.005   3.407  0.3726 -0.4083 -0.1302
   13CHTO   H84 5360   5.867   6.989   3.382  0.4969  4.2106 -3.0319
   13CHTO   C44 5361   5.764   7.093   3.533  0.2608 -1.1516 -0.5803
   13CHTO   H86 5362   5.664   7.102   3.575  0.1215  1.0519 -1.3519
   13CHTO   O32 5363   5.853   7.023   3.624  0.6205  0.2602  0.3731
   13CHTO   H69 5364   5.935   7.065   3.640  0.6956  1.0058 -1.7279
   13CHTO   C48 5365   5.804   7.238   3.513 -0.1775  0.1652  0.4281
   13CHTO   H90 5366   5.910   7.235   3.489 -0.5089 -2.9084 -0.8742
   13CHTO    N9 5367   5.801   7.329   3.633 -0.0735 -0.3440 -0.3361
   13CHTO   H77 5368   5.699   7.336   3.667 -0.4662  0.4605 -1.6625
   13CHTO   H78 5369   5.858   7.276   3.708 -2.5410 -0.0927  1.7727
   13CHTO   C51 5370   5.725   7.298   3.385 -0.1129 -0.5563  0.2775
   13CHTO   H93 5371   5.618   7.296   3.408  0.1785  0.8048  1.8423
   13CHTO   O30 5372   5.754   7.209   3.275  0.2120 -0.3362  0.1785
   13CHTO   C46 5373   5.697   7.080   3.287  0.0146  0.3957 -0.1770
   13CHTO   H88 5374   5.589   7.088   3.299  0.2008  5.2173 -0.7519
   13CHTO   C53 5375   5.736   7.013   3.156  0.2022  0.3484  0.4693
   13CHTO   O72 5376   5.874   6.985   3.129  0.4750 -0.4105 -0.2600
   13CHTO  H199 5377   5.920   7.059   3.164  0.1054 -0.4099  0.2154
   13CHTO   O22 5378   5.769   7.430   3.346  0.1445  0.5793 -0.3832
   13CHTO   C31 5379   5.681   7.514   3.262  0.8176  0.1243  0.8252
   13CHTO   H59 5380   5.749   7.587   3.215 -0.8085  1.5447  0.6399
   13CHTO   C29 5381   5.611   7.439   3.147 -0.1544  0.0191  0.0088
   13CHTO   H57 5382   5.548   7.363   3.195  0.8878  0.2382  1.7662
   13CHTO   O21 5383   5.713   7.378   3.068  0.2004  0.5184 -0.3760
   13CHTO   H37 5384   5.751   7.304   3.112 -0.1157  0.6236  0.0693
   13CHTO   C27 5385   5.515   7.535   3.062 -0.3892 -0.0997  0.6240
   13CHTO   H55 5386   5.580   7.605   3.007  0.5265  0.4619  2.3958
   13CHTO    N5 5387   5.434   7.462   2.961 -0.8524  0.2664  0.5224
   13CHTO   H43 5388   5.466   7.497   2.864  2.7964 -1.8059  0.8558
   13CHTO   H44 5389   5.331   7.492   2.968 -0.5513  2.0247 -2.0356
   13CHTO   C25 5390   5.426   7.628   3.154 -0.1551 -0.2849 -0.2627
   13CHTO   H53 5391   5.351   7.561   3.198  1.2098 -1.8355 -0.2650
   13CHTO   O17 5392   5.498   7.689   3.267 -0.2582  0.1230 -0.0154
   13CHTO   C32 5393   5.582   7.595   3.349  0.2757 -0.2639  0.5066
   13CHTO   H60 5394   5.514   7.527   3.402 -1.7295  1.3541  0.0659
   13CHTO   C36 5395   5.653   7.681   3.452 -0.3640 -0.4392  0.4501
   13CHTO   O25 5396   5.731   7.784   3.395  0.4149  0.0834  0.1775
   13CHTO   H40 5397   5.694   7.828   3.321 -0.9711 -0.8351  0.3168
   13CHTO   O15 5398   5.348   7.727   3.074 -0.0058  0.1934 -0.9938
   13CHTO   C19 5399   5.226   7.807   3.093 -0.1445 -0.1189 -0.3241
   13CHTO   H47 5400   5.211   7.795   3.201 -0.8664 -0.8542 -0.5046
   13CHTO   C20 5401   5.239   7.958   3.068 -0.9405 -0.1531 -0.1862
   13CHTO   H48 5402   5.251   7.983   2.962 -2.7938  1.2234 -0.0909
   13CHTO   O19 5403   5.362   7.997   3.134  0.0933  0.0594 -0.2744
   13CHTO   H35 5404   5.387   8.082   3.103  0.8080  0.7170  1.9984
   13CHTO   C21 5405   5.110   8.034   3.127 -0.1975 -0.2390 -0.0911
   13CHTO   H49 5406   5.109   8.027   3.236 -1.1321 -1.7371 -0.1818
   13CHTO    N4 5407   5.116   8.180   3.103  0.3199  0.2269 -0.3325
   13CHTO   H41 5408   5.116   8.210   2.999 -1.1052  0.9016 -0.1585
   13CHTO   H42 5409   5.032   8.231   3.148  1.4932  0.1872  1.9580
   13CHTO   C22 5410   4.983   7.967   3.065 -0.1996 -0.5144 -0.1555
   13CHTO   H50 5411   4.972   8.005   2.964  1.7391 -0.0963 -0.2218
   13CHTO   O14 5412   4.985   7.823   3.069 -0.3400 -0.1124  0.5161
   13CHTO   C23 5413   5.099   7.751   3.022  0.0194 -0.0470 -0.4161
   13CHTO   H51 5414   5.105   7.758   2.912  3.1208 -1.6162 -0.3806
   13CHTO   C34 5415   5.083   7.611   3.074  0.1241  0.0225 -0.0034
   13CHTO   O23 5416   4.955   7.545   3.065 -0.6032  0.2463  0.2775
   13CHTO   H38 5417   4.967   7.457   3.095  0.3307  0.3791  0.3019
   13CHTO   O16 5418   4.867   7.990   3.147 -0.2089 -0.5142 -0.2592
   13CHTO   C24 5419   4.726   8.004   3.081 -0.4908  0.0919  0.1701
   13CHTO   H52 5420   4.732   8.012   2.972  1.4442  1.2371  0.3198
   13CHTO   C26 5421   4.669   8.137   3.131 -0.1543  0.1634 -0.2427
   13CHTO   H54 5422   4.663   8.131   3.242 -0.3804 -2.2941 -0.3571
   13CHTO   O20 5423   4.758   8.244   3.096  0.1857  0.0122 -0.7570
   13CHTO   H36 5424   4.736   8.332   3.119  3.0779  0.2578  1.2464
   13CHTO   C30 5425   4.525   8.158   3.080 -0.2221 -0.5664  0.0661
   13CHTO   H58 5426   4.523   8.170   2.970  1.5939 -1.3515 -0.0760
   13CHTO    N6 5427   4.469   8.281   3.138 -0.2584  0.2202  0.1120
   13CHTO   H45 5428   4.529   8.364   3.104  1.2107 -0.5828  0.6666
   13CHTO   H46 5429   4.450   8.278   3.245 -3.9150  0.6810 -0.4637
   13CHTO   C33 5430   4.435   8.029   3.108  0.4253 -0.3058 -0.5327
   13CHTO   H61 5431   4.427   8.020   3.218 -1.0899 -1.3333 -0.7109
   13CHTO   O18 5432   4.507   7.912   3.061 -0.7809 -0.2560  0.2026
   13CHTO   C28 5433   4.635   7.879   3.118  0.0914  0.7009  1.2202
   13CHTO   H56 5434   4.635   7.868   3.227 -0.2408 -0.8407  1.0725
   13CHTO   C35 5435   4.688   7.737   3.061 -0.1869  0.2835  0.4151
   13CHTO   O24 5436   4.660   7.712   2.925 -0.2217 -0.0229 -0.2548
   13CHTO   H39 5437   4.738   7.674   2.889  1.8579  0.8677  3.0579
   13CHTO    O9 5438   4.298   8.032   3.059 -0.4741  0.2188  0.5207
   13CHTO   C13 5439   4.199   7.897   3.124 -0.7048  0.3629  0.4214
   13CHTO   H26 5440   4.259   7.819   3.176 -0.5795  2.1672  3.1306
   13CHTO   C11 5441   4.098   7.833   3.019  0.0317  0.2689 -1.1302
   13CHTO   H24 5442   4.161   7.791   2.939 -1.8815 -0.3659 -2.3411
   13CHTO    O8 5443   4.014   7.935   2.959 -0.3806  0.2131  0.0581
   13CHTO    H3 5444   4.051   7.973   2.881  1.1435  0.2538  0.7780
   13CHTO    C9 5445   4.026   7.715   3.091 -0.3398  0.7784 -0.3318
   13CHTO   H22 5446   4.108   7.644   3.111  1.6271  3.0257 -0.1715
   13CHTO    N2 5447   3.936   7.644   2.997 -0.2094  0.6893 -0.1609
   13CHTO   H10 5448   3.836   7.628   3.035  0.5992 -0.7395  1.4256
   13CHTO   H11 5449   3.915   7.689   2.901 -0.4472  2.6026  0.7512
   13CHTO    C7 5450   3.971   7.761   3.236 -0.8817 -0.1582  0.2701
   13CHTO   H20 5451   4.041   7.713   3.307 -2.0480 -1.0588  0.8316
   13CHTO    O4 5452   3.982   7.904   3.249 -0.2425  0.0373  0.3997
   13CHTO   C14 5453   4.116   7.955   3.248 -0.0769  0.6664 -0.6589
   13CHTO   H27 5454   4.159   7.923   3.345 -0.3555 -1.2401 -1.1465
   13CHTO   C18 5455   4.115   8.107   3.251  0.2273  0.0493 -0.5911
   13CHTO   O13 5456   4.042   8.157   3.363  0.3852  0.1332  0.6526
   13CHTO    H7 5457   4.084   8.133   3.443 -0.0684 -1.1794  0.5061
   13CHTO    O2 5458   3.810   7.731   3.268 -0.2717  0.5617 -0.3535
   13CHTO    C1 5459   3.789   7.726   3.405 -0.1384 -0.4939  0.0213
   13CHTO   H14 5460   3.881   7.760   3.458  1.9408 -2.8891 -1.9638
   13CHTO    C2 5461   3.764   7.579   3.445  0.6393 -0.1968 -0.8745
   13CHTO   H15 5462   3.673   7.541   3.397  1.2716  0.7955 -2.8969
   13CHTO    O6 5463   3.873   7.487   3.411 -0.7104  0.7836 -0.2149
   13CHTO    H1 5464   3.957   7.508   3.446  0.2189 -0.3763 -1.6788
   13CHTO    C3 5465   3.738   7.563   3.599 -0.1655  0.5936  0.3611
   13CHTO   H16 5466   3.834   7.573   3.651  0.4287  1.1388 -0.8066
   13CHTO    N1 5467   3.690   7.428   3.647  0.2350 -0.0995 -0.3143
   13CHTO    H8 5468   3.645   7.427   3.745 -0.8990 -1.4003 -0.8280
   13CHTO    H9 5469   3.771   7.356   3.648  1.5326  1.3142 -1.2739
   13CHTO    C4 5470   3.642   7.682   3.652  0.0818  1.1887 -0.3426
   13CHTO   H17 5471   3.539   7.659   3.623  0.9361 -0.0274 -2.5170
   13CHTO    O1 5472   3.677   7.811   3.602 -0.5851 -0.2261 -0.5487
   13CHTO    C5 5473   3.677   7.817   3.460 -0.4460  0.3902  0.2022
   13CHTO   H18 5474   3.583   7.770   3.429 -1.6161  2.3219  0.7210
   13CHTO   C16 5475   3.674   7.969   3.413 -0.4192  0.3680 -0.2186
   13CHTO   O11 5476   3.792   8.040   3.436 -0.4228  0.3538 -0.1851
   13CHTO    H5 5477   3.778   8.125   3.397  3.9886  0.7789 -1.1641
   13CHTO    O3 5478   3.658   7.688   3.798 -0.0881  0.0186 -1.2369
   13CHTO    C6 5479   3.526   7.722   3.859 -0.3288  0.1303 -0.2464
   13CHTO   H19 5480   3.451   7.765   3.793 -0.6569  1.5493  1.0312
   13CHTO    C8 5481   3.467   7.594   3.932 -0.0190  0.4754 -0.3714
   13CHTO   H21 5482   3.550   7.537   3.973 -0.3403 -0.4901 -1.0578
   13CHTO    O7 5483   3.404   7.515   3.825  0.1336  0.4406 -0.3558
   13CHTO    H2 5484   3.344   7.573   3.782 -0.4924 -0.9934 -1.4519
   13CHTO   C12 5485   3.365   7.632   4.046 -0.2148  0.8651  0.7967
   13CHTO   H25 5486   3.275   7.672   3.993  0.2983  0.9930  0.0194
   13CHTO    N3 5487   3.325   7.510   4.120  0.2414  0.1781  0.7344
   13CHTO   H12 5488   3.417   7.462   4.150  0.4114 -0.6736 -1.0636
   13CHTO   H13 5489   3.254   7.532   4.198 -0.0632  0.0664  0.4917
   13CHTO   C15 5490   3.422   7.740   4.136  0.6132  0.2615 -0.9949
   13CHTO   H28 5491   3.511   7.703   4.187  1.1380  0.9050 -1.4241
   13CHTO   O10 5492   3.320   7.785   4.245 -0.2020 -0.6332  0.2493
   13CHTO    H4 5493   3.296   7.717   4.305 -5.4109 -3.1284 -4.2540
   13CHTO    O5 5494   3.455   7.859   4.058 -0.4347 -0.7179  0.3590
   13CHTO   C10 5495   3.561   7.836   3.965 -0.3623  0.1626  0.1220
   13CHTO   H23 5496   3.654   7.812   4.018 -0.2440  1.0813  0.3461
   13CHTO   C17 5497   3.572   7.972   3.891 -0.1684 -0.4711  0.2552
   13CHTO   O12 5498   3.453   8.021   3.822 -0.2803  0.4220 -0.0054
   13CHTO    H6 5499   3.441   7.974   3.742  1.2247 -0.1239  0.0782
   14CHTO  H203 5500   6.072   4.934   0.247  1.2783 -1.7959 -1.4255
   14CHTO   O82 5501   6.001   4.907   0.191 -0.3697  0.1896 -0.3611
   14CHTO  C123 5502   5.929   5.030   0.171 -0.4354 -0.0126  0.1812
   14CHTO  H227 5503   5.997   5.114   0.154  0.6268 -0.4569  2.1236
   14CHTO   O77 5504   5.868   4.996   0.041  0.3159 -0.2189  0.4586
   14CHTO  C118 5505   5.766   5.088  -0.008  0.3992  0.0286 -0.5248
   14CHTO  H222 5506   5.806   5.190  -0.019  1.4829 -0.0900  2.0172
   14CHTO  C125 5507   5.724   5.027  -0.146 -0.4645 -0.7992  0.1803
   14CHTO   O84 5508   5.677   4.892  -0.151 -0.5247 -0.3964 -0.6014
   14CHTO  H205 5509   5.692   4.870  -0.241 -2.3400 -2.2501 -0.4866
   14CHTO  C114 5510   5.655   5.095   0.100  0.0515 -0.2920 -0.0211
   14CHTO  H218 5511   5.610   4.998   0.121 -1.0157  0.2054  0.0370
   14CHTO  C116 5512   5.712   5.159   0.241  0.5667  0.7042 -0.4047
   14CHTO  H220 5513   5.744   5.263   0.220 -0.2374  0.6017 -2.1786
   14CHTO   O79 5514   5.602   5.161   0.330  0.0789  0.0086  0.0278
   14CHTO  H201 5515   5.559   5.077   0.332  0.5313 -0.2280 -0.1666
   14CHTO  C120 5516   5.831   5.070   0.298 -0.4131 -0.5269  0.2679
   14CHTO  H224 5517   5.779   4.979   0.336  1.5606 -1.8729 -0.1668
   14CHTO   N21 5518   5.906   5.130   0.410 -0.1476 -0.3544 -0.0740
   14CHTO  H211 5519   5.969   5.052   0.450 -0.5977 -0.4323  0.4928
   14CHTO  H212 5520   5.840   5.164   0.488  2.1302  1.5665  1.0750
   14CHTO   O75 5521   5.558   5.181   0.038 -0.2797 -0.6610  0.3808
   14CHTO  C112 5522   5.394   5.140   0.063  0.0072 -0.1717  0.0689
   14CHTO  H216 5523   5.386   5.122   0.171 -0.2311 -0.4363  0.0056
   14CHTO   O73 5524   5.372   5.017  -0.014 -0.3007 -0.1695 -0.4256
   14CHTO  C113 5525   5.246   4.960   0.010  0.3952  0.8326  0.1020
   14CHTO  H217 5526   5.234   4.924   0.114  0.6678  1.5393  0.3786
   14CHTO  C124 5527   5.242   4.833  -0.081 -0.4355  0.1160  0.8262
   14CHTO   O83 5528   5.275   4.862  -0.221 -0.0949 -0.2215  0.4809
   14CHTO  H204 5529   5.275   4.782  -0.271 -1.3204 -0.4169  0.7758
   14CHTO  C109 5530   5.132   5.063  -0.041  0.0252 -0.2779  0.4465
   14CHTO  H213 5531   5.150   5.076  -0.149  1.5709 -2.4031  0.4046
   14CHTO  C110 5532   5.146   5.197   0.034 -0.1601  0.3443 -0.2040
   14CHTO  H214 5533   5.108   5.193   0.136  2.6043  1.5837  0.9121
   14CHTO   O78 5534   5.055   5.290  -0.023  0.1846  0.1589 -0.3294
   14CHTO  H200 5535   5.071   5.299  -0.115  0.3821  2.0560 -0.1447
   14CHTO  C111 5536   5.293   5.251   0.018 -0.2615 -0.9054 -0.1013
   14CHTO  H215 5537   5.303   5.273  -0.089  0.2191 -0.3039  0.0671
   14CHTO   N19 5538   5.316   5.375   0.101  0.0494  0.4405 -0.4406
   14CHTO  H207 5539   5.420   5.391   0.125 -0.2135 -1.4914  2.2248
   14CHTO  H208 5540   5.273   5.383   0.200  1.5405 -0.3324  0.2917
   14CHTO   O74 5541   4.995   5.013  -0.020  0.5300  0.3139  0.2160
   14CHTO  C115 5542   4.903   5.019  -0.163 -0.3832 -1.1709  0.4103
   14CHTO  H219 5543   4.918   5.113  -0.217 -1.2147 -1.0645  0.3645
   14CHTO   O76 5544   4.942   4.897  -0.263  0.0799  0.0530  0.5662
   14CHTO  C122 5545   4.882   4.767  -0.239 -0.3523  0.1937  0.6535
   14CHTO  H226 5546   4.946   4.719  -0.165 -0.5285 -0.6015  0.2975
   14CHTO  C126 5547   4.906   4.682  -0.364 -0.2492 -0.2545  0.5003
   14CHTO   O85 5548   5.033   4.619  -0.360  0.9099 -0.1234 -0.0409
   14CHTO  H206 5549   5.041   4.566  -0.283  0.9742 -0.1963 -0.0970
   14CHTO  C121 5550   4.723   4.775  -0.199 -0.1387  0.3500  0.2919
   14CHTO  H225 5551   4.660   4.713  -0.267 -1.0559  0.6183  0.8748
   14CHTO   O81 5552   4.702   4.730  -0.070  0.1940 -0.4889  0.1050
   14CHTO  H202 5553   4.611   4.717  -0.048  0.9454 -0.7593  3.2697
   14CHTO  C119 5554   4.669   4.913  -0.216  0.4439 -0.4724 -0.3324
   14CHTO  H223 5555   4.696   4.939  -0.318 -2.2704  1.8731 -0.5192
   14CHTO  C117 5556   4.751   5.011  -0.122 -0.2227  0.1208  0.1843
   14CHTO  H221 5557   4.753   4.986  -0.016 -0.2455 -1.6476 -0.2237
   14CHTO   N20 5558   4.692   5.151  -0.123  0.1714  0.3471  0.0532
   14CHTO  H209 5559   4.600   5.155  -0.067 -1.4284 -0.2114 -2.4496
   14CHTO  H210 5560   4.693   5.202  -0.218 -1.5215 -0.8458 -0.6292
   14CHTO   O80 5561   4.511   4.928  -0.223 -0.2972  0.0749 -0.3513
   14CHTO  C103 5562   4.439   4.994  -0.351 -0.0416 -0.2499 -0.0712
   14CHTO  H190 5563   4.497   5.077  -0.391 -1.6012 -0.0118 -1.9349
   14CHTO  C101 5564   4.403   4.897  -0.470 -0.0119  0.1302 -0.2450
   14CHTO  H188 5565   4.344   4.819  -0.423 -0.5169  1.6917  1.7461
   14CHTO   O68 5566   4.537   4.844  -0.534 -0.0509 -0.1380 -0.1107
   14CHTO  H168 5567   4.602   4.910  -0.546  1.0011 -1.2210 -0.4629
   14CHTO   C99 5568   4.301   4.978  -0.578 -0.0767  0.5696  0.1544
   14CHTO  H186 5569   4.357   5.064  -0.621 -2.4555  2.1698  0.2120
   14CHTO   N17 5570   4.262   4.891  -0.694  0.3287  0.3613  0.0638
   14CHTO  H174 5571   4.155   4.882  -0.699  0.4563 -1.8766  0.6791
   14CHTO  H175 5572   4.304   4.793  -0.676 -1.4506 -0.2945  0.6810
   14CHTO   C97 5573   4.182   5.047  -0.510  0.0304  0.0069 -0.9137
   14CHTO  H184 5574   4.112   4.970  -0.476  0.5520  0.0405  0.2621
   14CHTO   O64 5575   4.236   5.123  -0.405 -0.4386 -0.3956 -0.0845
   14CHTO  C104 5576   4.304   5.052  -0.298  0.4186 -0.3006 -0.6988
   14CHTO  H191 5577   4.247   4.969  -0.256  0.1352  0.8132  1.1440
   14CHTO  C108 5578   4.320   5.152  -0.182  0.1215  0.7993  0.2951
   14CHTO   O71 5579   4.205   5.234  -0.148 -0.0047 -0.0228 -0.2443
   14CHTO  H171 5580   4.193   5.210  -0.058  2.0195 -0.6493 -0.1056
   14CHTO   O62 5581   4.108   5.138  -0.601 -0.2410 -0.1581 -0.1392
   14CHTO   C91 5582   3.967   5.111  -0.633 -0.1375 -0.6176  0.9826
   14CHTO  H178 5583   3.942   5.011  -0.600 -0.0966 -1.1584 -0.5903
   14CHTO   C92 5584   3.947   5.115  -0.789  0.2300 -0.1061  0.5429
   14CHTO  H179 5585   4.018   5.049  -0.841 -1.3157 -0.9541 -0.5214
   14CHTO   O66 5586   3.820   5.042  -0.803 -0.8284 -0.0287 -0.0583
   14CHTO  H166 5587   3.748   5.102  -0.801  0.6071  1.7579 -1.1205
   14CHTO   C93 5588   3.930   5.257  -0.856 -0.0960 -0.5171  0.1001
   14CHTO  H180 5589   3.877   5.254  -0.952  1.6320 -1.0500 -0.8725
   14CHTO   N16 5590   4.059   5.308  -0.902 -0.3687  0.2824 -0.5612
   14CHTO  H172 5591   4.063   5.326  -1.008 -1.0541 -1.4611 -0.9069
   14CHTO  H173 5592   4.093   5.390  -0.841  1.0504 -0.4548 -0.3252
   14CHTO   C94 5593   3.860   5.358  -0.759  0.0031  0.5934 -0.7511
   14CHTO  H181 5594   3.932   5.420  -0.707  2.0488 -2.2676 -0.0707
   14CHTO   O61 5595   3.781   5.286  -0.656  0.4602  0.1069 -0.1061
   14CHTO   C95 5596   3.866   5.218  -0.565  0.1717 -0.9004 -0.1604
   14CHTO  H182 5597   3.930   5.290  -0.515 -2.1976 -0.0795  1.7917
   14CHTO  C106 5598   3.781   5.152  -0.453  0.2167  0.1545  0.9258
   14CHTO   O69 5599   3.692   5.239  -0.379 -0.3521  0.1954 -0.4459
   14CHTO  H169 5600   3.727   5.325  -0.362  1.2000 -0.5721  0.3108
   14CHTO   O63 5601   3.770   5.452  -0.848 -0.0399  0.0790 -0.8811
   14CHTO   C96 5602   3.708   5.582  -0.747 -0.2783 -0.3044 -0.1533
   14CHTO  H183 5603   3.763   5.577  -0.653 -2.7972  0.7287  1.4374
   14CHTO   C98 5604   3.555   5.581  -0.717  0.2879 -0.3197 -0.1364
   14CHTO  H185 5605   3.506   5.569  -0.815  0.0771  1.2152 -0.2280
   14CHTO   O67 5606   3.520   5.460  -0.639  0.3724 -0.0555 -0.0398
   14CHTO  H167 5607   3.430   5.473  -0.617  0.9708  2.4489  1.1645
   14CHTO  C102 5608   3.512   5.716  -0.632  1.0183  0.1824  0.8563
   14CHTO  H189 5609   3.551   5.704  -0.530  2.9140  1.9116  0.3591
   14CHTO   N18 5610   3.365   5.725  -0.618 -0.3073  0.5862  0.5869
   14CHTO  H176 5611   3.308   5.663  -0.687  2.9890 -2.1525  0.1930
   14CHTO  H177 5612   3.319   5.821  -0.601 -0.2641  0.5832  0.7131
   14CHTO  C105 5613   3.568   5.848  -0.697 -0.1756  0.3321 -0.4143
   14CHTO  H192 5614   3.500   5.887  -0.772  0.2682 -0.2068 -1.1068
   14CHTO   O65 5615   3.709   5.831  -0.735  0.5511  0.6384 -0.2310
   14CHTO  C100 5616   3.740   5.716  -0.820 -0.4445  0.0869 -0.2416
   14CHTO  H187 5617   3.684   5.719  -0.914 -2.0223  2.0286  0.7394
   14CHTO  C107 5618   3.889   5.718  -0.860  0.1337  0.5266 -0.0598
   14CHTO   O70 5619   3.911   5.846  -0.930 -0.2652 -0.1805 -0.4277
   14CHTO  H170 5620   3.967   5.835  -1.004 -1.4803  1.2513 -1.5997
   14CHTO   O57 5621   3.556   5.962  -0.563  0.0760  0.8665 -0.0763
   14CHTO   C85 5622   3.505   6.096  -0.589  0.3062 -0.6079  0.0914
   14CHTO  H157 5623   3.400   6.091  -0.626  0.0477  1.7408  0.4132
   14CHTO   C83 5624   3.577   6.161  -0.716  0.0389 -0.0677 -0.4117
   14CHTO  H155 5625   3.557   6.102  -0.805  0.0390 -2.3654  1.0487
   14CHTO   O56 5626   3.722   6.156  -0.698  0.1748  0.7202  0.3634
   14CHTO  H135 5627   3.743   6.102  -0.624  0.9036  1.1901  0.4999
   14CHTO   C81 5628   3.526   6.311  -0.738  0.7529 -0.3351 -0.4778
   14CHTO  H153 5629   3.417   6.312  -0.747  0.6126  1.3292  1.0965
   14CHTO   N14 5630   3.579   6.356  -0.869  0.1416 -0.8031  0.0744
   14CHTO  H141 5631   3.599   6.461  -0.875 -3.4670 -0.1313 -2.0570
   14CHTO  H142 5632   3.516   6.336  -0.953  0.4337  1.4675 -0.7372
   14CHTO   C79 5633   3.561   6.396  -0.608  0.2144  0.5499  1.3451
   14CHTO  H151 5634   3.530   6.498  -0.630 -1.2782  0.0858  1.2959
   14CHTO   O52 5635   3.495   6.335  -0.496 -0.5137  0.1838 -0.3291
   14CHTO   C86 5636   3.518   6.189  -0.465 -0.2858 -0.4432  0.5203
   14CHTO  H158 5637   3.613   6.190  -0.408  0.7554 -0.7147 -1.1734
   14CHTO   C90 5638   3.407   6.156  -0.362  0.1041 -0.5195 -0.2913
   14CHTO   O60 5639   3.277   6.164  -0.414  0.4910  0.5202 -0.9725
   14CHTO  H138 5640   3.252   6.254  -0.424 -1.9964 -0.0657 -0.5255
   14CHTO   O50 5641   3.701   6.404  -0.579  0.4641  0.5878 -0.3641
   14CHTO   C73 5642   3.770   6.490  -0.484  0.9135  0.0706  0.3759
   14CHTO  H145 5643   3.709   6.501  -0.393  0.6725 -1.9623  0.4853
   14CHTO   C74 5644   3.770   6.635  -0.543 -0.5957 -0.1450  0.0509
   14CHTO  H146 5645   3.668   6.675  -0.557 -0.0863  0.0773 -3.3849
   14CHTO   O54 5646   3.822   6.731  -0.449  0.4760  0.0191  0.4570
   14CHTO  H133 5647   3.751   6.757  -0.395  1.4434  0.7700  1.3967
   14CHTO   C75 5648   3.852   6.632  -0.677  0.0263  0.5136 -0.2553
   14CHTO  H147 5649   3.798   6.572  -0.751  0.4721 -0.2607  0.0380
   14CHTO   N13 5650   3.853   6.766  -0.749 -0.2527 -0.2725 -0.1265
   14CHTO  H139 5651   3.796   6.778  -0.839 -1.3916 -0.5698  0.5510
   14CHTO  H140 5652   3.953   6.800  -0.774 -0.0366  0.4349  1.5997
   14CHTO   C76 5653   3.991   6.564  -0.653  0.3085  0.5028  0.1904
   14CHTO  H148 5654   4.055   6.644  -0.616 -1.6462  2.1263  0.1602
   14CHTO   O49 5655   3.989   6.436  -0.568  0.1996 -0.5817  0.6263
   14CHTO   C77 5656   3.909   6.442  -0.455 -0.8831  0.0847  0.0788
   14CHTO  H149 5657   3.958   6.505  -0.380  3.5435 -0.9422 -1.7888
   14CHTO   C88 5658   3.904   6.302  -0.399  0.6526 -0.0123  0.3529
   14CHTO   O58 5659   3.838   6.302  -0.272 -0.2738  0.0196 -0.1364
   14CHTO  H136 5660   3.899   6.319  -0.203 -0.1690  0.7506 -0.4069
   14CHTO   O51 5661   4.045   6.506  -0.780  0.3988 -1.0745  1.0559
   14CHTO   C78 5662   4.205   6.492  -0.776 -0.1146 -0.3978  1.1233
   14CHTO  H150 5663   4.243   6.517  -0.675  0.4826 -0.5570  0.9421
   14CHTO   C80 5664   4.254   6.592  -0.882 -0.5619 -0.2359 -0.0356
   14CHTO  H152 5665   4.219   6.555  -0.980  1.2203  0.3208 -0.8910
   14CHTO   O55 5666   4.194   6.718  -0.848  0.1685  0.1882 -0.5199
   14CHTO  H134 5667   4.114   6.706  -0.801 -0.1904 -0.3723 -1.2625
   14CHTO   C84 5668   4.414   6.602  -0.879 -0.4111  0.1380  0.8134
   14CHTO  H156 5669   4.442   6.649  -0.784 -0.7984  1.8184  0.1085
   14CHTO   N15 5670   4.463   6.688  -0.990 -0.2470 -0.1846 -0.4520
   14CHTO  H143 5671   4.400   6.759  -1.039  1.8350  0.6014 -2.0703
   14CHTO  H144 5672   4.555   6.732  -0.956  0.3469 -2.7632  1.4013
   14CHTO   C87 5673   4.473   6.464  -0.906 -0.2681  0.1231 -0.3708
   14CHTO  H159 5674   4.459   6.431  -1.009  1.0293  0.2985 -0.6059
   14CHTO   O53 5675   4.405   6.362  -0.821 -0.0665  0.1549  0.1940
   14CHTO   C82 5676   4.261   6.351  -0.820  0.8238  0.3738 -0.3140
   14CHTO  H154 5677   4.220   6.318  -0.915 -0.3560 -0.8072  0.5816
   14CHTO   C89 5678   4.213   6.240  -0.719  0.7154 -0.2637 -0.4129
   14CHTO   O59 5679   4.073   6.219  -0.737 -0.1007 -0.2056 -0.0377
   14CHTO  H137 5680   4.047   6.170  -0.662 -1.3340  2.7494  1.5687
   14CHTO   O45 5681   4.629   6.457  -0.865 -0.4769 -0.0475  0.0726
   14CHTO   C67 5682   4.686   6.321  -0.882  0.0573 -0.4292  0.3691
   14CHTO  H124 5683   4.614   6.250  -0.841 -2.0542  1.7197  0.4808
   14CHTO   C65 5684   4.715   6.280  -1.035  0.1418 -0.2843  0.4309
   14CHTO  H122 5685   4.623   6.294  -1.092 -1.2499 -1.7977  2.2427
   14CHTO   O44 5686   4.740   6.142  -1.039 -0.4911  0.2847 -0.2147
   14CHTO  H102 5687   4.658   6.101  -1.057 -0.6577 -0.0565  1.2635
   14CHTO   C63 5688   4.833   6.362  -1.094 -0.3395 -0.1334  0.1707
   14CHTO  H120 5689   4.809   6.468  -1.080 -2.0891 -0.8171  2.7326
   14CHTO   N11 5690   4.848   6.357  -1.238 -0.5151  0.0671  0.8022
   14CHTO  H108 5691   4.949   6.354  -1.272 -0.9409 -1.5985 -0.3803
   14CHTO  H109 5692   4.802   6.264  -1.266 -0.3289  0.5325 -1.0921
   14CHTO   C61 5693   4.963   6.350  -1.011 -0.3709 -0.3064  0.0937
   14CHTO  H118 5694   5.035   6.427  -1.041 -0.7994  0.8261  1.9452
   14CHTO   O40 5695   4.936   6.368  -0.863  0.6005  0.0868  0.9906
   14CHTO   C68 5696   4.824   6.300  -0.799  0.6854 -0.0856  0.3478
   14CHTO  H125 5697   4.818   6.350  -0.700  0.1066  3.2605 -1.3433
   14CHTO   C72 5698   4.849   6.148  -0.766  0.1300  0.0209  0.0708
   14CHTO   O48 5699   4.966   6.130  -0.685  0.2459  0.3069  0.2348
   14CHTO  H105 5700   4.986   6.039  -0.675  1.5845  0.5924  0.2756
   14CHTO   O38 5701   5.034   6.222  -1.028 -0.1779 -0.1202 -0.2601
   14CHTO   C55 5702   5.176   6.212  -1.046  0.0887  0.2198 -0.2652
   14CHTO  H112 5703   5.216   6.301  -1.098  1.2961 -1.1786 -1.7922
   14CHTO   C56 5704   5.208   6.083  -1.123 -0.6103  0.0703 -0.2204
   14CHTO  H113 5705   5.160   6.001  -1.066 -0.4052  0.2773  0.2567
   14CHTO   O42 5706   5.137   6.081  -1.249 -0.5123 -0.2159  0.0923
   14CHTO  H100 5707   5.093   6.001  -1.268 -0.4469 -0.0265 -0.8658
   14CHTO   C57 5708   5.360   6.060  -1.139 -0.0516  0.1038  0.1198
   14CHTO  H114 5709   5.393   6.146  -1.198 -0.9776  1.5590  1.6903
   14CHTO   N10 5710   5.381   5.937  -1.217  0.1293 -0.4688 -0.7720
   14CHTO  H106 5711   5.413   5.967  -1.316  0.2997 -0.2991 -0.6659
   14CHTO  H107 5712   5.456   5.873  -1.173  0.6995  1.5100  1.2779
   14CHTO   C58 5713   5.434   6.052  -1.005  0.3787 -0.1017  0.0897
   14CHTO  H115 5714   5.407   5.955  -0.957  1.2137 -0.6955 -0.6121
   14CHTO   O37 5715   5.394   6.169  -0.926  0.1153  0.0571 -0.0506
   14CHTO   C59 5716   5.260   6.213  -0.917  0.2466  0.2414 -0.3829
   14CHTO  H116 5717   5.219   6.148  -0.840  0.8737 -0.0627 -0.3019
   14CHTO   C70 5718   5.271   6.344  -0.848 -0.1783 -0.7823 -0.5577
   14CHTO   O46 5719   5.266   6.334  -0.700 -0.7254 -0.3025 -0.6527
   14CHTO  H103 5720   5.179   6.355  -0.673 -1.1136 -0.1422 -1.9573
   14CHTO   O39 5721   5.584   6.072  -1.030  0.2833 -0.5625 -0.1819
   14CHTO   C60 5722   5.667   6.009  -0.937 -0.0065 -0.5170  0.1120
   14CHTO  H117 5723   5.636   6.025  -0.834  2.0000 -0.5512  0.7518
   14CHTO   C62 5724   5.681   5.859  -0.962  0.0961 -0.0725  0.6065
   14CHTO  H119 5725   5.580   5.816  -0.948  0.6336 -1.0786  1.5257
   14CHTO   O43 5726   5.704   5.825  -1.103 -0.0080 -0.1049 -0.0311
   14CHTO  H101 5727   5.693   5.732  -1.113 -2.9191 -0.0687  2.2791
   14CHTO   C66 5728   5.795   5.804  -0.857  0.3140  0.2839  0.0198
   14CHTO  H123 5729   5.764   5.831  -0.756 -0.4552 -1.5454  0.3072
   14CHTO   N12 5730   5.809   5.658  -0.850 -0.3685  0.3337 -0.2779
   14CHTO  H110 5731   5.787   5.607  -0.943 -0.0706 -0.9505  0.3485
   14CHTO  H111 5732   5.751   5.616  -0.769 -0.4541  1.6691  0.3580
   14CHTO   C69 5733   5.928   5.872  -0.901 -0.6007 -0.5076 -0.4663
   14CHTO  H126 5734   5.935   5.844  -1.008  0.2527 -1.0329 -0.2803
   14CHTO   O41 5735   5.910   6.035  -0.872  0.8486 -0.0482  0.1445
   14CHTO   C64 5736   5.802   6.081  -0.947  0.2952 -0.7383  0.0342
   14CHTO  H121 5737   5.835   6.073  -1.053 -3.4044 -4.3647 -0.9834
   14CHTO   C71 5738   5.792   6.230  -0.897  0.1902  0.4217 -0.3068
   14CHTO   O47 5739   5.729   6.324  -0.990  0.0594  0.5971  0.8249
   14CHTO  H104 5740   5.758   6.413  -0.988  0.6557  0.4637 -1.1339
   14CHTO   O34 5741   6.060   5.808  -0.830 -0.2627 -0.4620  0.2736
   14CHTO   C49 5742   6.208   5.834  -0.851 -0.6244 -0.4005 -0.8513
   14CHTO   H91 5743   6.239   5.767  -0.931  2.7044 -1.4024  1.1885
   14CHTO   C47 5744   6.292   5.807  -0.728 -0.7750  0.8070 -0.2152
   14CHTO   H89 5745   6.395   5.813  -0.767 -1.8833  0.7002 -3.3382
   14CHTO   O33 5746   6.276   5.671  -0.683 -0.1414 -0.4226 -0.5901
   14CHTO   H70 5747   6.327   5.610  -0.733  0.8465  0.5862 -0.8211
   14CHTO   C45 5748   6.278   5.913  -0.609  0.1240  0.3262  0.4135
   14CHTO   H87 5749   6.204   5.877  -0.536  0.6251 -0.9811  0.3015
   14CHTO    N8 5750   6.407   5.926  -0.535 -0.8285 -0.3742  0.2882
   14CHTO   H75 5751   6.383   5.950  -0.432  1.8879  0.9494  0.6609
   14CHTO   H76 5752   6.486   5.991  -0.569  0.8869 -2.7891 -0.5023
   14CHTO   C43 5753   6.215   6.051  -0.670  0.3466  0.5908  0.4429
   14CHTO   H85 5754   6.108   6.035  -0.671  0.6177 -1.3946 -0.8703
   14CHTO   O29 5755   6.271   6.081  -0.799 -0.3955 -0.7584  0.1947
   14CHTO   C50 5756   6.229   5.988  -0.903 -0.4582 -0.1655 -0.2826
   14CHTO   H92 5757   6.137   6.018  -0.956  0.5352  1.1730 -1.2820
   14CHTO   C54 5758   6.330   5.991  -1.020  0.9803 -0.4696  0.4026
   14CHTO   O36 5759   6.368   6.127  -1.055  0.2531 -0.1566  0.1313
   14CHTO   H72 5760   6.295   6.183  -1.072  0.9703  0.8053  0.1635
   14CHTO   O27 5761   6.215   6.159  -0.576  0.2283 -0.6401 -0.1864
   14CHTO   C37 5762   6.130   6.263  -0.536 -0.2114  0.5591 -0.3975
   14CHTO   H79 5763   6.183   6.316  -0.456 -1.1444 -1.9380  1.9355
   14CHTO   C38 5764   6.091   6.363  -0.651 -0.5158  0.5764  0.2851
   14CHTO   H80 5765   6.042   6.307  -0.732  0.9263 -0.2646 -0.0200
   14CHTO   O31 5766   6.214   6.415  -0.698  0.5201  0.4128 -0.3440
   14CHTO   H68 5767   6.242   6.367  -0.773  2.0623 -0.5413  0.8143
   14CHTO   C39 5768   5.990   6.474  -0.604  0.3846 -0.0462 -0.0231
   14CHTO   H81 5769   6.038   6.531  -0.525  1.3340  0.9588 -1.3000
   14CHTO    N7 5770   5.944   6.571  -0.708 -0.2683 -0.4028  0.0758
   14CHTO   H73 5771   5.870   6.634  -0.661 -2.1335 -0.9977 -1.9708
   14CHTO   H74 5772   5.901   6.509  -0.785 -0.9780 -0.3682  0.4359
   14CHTO   C40 5773   5.863   6.404  -0.543 -0.4421  1.3232 -0.6440
   14CHTO   H82 5774   5.802   6.348  -0.614 -1.9399 -0.2125  1.8165
   14CHTO   O26 5775   5.908   6.315  -0.435 -0.5853 -0.1190 -0.1397
   14CHTO   C41 5776   5.990   6.203  -0.479 -0.6065 -0.1180  0.8797
   14CHTO   H83 5777   5.931   6.146  -0.553 -0.2994 -0.1317  0.6421
   14CHTO   C52 5778   6.008   6.110  -0.356 -0.7685 -0.8616  0.0027
   14CHTO   O35 5779   6.079   6.009  -0.382 -0.5797  0.3875  0.1641
   14CHTO   H71 5780   6.107   5.973  -0.300 -0.5413  0.4757  0.1892
   14CHTO   O28 5781   5.785   6.495  -0.460  0.8335 -0.1141  0.3833
   14CHTO   C42 5782   5.659   6.458  -0.398  0.2217  0.3057 -0.3014
   14CHTO   H84 5783   5.656   6.533  -0.319 -2.2471  1.2575 -1.2445
   14CHTO   C44 5784   5.634   6.319  -0.324  0.2486 -0.5923  0.3339
   14CHTO   H86 5785   5.643   6.236  -0.394 -2.2834  0.7224 -1.6461
   14CHTO   O32 5786   5.738   6.302  -0.228 -0.2308  0.2191  0.3404
   14CHTO   H69 5787   5.707   6.321  -0.141 -1.0797  2.5411 -0.4373
   14CHTO   C48 5788   5.487   6.325  -0.253  0.2118  0.2917  0.7197
   14CHTO   H90 5789   5.482   6.400  -0.175 -0.6643  2.2190 -1.1410
   14CHTO    N9 5790   5.450   6.198  -0.177 -0.0595  0.1075 -0.2462
   14CHTO   H77 5791   5.535   6.151  -0.130 -1.8698  0.0898  3.1374
   14CHTO   H78 5792   5.407   6.130  -0.249 -0.3899  0.9348 -0.8423
   14CHTO   C51 5793   5.375   6.357  -0.359 -0.1657 -0.7196 -0.0463
   14CHTO   H93 5794   5.367   6.279  -0.435 -1.6776 -0.8688  0.2339
   14CHTO   O30 5795   5.405   6.489  -0.410  0.0155 -0.1045  0.3760
   14CHTO   C46 5796   5.533   6.488  -0.486 -0.8251  0.2276  0.1582
   14CHTO   H88 5797   5.522   6.411  -0.562 -1.3871  1.0150 -0.5625
   14CHTO   C53 5798   5.547   6.631  -0.549 -0.0919 -0.3898  0.4825
   14CHTO   O72 5799   5.440   6.639  -0.645  0.3563 -0.1635  0.2786
   14CHTO  H199 5800   5.422   6.728  -0.670  1.5170 -0.4322 -1.6404
   14CHTO   O22 5801   5.251   6.379  -0.287  0.3141  0.6937  0.6161
   14CHTO   C31 5802   5.121   6.350  -0.353 -0.0570 -0.2470  0.2121
   14CHTO   H59 5803   5.134   6.303  -0.452  0.0204  1.4150 -0.5828
   14CHTO   C29 5804   5.029   6.254  -0.269  0.2423 -0.0234  0.0616
   14CHTO   H57 5805   5.001   6.302  -0.174  0.5394  1.8598 -0.7746
   14CHTO   O21 5806   5.106   6.132  -0.239 -0.4224  0.2825  0.3254
   14CHTO   H37 5807   5.198   6.141  -0.223 -0.3687  3.3177 -1.2841
   14CHTO   C27 5808   4.896   6.227  -0.344  0.0875  0.1456  0.5323
   14CHTO   H55 5809   4.918   6.186  -0.444  2.3790  0.3825  0.8999
   14CHTO    N5 5810   4.811   6.129  -0.271  0.0106 -0.7850 -0.3077
   14CHTO   H43 5811   4.808   6.150  -0.165  0.4462 -1.1945 -0.2114
   14CHTO   H44 5812   4.829   6.025  -0.296  2.5813 -0.0038 -1.8873
   14CHTO   C25 5813   4.822   6.368  -0.370  0.8952 -0.0840  0.2533
   14CHTO   H53 5814   4.809   6.419  -0.273  1.3137  0.7035 -0.1047
   14CHTO   O17 5815   4.908   6.466  -0.436  0.5136  0.3173  0.3628
   14CHTO   C32 5816   5.040   6.483  -0.377 -0.3262  0.2562  0.1653
   14CHTO   H60 5817   5.029   6.532  -0.280  0.4646  1.1309 -0.1822
   14CHTO   C36 5818   5.118   6.581  -0.468 -0.1483 -0.2364  0.0331
   14CHTO   O25 5819   5.058   6.710  -0.474 -0.1509 -0.8600 -0.8011
   14CHTO   H40 5820   4.972   6.710  -0.511  0.2069 -3.9083 -1.7473
   14CHTO   O15 5821   4.699   6.374  -0.433  0.3722 -0.5712 -0.1962
   14CHTO   C19 5822   4.571   6.452  -0.452 -0.0637  0.3387 -0.2651
   14CHTO   H47 5823   4.524   6.404  -0.540 -1.3051  0.5486  0.2722
   14CHTO   C20 5824   4.473   6.441  -0.332 -0.1540 -0.3522  0.4588
   14CHTO   H48 5825   4.513   6.492  -0.243  0.2571  0.0176  0.0629
   14CHTO   O19 5826   4.449   6.301  -0.312  0.3397 -0.1632  0.0802
   14CHTO   H35 5827   4.520   6.269  -0.260  0.6892  1.4939  0.6328
   14CHTO   C21 5828   4.338   6.519  -0.364  0.4335 -0.3790 -0.4803
   14CHTO   H49 5829   4.274   6.462  -0.432 -0.5443 -1.2010  1.0900
   14CHTO    N4 5830   4.245   6.527  -0.247 -0.3853  0.4225  0.0593
   14CHTO   H41 5831   4.237   6.434  -0.193 -0.4282  0.2433 -0.2503
   14CHTO   H42 5832   4.149   6.553  -0.290 -0.8540 -1.3235 -0.0184
   14CHTO   C22 5833   4.370   6.665  -0.417 -0.5673  0.7932  0.2834
   14CHTO   H50 5834   4.421   6.719  -0.338  1.7633 -0.4136 -0.3561
   14CHTO   O14 5835   4.455   6.655  -0.529 -0.4743 -0.1687 -0.0662
   14CHTO   C23 5836   4.583   6.604  -0.489 -0.5141 -0.0850  0.4969
   14CHTO   H51 5837   4.628   6.666  -0.411  0.7852  0.0003 -0.3022
   14CHTO   C34 5838   4.686   6.621  -0.600 -0.2126 -0.2043  0.3584
   14CHTO   O23 5839   4.720   6.755  -0.629  0.4221 -0.5760 -0.2695
   14CHTO   H38 5840   4.806   6.758  -0.668 -0.2391 -1.0003 -1.7751
   14CHTO   O16 5841   4.255   6.723  -0.476  0.5058  0.0191  0.1923
   14CHTO   C24 5842   4.247   6.890  -0.476  0.2565  0.2061 -0.0015
   14CHTO   H52 5843   4.157   6.922  -0.529  0.5089 -1.8669 -1.7939
   14CHTO   C26 5844   4.366   6.952  -0.553  0.1329  0.5533  0.5921
   14CHTO   H54 5845   4.459   6.921  -0.502 -0.3127 -1.7279  0.0373
   14CHTO   O20 5846   4.379   6.891  -0.685 -0.2970  0.0822 -0.0621
   14CHTO   H36 5847   4.457   6.932  -0.717  0.7630 -0.8432  1.3191
   14CHTO   C30 5848   4.350   7.104  -0.554  0.1293  0.3211  0.3718
   14CHTO   H58 5849   4.253   7.129  -0.600  1.5425 -1.1886 -3.6058
   14CHTO    N6 5850   4.456   7.176  -0.630 -0.0238  0.6498 -0.3221
   14CHTO   H45 5851   4.446   7.277  -0.593 -1.2617 -0.3700  2.2970
   14CHTO   H46 5852   4.442   7.169  -0.737  1.1470 -0.0461 -0.4426
   14CHTO   C33 5853   4.340   7.160  -0.403  0.6206 -0.0798  0.7118
   14CHTO   H61 5854   4.438   7.144  -0.355  0.4744 -0.4497  0.8846
   14CHTO   O18 5855   4.240   7.090  -0.331 -0.0337 -0.2340 -0.2295
   14CHTO   C28 5856   4.239   6.942  -0.324 -0.3667  0.6095  0.9236
   14CHTO   H56 5857   4.315   6.894  -0.264  1.0557 -1.9705 -2.7353
   14CHTO   C35 5858   4.098   6.889  -0.272 -0.7557 -0.5403 -0.5754
   14CHTO   O24 5859   4.062   6.928  -0.138  0.3618 -0.1119 -0.2449
   14CHTO   H39 5860   3.969   6.926  -0.124  0.6402 -1.1955  1.6029
   14CHTO    O9 5861   4.314   7.304  -0.400 -0.3046 -0.1605 -0.2317
   14CHTO   C13 5862   4.364   7.367  -0.252  0.5076  0.2509  0.4107
   14CHTO   H26 5863   4.338   7.283  -0.184  1.3580 -0.2092  0.1752
   14CHTO   C11 5864   4.270   7.490  -0.226  0.6891  0.2835  0.7606
   14CHTO   H24 5865   4.167   7.452  -0.216  0.4519  0.2434 -1.5500
   14CHTO    O8 5866   4.274   7.572  -0.346  0.2895 -0.1254  0.4592
   14CHTO    H3 5867   4.275   7.529  -0.430 -1.5070  2.4955 -0.9867
   14CHTO    C9 5868   4.321   7.566  -0.099  0.1565 -0.2347 -0.1907
   14CHTO   H22 5869   4.328   7.489  -0.021  0.4804 -0.6260 -0.6028
   14CHTO    N2 5870   4.225   7.669  -0.045  0.0645  0.2839 -0.0355
   14CHTO   H10 5871   4.148   7.684  -0.119  1.3400 -1.4404 -1.7450
   14CHTO   H11 5872   4.185   7.639   0.051  0.2704 -1.8877 -0.6141
   14CHTO    C7 5873   4.471   7.621  -0.123  0.4755 -0.2415 -0.4752
   14CHTO   H20 5874   4.508   7.673  -0.032  2.5201  0.7398 -1.8336
   14CHTO    O4 5875   4.558   7.508  -0.154  0.3262  0.5187 -0.1997
   14CHTO   C14 5876   4.517   7.405  -0.253 -0.2254  0.1227 -0.1104
   14CHTO   H27 5877   4.570   7.309  -0.238 -1.6575 -0.9222 -1.5797
   14CHTO   C18 5878   4.570   7.455  -0.391 -0.0008 -0.7962  0.2042
   14CHTO   O13 5879   4.701   7.501  -0.412  0.4989 -0.4818 -0.3532
   14CHTO    H7 5880   4.695   7.593  -0.392  0.4433 -0.4035 -0.7255
   14CHTO    O2 5881   4.496   7.744  -0.246 -0.6608 -0.2075 -0.3298
   14CHTO    C1 5882   4.584   7.852  -0.222  0.4979 -0.2726  0.2094
   14CHTO   H14 5883   4.602   7.889  -0.325  1.4143  0.0670  0.4822
   14CHTO    C2 5884   4.731   7.817  -0.158  0.6343 -0.3687 -0.3199
   14CHTO   H15 5885   4.712   7.763  -0.065 -1.6665  0.5673 -0.2041
   14CHTO    O6 5886   4.798   7.728  -0.252  0.1878 -0.2706 -0.1296
   14CHTO    H1 5887   4.822   7.766  -0.334 -2.1416 -0.8965 -1.1565
   14CHTO    C3 5888   4.811   7.953  -0.132 -0.2592 -0.0614  0.6750
   14CHTO   H16 5889   4.840   7.995  -0.229 -0.2865 -0.1527  0.6272
   14CHTO    N1 5890   4.938   7.923  -0.061 -0.5711  0.3803 -0.1601
   14CHTO    H8 5891   4.918   7.858   0.023  1.4817 -0.1120 -0.0200
   14CHTO    H9 5892   4.982   8.013  -0.020  1.4687 -0.7679  0.2738
   14CHTO    C4 5893   4.722   8.068  -0.065  0.6263 -0.3967  0.3556
   14CHTO   H17 5894   4.717   8.058   0.044  0.3484  1.5057  0.5379
   14CHTO    O1 5895   4.593   8.083  -0.124 -0.0235 -0.3119 -0.2397
   14CHTO    C5 5896   4.515   7.960  -0.125 -0.5729 -0.2755 -0.1919
   14CHTO   H18 5897   4.514   7.922  -0.023 -0.0624 -0.1623 -0.1464
   14CHTO   C16 5898   4.368   7.997  -0.174  0.3133 -0.0178 -0.2149
   14CHTO   O11 5899   4.312   8.112  -0.103 -0.0233 -0.1643 -0.2639
   14CHTO    H5 5900   4.297   8.084  -0.015  0.9188 -0.7775 -0.2922
   14CHTO    O3 5901   4.780   8.196  -0.090  0.0978 -0.0468 -0.6744
   14CHTO    C6 5902   4.741   8.310  -0.011  0.3635  0.2527  0.3564
   14CHTO   H19 5903   4.663   8.287   0.062 -0.3271 -0.8571 -0.7098
   14CHTO    C8 5904   4.864   8.363   0.072 -0.5399 -0.1960  0.1023
   14CHTO   H21 5905   4.943   8.400   0.006 -0.2797  1.1975  1.1561
   14CHTO    O7 5906   4.908   8.269   0.163  0.3023  0.3088  0.1710
   14CHTO    H2 5907   4.871   8.268   0.249 -0.4438  0.8915 -0.1339
   14CHTO   C12 5908   4.835   8.498   0.151  0.3701  0.6847  0.0069
   14CHTO   H25 5909   4.749   8.478   0.219  0.0199  0.7472 -0.4155
   14CHTO    N3 5910   4.944   8.558   0.227 -0.1021 -0.1318 -0.2278
   14CHTO   H12 5911   5.014   8.612   0.165  0.8406  0.5893  1.4243
   14CHTO   H13 5912   5.001   8.478   0.273  0.1207 -0.4962 -1.1131
   14CHTO   C15 5913   4.779   8.600   0.042 -0.0437  0.1551  0.4559
   14CHTO   H28 5914   4.853   8.623  -0.034 -0.4325 -0.8552 -0.2366
   14CHTO   O10 5915   4.722   8.727   0.099  0.3184  0.5346  0.2528
   14CHTO    H4 5916   4.685   8.781   0.032 -0.2454 -0.7580 -0.4974
   14CHTO    O5 5917   4.662   8.538  -0.021  0.5910 -0.0027  0.0918
   14CHTO   C10 5918   4.693   8.424  -0.106 -0.0443 -0.1172 -0.0756
   14CHTO   H23 5919   4.771   8.454  -0.176 -0.5530  2.2373  0.2965
   14CHTO   C17 5920   4.568   8.389  -0.191  0.2141 -0.1263  0.2866
   14CHTO   O12 5921   4.613   8.326  -0.306 -0.5810  0.5718  0.0316
   14CHTO    H6 5922   4.544   8.307  -0.366  1.4824 -1.4845 -1.7922
   15CHTO  H203 5923   5.289   5.339   2.292 -0.9377  0.2546 -0.1391
   15CHTO   O82 5924   5.261   5.363   2.206  0.3069  0.7226 -0.4303
   15CHTO  C123 5925   5.295   5.246   2.119  0.5013  0.3199  0.2152
   15CHTO  H227 5926   5.232   5.256   2.030  2.8336  2.6978 -1.2494
   15CHTO   O77 5927   5.436   5.271   2.073  0.3971  0.4127 -0.1426
   15CHTO  C118 5928   5.461   5.186   1.963 -0.2430  0.1295  0.2102
   15CHTO  H222 5929   5.384   5.194   1.884  1.8997  1.6241 -1.7840
   15CHTO  C125 5930   5.594   5.237   1.906  0.2990  0.3884 -0.3409
   15CHTO   O84 5931   5.567   5.333   1.809  0.5646 -0.7011  0.4318
   15CHTO  H205 5932   5.648   5.357   1.768 -0.0881 -1.1919 -1.1655
   15CHTO  C114 5933   5.468   5.036   2.011 -0.7512  0.3424  0.1610
   15CHTO  H218 5934   5.551   5.029   2.082 -1.7693 -1.1686  1.2221
   15CHTO  C116 5935   5.335   4.996   2.084  0.3618 -0.9828 -1.1175
   15CHTO  H220 5936   5.260   4.994   2.002 -1.6835  0.2851  0.6521
   15CHTO   O79 5937   5.335   4.870   2.149  0.3428 -0.2144  0.4249
   15CHTO  H201 5938   5.325   4.802   2.085  0.6344  0.6542 -0.5643
   15CHTO  C120 5939   5.291   5.108   2.186 -0.5760  0.1331 -0.1829
   15CHTO  H224 5940   5.363   5.094   2.270 -0.6134  1.1295  0.0190
   15CHTO   N21 5941   5.149   5.080   2.225 -0.4708 -0.1486  0.6526
   15CHTO  H211 5942   5.082   5.161   2.250 -2.2103 -0.7549 -1.8664
   15CHTO  H212 5943   5.100   5.020   2.151 -1.6254  0.4522  0.9160
   15CHTO   O75 5944   5.486   4.965   1.888  0.0304  0.3159  0.1341
   15CHTO  C112 5945   5.578   4.828   1.894  1.2780  0.9055 -0.3622
   15CHTO  H216 5946   5.577   4.781   1.993 -0.7830  0.1453 -0.7183
   15CHTO   O73 5947   5.713   4.861   1.851 -0.0034  0.4118  0.2719
   15CHTO  C113 5948   5.808   4.751   1.840 -0.2355 -0.3203  0.2744
   15CHTO  H217 5949   5.823   4.714   1.944 -0.1981 -0.1556  0.3277
   15CHTO  C124 5950   5.945   4.800   1.791 -0.0919 -0.4481  0.2429
   15CHTO   O83 5951   6.062   4.714   1.802  0.7297  0.0254 -0.3842
   15CHTO  H204 5952   6.058   4.669   1.884  1.9343 -1.4339 -1.1061
   15CHTO  C109 5953   5.756   4.632   1.755 -0.6446  0.0456 -0.4660
   15CHTO  H213 5954   5.773   4.657   1.649 -1.9991 -3.6691 -1.6339
   15CHTO  C110 5955   5.604   4.593   1.788  0.2535 -0.4075 -0.4292
   15CHTO  H214 5956   5.606   4.542   1.884  0.6211  0.0065 -0.2096
   15CHTO   O78 5957   5.553   4.493   1.696  0.2186 -0.7469  0.0577
   15CHTO  H200 5958   5.568   4.531   1.611  2.1391  0.7265  1.0004
   15CHTO  C111 5959   5.514   4.721   1.794  0.0532  0.1819 -0.1603
   15CHTO  H215 5960   5.509   4.756   1.690  1.9557  0.0728 -0.3075
   15CHTO   N19 5961   5.375   4.684   1.833 -0.6175 -0.4187 -0.1318
   15CHTO  H207 5962   5.386   4.645   1.933 -0.6487 -0.2513 -0.0645
   15CHTO  H208 5963   5.341   4.601   1.774  0.8248 -0.6531 -0.6700
   15CHTO   O74 5964   5.846   4.522   1.787  0.0675  0.5331 -0.2227
   15CHTO  C115 5965   5.878   4.426   1.644  0.4188 -0.6259  0.2050
   15CHTO  H219 5966   5.801   4.440   1.568 -0.7258  0.9308  1.6324
   15CHTO   O76 5967   6.018   4.465   1.575 -0.6066  0.0164  0.5686
   15CHTO  C122 5968   6.130   4.383   1.616 -0.3269  0.0317 -0.0758
   15CHTO  H226 5969   6.151   4.390   1.723  0.4142 -1.6401 -0.1021
   15CHTO  C126 5970   6.258   4.422   1.540  0.0937  0.1690  0.7183
   15CHTO   O85 5971   6.310   4.555   1.572  0.4272  0.6538  0.2322
   15CHTO  H206 5972   6.378   4.548   1.636  0.8021 -2.7620 -0.4832
   15CHTO  C121 5973   6.109   4.228   1.593 -0.4996  0.4882 -0.4809
   15CHTO  H225 5974   6.154   4.199   1.496 -2.4543 -2.8371 -0.4585
   15CHTO   O81 5975   6.166   4.149   1.701  0.1644 -0.6248 -0.0580
   15CHTO  H202 5976   6.253   4.170   1.729 -0.5055 -0.0018  1.6435
   15CHTO  C119 5977   5.949   4.195   1.579 -0.0630 -0.1583  0.2680
   15CHTO  H223 5978   5.912   4.226   1.482 -1.0013  1.4693  1.1163
   15CHTO  C117 5979   5.864   4.278   1.684 -0.1770 -0.2642 -0.2314
   15CHTO  H221 5980   5.897   4.278   1.788 -2.4525  0.8892  0.5120
   15CHTO   N20 5981   5.726   4.230   1.696  0.5040  0.3512 -0.4223
   15CHTO  H209 5982   5.657   4.310   1.720 -2.1265 -1.8689 -0.3703
   15CHTO  H210 5983   5.720   4.139   1.754  1.7775 -0.0059 -0.8399
   15CHTO   O80 5984   5.921   4.023   1.585  0.0006 -0.1377 -0.4420
   15CHTO  C103 5985   5.879   3.946   1.453  0.0760 -0.5116 -0.0593
   15CHTO  H190 5986   5.791   3.883   1.471  0.0147 -1.0177 -1.9393
   15CHTO  C101 5987   5.847   4.028   1.316 -0.3161  0.2807  0.2778
   15CHTO  H188 5988   5.932   4.092   1.292  0.2670 -0.8407 -0.6763
   15CHTO   O68 5989   5.723   4.122   1.337  0.4801 -0.8448 -0.1674
   15CHTO  H168 5990   5.746   4.189   1.398  2.4496 -0.6116 -1.1185
   15CHTO   C99 5991   5.824   3.916   1.192  0.2751 -0.0320  0.1210
   15CHTO  H186 5992   5.737   3.852   1.217  1.1005 -1.2097  0.0546
   15CHTO   N17 5993   5.787   3.968   1.058  0.1410 -0.0473 -0.1415
   15CHTO  H174 5994   5.857   4.032   1.005  0.7917 -1.6761 -1.3028
   15CHTO  H175 5995   5.763   3.884   0.994 -0.0797 -1.0055  1.1797
   15CHTO   C97 5996   5.947   3.820   1.183  0.9515  0.0639 -0.9701
   15CHTO  H184 5997   6.036   3.870   1.143  0.8601 -0.1775 -1.4798
   15CHTO   O64 5998   5.970   3.754   1.309 -0.3096 -0.2938 -0.2062
   15CHTO  C104 5999   6.006   3.851   1.418  0.2132  0.0817  0.3116
   15CHTO  H191 6000   6.090   3.916   1.392 -0.1099  0.2895 -0.2125
   15CHTO  C108 6001   6.052   3.770   1.532 -0.5851  0.4279 -0.1405
   15CHTO   O71 6002   6.126   3.835   1.641  0.1357 -0.0885 -0.1538
   15CHTO  H171 6003   6.140   3.771   1.708  0.0614 -0.6324 -0.6535
   15CHTO   O62 6004   5.917   3.705   1.101  0.1289  0.7519  0.1687
   15CHTO   C91 6005   6.027   3.633   1.035  0.0820 -0.1135 -0.4617
   15CHTO  H178 6006   6.078   3.707   0.974 -0.6507 -0.1481 -1.1157
   15CHTO   C92 6007   5.964   3.535   0.934 -0.1642  0.9711  0.2582
   15CHTO  H179 6008   5.884   3.585   0.878  0.4937 -0.2356 -1.8345
   15CHTO   O66 6009   6.070   3.511   0.833  0.4451 -0.2584 -0.3424
   15CHTO  H166 6010   6.051   3.438   0.778  1.7257  0.7746 -2.1682
   15CHTO   C93 6011   5.915   3.404   1.006 -0.1949 -0.0412 -0.6647
   15CHTO  H180 6012   5.892   3.336   0.923 -2.7022  0.4792 -0.4235
   15CHTO   N16 6013   5.789   3.413   1.078  0.2438 -0.1796 -0.1177
   15CHTO  H172 6014   5.724   3.493   1.047 -0.4046  0.1622  2.0328
   15CHTO  H173 6015   5.725   3.327   1.064  0.4260 -0.3578  0.1374
   15CHTO   C94 6016   6.024   3.345   1.094 -0.2687 -0.4273 -0.4526
   15CHTO  H181 6017   5.993   3.346   1.199 -1.4212  0.6691 -0.7900
   15CHTO   O61 6018   6.146   3.422   1.089  0.4578  0.0434 -0.5330
   15CHTO   C95 6019   6.128   3.557   1.128 -0.2158 -0.0241  0.5599
   15CHTO  H182 6020   6.099   3.556   1.233  1.5321 -1.9704  1.0465
   15CHTO  C106 6021   6.274   3.622   1.120  0.1371  0.4383 -0.2356
   15CHTO   O69 6022   6.273   3.750   1.184 -0.0750 -0.1382  0.2218
   15CHTO  H169 6023   6.193   3.788   1.152 -0.6633 -1.6333 -0.1235
   15CHTO   O63 6024   6.042   3.198   1.051  0.1235  0.3018 -0.3633
   15CHTO   C96 6025   6.116   3.095   1.152 -0.3799 -0.2795  0.7890
   15CHTO  H183 6026   6.125   3.127   1.256 -0.2928  1.1180  0.3634
   15CHTO   C98 6027   6.261   3.063   1.101 -0.1712 -0.0410 -0.2485
   15CHTO  H185 6028   6.257   3.053   0.991 -0.1360  1.3026 -0.3825
   15CHTO   O67 6029   6.343   3.173   1.136 -0.2717 -0.0258 -0.0604
   15CHTO  H167 6030   6.432   3.160   1.109  0.5305 -0.0394  2.4964
   15CHTO  C102 6031   6.331   2.928   1.163  0.6646 -0.3307  0.1745
   15CHTO  H189 6032   6.354   2.958   1.266 -0.1453  0.9451  0.0021
   15CHTO   N18 6033   6.460   2.887   1.096  0.6015  0.3402  0.0121
   15CHTO  H176 6034   6.479   2.927   0.998 -0.3389  1.6717  0.3573
   15CHTO  H177 6035   6.541   2.914   1.163  1.2381  1.0425 -1.0233
   15CHTO  C105 6036   6.225   2.816   1.173 -0.0863 -0.9248  0.0708
   15CHTO  H192 6037   6.197   2.783   1.073  3.4227 -0.7163 -1.0373
   15CHTO   O65 6038   6.090   2.858   1.226 -0.1709  0.1643 -0.6420
   15CHTO  C100 6039   6.029   2.970   1.161 -0.3873 -0.6279  0.0210
   15CHTO  H187 6040   6.019   2.941   1.055  0.9194 -1.2103  0.0452
   15CHTO  C107 6041   5.898   3.004   1.224  0.8960  0.2344  0.1479
   15CHTO   O70 6042   5.805   2.896   1.228 -0.0205 -0.3448 -0.4454
   15CHTO  H170 6043   5.833   2.817   1.187 -0.2072  0.6404 -2.5721
   15CHTO   O57 6044   6.295   2.710   1.277 -0.3707 -0.6088  0.4489
   15CHTO   C85 6045   6.216   2.594   1.320 -0.0412  0.5696 -0.4105
   15CHTO  H157 6046   6.118   2.624   1.362  0.3008  0.3702  0.5390
   15CHTO   C83 6047   6.291   2.539   1.449  0.6465 -0.3945 -0.2028
   15CHTO  H155 6048   6.281   2.616   1.525 -0.9944 -1.1999  0.4230
   15CHTO   O56 6049   6.433   2.514   1.429  0.3509  0.0865 -0.3888
   15CHTO  H135 6050   6.466   2.469   1.504 -1.7791 -1.9551 -0.5876
   15CHTO   C81 6051   6.206   2.417   1.503 -0.3967 -0.2778  0.2812
   15CHTO  H153 6052   6.105   2.454   1.524 -0.3633 -0.0767  0.0903
   15CHTO   N14 6053   6.269   2.365   1.630  0.3525 -0.2045  0.9245
   15CHTO  H141 6054   6.363   2.320   1.610  2.1116  3.4589  0.4638
   15CHTO  H142 6055   6.201   2.294   1.671 -0.5412 -0.4892 -0.9983
   15CHTO   C79 6056   6.195   2.306   1.388 -1.0595  0.7331 -0.0110
   15CHTO  H151 6057   6.127   2.231   1.428  0.8015  0.2800  2.4513
   15CHTO   O52 6058   6.133   2.356   1.269  0.0079  0.6053  0.2716
   15CHTO   C86 6059   6.203   2.471   1.217 -0.0257  0.1750  0.6704
   15CHTO  H158 6060   6.301   2.432   1.183 -0.7671 -0.3462 -0.9345
   15CHTO   C90 6061   6.134   2.504   1.085  0.2387  0.1350 -0.1110
   15CHTO   O60 6062   6.022   2.595   1.088  0.2913 -0.1977 -0.6299
   15CHTO  H138 6063   6.044   2.677   1.126  1.0921 -0.9986  0.6954
   15CHTO   O50 6064   6.325   2.249   1.366  0.0124 -0.7099 -0.0513
   15CHTO   C73 6065   6.339   2.125   1.305  0.4108  0.8334  0.1217
   15CHTO  H145 6066   6.265   2.117   1.225 -0.5092 -0.8998  1.1090
   15CHTO   C74 6067   6.317   2.018   1.415  0.3466  0.6839  0.0831
   15CHTO  H146 6068   6.222   2.032   1.469 -0.2763 -3.6284  0.2431
   15CHTO   O54 6069   6.310   1.894   1.339  0.1492 -0.5078  0.1275
   15CHTO  H133 6070   6.388   1.871   1.293  0.4547 -2.0390  1.3465
   15CHTO   C75 6071   6.443   2.018   1.510 -0.0760 -0.9960  0.8183
   15CHTO  H147 6072   6.447   2.119   1.555  1.2908 -0.4313 -0.5153
   15CHTO   N13 6073   6.426   1.916   1.607 -0.1569  0.0131  0.2364
   15CHTO  H139 6074   6.363   1.952   1.687  1.0882  0.7129  0.9317
   15CHTO  H140 6075   6.525   1.893   1.644 -0.2416 -0.6111  0.0743
   15CHTO   C76 6076   6.580   2.011   1.425  0.9430  0.0117 -0.5186
   15CHTO  H148 6077   6.584   1.920   1.365  1.5180  0.0099 -0.4834
   15CHTO   O49 6078   6.587   2.125   1.331  0.2807  0.0462  0.2684
   15CHTO   C77 6079   6.479   2.119   1.237 -0.0567  0.7686 -0.6813
   15CHTO  H149 6080   6.485   2.023   1.187 -2.8290  0.7114 -1.0017
   15CHTO   C88 6081   6.494   2.226   1.129  0.1575 -0.5822  0.5511
   15CHTO   O58 6082   6.436   2.198   1.002 -0.1416  0.1702 -0.5242
   15CHTO  H136 6083   6.480   2.245   0.933  0.4039 -1.7963 -1.5585
   15CHTO   O51 6084   6.717   2.044   1.520 -0.1318 -0.4812  0.0113
   15CHTO   C78 6085   6.839   2.006   1.451  0.2265  0.5460 -0.3579
   15CHTO  H150 6086   6.823   2.016   1.342  1.9307 -2.0944 -0.9036
   15CHTO   C80 6087   6.880   1.860   1.483 -0.0110 -0.3771  0.5694
   15CHTO  H152 6088   6.876   1.846   1.593  1.9671  3.3701  1.2186
   15CHTO   O55 6089   6.768   1.780   1.430  0.5543  0.2220  0.2733
   15CHTO  H134 6090   6.770   1.691   1.459  1.5093 -0.5108 -1.9091
   15CHTO   C84 6091   7.022   1.813   1.419 -0.2464 -0.5224  0.3852
   15CHTO  H156 6092   7.016   1.816   1.310  1.4288 -0.7446  0.2728
   15CHTO   N15 6093   7.050   1.672   1.462  0.1669 -0.1227  0.2802
   15CHTO  H143 6094   7.129   1.629   1.404 -1.1156  0.0459 -1.6391
   15CHTO  H144 6095   7.075   1.662   1.566  3.8121  0.7183 -0.4338
   15CHTO   C87 6096   7.123   1.918   1.467  0.1087  0.2121 -0.4163
   15CHTO  H159 6097   7.144   1.902   1.573  1.2606 -1.9510 -0.9363
   15CHTO   O53 6098   7.080   2.050   1.433  0.7895 -0.1202  0.0793
   15CHTO   C82 6099   6.957   2.090   1.502 -0.0239  0.3207  0.1270
   15CHTO  H154 6100   6.978   2.080   1.608  1.0919 -0.2833 -0.1504
   15CHTO   C89 6101   6.924   2.244   1.472 -0.8653 -0.6391  0.0971
   15CHTO   O59 6102   6.809   2.302   1.543 -0.0633  0.3223  0.0891
   15CHTO  H137 6103   6.769   2.377   1.503 -0.0403  0.5364  0.4572
   15CHTO   O45 6104   7.251   1.906   1.394 -0.2479  0.3495 -0.3014
   15CHTO   C67 6105   7.361   1.987   1.432 -0.3003  0.2376  0.0157
   15CHTO  H124 6106   7.334   2.084   1.472 -2.0035  0.2956 -1.2321
   15CHTO   C65 6107   7.441   1.906   1.540  0.0908 -0.3739 -0.0512
   15CHTO  H122 6108   7.422   1.799   1.531  2.6318 -0.8818  0.0865
   15CHTO   O44 6109   7.387   1.937   1.664 -0.7506 -0.1094 -0.8223
   15CHTO  H102 6110   7.453   1.937   1.730 -0.1867  2.0880 -1.3447
   15CHTO   C63 6111   7.603   1.914   1.524  0.7678  0.5449  0.1810
   15CHTO  H120 6112   7.637   1.845   1.447 -1.1042 -0.8399  0.5448
   15CHTO   N11 6113   7.687   1.856   1.635 -0.3471  0.1224  0.4888
   15CHTO  H108 6114   7.654   1.900   1.727 -1.8820  1.7900 -0.8073
   15CHTO  H109 6115   7.672   1.750   1.636 -0.3023  0.0748 -1.5887
   15CHTO   C61 6116   7.628   2.064   1.483  0.1206  0.8877  0.0643
   15CHTO  H118 6117   7.738   2.074   1.482  0.0034  2.3061 -0.4914
   15CHTO   O40 6118   7.576   2.083   1.350 -0.2678 -0.0010 -0.8574
   15CHTO   C68 6119   7.451   2.012   1.309 -0.5863 -0.6546  0.3641
   15CHTO  H125 6120   7.493   1.919   1.265 -3.4174 -1.4829 -0.6824
   15CHTO   C72 6121   7.377   2.079   1.197 -0.2670 -0.2744 -0.0230
   15CHTO   O48 6122   7.339   2.216   1.227  0.2550  0.0574 -0.4423
   15CHTO  H105 6123   7.258   2.213   1.275  0.4737 -0.4700 -0.0976
   15CHTO   O38 6124   7.576   2.155   1.572  0.6603 -0.2543 -0.3239
   15CHTO   C55 6125   7.578   2.298   1.549 -0.5075  0.0253 -0.2932
   15CHTO  H112 6126   7.540   2.315   1.447  0.4811 -0.1738 -0.7051
   15CHTO   C56 6127   7.719   2.367   1.575 -0.4771 -0.0908  0.7841
   15CHTO  H113 6128   7.742   2.346   1.680  0.5408 -0.1777  0.5448
   15CHTO   O42 6129   7.824   2.310   1.493  0.2582 -0.0528 -0.5198
   15CHTO  H100 6130   7.900   2.363   1.480  0.6452 -0.5525 -0.3206
   15CHTO   C57 6131   7.706   2.516   1.547  0.7710 -0.5419  0.1800
   15CHTO  H114 6132   7.693   2.529   1.440 -2.3107 -1.9185  0.3268
   15CHTO   N10 6133   7.825   2.606   1.579  0.1444  0.6307  0.8436
   15CHTO  H106 6134   7.917   2.556   1.551  0.1170  0.7545  0.5213
   15CHTO  H107 6135   7.828   2.696   1.520 -0.7682  1.2701  1.7690
   15CHTO   C58 6136   7.582   2.570   1.625  0.3030  0.7805  0.2606
   15CHTO  H115 6137   7.611   2.567   1.731 -2.2745 -0.1602  0.9823
   15CHTO   O37 6138   7.461   2.497   1.625  0.3493  0.2012 -0.0833
   15CHTO   C59 6139   7.471   2.359   1.649  0.0576  1.0056 -0.5878
   15CHTO  H116 6140   7.493   2.348   1.755 -1.0444 -1.0451 -0.5456
   15CHTO   C70 6141   7.329   2.296   1.630  0.4629  0.1667 -0.6276
   15CHTO   O46 6142   7.279   2.298   1.495 -0.6353 -0.2693 -0.1533
   15CHTO  H103 6143   7.279   2.213   1.455  0.2705 -0.4796  0.2857
   15CHTO   O39 6144   7.550   2.717   1.568  0.4122  1.2218  0.3554
   15CHTO   C60 6145   7.514   2.722   1.428 -0.5723 -0.4041 -0.3926
   15CHTO  H117 6146   7.593   2.683   1.364  1.5068  3.5215 -0.3968
   15CHTO   C62 6147   7.376   2.647   1.393 -0.4359  0.1418  0.3679
   15CHTO  H119 6148   7.399   2.540   1.407  1.1077  0.4070  0.0069
   15CHTO   O43 6149   7.273   2.687   1.485  0.1695 -0.0416 -0.3138
   15CHTO  H101 6150   7.188   2.671   1.448 -0.6374  1.4649  0.8425
   15CHTO   C66 6151   7.334   2.682   1.246  0.8422  0.9215 -0.3953
   15CHTO  H123 6152   7.423   2.665   1.185  2.5699  2.9509  1.4912
   15CHTO   N12 6153   7.227   2.584   1.205  0.0740 -0.3675 -0.0645
   15CHTO  H110 6154   7.123   2.610   1.209  0.0304 -0.3983 -0.8415
   15CHTO  H111 6155   7.259   2.536   1.114 -1.4386  0.0440 -0.8189
   15CHTO   C69 6156   7.305   2.829   1.224  0.4490  0.3656  0.1334
   15CHTO  H126 6157   7.230   2.860   1.300  0.4340 -1.7729  1.0306
   15CHTO   O41 6158   7.438   2.908   1.251  0.2304 -0.0702  0.1709
   15CHTO   C64 6159   7.504   2.875   1.398  0.1157 -0.1008  0.1447
   15CHTO  H121 6160   7.449   2.933   1.475  2.5278  0.1331  1.7383
   15CHTO   C71 6161   7.652   2.929   1.389 -0.0194 -0.8244  0.3808
   15CHTO   O47 6162   7.660   3.069   1.387 -0.3228  0.4056  0.5375
   15CHTO  H104 6163   7.612   3.099   1.312 -1.2811  1.0563  1.4144
   15CHTO   O34 6164   7.236   2.863   1.090 -0.5095 -0.7184  0.5694
   15CHTO   C49 6165   7.124   2.852   0.962 -0.0612  0.3819 -0.4861
   15CHTO   H91 6166   7.129   2.755   0.912 -0.2317  1.2683 -2.2918
   15CHTO   C47 6167   7.144   2.970   0.861 -0.4643 -0.6820  0.7722
   15CHTO   H89 6168   7.074   2.946   0.778  1.1065 -2.4200 -0.0955
   15CHTO   O33 6169   7.280   2.965   0.808  0.0588 -0.6743 -0.1364
   15CHTO   H70 6170   7.304   3.040   0.757 -0.1196  0.3890  1.2986
   15CHTO   C45 6171   7.107   3.102   0.941 -0.2018  0.3828 -0.0263
   15CHTO   H87 6172   7.164   3.095   1.035  0.9629 -0.9846 -0.8305
   15CHTO    N8 6173   7.149   3.223   0.868 -0.2152  1.0197  0.2282
   15CHTO   H75 6174   7.127   3.309   0.931 -0.5647 -0.1093  1.6645
   15CHTO   H76 6175   7.105   3.216   0.770  1.3418 -0.4929 -0.3769
   15CHTO   C43 6176   6.959   3.108   0.980  0.1442  0.9605 -0.4850
   15CHTO   H85 6177   6.935   3.198   1.036 -0.7713 -0.7952  2.0725
   15CHTO   O29 6178   6.927   2.994   1.055 -0.0684 -0.3791 -0.1632
   15CHTO   C50 6179   6.974   2.860   1.015 -0.7651 -0.2547 -0.0136
   15CHTO   H92 6180   6.962   2.795   1.103  0.2866 -0.7758 -0.2554
   15CHTO   C54 6181   6.848   2.809   0.930 -0.0338  0.0643  0.4538
   15CHTO   O36 6182   6.859   2.671   0.895 -0.1802  0.4471 -0.0188
   15CHTO   H72 6183   6.873   2.621   0.973  0.9659  0.4656 -0.2169
   15CHTO   O27 6184   6.873   3.109   0.867  0.4742 -0.1666  0.1635
   15CHTO   C37 6185   6.764   3.165   0.791 -0.5123  0.1739  0.1058
   15CHTO   H79 6186   6.712   3.090   0.730  1.9084 -1.3825 -0.1361
   15CHTO   C38 6187   6.659   3.240   0.879 -0.0425  0.1270  0.1219
   15CHTO   H80 6188   6.718   3.317   0.931 -0.0165 -0.0837  0.4062
   15CHTO   O31 6189   6.601   3.142   0.973 -0.5065 -0.0773  0.4430
   15CHTO   H68 6190   6.613   3.171   1.062 -2.3741  1.1662  0.3004
   15CHTO   C39 6191   6.548   3.306   0.793  0.4356 -0.0634  0.2270
   15CHTO   H81 6192   6.483   3.225   0.760 -0.9664  1.0720  0.1566
   15CHTO    N7 6193   6.453   3.396   0.874  0.1782  0.0673  0.6658
   15CHTO   H73 6194   6.501   3.416   0.969  2.3033  1.6697 -0.6982
   15CHTO   H74 6195   6.358   3.347   0.889  0.3506  0.1125  1.9822
   15CHTO   C40 6196   6.605   3.394   0.669  0.3859  0.4948  0.0707
   15CHTO   H82 6197   6.630   3.497   0.695  2.3018  0.0167  0.1914
   15CHTO   O26 6198   6.712   3.324   0.604 -0.1479 -1.0548  0.0172
   15CHTO   C41 6199   6.818   3.276   0.692  0.7654 -0.2624 -0.1498
   15CHTO   H83 6200   6.867   3.355   0.750 -1.0244  0.1767  0.8010
   15CHTO   C52 6201   6.924   3.222   0.594  0.0995 -1.0312  0.4265
   15CHTO   O35 6202   6.872   3.070   0.524  0.8657 -0.2662  0.2867
   15CHTO   H71 6203   6.779   3.072   0.527  0.8446 -0.6156 -0.2108
   15CHTO   O28 6204   6.502   3.408   0.569  0.3040 -0.1503  0.2126
   15CHTO   C42 6205   6.504   3.520   0.475 -0.5694 -0.5481 -0.7152
   15CHTO   H84 6206   6.470   3.475   0.382  3.1748 -0.5926 -2.1490
   15CHTO   C44 6207   6.643   3.582   0.433 -0.6976  0.8240 -0.1963
   15CHTO   H86 6208   6.693   3.621   0.522 -0.1731  0.0739 -0.1619
   15CHTO   O32 6209   6.720   3.471   0.386 -0.1726 -0.1659 -0.6331
   15CHTO   H69 6210   6.752   3.423   0.460  1.5288  2.6623  0.5531
   15CHTO   C48 6211   6.623   3.698   0.326 -0.2551 -0.2901  0.3759
   15CHTO   H90 6212   6.580   3.654   0.237  1.7343  1.8398 -1.6989
   15CHTO    N9 6213   6.758   3.764   0.294  0.4795  0.3179  0.4535
   15CHTO   H77 6214   6.798   3.795   0.389  0.0492 -1.3594  1.1872
   15CHTO   H78 6215   6.746   3.850   0.229  2.1016 -0.1434 -0.4845
   15CHTO   C51 6216   6.506   3.793   0.386  0.4202  0.0681 -0.1348
   15CHTO   H93 6217   6.543   3.825   0.483 -0.1801 -0.9443  0.4265
   15CHTO   O30 6218   6.389   3.717   0.397  0.3880 -0.0853 -0.5270
   15CHTO   C46 6219   6.398   3.627   0.512  0.5742 -0.1183 -0.2028
   15CHTO   H88 6220   6.439   3.684   0.596 -1.1413 -0.3677  0.8219
   15CHTO   C53 6221   6.263   3.569   0.540 -0.2585 -0.7109  0.2789
   15CHTO   O72 6222   6.149   3.648   0.501 -0.3466  0.2473  0.2938
   15CHTO  H199 6223   6.079   3.588   0.482 -1.9376  1.3027  2.6275
   15CHTO   O22 6224   6.483   3.909   0.302 -0.4828 -0.3673 -0.0078
   15CHTO   C31 6225   6.395   4.027   0.321  0.2548  0.8643 -0.0066
   15CHTO   H59 6226   6.393   4.076   0.221 -1.3767 -1.2101 -1.0289
   15CHTO   C29 6227   6.250   4.006   0.358 -0.3595  0.2332 -0.8015
   15CHTO   H57 6228   6.260   3.975   0.463 -0.2942  2.9797  0.0613
   15CHTO   O21 6229   6.184   3.902   0.275  0.6533  0.3155 -0.3600
   15CHTO   H37 6230   6.098   3.884   0.307  0.2186 -0.7341 -2.0482
   15CHTO   C27 6231   6.171   4.141   0.353  0.4523 -0.1465  0.0663
   15CHTO   H55 6232   6.188   4.193   0.257 -0.0468 -0.6891 -0.3254
   15CHTO    N5 6233   6.025   4.142   0.378  0.0092 -0.2547 -0.2657
   15CHTO   H43 6234   5.983   4.053   0.332 -1.1088 -0.2681  0.7788
   15CHTO   H44 6235   5.989   4.242   0.363 -3.2810 -1.4719 -0.8624
   15CHTO   C25 6236   6.243   4.229   0.463 -0.4337 -0.4001  0.3156
   15CHTO   H53 6237   6.249   4.181   0.562  3.0041  0.8675  0.7725
   15CHTO   O17 6238   6.384   4.251   0.434  0.1295 -0.0838 -0.1600
   15CHTO   C32 6239   6.462   4.130   0.419  0.4739 -1.1167 -0.1000
   15CHTO   H60 6240   6.469   4.089   0.520 -0.3741 -0.3298  0.2836
   15CHTO   C36 6241   6.605   4.173   0.380  0.1698 -0.1063 -0.3077
   15CHTO   O25 6242   6.660   4.260   0.488 -0.3165  0.0168  0.1455
   15CHTO   H40 6243   6.626   4.347   0.477 -0.0677  0.0758 -0.1633
   15CHTO   O15 6244   6.178   4.380   0.467 -0.2755  0.1750  0.1304
   15CHTO   C19 6245   6.191   4.507   0.541  0.5804 -0.5099 -0.0476
   15CHTO   H47 6246   6.263   4.565   0.481  1.4859 -1.8715 -0.2955
   15CHTO   C20 6247   6.054   4.581   0.555 -0.1725  0.1532 -0.1932
   15CHTO   H48 6248   5.981   4.523   0.614 -0.1666 -0.1813 -0.5140
   15CHTO   O19 6249   5.993   4.596   0.429 -0.2373  0.0957  0.0707
   15CHTO   H35 6250   6.029   4.535   0.367 -0.1789 -0.4445  0.6272
   15CHTO   C21 6251   6.059   4.726   0.624  0.8796  0.2706  0.1270
   15CHTO   H49 6252   6.123   4.794   0.569  1.6881 -1.2276 -0.8151
   15CHTO    N4 6253   5.922   4.788   0.639 -0.2324  0.3005  0.0519
   15CHTO   H41 6254   5.872   4.800   0.544 -1.7913 -1.0589  0.6866
   15CHTO   H42 6255   5.863   4.723   0.701  2.0358 -1.6839  0.2181
   15CHTO   C22 6256   6.132   4.711   0.762 -0.7477  0.3760 -0.0685
   15CHTO   H50 6257   6.058   4.672   0.832 -2.0097 -0.1303 -1.6423
   15CHTO   O14 6258   6.250   4.628   0.752  0.4793  0.1598  0.3108
   15CHTO   C23 6259   6.239   4.500   0.691 -0.5031  0.2978  0.6703
   15CHTO   H51 6260   6.174   4.432   0.749  0.3874 -0.9591  0.2193
   15CHTO   C34 6261   6.379   4.434   0.693 -0.2936 -0.4428 -0.5512
   15CHTO   O23 6262   6.422   4.404   0.828  0.0775  0.3322  0.7267
   15CHTO   H38 6263   6.427   4.481   0.881  2.5904 -0.0198  1.0790
   15CHTO   O16 6264   6.177   4.839   0.803 -0.5468  0.1885  0.2686
   15CHTO   C24 6265   6.163   4.868   0.971 -0.3337 -0.3410  0.1060
   15CHTO   H52 6266   6.108   4.792   1.026 -2.5652  1.3108  0.2336
   15CHTO   C26 6267   6.097   5.006   0.999  0.5091 -0.2042  0.5463
   15CHTO   H54 6268   6.143   5.079   0.929 -1.0814  0.5634  0.2805
   15CHTO   O20 6269   5.963   5.000   0.955  0.0729  0.0147  0.8731
   15CHTO   H36 6270   5.955   4.947   0.878 -1.9673  1.4675  0.0277
   15CHTO   C30 6271   6.124   5.061   1.143  0.1022 -0.3398 -0.7298
   15CHTO   H58 6272   6.064   5.004   1.216 -1.3948 -1.9669 -3.1513
   15CHTO    N6 6273   6.082   5.206   1.153  0.4300  0.0628 -0.1753
   15CHTO   H45 6274   6.138   5.266   1.082 -0.4820  1.6675  0.4569
   15CHTO   H46 6275   6.090   5.247   1.252  0.0908  1.8669 -0.8878
   15CHTO   C33 6276   6.280   5.044   1.181  0.5009 -0.6561 -0.0554
   15CHTO   H61 6277   6.337   5.104   1.109 -1.7201  1.5061 -0.0811
   15CHTO   O18 6278   6.313   4.907   1.165 -0.1197 -0.6720  0.7887
   15CHTO   C28 6279   6.315   4.865   1.028 -0.7026 -0.0529  0.6220
   15CHTO   H56 6280   6.374   4.928   0.962 -1.7509 -1.2271 -1.4877
   15CHTO   C35 6281   6.364   4.721   1.022  0.2110 -0.3033 -1.1129
   15CHTO   O24 6282   6.498   4.716   1.067 -0.2470  0.3388 -0.0499
   15CHTO   H39 6283   6.554   4.748   1.000 -1.8389  2.0123 -0.6135
   15CHTO    O9 6284   6.312   5.092   1.315 -0.1601  0.2505 -0.1859
   15CHTO   C13 6285   6.478   5.154   1.328 -0.6030  0.2612 -0.6490
   15CHTO   H26 6286   6.457   5.263   1.343 -0.1498  0.3964 -0.9976
   15CHTO   C11 6287   6.577   5.128   1.214 -0.1639 -0.7299  0.6351
   15CHTO   H24 6288   6.547   5.183   1.123 -0.2019  0.9551  1.6546
   15CHTO    O8 6289   6.592   4.989   1.175 -0.7786 -0.2357  0.6110
   15CHTO    H3 6290   6.614   4.934   1.248 -0.1072 -0.1211  0.4976
   15CHTO    C9 6291   6.716   5.188   1.252 -0.0794  0.6057 -0.1504
   15CHTO   H22 6292   6.692   5.291   1.285 -0.7595  0.8362 -1.3418
   15CHTO    N2 6293   6.810   5.201   1.142 -0.4246  0.6443 -0.4299
   15CHTO   H10 6294   6.909   5.217   1.184 -0.0647 -0.4455 -0.8468
   15CHTO   H11 6295   6.774   5.270   1.068 -3.5946  0.2896  0.7052
   15CHTO    C7 6296   6.773   5.101   1.376 -0.1173  0.0929 -0.6927
   15CHTO   H20 6297   6.819   5.177   1.442 -3.5211  0.9858  0.7463
   15CHTO    O4 6298   6.664   5.029   1.441  0.5249 -0.4279  0.4550
   15CHTO   C14 6299   6.543   5.102   1.467  0.0358  0.4710 -0.2193
   15CHTO   H27 6300   6.567   5.189   1.532 -0.8606  0.5616  0.0015
   15CHTO   C18 6301   6.447   5.014   1.549  0.8106  0.1898 -0.6094
   15CHTO   O13 6302   6.486   4.996   1.680  0.0610 -0.3896  0.0416
   15CHTO    H7 6303   6.525   5.077   1.706 -0.5940 -0.2239  0.5311
   15CHTO    O2 6304   6.866   4.982   1.334 -0.3314  0.1236  0.2649
   15CHTO    C1 6305   6.964   4.947   1.432 -0.5993 -0.7776 -0.2054
   15CHTO   H14 6306   6.940   4.985   1.534  2.3540 -0.8786  0.5716
   15CHTO    C2 6307   7.113   5.005   1.400  0.1835  1.1711 -0.4969
   15CHTO   H15 6308   7.143   4.968   1.301  0.3863 -0.6456  0.2080
   15CHTO    O6 6309   7.107   5.150   1.411 -0.1613 -0.2688 -0.2100
   15CHTO    H1 6310   7.064   5.172   1.492  2.0914 -2.4148  1.6717
   15CHTO    C3 6311   7.213   4.946   1.518 -0.4804 -0.1747 -0.4662
   15CHTO   H16 6312   7.197   4.992   1.617 -0.3170  0.0233 -0.5296
   15CHTO    N1 6313   7.356   4.978   1.485 -0.3526  0.3172 -0.2518
   15CHTO    H8 6314   7.400   4.881   1.466 -1.1254  0.3289 -2.2097
   15CHTO    H9 6315   7.401   5.030   1.568  0.5943  0.5385 -0.8861
   15CHTO    C4 6316   7.196   4.793   1.532  0.3528  0.1545 -0.5103
   15CHTO   H17 6317   7.230   4.743   1.441 -0.1413 -1.3970  0.1390
   15CHTO    O1 6318   7.056   4.776   1.562  0.2718  0.1469 -0.4177
   15CHTO    C5 6319   6.968   4.790   1.445 -0.3380 -0.3876 -0.4592
   15CHTO   H18 6320   7.007   4.732   1.362  2.0245  1.6673 -0.8359
   15CHTO   C16 6321   6.826   4.744   1.489 -0.5533 -0.1371  0.4773
   15CHTO   O11 6322   6.751   4.707   1.374 -0.1159 -0.5608  0.7587
   15CHTO    H5 6323   6.661   4.694   1.399 -0.3215 -0.4280  0.0899
   15CHTO    O3 6324   7.252   4.733   1.652 -0.4043  0.4663  0.1125
   15CHTO    C6 6325   7.286   4.588   1.659 -0.4604 -0.0719 -0.2217
   15CHTO   H19 6326   7.254   4.544   1.564 -0.9008 -1.0685  0.3803
   15CHTO    C8 6327   7.440   4.570   1.667  0.2062 -1.0783  0.4422
   15CHTO   H21 6328   7.475   4.612   1.760  1.8397 -1.8709  0.2011
   15CHTO    O7 6329   7.492   4.637   1.548  0.1654 -0.2261 -0.1520
   15CHTO    H2 6330   7.577   4.675   1.561  0.0240  0.0682 -0.0843
   15CHTO   C12 6331   7.470   4.412   1.672 -0.2041 -0.2725 -0.0198
   15CHTO   H25 6332   7.449   4.377   1.569  1.4877 -1.1983 -0.0565
   15CHTO    N3 6333   7.617   4.391   1.700  0.7531  0.3301  0.0919
   15CHTO   H12 6334   7.637   4.434   1.797 -0.3973  0.9620  0.0594
   15CHTO   H13 6335   7.643   4.286   1.705  2.7859  0.8310  0.4563
   15CHTO   C15 6336   7.376   4.329   1.775 -0.2755  0.0558  0.1247
   15CHTO   H28 6337   7.405   4.336   1.880  1.2189  1.4274 -0.3496
   15CHTO   O10 6338   7.356   4.187   1.736  0.0592 -0.0051  0.5640
   15CHTO    H4 6339   7.324   4.132   1.805 -1.3691 -2.1674 -1.7563
   15CHTO    O5 6340   7.242   4.375   1.762  0.1405  0.1051  0.0825
   15CHTO   C10 6341   7.214   4.512   1.773 -0.4053  0.0293  0.1702
   15CHTO   H23 6342   7.247   4.546   1.871  1.4955 -2.0999  0.3148
   15CHTO   C17 6343   7.062   4.539   1.774 -0.2826 -0.3830  0.2293
   15CHTO   O12 6344   7.020   4.482   1.654 -0.1705 -0.5910 -0.0541
   15CHTO    H6 6345   6.994   4.392   1.663 -0.1585 -0.5201  0.7443
   16CHTO  H203 6346   5.185   4.831   0.806 -1.5168 -2.5305  2.8627
   16CHTO   O82 6347   5.234   4.876   0.872  0.6450  0.5785 -0.6529
   16CHTO  C123 6348   5.326   4.793   0.947 -0.1546 -0.1980 -0.5988
   16CHTO  H227 6349   5.274   4.750   1.034 -0.1581  0.3620 -0.3210
   16CHTO   O77 6350   5.373   4.688   0.854  0.1750 -0.0151  0.0628
   16CHTO  C118 6351   5.443   4.587   0.931  0.3235 -0.3626  0.6020
   16CHTO  H222 6352   5.387   4.545   1.015  1.6493 -2.7218  0.3612
   16CHTO  C125 6353   5.481   4.464   0.828 -0.0383  0.3060 -0.1839
   16CHTO   O84 6354   5.368   4.399   0.778  0.2806 -0.4646  0.6014
   16CHTO  H205 6355   5.334   4.441   0.700  0.7634 -1.3217 -0.0762
   16CHTO  C114 6356   5.578   4.639   0.983  0.0016 -0.2568 -0.5259
   16CHTO  H218 6357   5.640   4.658   0.896  2.2414 -0.9528  0.8767
   16CHTO  C116 6358   5.560   4.777   1.061  0.0408  0.1567 -0.0457
   16CHTO  H220 6359   5.526   4.753   1.164 -0.8267 -1.6806 -0.7433
   16CHTO   O79 6360   5.698   4.826   1.066 -0.0246 -0.3435 -0.4248
   16CHTO  H201 6361   5.753   4.778   1.124 -1.6193  0.4495  1.8302
   16CHTO  C120 6362   5.462   4.877   0.987  0.7654  0.6615  0.1387
   16CHTO  H224 6363   5.513   4.926   0.902 -0.1828  0.8238 -0.3516
   16CHTO   N21 6364   5.428   4.998   1.073 -0.0558 -0.1959  0.1750
   16CHTO  H211 6365   5.349   4.976   1.142 -0.3276 -0.3545 -0.1851
   16CHTO  H212 6366   5.509   5.014   1.143 -1.3787 -0.1345  1.7252
   16CHTO   O75 6367   5.638   4.541   1.070 -0.1123  0.0528 -0.0889
   16CHTO  C112 6368   5.786   4.525   1.038 -0.2532  0.1934 -0.3217
   16CHTO  H216 6369   5.832   4.620   1.005  0.1398  0.0947 -0.0633
   16CHTO   O73 6370   5.801   4.426   0.938 -0.0693 -0.2502 -0.3813
   16CHTO  C113 6371   5.935   4.386   0.910 -0.3452 -0.2719 -1.0335
   16CHTO  H217 6372   5.992   4.478   0.888 -0.9529 -0.5123 -3.7759
   16CHTO  C124 6373   5.924   4.287   0.793 -0.1714  0.3751 -0.4661
   16CHTO   O83 6374   5.847   4.330   0.679  0.0911  0.7509  0.0462
   16CHTO  H204 6375   5.821   4.249   0.638 -1.7759  1.3432  0.0206
   16CHTO  C109 6376   6.006   4.323   1.038 -0.3803  0.5621 -0.0143
   16CHTO  H213 6377   5.947   4.235   1.068 -1.9220  1.5592 -0.0733
   16CHTO  C110 6378   6.007   4.438   1.150 -0.1344  0.0292  0.1175
   16CHTO  H214 6379   6.065   4.524   1.116 -0.5290  0.0276 -0.5705
   16CHTO   O78 6380   6.068   4.387   1.268 -0.0661 -0.3949 -0.5436
   16CHTO  H200 6381   6.153   4.347   1.263  0.5408  0.4023  2.2114
   16CHTO  C111 6382   5.857   4.487   1.172 -0.3773  0.4318 -0.2162
   16CHTO  H215 6383   5.799   4.403   1.213 -0.3142  0.6185  0.2619
   16CHTO   N19 6384   5.847   4.600   1.275  0.4092 -0.3573  0.0109
   16CHTO  H207 6385   5.919   4.674   1.244  0.1990 -0.5089 -0.8473
   16CHTO  H208 6386   5.752   4.650   1.265  0.5633 -0.5575 -2.8417
   16CHTO   O74 6387   6.145   4.292   1.005 -0.1866  0.3192 -0.2050
   16CHTO  C115 6388   6.174   4.141   1.051  0.6854  0.0228  0.0343
   16CHTO  H219 6389   6.110   4.115   1.135  1.0082 -0.8069  0.0190
   16CHTO   O76 6390   6.130   4.036   0.943  0.0082  0.1643  0.0460
   16CHTO  C122 6391   6.211   4.030   0.821  0.5354 -0.6917 -0.2519
   16CHTO  H226 6392   6.178   4.117   0.766 -1.2518 -1.8695 -1.1108
   16CHTO  C126 6393   6.157   3.901   0.741  0.1886 -0.1921 -0.2874
   16CHTO   O85 6394   6.021   3.914   0.691  0.5539  0.0827 -0.3747
   16CHTO  H206 6395   5.950   3.934   0.750 -0.8733 -1.9016 -1.3687
   16CHTO  C121 6396   6.369   4.015   0.851 -0.2129  0.4583  0.2059
   16CHTO  H225 6397   6.389   3.915   0.808  0.5758  0.3420  0.8144
   16CHTO   O81 6398   6.443   4.125   0.798  0.2148 -0.2819 -0.5418
   16CHTO  H202 6399   6.408   4.134   0.712  2.0831 -0.1108 -1.3163
   16CHTO  C119 6400   6.402   4.017   1.004 -0.1412  0.7468 -0.4532
   16CHTO  H223 6401   6.363   3.923   1.043 -1.4803 -0.0066 -3.4363
   16CHTO  C117 6402   6.327   4.130   1.088 -0.2821 -0.5751  0.1188
   16CHTO  H221 6403   6.364   4.232   1.079 -2.1746  0.0169 -1.5121
   16CHTO   N20 6404   6.341   4.099   1.232 -0.2554  0.4410  0.6946
   16CHTO  H209 6405   6.305   3.999   1.251 -0.7926  0.4651 -0.1251
   16CHTO  H210 6406   6.445   4.105   1.261  0.2560  1.0367 -1.1586
   16CHTO   O80 6407   6.568   3.993   1.031 -0.1413 -0.3630  0.6738
   16CHTO  C103 6408   6.631   3.847   1.018 -0.1825 -0.1836 -0.3025
   16CHTO  H190 6409   6.544   3.782   1.008  0.6485 -1.3491 -0.0313
   16CHTO  C101 6410   6.735   3.821   0.899  0.1360  0.1631  0.0476
   16CHTO  H188 6411   6.817   3.893   0.901 -1.2635  1.8166 -0.6520
   16CHTO   O68 6412   6.660   3.836   0.757 -0.2670  0.2462  0.1988
   16CHTO  H168 6413   6.618   3.920   0.756 -1.8810 -0.5208  0.8095
   16CHTO   C99 6414   6.790   3.671   0.917 -0.0956 -0.5390 -0.2662
   16CHTO  H186 6415   6.704   3.604   0.896  0.1946 -0.7688 -0.7311
   16CHTO   N17 6416   6.888   3.626   0.811  0.2248 -0.0196 -0.5598
   16CHTO  H174 6417   6.980   3.676   0.839  0.6516 -2.4346  2.7066
   16CHTO  H175 6418   6.854   3.661   0.715 -1.4335 -4.2424 -1.6390
   16CHTO   C97 6419   6.835   3.638   1.064  0.4706  0.1313  0.3900
   16CHTO  H184 6420   6.928   3.693   1.084  0.8988 -0.9463  1.4259
   16CHTO   O64 6421   6.734   3.679   1.156 -0.3243  0.1816  0.1836
   16CHTO  C104 6422   6.696   3.814   1.158 -0.5232 -0.4160 -0.0299
   16CHTO  H191 6423   6.784   3.876   1.172  0.5162 -1.7002 -0.7611
   16CHTO  C108 6424   6.604   3.845   1.274  0.4661 -0.1950 -0.3458
   16CHTO   O71 6425   6.671   3.831   1.399 -0.0747  0.0318  0.1251
   16CHTO  H171 6426   6.605   3.848   1.464 -0.8447  1.1147 -0.9080
   16CHTO   O62 6427   6.861   3.496   1.089 -0.3560 -0.1885 -0.2956
   16CHTO   C91 6428   6.892   3.448   1.218 -0.3705 -0.0970 -0.0561
   16CHTO  H178 6429   6.898   3.531   1.288  1.9054 -0.5218  0.2861
   16CHTO   C92 6430   7.046   3.388   1.217 -0.0122  0.2964  0.0571
   16CHTO  H179 6431   7.060   3.327   1.126  2.8890 -0.6103  1.0508
   16CHTO   O66 6432   7.136   3.501   1.203 -0.0815 -0.1961 -0.1701
   16CHTO  H166 6433   7.112   3.556   1.131 -0.7668 -0.7782 -0.3961
   16CHTO   C93 6434   7.085   3.294   1.344  0.7254 -0.4232  0.3784
   16CHTO  H180 6435   7.119   3.359   1.426 -1.1078  0.1109  0.7428
   16CHTO   N16 6436   7.206   3.209   1.307  0.0727 -0.2823  0.2676
   16CHTO  H172 6437   7.290   3.276   1.310 -1.4177  1.6348 -0.1244
   16CHTO  H173 6438   7.219   3.114   1.357  0.2816  0.8048  2.3657
   16CHTO   C94 6439   6.965   3.206   1.394  0.1143  0.4031 -0.7286
   16CHTO  H181 6440   6.941   3.122   1.328 -1.3115  1.0250 -0.9962
   16CHTO   O61 6441   6.840   3.278   1.392  0.2117  0.4523  0.5523
   16CHTO   C95 6442   6.799   3.331   1.266  0.7910 -0.4296 -0.1642
   16CHTO  H182 6443   6.802   3.260   1.183  0.0745 -0.5683 -0.0791
   16CHTO  C106 6444   6.648   3.380   1.281 -0.1381 -0.6141 -0.8624
   16CHTO   O69 6445   6.617   3.457   1.398 -0.2411 -0.4407  0.3464
   16CHTO  H169 6446   6.623   3.405   1.476  2.2299 -0.1668  0.3660
   16CHTO   O63 6447   7.000   3.152   1.542  0.0310 -0.3404  0.1712
   16CHTO   C96 6448   6.864   3.052   1.606 -0.2186 -0.1505 -0.1560
   16CHTO  H183 6449   6.916   2.979   1.668 -1.3645 -1.1660 -0.3938
   16CHTO   C98 6450   6.784   2.966   1.507  0.1716  0.6626 -0.0957
   16CHTO  H185 6451   6.762   3.021   1.414 -1.8688 -0.1680 -0.1365
   16CHTO   O67 6452   6.860   2.848   1.463  0.1291  0.4661 -0.0176
   16CHTO  H167 6453   6.809   2.803   1.399  0.1667 -1.1848  1.0706
   16CHTO  C102 6454   6.639   2.926   1.572 -0.0172  1.3802 -0.0630
   16CHTO  H189 6455   6.670   2.854   1.649  0.8160 -0.2530 -1.8806
   16CHTO   N18 6456   6.546   2.847   1.484  0.0063 -0.1692  0.3742
   16CHTO  H176 6457   6.515   2.898   1.394  1.5065  0.2889  0.1011
   16CHTO  H177 6458   6.605   2.770   1.436 -1.4646 -0.7021 -0.6301
   16CHTO  C105 6459   6.567   3.048   1.630  0.7428 -0.0919 -0.7480
   16CHTO  H192 6460   6.575   3.130   1.559 -1.8407  1.1086  0.2682
   16CHTO   O65 6461   6.650   3.096   1.741  0.0929  0.3994 -0.1474
   16CHTO  C100 6462   6.774   3.150   1.692 -0.1248 -0.1134  0.0184
   16CHTO  H187 6463   6.752   3.231   1.620 -1.0228 -1.7808 -1.6194
   16CHTO  C107 6464   6.855   3.207   1.813 -0.3313 -0.7299 -0.1470
   16CHTO   O70 6465   6.776   3.320   1.873 -0.4374 -0.4012 -0.1564
   16CHTO  H170 6466   6.834   3.385   1.908 -0.5509  0.2175 -1.0891
   16CHTO   O57 6467   6.419   3.025   1.667  0.2903  0.1702  0.1423
   16CHTO   C85 6468   6.327   3.098   1.580  0.0785  0.0270  0.0893
   16CHTO  H157 6469   6.371   3.098   1.478  2.0910 -2.5733  0.8916
   16CHTO   C83 6470   6.333   3.250   1.620  0.1050  0.0269  0.1763
   16CHTO  H155 6471   6.437   3.279   1.602 -0.2861  0.4655 -1.4624
   16CHTO   O56 6472   6.310   3.273   1.760  0.3757  0.2902 -0.2317
   16CHTO  H135 6473   6.323   3.196   1.812 -1.8722  0.2135  0.2373
   16CHTO   C81 6474   6.246   3.336   1.524 -0.0198 -0.2119  0.2759
   16CHTO  H153 6475   6.289   3.324   1.424  1.2652  1.1840  0.6559
   16CHTO   N14 6476   6.268   3.483   1.556 -0.4064  0.0972  0.1459
   16CHTO  H141 6477   6.224   3.556   1.491 -0.6609  1.5320  1.8619
   16CHTO  H142 6478   6.248   3.504   1.659 -0.5894 -0.8544  0.3033
   16CHTO   C79 6479   6.101   3.272   1.511  0.5581 -0.5292  0.2172
   16CHTO  H151 6480   6.058   3.310   1.418 -0.1837 -0.9252  0.3980
   16CHTO   O52 6481   6.089   3.123   1.493  0.5048 -0.0837 -0.4013
   16CHTO   C86 6482   6.179   3.046   1.587 -0.4541  0.4596 -0.9386
   16CHTO  H158 6483   6.143   3.059   1.692  1.0444 -0.1153 -0.3373
   16CHTO   C90 6484   6.169   2.900   1.554 -0.0289  0.2711  0.5304
   16CHTO   O60 6485   6.036   2.853   1.571  0.3136 -0.0408 -0.1200
   16CHTO  H138 6486   6.001   2.804   1.500 -1.2048  2.2309 -1.0068
   16CHTO   O50 6487   6.016   3.322   1.614 -0.6677  0.4076 -0.2497
   16CHTO   C73 6488   5.903   3.292   1.700  0.5325  0.1932  0.8996
   16CHTO  H145 6489   5.917   3.193   1.746  0.9444 -0.0851  0.1772
   16CHTO   C74 6490   5.777   3.278   1.602  0.5347 -0.1125  0.0470
   16CHTO  H146 6491   5.794   3.216   1.513  2.5108  1.3369 -0.6237
   16CHTO   O54 6492   5.677   3.209   1.673 -0.0613 -0.0387 -0.4471
   16CHTO  H133 6493   5.594   3.216   1.631 -0.1627  0.5812 -0.1450
   16CHTO   C75 6494   5.735   3.424   1.561 -0.3520  0.0012  0.4587
   16CHTO  H147 6495   5.816   3.471   1.504  0.3616  1.0199  2.2526
   16CHTO   N13 6496   5.624   3.440   1.456 -0.0923  0.4013  0.1405
   16CHTO  H139 6497   5.590   3.542   1.447 -2.6029 -0.2026  2.1658
   16CHTO  H140 6498   5.539   3.383   1.490 -0.7362  1.7674  0.8476
   16CHTO   C76 6499   5.704   3.515   1.686  0.1340  0.1342 -0.1305
   16CHTO  H148 6500   5.629   3.459   1.743 -0.6564  2.2723  0.9921
   16CHTO   O49 6501   5.831   3.518   1.763 -0.3226 -0.2808 -0.3999
   16CHTO   C77 6502   5.880   3.396   1.816  0.1211  0.4069  0.2847
   16CHTO  H149 6503   5.802   3.366   1.886  0.2377  0.1646  0.3112
   16CHTO   C88 6504   5.994   3.433   1.904 -0.1239  0.0270  0.2586
   16CHTO   O58 6505   6.077   3.322   1.947  0.0790  0.0026 -0.1760
   16CHTO  H136 6506   6.125   3.278   1.880  0.8559 -1.6266  1.4237
   16CHTO   O51 6507   5.664   3.663   1.659  0.0019 -0.1868  0.0892
   16CHTO   C78 6508   5.595   3.724   1.761 -0.0795 -0.4975 -0.1090
   16CHTO  H150 6509   5.589   3.665   1.855  2.9807  0.2500  0.6155
   16CHTO   C80 6510   5.454   3.751   1.704  0.2454 -1.0434  0.8482
   16CHTO  H152 6511   5.466   3.816   1.614 -3.1246 -0.4745  0.7265
   16CHTO   O55 6512   5.395   3.625   1.674  0.7537 -0.0427 -0.5928
   16CHTO  H134 6513   5.407   3.599   1.584 -0.2751  2.2083 -1.4036
   16CHTO   C84 6514   5.363   3.838   1.798 -0.0492 -0.0902  0.3234
   16CHTO  H156 6515   5.345   3.776   1.885 -1.7374 -1.3664 -0.9007
   16CHTO   N15 6516   5.232   3.877   1.739  0.0416 -0.6496 -0.5245
   16CHTO  H143 6517   5.241   3.883   1.633  2.3339  1.7973 -0.2583
   16CHTO  H144 6518   5.160   3.800   1.759 -1.3523  0.0397 -2.6974
   16CHTO   C87 6519   5.433   3.958   1.854 -0.6190  0.2780 -0.1055
   16CHTO  H159 6520   5.450   4.040   1.784  0.8062  0.0374 -0.0472
   16CHTO   O53 6521   5.599   3.919   1.903 -0.1502 -0.4014 -0.3381
   16CHTO   C82 6522   5.673   3.845   1.808  0.0881 -0.0177 -0.0155
   16CHTO  H154 6523   5.699   3.914   1.728  0.2733  0.3172  0.3391
   16CHTO   C89 6524   5.805   3.801   1.873 -0.0495  0.5760  0.0724
   16CHTO   O59 6525   5.890   3.918   1.880  0.3208  0.1247  0.3673
   16CHTO  H137 6526   5.836   3.992   1.902  1.4794  0.7169  1.2330
   16CHTO   O45 6527   5.360   4.012   1.991 -0.4842  0.4684 -0.0621
   16CHTO   C67 6528   5.440   4.119   2.052  0.2042  0.0409  0.2230
   16CHTO  H124 6529   5.538   4.125   2.003  1.0099 -0.0905  1.8004
   16CHTO   C65 6530   5.367   4.261   2.040 -0.1516  0.6508 -0.9350
   16CHTO  H122 6531   5.259   4.244   2.032 -0.5442  1.3779  2.4405
   16CHTO   O44 6532   5.434   4.326   1.924  0.1972 -0.0449 -0.2017
   16CHTO  H102 6533   5.418   4.279   1.845 -0.2341 -0.4180  0.0994
   16CHTO   C63 6534   5.381   4.342   2.175 -0.1381  0.5251 -0.8828
   16CHTO  H120 6535   5.313   4.292   2.244 -0.4550  1.0827 -0.7858
   16CHTO   N11 6536   5.332   4.486   2.177  0.2819  0.2377 -0.5103
   16CHTO  H108 6537   5.237   4.501   2.225  0.1710 -2.3011  0.0991
   16CHTO  H109 6538   5.345   4.536   2.083  1.3539  0.4986 -0.2314
   16CHTO   C61 6539   5.528   4.321   2.237 -0.3646  0.1778 -0.8342
   16CHTO  H118 6540   5.517   4.367   2.336  0.1194  0.2129 -0.7933
   16CHTO   O40 6541   5.560   4.193   2.261  0.4884  0.1226 -0.2251
   16CHTO   C68 6542   5.471   4.089   2.207 -0.2517 -0.4915  0.0622
   16CHTO  H125 6543   5.381   4.084   2.272 -0.3454  3.8315  0.4227
   16CHTO   C72 6544   5.551   3.957   2.242 -0.0723  0.3662  0.6832
   16CHTO   O48 6545   5.477   3.843   2.199 -0.7006  0.1205  0.3638
   16CHTO  H105 6546   5.526   3.764   2.209 -2.4535 -0.7021  2.8519
   16CHTO   O38 6547   5.616   4.403   2.160  0.2688  0.1858 -0.1381
   16CHTO   C55 6548   5.753   4.419   2.201  0.2978 -0.0594  0.2107
   16CHTO  H112 6549   5.780   4.359   2.289  0.9198 -1.2558 -0.7723
   16CHTO   C56 6550   5.778   4.569   2.224 -0.2990 -0.6669 -0.1741
   16CHTO  H113 6551   5.719   4.623   2.148 -1.8948 -1.6175  0.3460
   16CHTO   O42 6552   5.714   4.600   2.343  0.1761 -0.1758  0.5021
   16CHTO  H100 6553   5.758   4.578   2.423 -0.0362  3.1068  1.6101
   16CHTO   C57 6554   5.931   4.600   2.237 -0.3816  0.1536  0.7464
   16CHTO  H114 6555   5.960   4.567   2.337 -1.0154  1.0777  1.2426
   16CHTO   N10 6556   5.966   4.739   2.218  0.2071  0.1501  0.0588
   16CHTO  H106 6557   5.970   4.791   2.313  3.4818 -1.1831  0.7334
   16CHTO  H107 6558   5.911   4.791   2.142 -1.5663 -2.4119 -0.4709
   16CHTO   C58 6559   6.016   4.515   2.135 -0.4224  0.8070 -0.3050
   16CHTO  H115 6560   6.003   4.552   2.032 -1.9764  1.1640 -0.0050
   16CHTO   O37 6561   5.970   4.382   2.124  0.2649 -0.3488  0.5441
   16CHTO   C59 6562   5.838   4.362   2.084 -0.1036  0.1328  0.0253
   16CHTO  H116 6563   5.817   4.418   1.993  0.6730 -1.0309 -0.8869
   16CHTO   C70 6564   5.826   4.212   2.069 -0.5620  0.1698  0.2544
   16CHTO   O46 6565   5.867   4.128   2.178 -0.6730  0.1471  0.1498
   16CHTO  H103 6566   5.907   4.054   2.137 -1.3240  1.2321 -2.5639
   16CHTO   O39 6567   6.169   4.519   2.180 -0.6718  0.5735 -0.6346
   16CHTO   C60 6568   6.264   4.462   2.083  0.4834  0.0925  0.0941
   16CHTO  H117 6569   6.205   4.412   2.006  1.4475  0.0898 -0.6410
   16CHTO   C62 6570   6.352   4.561   2.004 -0.2668 -0.1318  0.2018
   16CHTO  H119 6571   6.275   4.622   1.953  0.9700 -0.3707 -1.9910
   16CHTO   O43 6572   6.438   4.645   2.087  0.7526 -0.2735 -0.3798
   16CHTO  H101 6573   6.502   4.594   2.133 -0.3666  0.5655  2.1801
   16CHTO   C66 6574   6.433   4.476   1.890  0.3244  0.3789 -0.1969
   16CHTO  H123 6575   6.358   4.424   1.830 -0.9682  1.4898  0.4396
   16CHTO   N12 6576   6.515   4.561   1.802  0.6282  0.4482  0.7512
   16CHTO  H110 6577   6.615   4.526   1.784  0.6276  0.8571 -0.0538
   16CHTO  H111 6578   6.462   4.592   1.714 -2.2850 -2.3442  1.3978
   16CHTO   C69 6579   6.520   4.364   1.949 -0.3092  0.6566  0.4520
   16CHTO  H126 6580   6.611   4.405   1.998  0.3725 -0.3704  0.0478
   16CHTO   O41 6581   6.438   4.282   2.044 -0.2538  0.1732 -0.3236
   16CHTO   C64 6582   6.355   4.354   2.150  0.0090 -0.4484  0.1543
   16CHTO  H121 6583   6.409   4.412   2.227 -2.3671  3.0770 -0.6712
   16CHTO   C71 6584   6.273   4.246   2.229  0.4650 -0.1079  0.5272
   16CHTO   O47 6585   6.205   4.151   2.153 -0.2522 -0.4716  0.1307
   16CHTO  H104 6586   6.268   4.103   2.103 -0.0378  1.2007 -1.2589
   16CHTO   O34 6587   6.577   4.267   1.821  0.5070  0.2120 -0.1664
   16CHTO   C49 6588   6.683   4.200   1.749  0.3538 -0.1262 -0.1891
   16CHTO   H91 6589   6.718   4.279   1.682 -0.2059  1.0528  0.8849
   16CHTO   C47 6590   6.612   4.088   1.670  0.2008  0.1078 -0.4459
   16CHTO   H89 6591   6.678   4.049   1.589 -1.0886  0.6683 -1.7913
   16CHTO   O33 6592   6.498   4.146   1.609 -0.1921  0.2489  0.1797
   16CHTO   H70 6593   6.440   4.080   1.578  1.6716 -1.3971  0.1033
   16CHTO   C45 6594   6.571   3.963   1.775 -0.0075  0.7692  0.2810
   16CHTO   H87 6595   6.492   3.993   1.845 -0.4400  1.3548 -0.4524
   16CHTO    N8 6596   6.534   3.845   1.701 -0.4600  0.5519  0.8797
   16CHTO   H75 6597   6.431   3.819   1.719 -0.9689  1.4345 -0.6891
   16CHTO   H76 6598   6.554   3.849   1.595 -0.0175 -3.8423  0.6937
   16CHTO   C43 6599   6.692   3.930   1.883  0.2560  0.6773 -0.7053
   16CHTO   H85 6600   6.643   3.873   1.963 -2.4639  1.7111 -1.5745
   16CHTO   O29 6601   6.750   4.050   1.935  0.1323  0.0831  0.2256
   16CHTO   C50 6602   6.788   4.154   1.844  0.0984  0.2974  0.1302
   16CHTO   H92 6603   6.832   4.235   1.904  0.6442  0.5477 -0.5993
   16CHTO   C54 6604   6.914   4.129   1.754 -0.2894 -0.8497  0.6545
   16CHTO   O36 6605   7.037   4.115   1.827  0.2455  0.2882 -0.2902
   16CHTO   H72 6606   7.116   4.104   1.778 -0.6101 -1.9420 -1.2491
   16CHTO   O27 6607   6.805   3.851   1.830  0.0053  0.1721 -0.2215
   16CHTO   C37 6608   6.924   3.793   1.872 -0.3626 -0.2582  0.5401
   16CHTO   H79 6609   7.007   3.863   1.852  0.2588 -1.2160 -0.2753
   16CHTO   C38 6610   6.926   3.781   2.031 -0.6260  0.1642  0.0111
   16CHTO   H80 6611   6.828   3.740   2.061 -0.3948  2.2437  3.8893
   16CHTO   O31 6612   6.950   3.907   2.090 -0.2444 -0.0583 -0.6440
   16CHTO   H68 6613   6.867   3.950   2.082  0.9682  2.3438 -0.6817
   16CHTO   C39 6614   7.036   3.681   2.085  0.5011  0.2110 -0.8468
   16CHTO   H81 6615   7.128   3.738   2.092  0.5045  0.2811 -1.3849
   16CHTO    N7 6616   7.020   3.650   2.233  0.1861 -0.1337 -0.4694
   16CHTO   H73 6617   7.120   3.657   2.272 -0.2946  1.1902  0.5652
   16CHTO   H74 6618   6.981   3.550   2.248  0.8401 -0.7612 -2.7737
   16CHTO   C40 6619   7.061   3.557   1.990  0.0716  0.2488 -0.4231
   16CHTO   H82 6620   6.976   3.490   2.005 -0.1895  0.3388 -1.4629
   16CHTO   O26 6621   7.067   3.599   1.856  0.3287 -0.0130 -0.1478
   16CHTO   C41 6622   6.950   3.660   1.799 -0.2233 -0.4532  0.0562
   16CHTO   H83 6623   6.874   3.584   1.820  0.3730 -1.3240 -0.8992
   16CHTO   C52 6624   6.964   3.679   1.649 -0.0079 -0.3601  0.4896
   16CHTO   O35 6625   6.847   3.659   1.569  0.3895  0.1417  0.2051
   16CHTO   H71 6626   6.884   3.684   1.487  2.9148  1.0173  1.5694
   16CHTO   O28 6627   7.186   3.494   2.040  0.3288  0.4783  0.5040
   16CHTO   C42 6628   7.231   3.358   2.015  0.1242  0.1995  0.2097
   16CHTO   H84 6629   7.325   3.355   2.070 -0.2676  2.1647  1.0196
   16CHTO   C44 6630   7.267   3.328   1.858 -0.7109  0.2432  0.1975
   16CHTO   H86 6631   7.174   3.325   1.801 -0.6886  3.0523 -0.0561
   16CHTO   O32 6632   7.355   3.434   1.826 -0.0358 -0.0900 -0.1259
   16CHTO   H69 6633   7.345   3.450   1.734  0.3369 -1.1748 -0.3695
   16CHTO   C48 6634   7.325   3.189   1.851 -0.7205  0.1203  0.4787
   16CHTO   H90 6635   7.416   3.187   1.910 -1.0749  0.2121  1.0250
   16CHTO    N9 6636   7.356   3.157   1.706 -0.1369 -0.1588  0.0771
   16CHTO   H77 6637   7.390   3.250   1.664 -1.5217 -0.0992 -0.9493
   16CHTO   H78 6638   7.442   3.092   1.705 -1.6962 -2.2692 -1.3697
   16CHTO   C51 6639   7.228   3.088   1.910  0.2037 -0.3479 -0.1483
   16CHTO   H93 6640   7.139   3.093   1.847 -0.0440 -0.2091  0.2059
   16CHTO   O30 6641   7.198   3.123   2.045  0.1297 -0.3553  0.0260
   16CHTO   C46 6642   7.140   3.239   2.063  0.5958 -0.2377  0.6290
   16CHTO   H88 6643   7.051   3.237   2.001  2.2657 -0.0925 -1.8295
   16CHTO   C53 6644   7.105   3.245   2.210  0.3889  0.3404 -1.0372
   16CHTO   O72 6645   7.012   3.344   2.253  0.5555  0.6754  0.0443
   16CHTO  H199 6646   7.060   3.424   2.258  2.4200 -0.5246  2.6676
   16CHTO   O22 6647   7.279   2.952   1.924  0.2296  0.2024 -0.3671
   16CHTO   C31 6648   7.184   2.839   1.914  0.0959  0.4353  0.2286
   16CHTO   H59 6649   7.085   2.887   1.931 -0.5079 -0.3268 -1.0792
   16CHTO   C29 6650   7.173   2.763   1.782 -1.0067 -0.3026 -0.7046
   16CHTO   H57 6651   7.261   2.702   1.758 -0.1542 -0.9754  3.6360
   16CHTO   O21 6652   7.158   2.857   1.673  0.2353 -0.0959  0.2352
   16CHTO   H37 6653   7.242   2.898   1.667  0.5673 -1.0425 -2.1882
   16CHTO   C27 6654   7.046   2.663   1.780 -0.5085 -0.1216  0.1453
   16CHTO   H55 6655   6.952   2.720   1.785  0.1522  1.1765 -1.7660
   16CHTO    N5 6656   7.044   2.572   1.667  0.9200 -0.5079  0.0400
   16CHTO   H43 6657   7.041   2.615   1.568  1.2874 -1.3430 -0.3403
   16CHTO   H44 6658   7.121   2.499   1.687  0.0409 -1.7015 -0.7846
   16CHTO   C25 6659   7.062   2.573   1.910  0.0828  0.3957 -0.1905
   16CHTO   H53 6660   7.157   2.519   1.902 -0.2392  0.1502 -2.5038
   16CHTO   O17 6661   7.085   2.651   2.027 -0.7651 -0.2224 -0.1087
   16CHTO   C32 6662   7.201   2.736   2.031  0.1399  0.6971 -0.2900
   16CHTO   H60 6663   7.288   2.672   2.015  0.0204  0.8774 -1.7662
   16CHTO   C36 6664   7.206   2.789   2.179 -0.1983 -0.0289  0.0895
   16CHTO   O25 6665   7.332   2.857   2.206  0.0887  0.1624  0.1640
   16CHTO   H40 6666   7.335   2.881   2.297  0.6523 -0.2546  0.2599
   16CHTO   O15 6667   6.938   2.501   1.947 -0.2794  0.1895 -0.0227
   16CHTO   C19 6668   6.843   2.452   2.043  0.2945 -0.2311  0.1979
   16CHTO   H47 6669   6.883   2.351   2.061  0.3138  0.0279  1.7120
   16CHTO   C20 6670   6.839   2.525   2.185  0.0950  0.1682  0.0668
   16CHTO   H48 6671   6.827   2.634   2.174 -1.4441 -0.0333 -0.4852
   16CHTO   O19 6672   6.965   2.513   2.234 -0.3150 -0.5745  0.0016
   16CHTO   H35 6673   6.972   2.561   2.315 -0.8057 -0.6620  0.0969
   16CHTO   C21 6674   6.742   2.458   2.281  0.7121 -0.3242 -0.7231
   16CHTO   H49 6675   6.769   2.353   2.293 -1.8163 -0.9939 -0.5176
   16CHTO    N4 6676   6.744   2.525   2.416 -0.0195 -0.3502 -0.0533
   16CHTO   H41 6677   6.684   2.481   2.494 -0.0419 -0.2278 -0.0017
   16CHTO   H42 6678   6.848   2.533   2.447  0.2693 -0.6796 -0.9162
   16CHTO   C22 6679   6.603   2.467   2.213  0.5286  0.2367 -0.6409
   16CHTO   H50 6680   6.585   2.572   2.187  0.8483  0.1440 -1.2688
   16CHTO   O14 6681   6.600   2.397   2.088  0.0336  0.1036 -0.8067
   16CHTO   C23 6682   6.698   2.442   1.994  0.4070  0.4430 -0.2018
   16CHTO   H51 6683   6.663   2.537   1.950 -0.5337  1.1392  1.9344
   16CHTO   C34 6684   6.690   2.337   1.885  0.3711 -0.3021  0.2749
   16CHTO   O23 6685   6.576   2.351   1.796 -0.1309  0.1041 -0.0940
   16CHTO   H38 6686   6.508   2.290   1.821  0.6272  0.2086  2.3723
   16CHTO   O16 6687   6.494   2.408   2.292  0.0554  0.3076 -1.1784
   16CHTO   C24 6688   6.350   2.479   2.267  0.9222 -0.6639  0.8261
   16CHTO   H52 6689   6.350   2.549   2.183 -2.6679 -1.0257  0.4721
   16CHTO   C26 6690   6.308   2.567   2.392 -0.0684  0.2004 -0.2695
   16CHTO   H54 6691   6.289   2.499   2.477  0.3540  0.8259  0.3276
   16CHTO   O20 6692   6.401   2.670   2.429  0.3048  1.0209 -0.5929
   16CHTO   H36 6693   6.489   2.652   2.404  0.8491  0.8842  1.3256
   16CHTO   C30 6694   6.165   2.621   2.384 -1.0958 -0.7226 -0.0521
   16CHTO   H58 6695   6.153   2.692   2.300  0.5000  0.1766  0.4499
   16CHTO    N6 6696   6.119   2.682   2.514  0.4604  0.2057 -0.3569
   16CHTO   H45 6697   6.164   2.629   2.597 -0.9089  0.9123  0.8543
   16CHTO   H46 6698   6.152   2.785   2.518  0.6264  0.1824 -1.1320
   16CHTO   C33 6699   6.070   2.515   2.330  0.3294  0.1223  0.2337
   16CHTO   H61 6700   6.057   2.436   2.405  0.1342 -0.5290 -0.4812
   16CHTO   O18 6701   6.126   2.453   2.207  0.1355 -0.4069 -0.1699
   16CHTO   C28 6702   6.241   2.378   2.237  0.3553 -0.0013 -0.0762
   16CHTO   H56 6703   6.223   2.317   2.325 -3.1770 -0.0928 -0.7922
   16CHTO   C35 6704   6.270   2.293   2.111 -0.6853 -0.5098  0.3277
   16CHTO   O24 6705   6.179   2.188   2.096 -0.3224  0.0112 -0.0613
   16CHTO   H39 6706   6.172   2.137   2.174  0.2091 -0.8502 -0.5598
   16CHTO    O9 6707   5.936   2.567   2.300 -0.0651 -0.6929 -0.2099
   16CHTO   C13 6708   5.814   2.483   2.371  0.4288  0.1602 -0.5127
   16CHTO   H26 6709   5.819   2.510   2.479 -0.0978 -0.1511 -0.4073
   16CHTO   C11 6710   5.829   2.330   2.347  0.1562  0.5066  0.1590
   16CHTO   H24 6711   5.909   2.296   2.415 -0.0890 -0.4900 -0.0411
   16CHTO    O8 6712   5.871   2.301   2.214 -0.0637  0.9145  0.0964
   16CHTO    H3 6713   5.799   2.281   2.156  0.0983 -1.0208  0.5203
   16CHTO    C9 6714   5.696   2.264   2.396  0.3868 -0.2573 -0.3569
   16CHTO   H22 6715   5.678   2.298   2.499  1.2563  2.5281 -1.0938
   16CHTO    N2 6716   5.716   2.124   2.413 -0.2815 -0.3540  0.2582
   16CHTO   H10 6717   5.755   2.075   2.325 -2.1791  1.8358 -1.8697
   16CHTO   H11 6718   5.621   2.085   2.445 -1.3626  0.7343 -1.6061
   16CHTO    C7 6719   5.571   2.315   2.307 -0.2182 -0.4613  0.6880
   16CHTO   H20 6720   5.481   2.321   2.371 -1.6287  0.4630 -1.3185
   16CHTO    O4 6721   5.590   2.443   2.246 -0.5768 -0.0288  0.0933
   16CHTO   C14 6722   5.673   2.542   2.319  0.1136  0.4699 -0.4341
   16CHTO   H27 6723   5.620   2.574   2.411  1.2517 -1.8144  1.0820
   16CHTO   C18 6724   5.677   2.667   2.229  0.4656 -0.1573  0.5247
   16CHTO   O13 6725   5.746   2.778   2.286 -0.6539  0.2617  0.0695
   16CHTO    H7 6726   5.832   2.747   2.308 -1.2216  0.6921  3.1248
   16CHTO    O2 6727   5.528   2.200   2.175  0.0404 -0.0825 -0.2106
   16CHTO    C1 6728   5.390   2.174   2.135  0.4119 -0.2935  1.6139
   16CHTO   H14 6729   5.395   2.075   2.085  0.9155  1.1551 -1.3053
   16CHTO    C2 6730   5.338   2.282   2.033  0.2300 -0.2421  0.3652
   16CHTO   H15 6731   5.324   2.379   2.082 -1.2220 -0.3193  0.1049
   16CHTO    O6 6732   5.434   2.287   1.924 -0.0683  0.0678 -0.3756
   16CHTO    H1 6733   5.476   2.370   1.916  4.6709 -1.9582  1.6031
   16CHTO    C3 6734   5.188   2.237   1.981 -0.6383  0.4731  0.9264
   16CHTO   H16 6735   5.197   2.144   1.925 -0.3352  1.5188 -0.7852
   16CHTO    N1 6736   5.128   2.336   1.885 -0.0838 -0.5031  0.0694
   16CHTO    H8 6737   5.022   2.346   1.904  0.2678  0.0485  1.8083
   16CHTO    H9 6738   5.170   2.435   1.879  0.9975 -0.9607 -0.0228
   16CHTO    C4 6739   5.101   2.201   2.114  0.0124  0.0474 -0.2399
   16CHTO   H17 6740   5.089   2.290   2.176  1.3653 -1.2918  2.0264
   16CHTO    O1 6741   5.168   2.097   2.190 -0.2839  0.2385 -0.1004
   16CHTO    C5 6742   5.287   2.153   2.251 -0.3707 -0.1217 -0.2534
   16CHTO   H18 6743   5.283   2.250   2.301 -1.5546 -0.0027 -0.5652
   16CHTO   C16 6744   5.339   2.045   2.359  0.3069  0.1339 -0.3262
   16CHTO   O11 6745   5.257   2.046   2.469  0.1771 -0.7705 -0.0976
   16CHTO    H5 6746   5.304   2.085   2.541 -0.1140 -0.5060 -0.0484
   16CHTO    O3 6747   4.972   2.154   2.080 -0.4200 -0.5579  0.5448
   16CHTO    C6 6748   4.868   2.170   2.186 -0.5903  0.1239 -0.1729
   16CHTO   H19 6749   4.914   2.195   2.282  0.7873  2.6167 -1.3925
   16CHTO    C8 6750   4.768   2.287   2.145 -0.0564 -0.1517 -0.5776
   16CHTO   H21 6751   4.734   2.262   2.044 -2.1232  2.1433 -0.4970
   16CHTO    O7 6752   4.833   2.414   2.149  0.3859 -0.5852  0.2605
   16CHTO    H2 6753   4.894   2.425   2.219  0.1211  1.5691  0.2093
   16CHTO   C12 6754   4.631   2.281   2.231 -0.2287  0.0380  0.5189
   16CHTO   H25 6755   4.663   2.323   2.329 -0.0831 -0.0337  0.5032
   16CHTO    N3 6756   4.523   2.371   2.169  0.0444 -0.1862 -0.0361
   16CHTO   H12 6757   4.532   2.464   2.224  2.2684  0.2071 -1.0106
   16CHTO   H13 6758   4.538   2.382   2.063 -2.2164  0.8191 -0.2959
   16CHTO   C15 6759   4.577   2.134   2.248 -0.3366  0.4634  0.4696
   16CHTO   H28 6760   4.530   2.090   2.160  0.5660  0.2596  0.0835
   16CHTO   O10 6761   4.471   2.119   2.357  0.0704  0.0918  0.0476
   16CHTO    H4 6762   4.435   2.032   2.353  3.7910 -1.4568 -2.2149
   16CHTO    O5 6763   4.684   2.051   2.291 -0.1933  0.6644  0.0312
   16CHTO   C10 6764   4.797   2.037   2.201  0.6028 -0.3587  0.3471
   16CHTO   H23 6765   4.761   2.003   2.104 -0.7992  0.2151  0.6628
   16CHTO   C17 6766   4.894   1.931   2.249 -0.2365 -0.1229 -0.2445
   16CHTO   O12 6767   4.836   1.800   2.221 -0.4002  0.3394  0.0854
   16CHTO    H6 6768   4.904   1.736   2.234  2.7794  2.9858 -2.3896
   17CHTO  H203 6769   4.528   4.849   0.740  1.7823 -0.9715 -1.5501
   17CHTO   O82 6770   4.595   4.891   0.790 -0.0077 -0.6286  0.6521
   17CHTO  C123 6771   4.568   5.034   0.799 -0.7430  0.7741  0.2293
   17CHTO  H227 6772   4.459   5.048   0.784 -0.8294 -0.1830 -0.0923
   17CHTO   O77 6773   4.601   5.064   0.936 -0.4071 -0.2672  0.3788
   17CHTO  C118 6774   4.571   5.199   0.975 -0.2707 -0.5532  0.5603
   17CHTO  H222 6775   4.467   5.224   0.950 -0.0913 -1.5180 -1.1947
   17CHTO  C125 6776   4.594   5.212   1.126 -0.2061  0.0204  0.3053
   17CHTO   O84 6777   4.488   5.159   1.203 -0.0198 -0.1877 -0.6442
   17CHTO  H205 6778   4.500   5.187   1.291 -0.6556 -0.5635 -0.4288
   17CHTO  C114 6779   4.648   5.304   0.896 -0.7745  0.3304  0.9919
   17CHTO  H218 6780   4.754   5.303   0.919 -0.3159 -2.9693 -0.9286
   17CHTO  C116 6781   4.627   5.278   0.742 -0.7542  0.3233 -0.5647
   17CHTO  H220 6782   4.523   5.303   0.713 -0.9923 -2.4732 -2.3236
   17CHTO   O79 6783   4.700   5.373   0.668  0.1827  1.2632 -0.1960
   17CHTO  H201 6784   4.674   5.384   0.578  1.2055  0.9578 -0.5426
   17CHTO  C120 6785   4.656   5.123   0.705 -0.0207  0.3611 -0.6840
   17CHTO  H224 6786   4.760   5.097   0.734 -0.9552 -0.9243  1.6710
   17CHTO   N21 6787   4.621   5.101   0.564  0.7597  0.6318 -0.0197
   17CHTO  H211 6788   4.629   5.184   0.495  0.7154  0.2327 -0.5089
   17CHTO  H212 6789   4.528   5.046   0.558 -0.1168  2.2722 -2.1842
   17CHTO   O75 6790   4.596   5.424   0.951 -0.0011  0.3274 -0.4228
   17CHTO  C112 6791   4.613   5.587   0.874  0.6160 -0.3626 -0.4029
   17CHTO  H216 6792   4.572   5.576   0.772  0.4958 -0.6240 -0.3271
   17CHTO   O73 6793   4.760   5.625   0.871 -0.0990  0.0270 -0.0320
   17CHTO  C113 6794   4.781   5.735   0.787  0.2923 -0.7130  0.7895
   17CHTO  H217 6795   4.732   5.718   0.688  2.5218  1.6828 -0.7852
   17CHTO  C124 6796   4.927   5.749   0.749 -0.2107  0.1302 -0.4470
   17CHTO   O83 6797   5.011   5.765   0.859 -0.0584  0.1469  0.1724
   17CHTO  H204 6798   4.957   5.758   0.935 -0.5820  1.6976 -0.0347
   17CHTO  C109 6799   4.721   5.859   0.857  0.1997  0.0475  0.4392
   17CHTO  H213 6800   4.772   5.871   0.954  0.5282  0.6793  0.1920
   17CHTO  C110 6801   4.570   5.841   0.872  1.1762  0.1928  0.0252
   17CHTO  H214 6802   4.521   5.838   0.775  2.4815 -0.1819 -0.6322
   17CHTO   O78 6803   4.502   5.962   0.925 -0.2606 -0.2144  0.0440
   17CHTO  H200 6804   4.558   5.994   0.993 -1.1531  1.7931 -0.1547
   17CHTO  C111 6805   4.538   5.708   0.953 -0.5345 -0.2456 -0.5563
   17CHTO  H215 6806   4.585   5.717   1.053  0.4089 -0.4262 -0.9739
   17CHTO   N19 6807   4.393   5.676   0.975 -0.4227 -0.1233  0.3809
   17CHTO  H207 6808   4.334   5.696   0.887  1.6067  1.9488 -0.5995
   17CHTO  H208 6809   4.369   5.726   1.067 -1.3680 -0.2521  0.2082
   17CHTO   O74 6810   4.744   5.981   0.779  0.5972 -0.2671 -0.3193
   17CHTO  C115 6811   4.724   6.133   0.857  0.5711 -0.0495 -0.0811
   17CHTO  H219 6812   4.618   6.159   0.867  0.8018  1.2426 -0.8875
   17CHTO   O76 6813   4.791   6.144   0.999  0.0088  0.0491  0.0953
   17CHTO  C122 6814   4.931   6.125   0.990 -0.3363  0.1212  0.5902
   17CHTO  H226 6815   4.942   6.036   0.929 -2.0593  1.4440 -1.7101
   17CHTO  C126 6816   4.975   6.083   1.136  0.7000  0.4076 -0.0578
   17CHTO   O85 6817   4.934   5.950   1.164 -0.1673 -0.2378 -0.4046
   17CHTO  H206 6818   4.842   5.940   1.178 -0.2110 -0.1325 -0.6109
   17CHTO  C121 6819   5.000   6.256   0.931  0.0314 -0.2485  0.2417
   17CHTO  H225 6820   5.043   6.319   1.011 -2.5550  0.2433  1.2790
   17CHTO   O81 6821   5.116   6.221   0.852 -0.4972 -0.0764 -0.3680
   17CHTO  H202 6822   5.157   6.146   0.891 -0.0040  0.7979  0.8558
   17CHTO  C119 6823   4.902   6.343   0.848 -0.2361  0.5047  0.2574
   17CHTO  H223 6824   4.835   6.394   0.918 -1.0048  1.3477 -1.0579
   17CHTO  C117 6825   4.802   6.244   0.766 -0.1060 -0.0057 -0.1734
   17CHTO  H221 6826   4.852   6.185   0.690  2.8716  3.0705 -0.6878
   17CHTO   N20 6827   4.699   6.325   0.698 -0.1234 -0.0649  0.1671
   17CHTO  H209 6828   4.655   6.264   0.620  0.2279 -1.6138  1.1544
   17CHTO  H210 6829   4.728   6.420   0.656 -2.3064  0.1300 -0.9426
   17CHTO   O80 6830   4.961   6.464   0.771 -1.0202  0.4225  0.0739
   17CHTO  C103 6831   5.025   6.602   0.844  0.8511 -0.3727 -0.5735
   17CHTO  H190 6832   5.010   6.601   0.952  1.5086  0.5039 -0.4631
   17CHTO  C101 6833   5.172   6.637   0.808 -0.1648  0.4847 -0.7043
   17CHTO  H188 6834   5.181   6.612   0.702  0.9533 -0.8269 -0.3215
   17CHTO   O68 6835   5.269   6.542   0.906  0.4401  0.5291  0.1326
   17CHTO  H168 6836   5.332   6.599   0.946  1.9793  0.2126 -1.7774
   17CHTO   C99 6837   5.197   6.796   0.827  0.1474  0.2869  0.6108
   17CHTO  H186 6838   5.196   6.815   0.936 -0.1414 -3.3491  1.3121
   17CHTO   N17 6839   5.339   6.835   0.780 -0.2873 -0.7038 -0.0081
   17CHTO  H174 6840   5.416   6.790   0.841 -0.9060 -0.7762  0.7324
   17CHTO  H175 6841   5.351   6.846   0.673  1.4236  2.1383  0.4065
   17CHTO   C97 6842   5.086   6.890   0.774  0.6907 -0.3226 -0.0914
   17CHTO  H184 6843   5.076   6.895   0.664  0.1209 -0.4469 -0.0471
   17CHTO   O64 6844   4.962   6.844   0.839 -0.3942  0.1200  0.0736
   17CHTO  C104 6845   4.922   6.713   0.792  0.2419  0.7706  0.3115
   17CHTO  H191 6846   4.919   6.714   0.683 -2.3495  1.2634  0.3640
   17CHTO  C108 6847   4.778   6.686   0.837 -0.7881 -0.1024 -0.4833
   17CHTO   O71 6848   4.761   6.699   0.977  0.0671  0.5148 -0.3420
   17CHTO  H171 6849   4.828   6.754   1.014  0.1160 -0.1664  0.6062
   17CHTO   O62 6850   5.100   7.026   0.818  0.4522  0.0269 -0.1773
   17CHTO   C91 6851   5.052   7.135   0.742  0.2405 -0.1875  0.5339
   17CHTO  H178 6852   4.969   7.095   0.685  1.5824 -1.4427 -0.5791
   17CHTO   C92 6853   5.172   7.199   0.659  0.2009 -0.8485  0.5290
   17CHTO  H179 6854   5.242   7.125   0.617 -1.0983 -1.4179 -0.6809
   17CHTO   O66 6855   5.107   7.254   0.541  0.2530 -0.0867  0.3088
   17CHTO  H166 6856   5.052   7.329   0.552  0.8941  0.3132  0.7914
   17CHTO   C93 6857   5.250   7.316   0.737  0.2160  0.3998 -0.0930
   17CHTO  H180 6858   5.300   7.380   0.662 -0.0713 -0.3662 -0.9394
   17CHTO   N16 6859   5.352   7.269   0.828 -0.3707 -0.9557 -0.4610
   17CHTO  H172 6860   5.346   7.315   0.925 -0.0883 -1.2149 -0.3222
   17CHTO  H173 6861   5.373   7.164   0.838  1.0452 -0.5556  0.7946
   17CHTO   C94 6862   5.139   7.413   0.808 -0.0547  0.0174  0.0087
   17CHTO  H181 6863   5.155   7.421   0.915 -0.7432 -0.6137  0.1625
   17CHTO   O61 6864   5.005   7.374   0.779 -0.0659 -0.8018  0.2365
   17CHTO   C95 6865   4.974   7.247   0.826 -0.5796 -0.2492 -0.4858
   17CHTO  H182 6866   5.007   7.239   0.929  0.6471 -0.4769 -0.8810
   17CHTO  C106 6867   4.821   7.236   0.821  0.0144 -0.5583 -0.5938
   17CHTO   O69 6868   4.775   7.112   0.860  0.5871  0.2590  0.3248
   17CHTO  H169 6869   4.684   7.102   0.839  0.7316  0.5939 -0.4858
   17CHTO   O63 6870   5.159   7.543   0.756 -0.0171 -0.4452  0.3347
   17CHTO   C96 6871   5.117   7.660   0.837 -0.3835 -0.5486 -0.0686
   17CHTO  H183 6872   5.068   7.625   0.928 -0.3735  0.6698  0.4216
   17CHTO   C98 6873   5.020   7.754   0.768 -0.4895  0.8414  0.3802
   17CHTO  H185 6874   5.058   7.787   0.671  1.4398 -1.1111  0.4469
   17CHTO   O67 6875   4.902   7.676   0.737  0.1308  0.3507 -0.2409
   17CHTO  H167 6876   4.823   7.703   0.781  0.4589 -0.0042  0.5750
   17CHTO  C102 6877   4.974   7.879   0.861  0.2485 -0.2567 -0.0633
   17CHTO  H189 6878   4.913   7.837   0.944 -1.2046  2.1013  0.1035
   17CHTO   N18 6879   4.883   7.974   0.792  0.3813  0.4931  0.2373
   17CHTO  H176 6880   4.863   8.057   0.858 -3.4657  1.1088 -1.5330
   17CHTO  H177 6881   4.935   8.017   0.707  2.7403 -1.6676  0.5478
   17CHTO  C105 6882   5.095   7.953   0.925 -0.0516  0.8306 -0.2701
   17CHTO  H192 6883   5.107   8.048   0.874  0.7130  1.9809  1.9754
   17CHTO   O65 6884   5.223   7.884   0.909 -0.2982  0.6042  0.3064
   17CHTO  C100 6885   5.244   7.742   0.881 -0.3479  1.3251  0.2441
   17CHTO  H187 6886   5.317   7.741   0.798 -1.6263  2.6777 -0.9244
   17CHTO  C107 6887   5.310   7.679   1.008 -0.2821 -0.0103 -0.0477
   17CHTO   O70 6888   5.397   7.762   1.079 -0.1149  0.7042 -0.2612
   17CHTO  H170 6889   5.347   7.811   1.140 -1.3894 -2.8552  1.6872
   17CHTO   O57 6890   5.062   7.971   1.097 -0.2288 -0.8066  0.0021
   17CHTO   C85 6891   5.048   8.101   1.152 -0.1743 -0.2031 -0.9136
   17CHTO  H157 6892   5.031   8.178   1.074 -2.6328 -0.0313 -0.2330
   17CHTO   C83 6893   5.190   8.140   1.202  0.1409 -0.1115  0.4257
   17CHTO  H155 6894   5.256   8.149   1.115  0.3971  0.6740  0.7020
   17CHTO   O56 6895   5.255   8.041   1.283  0.4312 -0.9357 -0.1232
   17CHTO  H135 6896   5.336   8.080   1.310 -0.0893 -0.9268  1.4855
   17CHTO   C81 6897   5.184   8.284   1.269  0.5534  1.0723 -0.1742
   17CHTO  H153 6898   5.146   8.355   1.194  0.4145  3.0136  1.6804
   17CHTO   N14 6899   5.314   8.342   1.312  0.1707 -0.2366 -0.4312
   17CHTO  H141 6900   5.346   8.291   1.401  1.0365  0.8589 -0.1004
   17CHTO  H142 6901   5.382   8.319   1.232 -0.4199 -1.0466 -0.7072
   17CHTO   C79 6902   5.075   8.272   1.384  0.5125  0.1265 -0.4826
   17CHTO  H151 6903   5.074   8.368   1.436  1.0037 -0.4209  0.5611
   17CHTO   O52 6904   4.936   8.239   1.341 -0.5873 -0.6329  0.4559
   17CHTO   C86 6905   4.939   8.110   1.265 -0.5485 -0.1666 -0.1168
   17CHTO  H158 6906   4.967   8.035   1.342 -0.3366  1.1725  1.1357
   17CHTO   C90 6907   4.798   8.076   1.212 -0.3213  0.9069 -0.7048
   17CHTO   O60 6908   4.695   8.077   1.315 -0.5522 -0.4136  0.9753
   17CHTO  H138 6909   4.671   8.163   1.345 -0.7723 -1.1231  2.9128
   17CHTO   O50 6910   5.109   8.189   1.490  0.7817  0.3907  0.1001
   17CHTO   C73 6911   5.085   8.181   1.631 -0.0424  0.3657  0.5480
   17CHTO  H145 6912   5.051   8.280   1.666 -0.8786  0.6170 -0.9465
   17CHTO   C74 6913   5.219   8.143   1.700 -0.3400  0.7764  0.3487
   17CHTO  H146 6914   5.296   8.212   1.664 -1.1243 -0.1269 -3.3592
   17CHTO   O54 6915   5.217   8.154   1.843  0.4740  0.4502  0.5198
   17CHTO  H133 6916   5.158   8.218   1.877  0.4251  0.4539  0.4310
   17CHTO   C75 6917   5.249   7.989   1.653  0.0645  0.5121 -0.0279
   17CHTO  H147 6918   5.239   7.987   1.544 -1.8786  2.2729  0.0779
   17CHTO   N13 6919   5.382   7.935   1.697  0.2839 -0.1262 -0.3498
   17CHTO  H139 6920   5.459   7.996   1.651 -0.5512  1.0989 -0.1515
   17CHTO  H140 6921   5.401   7.840   1.650  2.1187  0.3051 -0.5446
   17CHTO   C76 6922   5.125   7.897   1.693  0.3460 -0.1273 -0.2286
   17CHTO  H148 6923   5.113   7.889   1.802 -0.6439  0.0585 -0.3205
   17CHTO   O49 6924   5.005   7.944   1.633 -0.0169  0.2436  0.1591
   17CHTO   C77 6925   4.968   8.077   1.666 -0.2090  0.5295 -0.4049
   17CHTO  H149 6926   4.937   8.076   1.770  1.7299 -4.2843  0.2599
   17CHTO   C88 6927   4.838   8.121   1.596  0.3448  0.3450 -0.4984
   17CHTO   O58 6928   4.808   8.266   1.656 -0.2737  0.0354 -0.5332
   17CHTO  H136 6929   4.742   8.317   1.614  0.2780  0.5198 -0.8308
   17CHTO   O51 6930   5.148   7.749   1.624  0.0339 -0.4042  0.4283
   17CHTO   C78 6931   5.028   7.642   1.656  0.3945 -0.0226  0.8261
   17CHTO  H150 6932   4.929   7.682   1.687  0.1479  0.7066 -0.8395
   17CHTO   C80 6933   5.074   7.539   1.760  0.8287 -0.0217  0.1483
   17CHTO  H152 6934   5.157   7.483   1.714 -0.5024 -1.4451 -0.5704
   17CHTO   O55 6935   5.113   7.614   1.875  0.0285  0.4750 -0.9835
   17CHTO  H134 6936   5.064   7.694   1.878 -2.5890 -1.1554  1.6977
   17CHTO   C84 6937   4.955   7.432   1.787  0.0682 -0.3441 -0.5129
   17CHTO  H156 6938   4.860   7.483   1.803 -0.0188 -0.4698 -0.6217
   17CHTO   N15 6939   4.989   7.338   1.900  0.2973  0.1482  0.4899
   17CHTO  H143 6940   4.929   7.250   1.893  1.0971 -0.2934 -1.0051
   17CHTO  H144 6941   4.963   7.390   1.990 -0.9021  0.0013  0.2365
   17CHTO   C87 6942   4.947   7.359   1.649 -0.8875  0.1525  0.1116
   17CHTO  H159 6943   5.046   7.322   1.623 -0.1869  2.1506 -0.1918
   17CHTO   O53 6944   4.905   7.473   1.549  0.1601 -0.3906 -0.3256
   17CHTO   C82 6945   5.006   7.573   1.522 -0.2323 -0.6432 -0.1650
   17CHTO  H154 6946   5.091   7.516   1.485  1.5315  2.0978 -0.4943
   17CHTO   C89 6947   4.957   7.665   1.407  0.2398 -0.0775 -0.2197
   17CHTO   O59 6948   5.057   7.761   1.366  0.1878 -0.0478 -0.1985
   17CHTO  H137 6949   5.113   7.788   1.436  0.8715  0.6695 -1.0037
   17CHTO   O45 6950   4.841   7.258   1.633 -0.2023  0.2737  0.1269
   17CHTO   C67 6951   4.707   7.279   1.677  0.5113 -0.8406  0.4772
   17CHTO  H124 6952   4.703   7.319   1.779 -0.1303 -0.6981  0.3980
   17CHTO   C65 6953   4.625   7.383   1.577 -0.9223 -0.0534 -0.6045
   17CHTO  H122 6954   4.695   7.437   1.513 -1.1588  2.0097  0.8137
   17CHTO   O44 6955   4.561   7.474   1.665 -0.1156  0.3865 -0.6288
   17CHTO  H102 6956   4.476   7.447   1.696  0.2953  0.4054  0.5444
   17CHTO   C63 6957   4.533   7.295   1.479 -0.4061  0.0711 -0.1264
   17CHTO  H120 6958   4.596   7.221   1.431 -0.9319 -1.0223  0.8457
   17CHTO   N11 6959   4.469   7.372   1.371 -0.3132 -0.2686  0.1939
   17CHTO  H108 6960   4.502   7.329   1.279 -2.6927  0.0694 -0.8636
   17CHTO  H109 6961   4.490   7.477   1.380 -3.2844  0.2852  1.3414
   17CHTO   C61 6962   4.434   7.209   1.565 -0.0885  0.1793 -0.4815
   17CHTO  H118 6963   4.402   7.129   1.496  1.1306  1.7440 -2.9532
   17CHTO   O40 6964   4.488   7.148   1.679 -0.5025  0.3419 -0.5621
   17CHTO   C68 6965   4.639   7.141   1.684 -0.1103  0.1418 -0.1620
   17CHTO  H125 6966   4.664   7.077   1.596  2.3568  0.2365  0.4427
   17CHTO   C72 6967   4.694   7.061   1.807 -0.9865 -0.2858  0.0582
   17CHTO   O48 6968   4.650   6.921   1.800 -1.1215 -0.1032  0.0176
   17CHTO  H105 6969   4.707   6.868   1.748 -3.1380 -0.1305 -2.2777
   17CHTO   O38 6970   4.328   7.288   1.615  0.6348 -0.0100  0.0134
   17CHTO   C55 6971   4.225   7.231   1.697 -0.2472  0.0021  0.0460
   17CHTO  H112 6972   4.274   7.165   1.770 -1.0330  0.4592  1.0101
   17CHTO   C56 6973   4.111   7.163   1.617  0.0941  0.0009  0.0456
   17CHTO  H113 6974   4.069   7.239   1.549  0.8714  0.5172  0.1330
   17CHTO   O42 6975   4.165   7.056   1.547  0.1668 -0.5143 -0.0430
   17CHTO  H100 6976   4.235   7.073   1.487 -0.0160 -0.3763 -0.2173
   17CHTO   C57 6977   3.998   7.122   1.710 -0.4398 -0.0723 -0.1362
   17CHTO  H114 6978   4.044   7.049   1.776  2.8641  1.6115 -0.5085
   17CHTO   N10 6979   3.882   7.046   1.652  0.7176 -0.5802  0.4360
   17CHTO  H106 6980   3.803   7.114   1.622  1.1428 -0.1588  0.2499
   17CHTO  H107 6981   3.901   6.976   1.572 -1.2234  0.5991 -1.1201
   17CHTO   C58 6982   3.948   7.243   1.793 -0.8832 -0.3667 -0.0284
   17CHTO  H115 6983   3.897   7.315   1.726 -2.6857 -0.8293  0.8425
   17CHTO   O37 6984   4.058   7.311   1.860  0.1330  0.0095  0.6078
   17CHTO   C59 6985   4.164   7.359   1.774  0.6634  0.1413 -0.7536
   17CHTO  H116 6986   4.127   7.436   1.706 -1.9380 -0.2947  0.1467
   17CHTO   C70 6987   4.268   7.408   1.873 -0.0256  0.4534  0.3821
   17CHTO   O46 6988   4.223   7.535   1.931  0.2605 -0.0073 -0.0534
   17CHTO  H103 6989   4.222   7.609   1.874 -2.3943  1.8471  2.3161
   17CHTO   O39 6990   3.868   7.199   1.912 -0.2365  0.0688  0.1122
   17CHTO   C60 6991   3.767   7.292   1.940  0.0281  0.7045  0.3018
   17CHTO  H117 6992   3.799   7.389   1.902  0.0324  0.4652 -0.3140
   17CHTO   C62 6993   3.634   7.263   1.858  0.8483 -0.4892  0.0706
   17CHTO  H119 6994   3.651   7.239   1.751 -1.7678 -2.2371  0.0080
   17CHTO   O43 6995   3.563   7.155   1.916 -0.5528  0.1502  0.0247
   17CHTO  H101 6996   3.550   7.167   2.009  1.3352  2.6399  0.0492
   17CHTO   C66 6997   3.547   7.399   1.873  0.5552 -0.1487  0.7259
   17CHTO  H123 6998   3.611   7.477   1.834  1.1010  0.4887  2.8160
   17CHTO   N12 6999   3.436   7.390   1.773  0.1190  0.3499  0.5731
   17CHTO  H110 7000   3.428   7.485   1.722  0.1101 -0.9715 -1.9612
   17CHTO  H111 7001   3.341   7.348   1.803  0.5561 -1.3141 -0.3380
   17CHTO   C69 7002   3.498   7.420   2.020  0.7086  0.2251  0.3838
   17CHTO  H126 7003   3.436   7.335   2.056  0.0166  0.5645  0.0032
   17CHTO   O41 7004   3.640   7.430   2.105 -0.7016  0.0828  0.1812
   17CHTO   C64 7005   3.743   7.301   2.095  0.6768 -0.2216 -0.7188
   17CHTO  H121 7006   3.703   7.209   2.143 -0.3846  0.3033 -0.5650
   17CHTO   C71 7007   3.878   7.350   2.157  0.1681 -0.0325 -0.5327
   17CHTO   O47 7008   3.958   7.233   2.191  0.5429 -0.1015  0.3103
   17CHTO  H104 7009   3.945   7.204   2.279 -1.4141 -2.2627 -0.6670
   17CHTO   O34 7010   3.397   7.534   2.042  0.0289  0.7135  0.5263
   17CHTO   C49 7011   3.352   7.619   2.176  0.3236  0.9007 -0.4623
   17CHTO   H91 7012   3.434   7.688   2.198 -0.3558  0.7977  2.5243
   17CHTO   C47 7013   3.327   7.510   2.292  0.3107  0.4041  0.0504
   17CHTO   H89 7014   3.318   7.574   2.382 -1.1166 -0.2264  0.3763
   17CHTO   O33 7015   3.436   7.417   2.311 -0.1623 -0.0415 -0.1846
   17CHTO   H70 7016   3.428   7.342   2.255  0.8875 -1.2938  1.3019
   17CHTO   C45 7017   3.185   7.432   2.256  0.2179  0.2982  0.0956
   17CHTO   H87 7018   3.209   7.333   2.214 -2.6094 -1.0789  1.5454
   17CHTO    N8 7019   3.115   7.399   2.385 -0.2090  0.5541 -0.0809
   17CHTO   H75 7020   3.172   7.318   2.428 -0.4057 -0.3959 -1.5673
   17CHTO   H76 7021   3.009   7.387   2.369  0.1352 -1.2748 -1.1003
   17CHTO   C43 7022   3.098   7.512   2.141 -0.0354  0.6440  0.2843
   17CHTO   H85 7023   3.155   7.498   2.049 -1.8451  1.3221 -0.9720
   17CHTO   O29 7024   3.093   7.651   2.174  0.1932  0.1220  1.0686
   17CHTO   C50 7025   3.226   7.704   2.151 -0.3263  0.0820 -0.2189
   17CHTO   H92 7026   3.242   7.744   2.050  0.7254 -3.3550 -1.5120
   17CHTO   C54 7027   3.235   7.839   2.225  0.1659  0.2943 -0.2896
   17CHTO   O36 7028   3.202   7.832   2.364  0.2955  0.1226 -0.2635
   17CHTO   H72 7029   3.191   7.919   2.396 -1.3935 -0.3372  0.5045
   17CHTO   O27 7030   2.968   7.461   2.113 -0.0439  0.1974 -0.0333
   17CHTO   C37 7031   2.912   7.380   2.006 -0.4760 -1.0690 -1.0461
   17CHTO   H79 7032   2.803   7.389   2.017 -0.4511 -1.1726 -0.6924
   17CHTO   C38 7033   2.964   7.431   1.862 -0.5316  0.8312  0.2082
   17CHTO   H80 7034   3.074   7.419   1.859 -0.5751  0.5627 -0.2563
   17CHTO   O31 7035   2.937   7.574   1.848 -0.3687  0.2519 -0.4188
   17CHTO   H68 7036   2.845   7.584   1.839 -0.3305  0.8554 -0.1783
   17CHTO   C39 7037   2.913   7.348   1.738  0.2283 -0.1614  0.1478
   17CHTO   H81 7038   2.805   7.344   1.723  0.0888 -1.6067  1.4796
   17CHTO    N7 7039   2.974   7.395   1.615  0.2843 -0.0780 -0.0549
   17CHTO   H73 7040   2.954   7.499   1.595 -1.1348 -0.6544 -1.6710
   17CHTO   H74 7041   2.950   7.332   1.531  1.4988  1.9652 -1.9738
   17CHTO   C40 7042   2.957   7.197   1.779 -0.4107 -0.1404  1.0700
   17CHTO   H82 7043   3.065   7.184   1.772 -0.2698  2.1088 -2.4408
   17CHTO   O26 7044   2.904   7.158   1.908 -0.4468 -0.1327 -0.1155
   17CHTO   C41 7045   2.953   7.233   2.024  0.2908 -0.6066 -1.1965
   17CHTO   H83 7046   3.062   7.219   2.031 -0.0538 -2.0597  1.6456
   17CHTO   C52 7047   2.892   7.173   2.155 -0.1182 -0.0924  0.6126
   17CHTO   O35 7048   2.759   7.202   2.175 -0.3172  0.1291  0.4381
   17CHTO   H71 7049   2.707   7.185   2.099  1.4814 -0.5816 -0.6533
   17CHTO   O28 7050   2.898   7.113   1.675  0.6628 -0.5468 -0.4836
   17CHTO   C42 7051   2.955   6.982   1.645 -0.5397 -0.8609 -0.4985
   17CHTO   H84 7052   2.865   6.938   1.601 -0.7605  0.0382 -0.9471
   17CHTO   C44 7053   3.000   6.890   1.764  0.7925  0.2541  0.3727
   17CHTO   H86 7054   3.081   6.942   1.815  0.6910  1.2177 -0.4453
   17CHTO   O32 7055   2.880   6.881   1.851  0.0309 -0.6443 -0.2096
   17CHTO   H69 7056   2.815   6.838   1.799  0.3124  0.9666 -1.9297
   17CHTO   C48 7057   3.039   6.750   1.715  0.5114  0.3971 -1.2095
   17CHTO   H90 7058   2.953   6.694   1.678  0.7368 -0.9507  0.2397
   17CHTO    N9 7059   3.094   6.669   1.833  0.1684  0.0282 -0.4227
   17CHTO   H77 7060   3.036   6.578   1.836  3.1825 -2.1301 -3.8348
   17CHTO   H78 7061   3.085   6.727   1.924 -0.4509 -1.0161  0.2034
   17CHTO   C51 7062   3.153   6.777   1.611 -0.6139 -0.1423 -0.5372
   17CHTO   H93 7063   3.232   6.832   1.660  0.1749 -1.6005 -0.1289
   17CHTO   O30 7064   3.098   6.848   1.499  0.0124 -0.5776 -0.1332
   17CHTO   C46 7065   3.061   6.989   1.533  0.0737 -0.0234 -0.5835
   17CHTO   H88 7066   3.155   7.038   1.558 -0.1120 -0.2699  0.6456
   17CHTO   C53 7067   3.003   7.047   1.414  0.0872  0.1609 -0.5929
   17CHTO   O72 7068   3.104   7.088   1.326 -0.5040 -0.0738  0.1948
   17CHTO  H199 7069   3.067   7.162   1.282 -2.0802  1.7529  4.3193
   17CHTO   O22 7070   3.208   6.658   1.544 -0.1277 -0.0797 -0.5748
   17CHTO   C31 7071   3.337   6.664   1.472 -0.7552  0.2994 -0.0642
   17CHTO   H59 7072   3.357   6.771   1.450  1.0401 -0.4936 -2.5068
   17CHTO   C29 7073   3.457   6.616   1.554  0.1465 -0.0729 -0.0848
   17CHTO   H57 7074   3.453   6.506   1.552  2.4088 -0.1745 -0.4171
   17CHTO   O21 7075   3.438   6.661   1.693 -0.5935  0.4023 -0.1094
   17CHTO   H37 7076   3.481   6.739   1.723 -0.1338  0.0224  0.2251
   17CHTO   C27 7077   3.593   6.662   1.477 -0.3449 -0.3417  0.0337
   17CHTO   H55 7078   3.588   6.770   1.460  1.2151 -0.0390  1.3601
   17CHTO    N5 7079   3.713   6.636   1.564 -0.7754  0.7614 -0.7027
   17CHTO   H43 7080   3.769   6.548   1.534  0.4797  0.9540  0.9981
   17CHTO   H44 7081   3.695   6.632   1.670  0.8699  1.1782 -0.3866
   17CHTO   C25 7082   3.598   6.597   1.336 -0.9198 -0.6152 -0.1760
   17CHTO   H53 7083   3.584   6.489   1.351  1.7152 -0.8782  0.6233
   17CHTO   O17 7084   3.474   6.641   1.269 -0.0305 -0.3409 -0.3497
   17CHTO   C32 7085   3.349   6.595   1.331 -0.6927 -0.3125  0.4322
   17CHTO   H60 7086   3.353   6.487   1.340 -0.8712 -0.1731  2.3563
   17CHTO   C36 7087   3.244   6.638   1.223  0.2541 -0.1694 -0.2971
   17CHTO   O25 7088   3.118   6.587   1.251 -0.6640  0.4746 -0.1077
   17CHTO   H40 7089   3.103   6.496   1.232 -1.4822  0.3362  1.0819
   17CHTO   O15 7090   3.706   6.640   1.240 -0.3296  0.4648  0.3746
   17CHTO   C19 7091   3.740   6.767   1.190  0.0274 -0.3819 -0.7061
   17CHTO   H47 7092   3.793   6.730   1.101  3.1086 -2.1813  1.7707
   17CHTO   C20 7093   3.623   6.859   1.150  0.1906  0.2811  0.1767
   17CHTO   H48 7094   3.550   6.870   1.232  0.1588 -0.3414  0.2314
   17CHTO   O19 7095   3.547   6.798   1.044  0.3759 -0.6498  0.4473
   17CHTO   H35 7096   3.488   6.735   1.081 -0.7563 -1.4533 -2.5833
   17CHTO   C21 7097   3.670   7.010   1.115 -0.5135  0.3760  0.2912
   17CHTO   H49 7098   3.721   7.006   1.018 -1.9103 -1.2940 -0.4211
   17CHTO    N4 7099   3.552   7.102   1.109 -0.2492 -0.3065  0.3219
   17CHTO   H41 7100   3.496   7.098   1.201  0.6046  0.8021  0.8931
   17CHTO   H42 7101   3.589   7.201   1.092  0.7829 -0.4545  1.6346
   17CHTO   C22 7102   3.770   7.055   1.215 -0.2748  0.4820 -0.0198
   17CHTO   H50 7103   3.718   7.060   1.311 -0.3645 -1.6079  0.0500
   17CHTO   O14 7104   3.882   6.962   1.221 -0.3681 -0.5478 -0.8820
   17CHTO   C23 7105   3.841   6.835   1.273 -0.8657  0.5137 -0.0974
   17CHTO   H51 7106   3.806   6.859   1.374 -2.1857  0.6733 -0.5693
   17CHTO   C34 7107   3.966   6.746   1.279  0.0677  0.3662 -0.5607
   17CHTO   O23 7108   4.072   6.816   1.343  0.1339  0.2871 -0.8567
   17CHTO   H38 7109   4.122   6.871   1.285  0.6867  0.7214  0.0232
   17CHTO   O16 7110   3.831   7.182   1.188  0.3168 -0.3071  0.3955
   17CHTO   C24 7111   3.903   7.266   1.316  0.2696 -0.2768  0.1759
   17CHTO   H52 7112   3.930   7.203   1.401  1.3846 -1.0244 -0.7247
   17CHTO   C26 7113   3.808   7.380   1.361  1.2628 -0.6308  0.4974
   17CHTO   H54 7114   3.775   7.437   1.271 -0.9729 -2.1618  0.2867
   17CHTO   O20 7115   3.692   7.326   1.422 -0.0290  0.0377  0.7517
   17CHTO   H36 7116   3.647   7.402   1.454  0.3997 -0.0664  1.6091
   17CHTO   C30 7117   3.884   7.475   1.460 -0.1876 -0.6861  0.7593
   17CHTO   H58 7118   3.905   7.416   1.550  1.2041 -1.8230 -0.3017
   17CHTO    N6 7119   3.802   7.594   1.506 -0.1519  0.4100 -0.4167
   17CHTO   H45 7120   3.749   7.574   1.598  1.6354 -0.7221  0.3915
   17CHTO   H46 7121   3.728   7.619   1.431  0.2190  1.0533 -0.5693
   17CHTO   C33 7122   4.011   7.528   1.385 -0.3651 -0.1648  0.6864
   17CHTO   H61 7123   3.990   7.594   1.299  1.7086 -0.5927 -0.1883
   17CHTO   O18 7124   4.093   7.413   1.340  0.6635 -0.3970 -0.5138
   17CHTO   C28 7125   4.037   7.313   1.255 -0.9236 -0.6583  0.1732
   17CHTO   H56 7126   4.017   7.343   1.152  0.2506 -2.0445 -0.4843
   17CHTO   C35 7127   4.147   7.202   1.247  0.2702  0.3538 -0.7810
   17CHTO   O24 7128   4.243   7.217   1.145 -0.0896  0.0548 -0.0584
   17CHTO   H39 7129   4.207   7.208   1.059  0.2702  1.3661 -0.3421
   17CHTO    O9 7130   4.089   7.604   1.475 -0.5126 -0.6720  0.1231
   17CHTO   C13 7131   4.201   7.696   1.423  0.0354  0.4103  0.1536
   17CHTO   H26 7132   4.243   7.655   1.328  0.5025 -2.7041  1.6430
   17CHTO   C11 7133   4.307   7.711   1.533  0.4246  0.0419  0.4192
   17CHTO   H24 7134   4.351   7.612   1.550  1.1810 -0.3422 -3.2547
   17CHTO    O8 7135   4.264   7.753   1.667 -0.0337  0.3323  0.4094
   17CHTO    H3 7136   4.331   7.735   1.730 -0.2144  0.7992  0.7395
   17CHTO    C9 7137   4.421   7.798   1.471 -1.2718  0.3100  0.3586
   17CHTO   H22 7138   4.461   7.737   1.388 -1.0356  2.4408 -1.1186
   17CHTO    N2 7139   4.549   7.801   1.554  0.1881  0.0083 -0.3294
   17CHTO   H10 7140   4.560   7.705   1.603 -0.4724  0.8396  1.4875
   17CHTO   H11 7141   4.544   7.880   1.627 -2.2915  0.4143 -0.8779
   17CHTO    C7 7142   4.375   7.937   1.416  0.6038 -0.2155 -0.0862
   17CHTO   H20 7143   4.463   7.974   1.361  1.2425 -2.0879 -0.3520
   17CHTO    O4 7144   4.251   7.930   1.337 -0.0892 -0.2129 -0.1434
   17CHTO   C14 7145   4.145   7.844   1.377 -0.0523  0.1746 -0.2981
   17CHTO   H27 7146   4.085   7.827   1.285 -0.5356 -1.0220  0.2249
   17CHTO   C18 7147   4.046   7.909   1.479 -0.0413 -0.4229 -0.3156
   17CHTO   O13 7148   3.959   8.011   1.417  0.4303 -0.9151 -0.3316
   17CHTO    H7 7149   3.874   8.014   1.456  0.8603 -0.7699  0.6289
   17CHTO    O2 7150   4.351   8.048   1.543  0.5309  0.1609  0.4087
   17CHTO    C1 7151   4.327   8.190   1.518 -0.2922 -0.0728  0.2646
   17CHTO   H14 7152   4.235   8.211   1.460  0.2806 -0.7245 -0.8943
   17CHTO    C2 7153   4.446   8.257   1.446 -0.3961  0.6748  0.2996
   17CHTO   H15 7154   4.536   8.204   1.481 -0.2027  0.4642 -0.5047
   17CHTO    O6 7155   4.432   8.237   1.304 -0.0531  0.7032  0.1460
   17CHTO    H1 7156   4.517   8.227   1.265  0.2248  0.2673  0.8568
   17CHTO    C3 7157   4.446   8.413   1.471 -0.3990  0.1780  0.2866
   17CHTO   H16 7158   4.374   8.466   1.406  0.7892  1.9479  0.3789
   17CHTO    N1 7159   4.580   8.468   1.429 -0.1918 -0.5545 -0.2483
   17CHTO    H8 7160   4.572   8.575   1.422  2.6584 -0.2692  0.1492
   17CHTO    H9 7161   4.642   8.462   1.517 -0.0056 -0.2864 -0.3595
   17CHTO    C4 7162   4.406   8.457   1.614  0.4044 -0.4818  0.2604
   17CHTO   H17 7163   4.481   8.436   1.691 -2.4523 -2.8123  2.5588
   17CHTO    O1 7164   4.286   8.387   1.649  0.2170 -0.9141 -0.4818
   17CHTO    C5 7165   4.299   8.249   1.665  0.7511  0.5170 -0.3338
   17CHTO   H18 7166   4.383   8.225   1.730  0.7965 -1.5078 -1.1217
   17CHTO   C16 7167   4.165   8.185   1.720 -0.0311  0.2926 -0.5069
   17CHTO   O11 7168   4.062   8.221   1.630  0.4418  0.2827 -0.4955
   17CHTO    H5 7169   3.979   8.186   1.656  0.9204  0.4658  1.3247
   17CHTO    O3 7170   4.378   8.598   1.624 -0.3441  0.1820  0.3848
   17CHTO    C6 7171   4.380   8.677   1.748 -0.4161 -0.3037 -0.3858
   17CHTO   H19 7172   4.306   8.757   1.740 -0.4272 -0.0461  1.8957
   17CHTO    C8 7173   4.325   8.604   1.877  0.8283 -0.8310 -0.6648
   17CHTO   H21 7174   4.373   8.507   1.888  0.8985 -0.5182  2.2766
   17CHTO    O7 7175   4.186   8.586   1.843 -0.4045  0.5934  0.0996
   17CHTO    H2 7176   4.173   8.493   1.849  3.1561  0.1631  3.2945
   17CHTO   C12 7177   4.354   8.676   2.007 -0.2991 -0.2733 -0.4653
   17CHTO   H25 7178   4.290   8.767   2.001 -2.1279 -1.5792 -1.4365
   17CHTO    N3 7179   4.307   8.598   2.132  0.0029  0.2033  0.2994
   17CHTO   H12 7180   4.234   8.655   2.189 -1.7732 -1.9209  0.2245
   17CHTO   H13 7181   4.271   8.497   2.119 -3.0961  1.3598 -0.6082
   17CHTO   C15 7182   4.504   8.716   2.015  0.6721 -0.1192 -0.0010
   17CHTO   H28 7183   4.574   8.634   2.031 -0.7857 -1.1996  0.9795
   17CHTO   O10 7184   4.523   8.818   2.110  0.0175 -0.4572 -0.2958
   17CHTO    H4 7185   4.502   8.778   2.192  0.8242  0.7195  0.4822
   17CHTO    O5 7186   4.541   8.799   1.898  0.1281 -0.5876  0.3954
   17CHTO   C10 7187   4.527   8.737   1.767  0.3701  0.3102 -0.6969
   17CHTO   H23 7188   4.601   8.657   1.764  1.9119  1.6305  1.2774
   17CHTO   C17 7189   4.561   8.840   1.662 -0.4436  0.4044 -0.4041
   17CHTO   O12 7190   4.575   8.776   1.530 -0.3714  0.2310 -0.8672
   17CHTO    H6 7191   4.644   8.818   1.483 -1.8481  0.3174 -3.0348
   18CHTO  H203 7192   5.608   7.629   2.038 -0.1861 -2.0258 -1.8921
   18CHTO   O82 7193   5.694   7.636   2.002  0.5300 -0.7465  0.0033
   18CHTO  C123 7194   5.702   7.716   1.887 -0.6962  0.7105  0.7121
   18CHTO  H227 7195   5.604   7.717   1.837  0.1904 -0.9217 -1.1429
   18CHTO   O77 7196   5.740   7.844   1.950 -0.2001 -0.2794 -0.1889
   18CHTO  C118 7197   5.743   7.951   1.854 -0.4785 -0.3004  0.1121
   18CHTO  H222 7198   5.652   7.968   1.795 -1.0965 -0.8288  0.9057
   18CHTO  C125 7199   5.774   8.085   1.937  0.0065  0.4530 -0.4009
   18CHTO   O84 7200   5.653   8.118   2.004 -0.3726  0.2836  0.1640
   18CHTO  H205 7201   5.669   8.167   2.083 -1.4747  1.4790 -0.3416
   18CHTO  C114 7202   5.862   7.911   1.759 -0.4739  0.3512 -0.7036
   18CHTO  H218 7203   5.954   7.911   1.819 -0.2011 -1.5089 -1.0875
   18CHTO  C116 7204   5.850   7.772   1.687  0.2951  0.5968 -0.4260
   18CHTO  H220 7205   5.777   7.780   1.604  0.4683  1.1502 -0.5231
   18CHTO   O79 7206   5.973   7.734   1.624 -0.0447  0.1028  0.6186
   18CHTO  H201 7207   6.044   7.719   1.683  0.5697  0.6135  0.0172
   18CHTO  C120 7208   5.814   7.656   1.792 -0.0882 -0.1046 -0.7601
   18CHTO  H224 7209   5.899   7.627   1.858 -1.6484  1.5049  2.0660
   18CHTO   N21 7210   5.767   7.534   1.723 -0.4016 -0.6998 -0.4328
   18CHTO  H211 7211   5.730   7.545   1.622  0.5506  0.5891 -0.6681
   18CHTO  H212 7212   5.849   7.465   1.712  0.0816  0.0685 -1.9419
   18CHTO   O75 7213   5.868   8.022   1.667  0.4103  0.6392  0.1152
   18CHTO  C112 7214   6.035   8.053   1.624 -0.3053  0.2171 -0.0792
   18CHTO  H216 7215   6.087   7.963   1.659 -1.5696 -0.6758 -0.4727
   18CHTO   O73 7216   6.078   8.172   1.694  0.0070 -0.1303  0.2221
   18CHTO  C113 7217   6.209   8.221   1.667  0.0889 -0.4350  0.6020
   18CHTO  H217 7218   6.279   8.144   1.705 -0.4890 -1.8957 -1.2014
   18CHTO  C124 7219   6.236   8.348   1.746  0.2694 -0.4472 -0.8654
   18CHTO   O83 7220   6.196   8.344   1.881 -0.2366  0.1332 -0.9752
   18CHTO  H204 7221   6.259   8.296   1.930 -0.1037  1.2241 -0.0697
   18CHTO  C109 7222   6.229   8.251   1.512 -0.2352  0.3677  0.4531
   18CHTO  H213 7223   6.156   8.327   1.481  0.1031  1.1880  1.6401
   18CHTO  C110 7224   6.201   8.117   1.438 -0.0644  0.5111 -0.1183
   18CHTO  H214 7225   6.267   8.044   1.485  0.2176 -0.4078 -1.8952
   18CHTO   O78 7226   6.235   8.132   1.301 -0.2756 -0.4886  0.6000
   18CHTO  H200 7227   6.228   8.052   1.253 -0.6381 -0.7416  1.0655
   18CHTO  C111 7228   6.053   8.081   1.469  0.4404  1.2348 -0.7898
   18CHTO  H215 7229   5.994   8.171   1.451  0.9621  1.6375 -0.4998
   18CHTO   N19 7230   5.990   7.973   1.390 -0.4207 -0.6379 -0.4598
   18CHTO  H207 7231   6.035   7.955   1.294  2.2666 -3.4430  1.2349
   18CHTO  H208 7232   5.888   8.008   1.376  1.1028  3.3392 -2.2763
   18CHTO   O74 7233   6.368   8.293   1.484  0.4333 -0.0686 -0.2928
   18CHTO  C115 7234   6.356   8.397   1.345 -0.4115 -0.7160 -1.0488
   18CHTO  H219 7235   6.268   8.374   1.285 -1.2760 -0.3864  0.0566
   18CHTO   O76 7236   6.330   8.539   1.386 -0.1972  0.4400 -0.7406
   18CHTO  C122 7237   6.347   8.641   1.288 -0.3259 -0.3205 -0.3249
   18CHTO  H226 7238   6.379   8.726   1.349  0.4579 -0.9871  0.2021
   18CHTO  C126 7239   6.204   8.672   1.233 -0.0248  0.2949  0.7294
   18CHTO   O85 7240   6.118   8.568   1.177  0.1010  0.2202 -0.3412
   18CHTO  H206 7241   6.150   8.482   1.194 -0.3605 -0.2332 -1.6751
   18CHTO  C121 7242   6.451   8.619   1.169  0.0229 -0.3297  0.4157
   18CHTO  H225 7243   6.425   8.682   1.081  1.1005  3.2155  2.5373
   18CHTO   O81 7244   6.575   8.690   1.210 -0.2279  0.1830 -0.3416
   18CHTO  H202 7245   6.553   8.777   1.233 -1.4836  0.6261 -2.9800
   18CHTO  C119 7246   6.464   8.466   1.128  0.0382  0.1245 -0.0931
   18CHTO  H223 7247   6.361   8.448   1.096 -0.6033 -0.4057  2.1281
   18CHTO  C117 7248   6.484   8.380   1.262  0.9106  0.8307 -0.4397
   18CHTO  H221 7249   6.560   8.418   1.331  3.9083 -0.8060 -2.6790
   18CHTO   N20 7250   6.524   8.238   1.232  0.3149  0.7104  0.0088
   18CHTO  H209 7251   6.597   8.208   1.306  0.4796 -0.6139 -0.6859
   18CHTO  H210 7252   6.434   8.181   1.247  0.3716  1.2945  2.9600
   18CHTO   O80 7253   6.553   8.434   0.992 -0.2529 -0.6041 -0.5703
   18CHTO  C103 7254   6.481   8.390   0.861 -0.1505  0.6079  0.2738
   18CHTO  H190 7255   6.558   8.380   0.783 -1.4163 -2.4773 -0.6530
   18CHTO  C101 7256   6.403   8.252   0.883  0.7015 -0.3934  0.6068
   18CHTO  H188 7257   6.346   8.246   0.976  1.0000  0.8915  0.8706
   18CHTO   O68 7258   6.515   8.145   0.902  0.4677  0.5663 -0.3759
   18CHTO  H168 7259   6.544   8.104   0.823  3.0525 -0.0580  0.8305
   18CHTO   C99 7260   6.300   8.220   0.761  0.0334 -0.8242  0.6565
   18CHTO  H186 7261   6.360   8.201   0.670  2.3456  0.5419  1.8457
   18CHTO   N17 7262   6.221   8.097   0.789  0.3305 -0.0254  0.0637
   18CHTO  H174 7263   6.126   8.117   0.836 -1.0667 -2.8508 -1.3842
   18CHTO  H175 7264   6.282   8.038   0.856  0.9361  0.5669  0.0321
   18CHTO   C97 7265   6.215   8.348   0.737 -0.1121 -0.1106  0.6197
   18CHTO  H184 7266   6.154   8.368   0.827 -0.7437 -0.5057  0.2881
   18CHTO   O64 7267   6.303   8.458   0.709 -0.1815 -0.2702  0.2596
   18CHTO  C104 7268   6.380   8.503   0.817  1.5959 -0.2339  0.0226
   18CHTO  H191 7269   6.315   8.533   0.900 -1.1293  0.4435 -2.2710
   18CHTO  C108 7270   6.452   8.633   0.776  0.1832 -0.5062 -0.4659
   18CHTO   O71 7271   6.364   8.732   0.725  0.4076  0.1750  0.2456
   18CHTO  H171 7272   6.322   8.776   0.796 -0.9110  1.4722 -1.3056
   18CHTO   O62 7273   6.142   8.341   0.616 -0.2931  0.3375  0.7058
   18CHTO   C91 7274   6.007   8.376   0.613 -0.0754  0.4518  0.5669
   18CHTO  H178 7275   5.979   8.404   0.715  1.8468 -1.6371  1.6982
   18CHTO   C92 7276   5.911   8.258   0.571  0.2785  0.9568 -0.3020
   18CHTO  H179 7277   5.953   8.213   0.481  0.0114  0.1656 -0.0354
   18CHTO   O66 7278   5.937   8.149   0.662  0.6875  0.0536 -0.5846
   18CHTO  H166 7279   6.026   8.120   0.667  0.8955  0.7852 -0.0404
   18CHTO   C93 7280   5.756   8.294   0.562  0.1636  0.6706  0.9508
   18CHTO  H180 7281   5.722   8.289   0.667 -0.3252  1.6452  0.8471
   18CHTO   N16 7282   5.686   8.189   0.482  0.5458  0.8207 -0.0486
   18CHTO  H172 7283   5.583   8.208   0.459  0.3019  1.7083  1.7381
   18CHTO  H173 7284   5.744   8.156   0.396 -0.2997  0.2731 -0.4272
   18CHTO   C94 7285   5.729   8.441   0.510  0.0136 -0.0430  0.5004
   18CHTO  H181 7286   5.684   8.444   0.411  0.2557 -1.8658  0.3198
   18CHTO   O61 7287   5.841   8.533   0.512 -0.2647  0.1445 -0.2311
   18CHTO   C95 7288   5.975   8.493   0.509  0.5409 -0.9427  0.3130
   18CHTO  H182 7289   5.998   8.458   0.408  1.8779 -0.2593  0.3646
   18CHTO  C106 7290   6.069   8.618   0.539  0.2085 -0.0214  0.1086
   18CHTO   O69 7291   6.205   8.598   0.496 -0.2009  0.2941  0.5416
   18CHTO  H169 7292   6.258   8.642   0.559 -1.2238  0.0067  1.6211
   18CHTO   O63 7293   5.616   8.509   0.606  0.3850 -0.0805 -0.0450
   18CHTO   C96 7294   5.557   8.645   0.545  0.1588  0.2658  0.6779
   18CHTO  H183 7295   5.605   8.671   0.451 -1.5400  1.1893  0.0304
   18CHTO   C98 7296   5.560   8.768   0.638  0.0539  0.1155 -0.4733
   18CHTO  H185 7297   5.524   8.739   0.737  2.5341  0.6511  0.6141
   18CHTO   O67 7298   5.700   8.797   0.665  0.2812  0.5937  0.0668
   18CHTO  H167 7299   5.752   8.796   0.587  2.3423 -1.0913  1.3922
   18CHTO  C102 7300   5.491   8.897   0.574 -0.5495 -0.0753 -0.1309
   18CHTO  H189 7301   5.565   8.934   0.501 -1.4607  1.8106 -0.1289
   18CHTO   N18 7302   5.462   9.012   0.666  0.4046  0.0484 -0.4346
   18CHTO  H176 7303   5.527   9.096   0.645 -0.8405  0.6928 -1.8658
   18CHTO  H177 7304   5.364   9.056   0.662  1.1137  1.8697  1.4854
   18CHTO  C105 7305   5.358   8.869   0.497 -0.0561  0.5799 -0.3360
   18CHTO  H192 7306   5.276   8.864   0.569 -0.1146  2.1243 -0.2735
   18CHTO   O65 7307   5.362   8.745   0.424  0.3544  0.1336  0.6345
   18CHTO  C100 7308   5.399   8.629   0.498  0.6771 -0.2849 -0.6879
   18CHTO  H187 7309   5.330   8.611   0.581  1.7486  0.3133  0.3486
   18CHTO  C107 7310   5.394   8.515   0.392  0.5311 -0.3305 -0.2144
   18CHTO   O70 7311   5.475   8.535   0.270  0.2424 -0.2828 -1.0219
   18CHTO  H170 7312   5.450   8.614   0.226 -1.8675 -1.9666 -2.9446
   18CHTO   O57 7313   5.340   8.998   0.398  0.7254  0.6196  0.1176
   18CHTO   C85 7314   5.215   9.043   0.338  0.2516 -0.5503 -0.3644
   18CHTO  H157 7315   5.251   9.111   0.258  3.1458 -3.1531 -1.3667
   18CHTO   C83 7316   5.153   9.134   0.445  0.8426 -0.0617 -0.5961
   18CHTO  H155 7317   5.221   9.212   0.478 -0.7085  0.3047  1.8406
   18CHTO   O56 7318   5.130   9.066   0.569 -0.1095 -0.0266 -0.1140
   18CHTO  H135 7319   5.059   9.006   0.555 -0.1797 -0.4879  2.0414
   18CHTO   C81 7320   5.021   9.194   0.376  0.7178  0.4755 -0.2140
   18CHTO  H153 7321   5.051   9.232   0.278  2.8086 -0.9596 -0.1625
   18CHTO   N14 7322   4.963   9.307   0.455 -0.1912  0.1229  0.1429
   18CHTO  H141 7323   5.047   9.366   0.486  0.6963 -1.2846  0.4477
   18CHTO  H142 7324   4.907   9.272   0.539 -2.2058  0.9500 -0.8265
   18CHTO   C79 7325   4.917   9.084   0.352 -0.4536  0.2421  0.7454
   18CHTO  H151 7326   4.836   9.125   0.291  0.4450 -0.1161 -0.7123
   18CHTO   O52 7327   4.978   8.975   0.261  0.1565  0.1136 -0.5006
   18CHTO   C86 7328   5.116   8.931   0.286 -0.1894 -0.2814  0.2898
   18CHTO  H158 7329   5.112   8.856   0.368 -3.1056 -1.4802 -0.8748
   18CHTO   C90 7330   5.160   8.855   0.162  0.0635  0.3327  0.1358
   18CHTO   O60 7331   5.294   8.797   0.162  0.1309 -0.0624  0.5772
   18CHTO  H138 7332   5.309   8.727   0.223 -0.1066 -0.0345  0.6665
   18CHTO   O50 7333   4.860   9.016   0.461  0.1733 -0.0313 -0.0843
   18CHTO   C73 7334   4.763   8.916   0.485 -0.9884  0.2888 -0.3268
   18CHTO  H145 7335   4.755   8.844   0.402  3.0521 -1.3672  0.5644
   18CHTO   C74 7336   4.624   8.978   0.501 -0.1558  0.3393  1.1920
   18CHTO  H146 7337   4.606   9.029   0.405  0.6727 -1.2025  0.1893
   18CHTO   O54 7338   4.531   8.870   0.495 -0.1333 -0.4940  0.0595
   18CHTO  H133 7339   4.546   8.812   0.567  0.6124 -0.9563 -0.4672
   18CHTO   C75 7340   4.614   9.070   0.623 -0.6736 -0.9431  0.0645
   18CHTO  H147 7341   4.682   9.155   0.606  0.1090 -1.3987  0.8292
   18CHTO   N13 7342   4.486   9.137   0.642  0.3800 -0.5506 -0.6975
   18CHTO  H139 7343   4.461   9.215   0.571  0.0586 -0.4306 -0.4513
   18CHTO  H140 7344   4.465   9.164   0.744 -0.2274 -0.8100 -0.7491
   18CHTO   C76 7345   4.669   8.997   0.752  0.3205  0.6212 -0.9834
   18CHTO  H148 7346   4.594   8.929   0.792  1.7184  0.3929  1.3395
   18CHTO   O49 7347   4.797   8.930   0.725 -0.8595 -0.0655 -0.6443
   18CHTO   C77 7348   4.797   8.840   0.615  0.0090  0.0374  0.5722
   18CHTO  H149 7349   4.730   8.756   0.632 -1.3912  0.9874 -0.1434
   18CHTO   C88 7350   4.939   8.783   0.627  0.6532 -0.0978 -0.3168
   18CHTO   O58 7351   4.949   8.710   0.549  0.2098  0.2578 -0.3177
   18CHTO  H136 7352   5.042   8.698   0.542  0.5328  0.0240  3.3142
   18CHTO   O51 7353   4.698   9.103   0.863  0.2053  0.2986  0.1325
   18CHTO   C78 7354   4.747   9.058   0.985 -0.1730  0.8408  0.1996
   18CHTO  H150 7355   4.784   8.954   0.974 -1.3761  0.4630 -0.3796
   18CHTO   C80 7356   4.640   9.057   1.100  0.0292  0.3534 -0.5538
   18CHTO  H152 7357   4.581   9.151   1.092  0.0832  0.4613  0.2700
   18CHTO   O55 7358   4.547   8.953   1.061 -0.4855 -0.1849  0.5803
   18CHTO  H134 7359   4.499   8.982   0.985  0.2007 -0.3704  0.0740
   18CHTO   C84 7360   4.695   9.038   1.242 -0.3418 -0.0055 -0.1767
   18CHTO  H156 7361   4.738   8.938   1.247 -1.1186 -0.3400 -0.0451
   18CHTO   N15 7362   4.585   9.055   1.344  0.0056  0.7676 -0.4651
   18CHTO  H143 7363   4.542   9.151   1.331 -2.8201 -0.4199 -0.1922
   18CHTO  H144 7364   4.627   9.054   1.443 -1.0884 -2.2034  0.0355
   18CHTO   C87 7365   4.820   9.123   1.260  0.3035 -0.2307  0.5228
   18CHTO  H159 7366   4.793   9.225   1.286  0.8195  0.6743 -2.3429
   18CHTO   O53 7367   4.918   9.117   1.147 -0.1393 -0.4893  0.1152
   18CHTO   C82 7368   4.873   9.145   1.017  0.1856  0.3747  0.4256
   18CHTO  H154 7369   4.846   9.250   1.007  1.1422  0.4506 -1.6636
   18CHTO   C89 7370   4.995   9.116   0.925 -0.3661  0.4118 -0.0000
   18CHTO   O59 7371   4.952   9.151   0.792 -0.7914 -0.3306 -0.4162
   18CHTO  H137 7372   5.024   9.141   0.733  0.1302 -1.1046  0.8215
   18CHTO   O45 7373   4.904   9.078   1.398 -0.3320  0.4361  0.7364
   18CHTO   C67 7374   5.035   9.023   1.381 -0.2046  0.5177  0.0765
   18CHTO  H124 7375   5.049   8.956   1.297 -2.7914  0.3864 -0.2925
   18CHTO   C65 7376   5.128   9.150   1.357 -0.0188  0.4346 -0.4543
   18CHTO  H122 7377   5.057   9.233   1.347 -1.7509 -0.8118  1.1487
   18CHTO   O44 7378   5.191   9.133   1.227  0.4425  0.5802 -0.5776
   18CHTO  H102 7379   5.136   9.160   1.156 -1.7549 -0.2668  0.7607
   18CHTO   C63 7380   5.227   9.169   1.478  0.6125  0.7318  0.3389
   18CHTO  H120 7381   5.166   9.192   1.565 -3.4017 -1.4221 -1.7928
   18CHTO   N11 7382   5.314   9.295   1.474 -0.2501  0.5351  0.4398
   18CHTO  H108 7383   5.393   9.277   1.405 -0.6541 -1.1964  0.4086
   18CHTO  H109 7384   5.264   9.389   1.464  1.9063  1.5055 -1.6670
   18CHTO   C61 7385   5.306   9.033   1.500  0.7569  0.2276 -0.4980
   18CHTO  H118 7386   5.365   9.053   1.590 -0.4882  2.7396 -0.1915
   18CHTO   O40 7387   5.219   8.922   1.519 -0.1371 -0.1324  0.6636
   18CHTO   C68 7388   5.071   8.936   1.510  0.0261 -0.1533 -0.0595
   18CHTO  H125 7389   5.042   8.984   1.606  1.9698  0.2760  0.3279
   18CHTO   C72 7390   4.998   8.800   1.509 -0.0163  0.4356  0.3199
   18CHTO   O48 7391   4.864   8.810   1.552  0.1757 -0.7359  0.1652
   18CHTO  H105 7392   4.811   8.780   1.481  1.3292  1.5309 -1.7243
   18CHTO   O38 7393   5.393   9.012   1.389 -0.2871  0.3646 -0.2024
   18CHTO   C55 7394   5.500   8.918   1.402  0.2087  0.2637  0.6611
   18CHTO  H112 7395   5.487   8.863   1.496  2.6308 -0.7478  0.4544
   18CHTO   C56 7396   5.630   8.998   1.397  0.1690 -0.0839 -0.4179
   18CHTO  H113 7397   5.626   9.054   1.302 -1.7404  1.5467  0.5918
   18CHTO   O42 7398   5.632   9.096   1.506 -0.3611  0.5648 -0.1701
   18CHTO  H100 7399   5.613   9.058   1.590  0.4598 -2.1608 -1.1792
   18CHTO   C57 7400   5.755   8.897   1.407  0.8046  0.1777 -0.2709
   18CHTO  H114 7401   5.753   8.850   1.506 -0.3922  0.5584 -0.1163
   18CHTO   N10 7402   5.892   8.957   1.393  0.5407  0.8117 -1.2385
   18CHTO  H106 7403   5.960   8.893   1.449  0.7134  1.6768 -0.4407
   18CHTO  H107 7404   5.911   9.056   1.431  1.4857 -0.0548  0.6579
   18CHTO   C58 7405   5.737   8.780   1.311 -0.4839  0.0757 -0.5522
   18CHTO  H115 7406   5.757   8.816   1.208  2.3827 -0.1634 -0.1307
   18CHTO   O37 7407   5.603   8.726   1.315 -0.0003 -0.0078  0.0169
   18CHTO   C59 7408   5.495   8.815   1.290  0.3473  0.3490 -0.0811
   18CHTO  H116 7409   5.500   8.872   1.197  1.5538 -1.6268 -1.2790
   18CHTO   C70 7410   5.363   8.739   1.294  0.2957  0.4419 -0.7549
   18CHTO   O46 7411   5.336   8.659   1.414 -0.6612  0.1012  0.1439
   18CHTO  H103 7412   5.366   8.701   1.492 -1.3515 -3.2687  2.3298
   18CHTO   O39 7413   5.844   8.662   1.338 -0.8965 -0.1138 -0.4414
   18CHTO   C60 7414   5.812   8.561   1.441 -0.6108 -0.1918 -0.9802
   18CHTO  H117 7415   5.731   8.602   1.500  1.5734  0.3208  1.7867
   18CHTO   C62 7416   5.759   8.430   1.378 -0.4815 -0.0810  0.1471
   18CHTO  H119 7417   5.677   8.458   1.309  0.4882  0.0022 -0.9866
   18CHTO   O43 7418   5.855   8.351   1.305  0.3053 -0.3047  0.2969
   18CHTO  H101 7419   5.804   8.315   1.236 -3.0445  1.7528  1.6152
   18CHTO   C66 7420   5.688   8.345   1.499  0.1726 -0.8353  0.2881
   18CHTO  H123 7421   5.586   8.381   1.515  0.2217 -1.1451  1.3249
   18CHTO   N12 7422   5.655   8.201   1.472 -0.0276  0.0005  0.0097
   18CHTO  H110 7423   5.584   8.164   1.544  0.8607  0.1082  0.9559
   18CHTO  H111 7424   5.615   8.188   1.372 -1.4413  0.6204  0.4825
   18CHTO   C69 7425   5.756   8.356   1.637 -0.2710  0.4142 -0.6557
   18CHTO  H126 7426   5.754   8.268   1.704  0.0348  1.2514  0.4723
   18CHTO   O41 7427   5.906   8.382   1.627  0.0371  0.6025 -0.4407
   18CHTO   C64 7428   5.932   8.522   1.535 -0.2244 -1.0667  0.0530
   18CHTO  H121 7429   6.020   8.504   1.470 -0.6512 -2.4107 -0.1652
   18CHTO   C71 7430   5.954   8.643   1.633  0.1108 -0.4215 -0.2160
   18CHTO   O47 7431   6.076   8.636   1.716  0.2601  0.3098  0.4729
   18CHTO  H104 7432   6.155   8.647   1.668 -0.2988 -2.0501 -1.0583
   18CHTO   O34 7433   5.686   8.468   1.722  0.3000  0.0670 -0.0971
   18CHTO   C49 7434   5.632   8.500   1.869 -0.7509  0.2774 -0.0983
   18CHTO   H91 7435   5.699   8.442   1.933  2.6474  4.1035 -0.0047
   18CHTO   C47 7436   5.484   8.448   1.871 -0.3726 -0.0765 -0.2665
   18CHTO   H89 7437   5.448   8.436   1.976  1.8240 -2.1161  0.2994
   18CHTO   O33 7438   5.490   8.315   1.823  0.1203 -0.5667  0.1584
   18CHTO   H70 7439   5.409   8.268   1.820  0.0175 -0.4131  0.5248
   18CHTO   C45 7440   5.385   8.539   1.790 -0.2690 -0.5440 -0.1669
   18CHTO   H87 7441   5.417   8.540   1.685 -1.2182 -0.9234 -0.4739
   18CHTO    N8 7442   5.243   8.490   1.796  0.9247  0.1817  0.5308
   18CHTO   H75 7443   5.219   8.446   1.892 -0.2956  1.8534  1.0190
   18CHTO   H76 7444   5.175   8.567   1.762  1.0336  0.6635  1.3824
   18CHTO   C43 7445   5.401   8.690   1.829 -0.0830  0.5475  0.2679
   18CHTO   H85 7446   5.355   8.747   1.749  2.4234  0.0838 -1.5948
   18CHTO   O29 7447   5.538   8.724   1.841 -0.3248  0.6437 -0.3709
   18CHTO   C50 7448   5.630   8.643   1.910  0.9052 -0.0598  0.0680
   18CHTO   H92 7449   5.738   8.661   1.894  1.5567 -2.0427  1.9282
   18CHTO   C54 7450   5.626   8.663   2.065  0.6081  0.3686  0.3355
   18CHTO   O36 7451   5.687   8.788   2.091 -0.0775  0.0960 -0.1779
   18CHTO   H72 7452   5.695   8.787   2.184 -1.1853  0.2375 -0.0786
   18CHTO   O27 7453   5.336   8.732   1.953 -0.1451 -0.1240  0.8027
   18CHTO   C37 7454   5.268   8.853   1.993  0.4015  0.2850 -0.0821
   18CHTO   H79 7455   5.247   8.853   2.101 -1.3970 -2.3995 -0.3690
   18CHTO   C38 7456   5.357   8.978   1.962  0.0590  0.1209  0.6164
   18CHTO   H80 7457   5.393   8.966   1.859  1.0599  1.1213  0.8407
   18CHTO   O31 7458   5.476   8.990   2.047 -0.0947  0.1484  0.7575
   18CHTO   H68 7459   5.552   9.010   1.995 -0.7100  1.5575  0.3959
   18CHTO   C39 7460   5.279   9.116   1.975  0.4215 -0.2857 -0.3476
   18CHTO   H81 7461   5.275   9.145   2.080 -2.0667  0.3420 -0.5894
   18CHTO    N7 7462   5.357   9.224   1.895 -0.5172  0.1677  0.2023
   18CHTO   H73 7463   5.279   9.293   1.865 -0.2918 -0.9906 -3.2433
   18CHTO   H74 7464   5.439   9.261   1.955 -0.4545  0.9735 -0.3630
   18CHTO   C40 7465   5.123   9.109   1.924  0.4778  0.3303  0.2760
   18CHTO   H82 7466   5.115   9.116   1.816  1.5643  2.8421  0.3260
   18CHTO   O26 7467   5.066   8.989   1.978  0.0968 -0.0608  0.2382
   18CHTO   C41 7468   5.128   8.865   1.921  0.1322  0.1261 -0.2745
   18CHTO   H83 7469   5.140   8.880   1.813 -0.4158 -0.1084 -0.3736
   18CHTO   C52 7470   5.023   8.747   1.951 -0.4706 -0.0921 -0.4032
   18CHTO   O35 7471   4.895   8.754   1.863  0.1336 -0.1617  0.3330
   18CHTO   H71 7472   4.822   8.712   1.903  1.7933 -1.6250  1.9253
   18CHTO   O28 7473   5.054   9.221   1.975  0.0380  0.5389  0.3524
   18CHTO   C42 7474   4.911   9.241   1.967 -0.3165  0.2504 -0.0227
   18CHTO   H84 7475   4.888   9.345   1.990  0.0314  0.1222  0.9189
   18CHTO   C44 7476   4.833   9.160   2.080  0.6931  0.3248  0.1952
   18CHTO   H86 7477   4.841   9.055   2.053 -1.5305  0.9517 -3.1917
   18CHTO   O32 7478   4.901   9.176   2.208  0.7037 -0.8518  0.2208
   18CHTO   H69 7479   4.991   9.155   2.196  1.5438  1.3905  2.2413
   18CHTO   C48 7480   4.677   9.202   2.088  0.2262 -0.2432  0.0630
   18CHTO   H90 7481   4.663   9.308   2.112 -1.3058  0.0341 -1.9325
   18CHTO    N9 7482   4.609   9.119   2.203  0.2017 -0.2763  0.0490
   18CHTO   H77 7483   4.681   9.112   2.282 -0.2721 -2.3302  0.3160
   18CHTO   H78 7484   4.525   9.176   2.242  1.0994  2.7451 -2.1752
   18CHTO   C51 7485   4.614   9.180   1.946  0.1464  0.8542 -0.3273
   18CHTO   H93 7486   4.606   9.076   1.915  3.1954 -0.1672  2.1630
   18CHTO   O30 7487   4.696   9.254   1.850 -0.0786 -0.1707 -0.2054
   18CHTO   C46 7488   4.846   9.206   1.832 -0.1535  1.2367 -0.6990
   18CHTO   H88 7489   4.850   9.100   1.805  0.8831  1.0485  0.1472
   18CHTO   C53 7490   4.905   9.294   1.725 -0.0880  0.7859  0.1439
   18CHTO   O72 7491   4.863   9.242   1.596 -0.4372 -0.9572 -1.4208
   18CHTO  H199 7492   4.919   9.260   1.523  2.1229 -3.7771 -0.2728
   18CHTO   O22 7493   4.483   9.241   1.943  0.2875 -0.0501 -0.0358
   18CHTO   C31 7494   4.371   9.179   1.869 -0.2621 -0.5190  0.0777
   18CHTO   H59 7495   4.415   9.093   1.815 -0.1044 -0.5664  0.2775
   18CHTO   C29 7496   4.256   9.119   1.958  0.0852 -0.1667 -0.2331
   18CHTO   H57 7497   4.211   9.196   2.022 -1.4088  1.2443 -2.8807
   18CHTO   O21 7498   4.322   9.028   2.045 -0.3632  0.2567 -0.1236
   18CHTO   H37 7499   4.341   9.062   2.130 -1.4207  2.6730 -0.7972
   18CHTO   C27 7500   4.144   9.054   1.872 -0.8398 -1.0822  0.6815
   18CHTO   H55 7501   4.179   8.963   1.822 -1.0445 -1.5806  1.4358
   18CHTO    N5 7502   4.029   9.020   1.952 -0.3375 -0.3556  0.2439
   18CHTO   H43 7503   3.945   9.079   1.921 -0.3356 -1.0138 -1.0231
   18CHTO   H44 7504   4.014   8.913   1.953 -1.4142 -0.2143  1.9793
   18CHTO   C25 7505   4.103   9.159   1.758 -0.5647 -0.1889  0.1229
   18CHTO   H53 7506   4.062   9.246   1.811  0.0754 -0.2256  0.6793
   18CHTO   O17 7507   4.226   9.190   1.684  0.8353 -0.1960  0.7161
   18CHTO   C32 7508   4.320   9.272   1.758 -0.4597  0.5823  1.0890
   18CHTO   H60 7509   4.252   9.346   1.800 -2.6566 -1.0706  0.5610
   18CHTO   C36 7510   4.411   9.335   1.652  0.0587  0.1030 -0.5252
   18CHTO   O25 7511   4.487   9.442   1.715 -0.0461 -0.1023 -0.1009
   18CHTO   H40 7512   4.561   9.476   1.669  1.0288  0.8573  2.2618
   18CHTO   O15 7513   3.961   9.090   1.653 -0.3473  0.1790  0.1450
   18CHTO   C19 7514   3.931   9.030   1.529  0.7348 -0.8210 -0.0040
   18CHTO   H47 7515   3.829   8.989   1.534  0.8463 -0.8595  2.5363
   18CHTO   C20 7516   3.945   9.135   1.405  0.4938  0.2846 -0.3807
   18CHTO   H48 7517   4.037   9.195   1.414  0.6265 -0.1031  0.8710
   18CHTO   O19 7518   3.826   9.222   1.409 -0.3644  0.3738  0.3147
   18CHTO   H35 7519   3.840   9.299   1.358  1.1193  0.8582  1.4118
   18CHTO   C21 7520   3.952   9.071   1.261  0.3255  0.1102 -0.5012
   18CHTO   H49 7521   3.857   9.026   1.230  0.5715  0.7086 -2.1567
   18CHTO    N4 7522   3.988   9.159   1.153  1.0577 -1.1794  0.4352
   18CHTO   H41 7523   3.913   9.236   1.147  1.8655 -0.3603  0.5486
   18CHTO   H42 7524   4.086   9.201   1.174  2.6911 -4.6073 -0.0349
   18CHTO   C22 7525   4.046   8.952   1.265  0.0601  0.4429  0.7449
   18CHTO   H50 7526   4.146   8.988   1.288  1.0199 -2.0382  0.6787
   18CHTO   O14 7527   4.002   8.860   1.365 -0.1853 -0.1844  0.0512
   18CHTO   C23 7528   4.016   8.904   1.502  0.1807 -0.0266 -0.1726
   18CHTO   H51 7529   4.124   8.924   1.513 -0.0286  0.2708  1.4425
   18CHTO   C34 7530   3.975   8.791   1.600  0.2397 -0.4113  0.2278
   18CHTO   O23 7531   4.038   8.671   1.572 -0.3413  0.4444  0.3351
   18CHTO   H38 7532   4.099   8.646   1.639 -0.2022  0.3923  0.1907
   18CHTO   O16 7533   4.033   8.868   1.147  0.1311 -0.3364 -0.2450
   18CHTO   C24 7534   4.179   8.826   1.078 -0.3641 -0.1439  0.2797
   18CHTO   H52 7535   4.258   8.894   1.111 -0.2154  0.0144 -0.3938
   18CHTO   C26 7536   4.166   8.832   0.923 -0.3945  0.2718  0.2136
   18CHTO   H54 7537   4.089   8.760   0.891  1.6385 -1.8208 -0.1075
   18CHTO   O20 7538   4.144   8.974   0.887  0.1691  0.9488  0.0575
   18CHTO   H36 7539   4.106   8.973   0.802  2.4295 -0.7458 -0.9994
   18CHTO   C30 7540   4.293   8.779   0.852  0.3748 -0.6368  0.5800
   18CHTO   H58 7541   4.381   8.842   0.870  2.0041 -2.2629 -1.3572
   18CHTO    N6 7542   4.278   8.782   0.704  0.3540  0.6888 -0.0447
   18CHTO   H45 7543   4.183   8.744   0.668 -0.0224  2.1321 -0.6194
   18CHTO   H46 7544   4.305   8.870   0.648  5.3650 -0.6850  0.0199
   18CHTO   C33 7545   4.330   8.636   0.914  0.3311 -0.0852 -0.4916
   18CHTO   H61 7546   4.242   8.573   0.892  1.5320 -1.2434 -2.0623
   18CHTO   O18 7547   4.346   8.652   1.054  0.0257 -0.1159 -0.7420
   18CHTO   C28 7548   4.226   8.683   1.119  0.6403 -0.3283  0.2922
   18CHTO   H56 7549   4.149   8.611   1.092 -1.7285  1.7506  1.3086
   18CHTO   C35 7550   4.245   8.670   1.270  0.3511 -1.0447  0.3913
   18CHTO   O24 7551   4.324   8.771   1.319  0.0231 -0.2343  0.2318
   18CHTO   H39 7552   4.286   8.785   1.404 -2.1774 -2.0633 -0.3877
   18CHTO    O9 7553   4.448   8.580   0.848 -0.3959 -0.3494  0.0178
   18CHTO   C13 7554   4.592   8.531   0.947 -0.3184  0.1655  0.2783
   18CHTO   H26 7555   4.547   8.470   1.028  1.6504  0.4242  1.6035
   18CHTO   C11 7556   4.695   8.632   1.005  0.7668  0.3746  0.1902
   18CHTO   H24 7557   4.642   8.691   1.082  0.9751 -0.5006  1.0157
   18CHTO    O8 7558   4.740   8.720   0.905 -0.0871  0.1023 -0.4496
   18CHTO    H3 7559   4.789   8.668   0.844  1.0625 -0.4246  0.9142
   18CHTO    C9 7560   4.808   8.555   1.078 -0.1661  0.5200  0.4821
   18CHTO   H22 7561   4.756   8.484   1.144 -1.9811  1.5539  0.1918
   18CHTO    N2 7562   4.891   8.642   1.170  0.5940  0.0333  0.5168
   18CHTO   H10 7563   4.951   8.712   1.114 -0.5966  0.1614 -0.6261
   18CHTO   H11 7564   4.955   8.572   1.222 -1.1364 -0.1469  2.4716
   18CHTO    C7 7565   4.891   8.468   0.978  0.1386 -0.4628 -0.6018
   18CHTO   H20 7566   4.958   8.413   1.046 -2.2007 -0.3921  1.8640
   18CHTO    O4 7567   4.800   8.382   0.904 -0.1242 -0.1027 -0.0537
   18CHTO   C14 7568   4.672   8.418   0.854  0.1799 -0.5000 -0.2940
   18CHTO   H27 7569   4.627   8.317   0.854 -0.0656 -0.4024  0.5528
   18CHTO   C18 7570   4.691   8.466   0.708 -0.0791  0.4147 -1.1350
   18CHTO   O13 7571   4.576   8.513   0.637 -0.2182  0.1929 -0.1205
   18CHTO    H7 7572   4.601   8.524   0.547 -1.9018  0.2292 -0.5875
   18CHTO    O2 7573   4.972   8.562   0.865  0.0609  0.0047 -0.4730
   18CHTO    C1 7574   5.111   8.521   0.836  0.4441 -0.7366 -0.3556
   18CHTO   H14 7575   5.141   8.580   0.747 -1.8969 -0.2886 -0.8596
   18CHTO    C2 7576   5.127   8.365   0.794  0.1762 -0.3293  0.7784
   18CHTO   H15 7577   5.086   8.309   0.880  0.8953 -0.1266  1.2562
   18CHTO    O6 7578   5.039   8.337   0.687  0.0037 -0.6710  0.0549
   18CHTO    H1 7579   4.947   8.342   0.707 -0.2194 -1.5823 -0.6634
   18CHTO    C3 7580   5.279   8.331   0.754  0.1389 -0.1351  0.5277
   18CHTO   H16 7581   5.306   8.393   0.667 -2.9059 -0.8854 -1.0323
   18CHTO    N1 7582   5.293   8.183   0.724 -0.9359 -0.3197  0.1213
   18CHTO    H8 7583   5.364   8.142   0.794  2.4211  0.0512 -2.9332
   18CHTO    H9 7584   5.323   8.160   0.623 -0.9877  0.5194 -0.0867
   18CHTO    C4 7585   5.362   8.381   0.878  0.2833 -0.2051  0.5177
   18CHTO   H17 7586   5.352   8.313   0.963 -0.4333  1.0353  1.4394
   18CHTO    O1 7587   5.343   8.516   0.919  0.0913 -0.1906  0.0823
   18CHTO    C5 7588   5.210   8.556   0.953  0.4973  0.2803  0.5400
   18CHTO   H18 7589   5.171   8.508   1.044  2.0088  0.2240  1.1661
   18CHTO   C16 7590   5.212   8.712   0.967 -0.0004 -0.1594 -0.4557
   18CHTO   O11 7591   5.249   8.770   0.837  0.1848  0.0552  0.3204
   18CHTO    H5 7592   5.331   8.740   0.802  0.8398 -0.0400  1.9330
   18CHTO    O3 7593   5.496   8.393   0.840  0.3778  0.5734 -0.2170
   18CHTO    C6 7594   5.596   8.345   0.949  0.4973 -0.0272 -1.0880
   18CHTO   H19 7595   5.563   8.363   1.052  2.0049  2.3249 -0.9970
   18CHTO    C8 7596   5.620   8.194   0.931  0.1580 -0.1093  0.0547
   18CHTO   H21 7597   5.627   8.170   0.825  0.8756 -0.0047  0.0715
   18CHTO    O7 7598   5.502   8.120   0.972 -0.2882  0.0914  0.6498
   18CHTO    H2 7599   5.522   8.042   1.020 -0.9117 -0.7192 -0.3869
   18CHTO   C12 7600   5.758   8.141   0.995 -0.2813 -0.6667  0.1058
   18CHTO   H25 7601   5.742   8.139   1.105 -2.4759 -0.6561 -0.1842
   18CHTO    N3 7602   5.787   8.001   0.954 -0.2272  0.1007  0.4262
   18CHTO   H12 7603   5.721   7.938   1.012  0.8649 -1.0748  0.4321
   18CHTO   H13 7604   5.889   7.979   0.984 -0.0577  0.1811 -0.0947
   18CHTO   C15 7605   5.870   8.244   0.957 -0.3312 -0.1148 -0.8193
   18CHTO   H28 7606   5.889   8.243   0.849 -0.6280  0.3578 -0.8803
   18CHTO   O10 7607   6.005   8.221   1.037  0.2143 -0.1659 -0.4022
   18CHTO    H4 7608   6.051   8.148   1.003 -0.0122 -1.1606  1.3714
   18CHTO    O5 7609   5.829   8.369   1.000 -0.1973  0.5970  0.8580
   18CHTO   C10 7610   5.720   8.429   0.926  0.2140 -0.0835 -0.5977
   18CHTO   H23 7611   5.745   8.440   0.820  0.9143 -1.7407 -0.6186
   18CHTO   C17 7612   5.699   8.578   0.973  0.5031  0.0238  0.5119
   18CHTO   O12 7613   5.816   8.663   0.955 -0.2108  0.3199 -0.5742
   18CHTO    H6 7614   5.803   8.739   1.008  1.4318 -0.9935  1.8178
   19CHTO  H203 7615   5.033  10.334   0.255 -1.9022  1.6667 -0.8444
   19CHTO   O82 7616   4.967  10.288   0.302  0.0449 -0.2391  0.1359
   19CHTO  C123 7617   4.876  10.218   0.219  0.4342 -1.2672  0.2889
   19CHTO  H227 7618   4.812  10.294   0.170  0.9818 -1.3503 -0.5648
   19CHTO   O77 7619   4.972  10.160   0.133  0.0564 -0.3145  0.2185
   19CHTO  C118 7620   4.919  10.056   0.048  0.0699 -1.0096  0.2824
   19CHTO  H222 7621   4.838  10.096  -0.014  0.6035 -1.2719 -0.5887
   19CHTO  C125 7622   5.035  10.011  -0.045  0.5319 -0.5479  0.4032
   19CHTO   O84 7623   5.151   9.967   0.019  0.3373 -0.5751  0.1201
   19CHTO  H205 7624   5.145   9.877   0.045  1.7388  0.0044  2.6086
   19CHTO  C114 7625   4.861   9.939   0.134 -0.1926 -0.2023  0.5112
   19CHTO  H218 7626   4.939   9.905   0.203  2.4047  1.2736 -1.6303
   19CHTO  C116 7627   4.745   9.994   0.219  0.5720  0.2266  0.9934
   19CHTO  H220 7628   4.663  10.021   0.149  0.8162  0.5364  0.8287
   19CHTO   O79 7629   4.693   9.885   0.294 -0.1086  0.2511  0.6799
   19CHTO  H201 7630   4.615   9.905   0.342 -0.9205  0.2621 -0.6283
   19CHTO  C120 7631   4.794  10.114   0.306  0.4179  0.2206  0.2419
   19CHTO  H224 7632   4.864  10.060   0.373  0.6040  0.1562 -0.0049
   19CHTO   N21 7633   4.681  10.169   0.388 -0.6139 -0.6937  0.4972
   19CHTO  H211 7634   4.597  10.104   0.408  0.7250 -2.4706  0.4513
   19CHTO  H212 7635   4.713  10.209   0.484 -0.0183  1.4850 -0.5705
   19CHTO   O75 7636   4.818   9.835   0.039 -0.3768 -0.5807  0.1711
   19CHTO  C112 7637   4.845   9.684   0.091 -0.6023 -0.5286  0.3885
   19CHTO  H216 7638   4.835   9.680   0.201 -2.2697 -1.9250  0.2022
   19CHTO   O73 7639   4.980   9.652   0.046 -0.2787  0.1028  0.1225
   19CHTO  C113 7640   5.038   9.523   0.085 -0.3906 -0.4265  0.5427
   19CHTO  H217 7641   5.004   9.507   0.190 -2.7999  0.9739  0.0212
   19CHTO  C124 7642   5.194   9.515   0.066 -0.3336  0.1855  0.4665
   19CHTO   O83 7643   5.261   9.631   0.126 -0.5450 -0.0337 -0.4081
   19CHTO  H204 7644   5.303   9.682   0.059 -0.4657  2.2216  1.3175
   19CHTO  C109 7645   4.971   9.427  -0.017 -0.1063 -0.2681  0.5424
   19CHTO  H213 7646   4.983   9.474  -0.115  1.1286  1.0277  1.3002
   19CHTO  C110 7647   4.820   9.428   0.020  0.8292 -0.2031 -0.0591
   19CHTO  H214 7648   4.794   9.381   0.115 -0.1957 -0.8292 -0.6325
   19CHTO   O78 7649   4.748   9.334  -0.062  0.1777  0.0255  0.4057
   19CHTO  H200 7650   4.657   9.329  -0.040  0.2028  1.6325  0.8962
   19CHTO  C111 7651   4.759   9.578   0.017  0.0577  0.4066  0.5352
   19CHTO  H215 7652   4.750   9.613  -0.087  2.5870 -2.0224 -0.5974
   19CHTO   N19 7653   4.627   9.587   0.078  0.0818 -0.0399  0.0908
   19CHTO  H207 7654   4.585   9.489   0.096  0.9941 -0.0765  2.1143
   19CHTO  H208 7655   4.570   9.657   0.018 -0.7977 -0.4240  0.4726
   19CHTO   O74 7656   5.024   9.288  -0.011  0.2327  0.0456  0.1786
   19CHTO  C115 7657   5.016   9.208  -0.157  0.3408 -0.2712 -0.1720
   19CHTO  H219 7658   4.920   9.225  -0.207  0.6554  0.0594 -0.6704
   19CHTO   O76 7659   5.127   9.264  -0.260 -0.4586  0.0526 -0.3202
   19CHTO  C122 7660   5.254   9.197  -0.253 -0.1188 -0.5143 -0.3532
   19CHTO  H226 7661   5.305   9.238  -0.165  0.6661  0.4975 -1.2656
   19CHTO  C126 7662   5.343   9.233  -0.379 -0.2105  0.3245 -0.3966
   19CHTO   O85 7663   5.389   9.368  -0.397  0.1710  0.7372 -0.5950
   19CHTO  H206 7664   5.482   9.370  -0.393  0.1747 -0.1924 -0.0402
   19CHTO  C121 7665   5.251   9.043  -0.256  0.2353  0.2689  0.1110
   19CHTO  H225 7666   5.300   9.000  -0.346  3.1893  2.4063  0.6304
   19CHTO   O81 7667   5.339   8.991  -0.158 -0.1931 -0.2160 -0.3134
   19CHTO  H202 7668   5.346   8.898  -0.151  2.1169  0.0791  1.8982
   19CHTO  C119 7669   5.105   8.986  -0.233  0.3578  1.0161  0.4636
   19CHTO  H223 7670   5.051   9.011  -0.324  0.5501  0.3091  0.1468
   19CHTO  C117 7671   5.027   9.058  -0.126 -0.3409 -0.1232 -0.3278
   19CHTO  H221 7672   5.071   9.053  -0.026  3.6829  0.7764 -1.9622
   19CHTO   N20 7673   4.884   9.012  -0.106  0.2181 -0.1815 -0.0292
   19CHTO  H209 7674   4.849   9.034  -0.006  0.0466 -0.2629 -0.0714
   19CHTO  H210 7675   4.878   8.907  -0.129  2.5339 -0.0036 -1.5354
   19CHTO   O80 7676   5.085   8.822  -0.222  0.5368 -0.6454 -0.0133
   19CHTO  C103 7677   5.102   8.731  -0.358 -1.3192 -0.5119 -0.0674
   19CHTO  H190 7678   5.092   8.794  -0.447 -1.2634 -1.7827 -0.9997
   19CHTO  C101 7679   5.231   8.634  -0.361  0.3436  0.3992  0.5688
   19CHTO  H188 7680   5.239   8.577  -0.269 -0.5997  0.9392  0.9919
   19CHTO   O68 7681   5.369   8.732  -0.383 -0.2408  0.5434  0.1256
   19CHTO  H168 7682   5.382   8.792  -0.312  0.0349  0.3099  0.2734
   19CHTO   C99 7683   5.211   8.526  -0.478  0.8859  0.4523 -0.2527
   19CHTO  H186 7684   5.216   8.579  -0.576 -1.1042 -1.1397 -1.2828
   19CHTO   N17 7685   5.330   8.426  -0.476 -0.6458 -0.2457 -1.0806
   19CHTO  H174 7686   5.377   8.420  -0.574 -0.2200  0.0294 -0.8934
   19CHTO  H175 7687   5.301   8.328  -0.441  1.7561 -1.0545 -1.2228
   19CHTO   C97 7688   5.071   8.456  -0.478  0.1419 -0.4071  0.2290
   19CHTO  H184 7689   5.066   8.397  -0.386  4.1573  0.4707  1.0621
   19CHTO   O64 7690   4.973   8.560  -0.483  0.2936  0.0793 -0.0338
   19CHTO  C104 7691   4.976   8.637  -0.362 -0.3179 -0.5085  0.0706
   19CHTO  H191 7692   4.969   8.582  -0.268 -0.7897 -0.1959  0.2249
   19CHTO  C108 7693   4.850   8.722  -0.360  0.1875  0.1339  0.0848
   19CHTO   O71 7694   4.732   8.646  -0.384  0.0829 -0.3020  0.0900
   19CHTO  H171 7695   4.666   8.713  -0.379  0.2184 -0.1978  0.4717
   19CHTO   O62 7696   5.059   8.363  -0.590  0.6371  0.2995 -0.3699
   19CHTO   C91 7697   4.946   8.274  -0.582  0.2675  0.3398  0.0232
   19CHTO  H178 7698   4.888   8.302  -0.494  0.9901 -1.4225  1.0808
   19CHTO   C92 7699   5.001   8.131  -0.559  0.1869  0.3341  0.1782
   19CHTO  H179 7700   5.069   8.103  -0.640 -1.7372 -1.3070 -0.9243
   19CHTO   O66 7701   5.077   8.133  -0.435  0.0307  0.3776 -0.2613
   19CHTO  H166 7702   5.136   8.060  -0.433 -1.0308 -0.4757  0.2834
   19CHTO   C93 7703   4.880   8.028  -0.553  0.2193  0.2515 -0.2877
   19CHTO  H180 7704   4.833   8.042  -0.454  1.3658  2.6104 -0.0442
   19CHTO   N16 7705   4.931   7.889  -0.551  0.6469  0.2101  0.0742
   19CHTO  H172 7706   4.990   7.874  -0.462 -1.4736  0.2635  1.5255
   19CHTO  H173 7707   4.991   7.872  -0.639 -0.6916 -2.7554 -0.3251
   19CHTO   C94 7708   4.772   8.053  -0.664 -0.1222 -0.4028  0.0170
   19CHTO  H181 7709   4.788   7.997  -0.756 -1.4099 -0.0754 -0.4120
   19CHTO   O61 7710   4.741   8.191  -0.692 -0.2732  0.2329  0.1176
   19CHTO   C95 7711   4.848   8.281  -0.700  0.4814 -1.0183  0.3139
   19CHTO  H182 7712   4.900   8.267  -0.795 -0.2399  2.4741 -0.6582
   19CHTO  C106 7713   4.786   8.424  -0.696 -0.8836 -0.1931  0.2089
   19CHTO   O69 7714   4.692   8.465  -0.800 -0.2601 -0.5424  0.2522
   19CHTO  H169 7715   4.688   8.414  -0.879  0.8972  0.2459 -0.3225
   19CHTO   O63 7716   4.625   7.997  -0.612 -0.5294  0.5314 -0.1433
   19CHTO   C96 7717   4.543   7.933  -0.701 -0.2253 -0.0375  0.1301
   19CHTO  H183 7718   4.602   7.927  -0.792  2.4174  1.9993  1.6532
   19CHTO   C98 7719   4.425   8.028  -0.724  0.3612  0.0191 -0.1249
   19CHTO  H185 7720   4.460   8.126  -0.758  0.6778  0.5249  1.5876
   19CHTO   O67 7721   4.340   7.977  -0.832  0.1984  0.3857 -0.1230
   19CHTO  H167 7722   4.384   7.995  -0.913  0.4727  2.7684  0.5083
   19CHTO  C102 7723   4.336   8.040  -0.591 -0.3103  0.4755 -0.1370
   19CHTO  H189 7724   4.234   8.067  -0.624 -0.6365 -0.5489  0.0044
   19CHTO   N18 7725   4.374   8.147  -0.500  0.0526 -0.5201 -0.0352
   19CHTO  H176 7726   4.319   8.147  -0.406  1.9266 -1.4019  1.0939
   19CHTO  H177 7727   4.480   8.164  -0.490  0.3413 -1.7854 -0.8784
   19CHTO  C105 7728   4.325   7.903  -0.509 -0.7886 -0.1727  0.2810
   19CHTO  H192 7729   4.396   7.899  -0.426  1.3545  0.4066 -1.4683
   19CHTO   O65 7730   4.354   7.796  -0.599 -0.6561  0.2044  0.4897
   19CHTO  C100 7731   4.495   7.790  -0.643  0.6735  0.0609  0.9015
   19CHTO  H187 7732   4.561   7.772  -0.556  2.2720 -0.7000 -0.4468
   19CHTO  C107 7733   4.514   7.671  -0.745 -0.9308 -0.1690  0.0666
   19CHTO   O70 7734   4.649   7.667  -0.802 -0.1621  0.5496  0.0718
   19CHTO  H170 7735   4.643   7.703  -0.888  0.8239 -1.1723 -0.7327
   19CHTO   O57 7736   4.162   7.898  -0.460  0.5538 -0.4498 -0.2610
   19CHTO   C85 7737   4.065   7.804  -0.504 -0.1315  0.2457 -0.6078
   19CHTO  H157 7738   4.114   7.705  -0.503  1.0894  0.8349 -1.2762
   19CHTO   C83 7739   4.034   7.837  -0.659  0.4206 -0.6783 -0.6412
   19CHTO  H155 7740   4.130   7.845  -0.710  1.5952  2.0852  1.8886
   19CHTO   O56 7741   3.978   7.974  -0.673  0.6554 -0.6816 -0.3255
   19CHTO  H135 7742   3.923   7.983  -0.748  0.7429  1.1249 -0.1797
   19CHTO   C81 7743   3.949   7.715  -0.713 -0.3036  0.3199  0.4409
   19CHTO  H153 7744   3.997   7.623  -0.679 -1.2508 -0.7045 -0.9143
   19CHTO   N14 7745   3.947   7.708  -0.860  0.2977  0.9734 -0.4943
   19CHTO  H141 7746   3.852   7.709  -0.908 -0.0080  1.2697  0.1046
   19CHTO  H142 7747   4.017   7.636  -0.897 -0.3862  0.0477  0.0109
   19CHTO   C79 7748   3.811   7.730  -0.635  0.2060  0.7890  0.1469
   19CHTO  H151 7749   3.748   7.650  -0.674 -2.0669  1.5381  2.1471
   19CHTO   O52 7750   3.822   7.714  -0.493  0.1308 -0.0962 -0.2202
   19CHTO   C86 7751   3.920   7.804  -0.430 -0.1544 -0.5151  0.0981
   19CHTO  H158 7752   3.876   7.905  -0.440  0.8302 -0.1051 -0.2356
   19CHTO   C90 7753   3.954   7.776  -0.283 -0.2152  0.0074  0.0643
   19CHTO   O60 7754   3.834   7.747  -0.217 -0.5150 -0.8666  0.1393
   19CHTO  H138 7755   3.798   7.666  -0.245  1.2212 -0.6474 -2.8523
   19CHTO   O50 7756   3.750   7.857  -0.654  0.6413  0.8117  0.1076
   19CHTO   C73 7757   3.609   7.887  -0.657 -0.7873 -0.2496 -0.1345
   19CHTO  H145 7758   3.544   7.808  -0.616 -1.6051 -0.2705 -1.4262
   19CHTO   C74 7759   3.569   7.896  -0.806  0.3104  0.4256 -0.4775
   19CHTO  H146 7760   3.602   7.798  -0.843  1.7846  0.5674  0.4212
   19CHTO   O54 7761   3.423   7.909  -0.809 -1.1734  0.3228  0.0108
   19CHTO  H133 7762   3.383   7.835  -0.850 -0.1788 -0.6851  0.8386
   19CHTO   C75 7763   3.656   8.008  -0.871  0.5831  0.7098 -0.6735
   19CHTO  H147 7764   3.762   7.983  -0.859  0.5083  1.0544  0.8157
   19CHTO   N13 7765   3.629   8.030  -1.011  0.1842  0.4171 -0.3566
   19CHTO  H139 7766   3.640   7.937  -1.065 -0.9865  1.0609 -1.7350
   19CHTO  H140 7767   3.535   8.080  -1.030  0.3142 -0.1164 -2.6347
   19CHTO   C76 7768   3.631   8.146  -0.790 -0.0162 -0.1963 -0.1057
   19CHTO  H148 7769   3.531   8.181  -0.816  0.2253  0.1342 -0.5815
   19CHTO   O49 7770   3.643   8.132  -0.647 -0.1030 -0.4636 -0.0568
   19CHTO   C77 7771   3.578   8.020  -0.584  0.1974 -0.4143  0.1338
   19CHTO  H149 7772   3.472   8.045  -0.591  0.0761 -0.3667  1.9778
   19CHTO   C88 7773   3.603   8.016  -0.435 -0.0418 -0.0320  0.5369
   19CHTO   O58 7774   3.566   8.139  -0.362 -0.3438  0.5689  0.7995
   19CHTO  H136 7775   3.612   8.137  -0.280  0.9751  0.0196  0.0569
   19CHTO   O51 7776   3.753   8.264  -0.847  0.1374 -0.5435 -0.1330
   19CHTO   C78 7777   3.750   8.386  -0.763  0.3723 -0.3702 -0.0500
   19CHTO  H150 7778   3.707   8.366  -0.662  1.4234  1.4124  0.7579
   19CHTO   C80 7779   3.669   8.506  -0.822 -0.9492  0.1033 -0.2949
   19CHTO  H152 7780   3.720   8.535  -0.916 -0.6844 -1.2971 -0.5928
   19CHTO   O55 7781   3.539   8.460  -0.856  0.7230  0.3324  0.1677
   19CHTO  H134 7782   3.491   8.415  -0.789  0.5684  1.1269  0.5925
   19CHTO   C84 7783   3.664   8.630  -0.720  0.2229  0.4884 -0.0869
   19CHTO  H156 7784   3.607   8.604  -0.631 -0.2730  0.0084 -0.5455
   19CHTO   N15 7785   3.594   8.752  -0.775  0.0589  0.4966 -0.4093
   19CHTO  H143 7786   3.606   8.839  -0.714 -2.9170  0.1958  0.7077
   19CHTO  H144 7787   3.490   8.731  -0.785  0.7498 -2.0787 -2.6552
   19CHTO   C87 7788   3.810   8.664  -0.683 -0.3944  0.0345 -0.0886
   19CHTO  H159 7789   3.853   8.707  -0.774 -1.2507  1.1925  0.0384
   19CHTO   O53 7790   3.880   8.541  -0.639  0.4778 -0.4142 -0.2476
   19CHTO   C82 7791   3.895   8.442  -0.728  0.5932  0.0061  0.1300
   19CHTO  H154 7792   3.943   8.476  -0.820 -1.2357 -2.0338 -1.6153
   19CHTO   C89 7793   3.986   8.330  -0.670 -0.3439  0.3642 -0.6175
   19CHTO   O59 7794   3.938   8.240  -0.568 -0.0112 -0.1131  0.1184
   19CHTO  H137 7795   4.003   8.175  -0.553  1.5807  1.5354  0.5797
   19CHTO   O45 7796   3.820   8.783  -0.562 -0.0337 -0.2481 -0.1328
   19CHTO   C67 7797   3.814   8.747  -0.427  0.5770 -0.8382  0.1178
   19CHTO  H124 7798   3.851   8.648  -0.404 -2.7249 -2.1673 -0.0341
   19CHTO   C65 7799   3.906   8.850  -0.348 -0.0488 -0.4254 -0.6312
   19CHTO  H122 7800   3.988   8.864  -0.419 -1.1672 -0.8359 -2.0425
   19CHTO   O44 7801   3.946   8.791  -0.223 -0.1915 -0.3384  0.5497
   19CHTO  H102 7802   4.038   8.800  -0.207 -0.2614 -0.8777  1.3008
   19CHTO   C63 7803   3.837   8.998  -0.336 -0.6181 -0.0431  0.3933
   19CHTO  H120 7804   3.803   9.019  -0.438 -1.4926  1.0732  0.9102
   19CHTO   N11 7805   3.924   9.119  -0.306 -0.4680 -0.1595  0.6053
   19CHTO  H108 7806   3.988   9.085  -0.227  1.3149 -0.8228 -1.0705
   19CHTO  H109 7807   3.984   9.128  -0.395 -1.6278  0.7198 -0.1014
   19CHTO   C61 7808   3.716   8.964  -0.238  0.0662 -0.0404  0.5428
   19CHTO  H118 7809   3.649   9.051  -0.251 -0.9912 -0.7718  0.9733
   19CHTO   O40 7810   3.641   8.842  -0.273 -0.1288 -0.3055 -0.7110
   19CHTO   C68 7811   3.663   8.746  -0.385 -0.3048 -0.3772 -0.0789
   19CHTO  H125 7812   3.590   8.787  -0.458  0.4375  4.4352  1.6802
   19CHTO   C72 7813   3.612   8.604  -0.339 -0.1359 -0.8398  0.1409
   19CHTO   O48 7814   3.469   8.587  -0.325 -0.0719 -0.2477 -0.3670
   19CHTO  H105 7815   3.450   8.518  -0.264  4.2398 -1.6844 -0.4951
   19CHTO   O38 7816   3.747   8.955  -0.098 -0.2378  0.1244  0.4670
   19CHTO   C55 7817   3.635   8.977  -0.017 -0.0768 -0.5104  0.5729
   19CHTO  H112 7818   3.543   8.970  -0.079 -1.1564  1.0245  1.9850
   19CHTO   C56 7819   3.641   9.111   0.068  0.6499  0.0878 -0.0459
   19CHTO  H113 7820   3.729   9.115   0.133 -0.1443 -0.7474  1.0896
   19CHTO   O42 7821   3.668   9.216  -0.020 -0.2432  0.1336 -0.3176
   19CHTO  H100 7822   3.592   9.237  -0.072  0.3443 -1.8380 -2.0237
   19CHTO   C57 7823   3.506   9.132   0.152 -0.2231  0.3800 -0.5616
   19CHTO  H114 7824   3.429   9.163   0.082  0.8466  0.6976 -1.6298
   19CHTO   N10 7825   3.530   9.232   0.254  0.7137  0.1983  0.2633
   19CHTO  H106 7826   3.586   9.318   0.219 -2.1692  0.9363 -2.8225
   19CHTO  H107 7827   3.432   9.267   0.285  1.1337 -0.0862  1.9772
   19CHTO   C58 7828   3.461   9.000   0.221  0.9931  0.3224 -0.7486
   19CHTO  H115 7829   3.509   8.982   0.320  1.1681  1.2328 -0.6667
   19CHTO   O37 7830   3.489   8.879   0.143  0.3629  0.3529  0.3302
   19CHTO   C59 7831   3.612   8.859   0.082 -0.0165 -0.3584  0.1882
   19CHTO  H116 7832   3.696   8.856   0.151  2.8129 -0.2464 -3.1276
   19CHTO   C70 7833   3.616   8.721   0.013 -0.0500 -0.0829  0.0085
   19CHTO   O46 7834   3.634   8.615   0.110  0.8610 -0.3283 -0.0011
   19CHTO  H103 7835   3.643   8.541   0.053  0.9805 -1.4911  1.5056
   19CHTO   O39 7836   3.292   8.985   0.248 -0.0302 -0.4723  0.2562
   19CHTO   C60 7837   3.211   8.978   0.132 -0.2870  0.0687  0.1037
   19CHTO  H117 7838   3.265   8.990   0.038  0.1992 -1.3162  0.1905
   19CHTO   C62 7839   3.161   8.834   0.110  0.0503  0.0047  0.1919
   19CHTO  H119 7840   3.250   8.769   0.114 -1.4979 -2.2100 -0.0731
   19CHTO   O43 7841   3.079   8.801   0.223  0.7612 -0.5531  0.0989
   19CHTO  H101 7842   3.062   8.708   0.221  1.5470 -0.7748  2.2777
   19CHTO   C66 7843   3.084   8.816  -0.038  0.1970  0.3193  0.0285
   19CHTO  H123 7844   3.153   8.828  -0.121 -0.4939 -0.4562 -0.6788
   19CHTO   N12 7845   3.043   8.671  -0.046 -0.3964 -0.2921 -0.3707
   19CHTO  H110 7846   3.123   8.610  -0.005 -1.8726 -1.1166  1.3616
   19CHTO  H111 7847   3.019   8.639  -0.146 -0.1972 -0.3992 -0.3845
   19CHTO   C69 7848   2.961   8.908  -0.052  0.0472 -0.2220  0.4870
   19CHTO  H126 7849   2.888   8.891   0.030  1.6068 -1.5382  1.6616
   19CHTO   O41 7850   3.010   9.049  -0.039  0.1006 -0.4732  0.0013
   19CHTO   C64 7851   3.092   9.076   0.121 -0.1434 -0.1707 -0.7199
   19CHTO  H121 7852   3.018   9.039   0.196 -2.1583  2.0767 -1.5282
   19CHTO   C71 7853   3.119   9.225   0.153  0.1811 -0.0040  0.3292
   19CHTO   O47 7854   3.001   9.292   0.206  0.2122  0.0724  0.4029
   19CHTO  H104 7855   2.921   9.270   0.162  1.2254 -2.6420 -0.1648
   19CHTO   O34 7856   2.883   8.897  -0.188  0.2165 -0.5588  0.2871
   19CHTO   C49 7857   2.909   8.938  -0.322  0.1455 -0.3211 -0.4625
   19CHTO   H91 7858   2.922   9.047  -0.325  1.0918 -0.4360 -0.9953
   19CHTO   C47 7859   2.798   8.895  -0.412 -0.1505 -0.8032 -0.0708
   19CHTO   H89 7860   2.815   8.945  -0.509  1.5932  1.3267  1.2861
   19CHTO   O33 7861   2.679   8.954  -0.357  0.1630 -0.2101 -0.5233
   19CHTO   H70 7862   2.603   8.907  -0.385 -0.4863  1.1862 -1.1584
   19CHTO   C45 7863   2.793   8.736  -0.429  0.5532  0.3559  0.1228
   19CHTO   H87 7864   2.771   8.691  -0.331 -1.9604 -0.8145 -0.9342
   19CHTO    N8 7865   2.682   8.691  -0.520  0.0507  0.6907 -0.2169
   19CHTO   H75 7866   2.714   8.719  -0.619  1.0339  0.0094 -0.0986
   19CHTO   H76 7867   2.686   8.583  -0.527 -1.2185  0.7501 -1.9808
   19CHTO   C43 7868   2.938   8.679  -0.475  0.1658 -0.0710 -0.3813
   19CHTO   H85 7869   2.929   8.572  -0.460  0.2590  0.2618  2.3266
   19CHTO   O29 7870   3.046   8.735  -0.390 -0.1126 -0.4745  0.1693
   19CHTO   C50 7871   3.044   8.876  -0.374  0.2691 -0.3483 -0.2460
   19CHTO   H92 7872   3.123   8.902  -0.302 -1.0582 -1.0894  1.4797
   19CHTO   C54 7873   3.104   8.950  -0.499 -0.1422 -0.4999  0.1354
   19CHTO   O36 7874   3.235   8.901  -0.543  0.2731  0.7212 -0.1477
   19CHTO   H72 7875   3.272   8.962  -0.604  2.0148 -0.6431 -0.4892
   19CHTO   O27 7876   2.971   8.708  -0.612  0.2236  0.6598  0.3536
   19CHTO   C37 7877   3.006   8.665  -0.745  0.2688  0.9048 -0.2490
   19CHTO   H79 7878   2.987   8.557  -0.746 -3.1456  1.4124  2.7121
   19CHTO   C38 7879   2.928   8.726  -0.858  0.1263 -0.5945 -0.8035
   19CHTO   H80 7880   2.925   8.835  -0.844 -2.9040 -0.8086  0.6235
   19CHTO   O31 7881   2.792   8.669  -0.845  0.0744  0.5700 -0.0734
   19CHTO   H68 7882   2.758   8.708  -0.767  1.8989  0.9104  0.5767
   19CHTO   C39 7883   2.974   8.688  -1.001 -0.7630 -0.5223 -0.1338
   19CHTO   H81 7884   2.973   8.580  -1.012  0.8764 -0.9528  3.3091
   19CHTO    N7 7885   2.895   8.745  -1.106  0.4944 -0.4706 -0.2888
   19CHTO   H73 7886   2.887   8.853  -1.106 -0.2499 -0.5151  0.6781
   19CHTO   H74 7887   2.923   8.706  -1.202 -1.1119  0.0152 -0.9687
   19CHTO   C40 7888   3.129   8.735  -1.014 -0.2733 -0.3275 -0.6056
   19CHTO   H82 7889   3.127   8.843  -0.997  0.9003 -0.1562 -1.5438
   19CHTO   O26 7890   3.197   8.665  -0.903  0.0303  0.1168 -0.4212
   19CHTO   C41 7891   3.156   8.691  -0.764 -0.3797 -0.3747  0.0504
   19CHTO   H83 7892   3.188   8.792  -0.735  1.3135 -0.4262 -1.4934
   19CHTO   C52 7893   3.255   8.597  -0.694  0.0354 -0.1052  0.4152
   19CHTO   O35 7894   3.264   8.623  -0.551  0.0106 -0.2237  0.3893
   19CHTO   H71 7895   3.355   8.633  -0.532  0.7861 -2.8704 -1.5096
   19CHTO   O28 7896   3.190   8.693  -1.142 -0.3851 -0.7864 -0.4890
   19CHTO   C42 7897   3.336   8.690  -1.184  0.0768  1.0737  0.2000
   19CHTO   H84 7898   3.389   8.669  -1.091 -0.7620 -1.5625  0.1072
   19CHTO   C44 7899   3.403   8.819  -1.242 -0.3855  0.7628 -0.4578
   19CHTO   H86 7900   3.362   8.839  -1.341  0.0347 -0.5220 -0.8942
   19CHTO   O32 7901   3.385   8.923  -1.139 -0.4025  0.1698 -0.5300
   19CHTO   H69 7902   3.298   8.925  -1.106 -0.2782  0.9587 -0.2270
   19CHTO   C48 7903   3.564   8.802  -1.273  0.6399  0.2635 -0.6593
   19CHTO   H90 7904   3.605   8.793  -1.173 -0.8406 -0.2311 -0.0764
   19CHTO    N9 7905   3.620   8.925  -1.346  0.1353  0.2223  0.3161
   19CHTO   H77 7906   3.728   8.920  -1.352  0.1855  1.9136 -0.2990
   19CHTO   H78 7907   3.589   8.931  -1.449  0.8700  3.3548  0.2377
   19CHTO   C51 7908   3.597   8.666  -1.345  0.2184  0.3318  0.1343
   19CHTO   H93 7909   3.581   8.680  -1.452  1.2562 -2.0622 -0.3791
   19CHTO   O30 7910   3.522   8.555  -1.292 -0.4367  0.1142 -0.0426
   19CHTO   C46 7911   3.360   8.572  -1.283  0.2497  0.4541 -0.9994
   19CHTO   H88 7912   3.324   8.605  -1.380 -1.9256  0.8097 -0.0803
   19CHTO   C53 7913   3.305   8.441  -1.227 -0.3367  0.1867  0.1678
   19CHTO   O72 7914   3.353   8.328  -1.304 -0.5440  0.1534 -0.8784
   19CHTO  H199 7915   3.276   8.298  -1.349 -0.3283 -0.4863 -0.8276
   19CHTO   O22 7916   3.735   8.631  -1.335 -0.0039  0.8922 -0.2376
   19CHTO   C31 7917   3.804   8.524  -1.410  0.6169 -0.1917 -0.1258
   19CHTO   H59 7918   3.725   8.449  -1.432  1.4715 -1.2191  0.2646
   19CHTO   C29 7919   3.869   8.566  -1.542  0.0012  0.1917  0.2453
   19CHTO   H57 7920   3.954   8.634  -1.523  1.3806 -0.6636 -2.5078
   19CHTO   O21 7921   3.775   8.648  -1.615 -0.0471  0.1044 -0.2856
   19CHTO   H37 7922   3.757   8.611  -1.699  0.6102 -1.6258  0.3276
   19CHTO   C27 7923   3.916   8.440  -1.624  0.2915  0.2980 -0.4626
   19CHTO   H55 7924   3.830   8.374  -1.645  1.1733 -1.0713  0.1781
   19CHTO    N5 7925   3.980   8.478  -1.752  0.0113 -0.2269 -0.2172
   19CHTO   H43 7926   4.017   8.386  -1.796 -0.7336 -0.5286 -0.2183
   19CHTO   H44 7927   3.907   8.527  -1.814 -0.3469  0.1547  0.4931
   19CHTO   C25 7928   4.018   8.359  -1.526  0.2363 -0.8472  0.4694
   19CHTO   H53 7929   4.103   8.419  -1.490 -1.2588  2.1398 -0.8925
   19CHTO   O17 7930   3.943   8.325  -1.401  0.2521 -0.1696  0.2599
   19CHTO   C32 7931   3.911   8.441  -1.329 -0.0961 -0.2469 -0.6949
   19CHTO   H60 7932   3.995   8.504  -1.303  0.3910 -1.2399  0.1565
   19CHTO   C36 7933   3.845   8.395  -1.200 -0.2558  0.3667 -0.1252
   19CHTO   O25 7934   3.737   8.307  -1.206 -0.1059  0.3129  0.7715
   19CHTO   H40 7935   3.730   8.275  -1.118 -1.2863 -0.9349  0.2334
   19CHTO   O15 7936   4.072   8.241  -1.594 -0.2891 -0.1282  0.4739
   19CHTO   C19 7937   4.125   8.144  -1.688  0.1760  0.4645  0.4502
   19CHTO   H47 7938   4.076   8.177  -1.781  1.4482  0.4255 -0.2529
   19CHTO   C20 7939   4.283   8.140  -1.698  0.0256 -0.3831 -0.1556
   19CHTO   H48 7940   4.329   8.113  -1.602  1.4779  0.6241 -0.5545
   19CHTO   O19 7941   4.325   8.278  -1.722  0.1285 -0.5344  0.0170
   19CHTO   H35 7942   4.297   8.306  -1.807  1.0211  1.2242  0.2924
   19CHTO   C21 7943   4.335   8.042  -1.805  0.6794  0.7219  0.0316
   19CHTO   H49 7944   4.298   8.079  -1.901  1.4212 -1.3701 -1.0992
   19CHTO    N4 7945   4.476   8.035  -1.802  0.2815  0.8803  0.2166
   19CHTO   H41 7946   4.522   8.084  -1.718 -0.0143  0.1827  0.7916
   19CHTO   H42 7947   4.537   8.045  -1.891 -2.3812 -0.3170 -1.8063
   19CHTO   C22 7948   4.270   7.904  -1.794  0.0861  0.3513  0.3903
   19CHTO   H50 7949   4.316   7.859  -1.706  0.8416 -0.1540 -0.2559
   19CHTO   O14 7950   4.127   7.907  -1.771  0.2044 -0.1805  0.9178
   19CHTO   C23 7951   4.083   7.999  -1.667  0.3471  0.5598  0.0470
   19CHTO   H51 7952   4.124   7.963  -1.571  1.2058  0.0273 -0.5189
   19CHTO   C34 7953   3.928   7.976  -1.661 -1.0798 -0.4266 -0.7123
   19CHTO   O23 7954   3.889   7.866  -1.582 -0.0592 -0.6230  0.4908
   19CHTO   H38 7955   3.872   7.792  -1.638 -0.8806 -1.4764  1.8554
   19CHTO   O16 7956   4.294   7.819  -1.908  0.2350 -0.3153 -0.5652
   19CHTO   C24 7957   4.353   7.669  -1.869  0.1895 -0.4132  0.1715
   19CHTO   H52 7958   4.384   7.667  -1.764 -0.5402  3.2368  0.5216
   19CHTO   C26 7959   4.464   7.633  -1.969 -0.5707  0.3103 -0.3859
   19CHTO   H54 7960   4.435   7.675  -2.068 -0.1056 -1.1924 -1.1864
   19CHTO   O20 7961   4.584   7.708  -1.926 -0.0415 -0.3116  0.0490
   19CHTO   H36 7962   4.566   7.800  -1.924  3.9601  0.5647 -0.0820
   19CHTO   C30 7963   4.496   7.478  -1.986  0.4034  0.0548 -0.2680
   19CHTO   H58 7964   4.551   7.446  -1.897 -0.3866  0.5291  0.4005
   19CHTO    N6 7965   4.566   7.452  -2.115 -0.3528 -0.3025  0.1431
   19CHTO   H45 7966   4.622   7.542  -2.135  0.9481 -0.7566  1.6645
   19CHTO   H46 7967   4.485   7.437  -2.186 -0.3824 -0.2868  0.1737
   19CHTO   C33 7968   4.366   7.389  -1.978 -0.3582 -0.0485  0.2138
   19CHTO   H61 7969   4.299   7.404  -2.063  1.2223 -0.4087 -1.1314
   19CHTO   O18 7970   4.296   7.434  -1.861 -0.3395 -0.3137  0.2798
   19CHTO   C28 7971   4.243   7.564  -1.884  0.6386 -0.5593  0.2610
   19CHTO   H56 7972   4.199   7.577  -1.983  1.5366  1.2912  0.0851
   19CHTO   C35 7973   4.134   7.590  -1.773  0.4274  0.3128  0.7059
   19CHTO   O24 7974   4.174   7.590  -1.634 -0.5727 -0.1492 -0.0055
   19CHTO   H39 7975   4.172   7.504  -1.595 -2.1091 -0.1026  0.0310
   19CHTO    O9 7976   4.386   7.246  -1.970 -0.1942 -0.8298 -0.0274
   19CHTO   C13 7977   4.275   7.159  -2.037 -0.6764  0.6937 -0.0447
   19CHTO   H26 7978   4.251   7.212  -2.131 -0.6512  0.7902  0.0021
   19CHTO   C11 7979   4.152   7.149  -1.941 -0.6166 -0.2538 -0.0786
   19CHTO   H24 7980   4.109   7.250  -1.950  1.9574  0.8128 -0.8579
   19CHTO    O8 7981   4.198   7.114  -1.809  0.0469  0.5123 -0.5143
   19CHTO    H3 7982   4.220   7.023  -1.802  1.5254  1.0144  2.2646
   19CHTO    C9 7983   4.044   7.055  -2.013 -0.8766 -0.6088 -0.2932
   19CHTO   H22 7984   4.025   7.107  -2.109 -0.6040 -2.6560 -1.4748
   19CHTO    N2 7985   3.913   7.053  -1.942 -0.6434 -0.1309  0.0206
   19CHTO   H10 7986   3.872   6.954  -1.928  0.6782 -0.8180 -0.9401
   19CHTO   H11 7987   3.840   7.115  -1.992  0.5736  2.1085  0.9478
   19CHTO    C7 7988   4.099   6.914  -2.042  0.0446 -0.2139  0.4312
   19CHTO   H20 7989   4.018   6.864  -2.099 -0.8255  0.8036  0.7554
   19CHTO    O4 7990   4.220   6.930  -2.121  0.1621 -0.3145  0.3799
   19CHTO   C14 7991   4.327   7.019  -2.074  0.3148 -0.0568  0.0662
   19CHTO   H27 7992   4.388   7.034  -2.165  0.4902 -1.3426 -0.0472
   19CHTO   C18 7993   4.424   6.963  -1.965  0.3740  0.3505 -0.0793
   19CHTO   O13 7994   4.493   6.840  -2.012  1.1685 -0.5255  0.0584
   19CHTO    H7 7995   4.576   6.831  -1.970  0.5845 -2.6157  0.8424
   19CHTO    O2 7996   4.126   6.811  -1.917  0.3718 -0.3964  0.4284
   19CHTO    C1 7997   4.069   6.680  -1.930  0.0424  0.0790 -0.2804
   19CHTO   H14 7998   4.087   6.646  -2.034 -1.9938  0.7772 -0.9030
   19CHTO    C2 7999   3.904   6.669  -1.893 -0.2788 -0.2418 -0.4860
   19CHTO   H15 8000   3.891   6.724  -1.799 -1.1727 -3.1258  1.1246
   19CHTO    O6 8001   3.820   6.733  -1.991 -0.6854 -0.3762  0.1400
   19CHTO    H1 8002   3.855   6.816  -2.019 -1.1156 -0.3396 -0.2954
   19CHTO    C3 8003   3.873   6.514  -1.870 -0.0536 -0.1708  0.7335
   19CHTO   H16 8004   3.877   6.458  -1.964 -0.9260  0.5487  0.2620
   19CHTO    N1 8005   3.737   6.495  -1.818  0.1944  0.7739 -0.2116
   19CHTO    H8 8006   3.704   6.395  -1.796  2.5921 -0.0229 -0.0895
   19CHTO    H9 8007   3.720   6.562  -1.735 -0.8169  0.9014 -0.5140
   19CHTO    C4 8008   3.979   6.444  -1.774 -0.5868 -0.4471  0.3003
   19CHTO   H17 8009   3.977   6.496  -1.678 -2.2746 -0.4138  0.2624
   19CHTO    O1 8010   4.110   6.457  -1.837  0.2008  0.0168  0.3235
   19CHTO    C5 8011   4.158   6.589  -1.845 -0.4326 -0.1905 -0.1266
   19CHTO   H18 8012   4.151   6.627  -1.743  0.5427 -3.1025  1.0887
   19CHTO   C16 8013   4.306   6.592  -1.888  0.1047  0.4646 -0.3887
   19CHTO   O11 8014   4.389   6.501  -1.809 -0.0035  0.7657  0.4107
   19CHTO    H5 8015   4.473   6.542  -1.812  0.0102  0.7217  0.1700
   19CHTO    O3 8016   3.955   6.303  -1.755  0.0454  0.4659 -0.4968
   19CHTO    C6 8017   3.961   6.245  -1.623  0.4669 -0.6044  0.1229
   19CHTO   H19 8018   3.986   6.299  -1.531 -0.6316 -1.1406  0.7395
   19CHTO    C8 8019   3.821   6.180  -1.592  0.3113  0.0814  0.3819
   19CHTO   H21 8020   3.788   6.131  -1.684  0.7462  1.8374 -0.7330
   19CHTO    O7 8021   3.729   6.283  -1.571 -0.1725 -0.2098  0.0016
   19CHTO    H2 8022   3.694   6.321  -1.649  0.5508  1.1464  0.3259
   19CHTO   C12 8023   3.829   6.079  -1.474  0.5997 -0.1097  0.1171
   19CHTO   H25 8024   3.849   6.136  -1.381  0.0961 -0.2834  0.3322
   19CHTO    N3 8025   3.697   6.010  -1.449  0.5651 -0.2464 -0.3151
   19CHTO   H12 8026   3.706   5.969  -1.350 -1.2338  0.1334  0.0211
   19CHTO   H13 8027   3.614   6.079  -1.450  0.2140 -0.5628  2.4671
   19CHTO   C15 8028   3.947   5.975  -1.487  0.3006  0.4348 -0.0782
   19CHTO   H28 8029   3.938   5.907  -1.572  0.4637 -1.0876  1.1086
   19CHTO   O10 8030   3.994   5.903  -1.368 -0.3079  0.0601  0.0468
   19CHTO    H4 8031   3.942   5.825  -1.366 -1.9022  0.9954 -2.3540
   19CHTO    O5 8032   4.066   6.055  -1.518  0.1670  0.1593  0.2081
   19CHTO   C10 8033   4.062   6.134  -1.635  0.0673  0.4417 -0.1482
   19CHTO   H23 8034   4.035   6.069  -1.718 -2.4815  0.7403  0.4127
   19CHTO   C17 8035   4.204   6.192  -1.640  0.0917 -0.2368 -0.5299
   19CHTO   O12 8036   4.241   6.236  -1.765  0.5527  0.4748 -0.1032
   19CHTO    H6 8037   4.300   6.306  -1.749  1.3995 -0.3574  0.4150
   20CHTO  H203 8038   5.075   1.270   2.577  0.7664 -1.7747 -0.4385
   20CHTO   O82 8039   5.000   1.251   2.525 -0.2226 -0.1829  0.3612
   20CHTO  C123 8040   4.973   1.361   2.434 -0.0798 -0.1208  0.2210
   20CHTO  H227 8041   4.881   1.409   2.470 -0.7029 -0.3023 -1.1355
   20CHTO   O77 8042   5.091   1.455   2.437  0.6739  0.4698 -0.2383
   20CHTO  C118 8043   5.096   1.567   2.353  0.1761  0.0777  0.4575
   20CHTO  H222 8044   5.004   1.627   2.361 -1.0700 -1.7759  0.2481
   20CHTO  C125 8045   5.223   1.657   2.397  0.5090  0.3569  0.2501
   20CHTO   O84 8046   5.176   1.752   2.499 -0.5330  0.0485 -1.0799
   20CHTO  H205 8047   5.239   1.774   2.564 -1.0331 -0.8857 -0.2637
   20CHTO  C114 8048   5.108   1.515   2.209 -0.0397 -0.5516  0.7837
   20CHTO  H218 8049   5.201   1.460   2.193  1.0413  0.9366  1.8551
   20CHTO  C116 8050   4.992   1.420   2.179  0.8330 -0.5875 -0.8781
   20CHTO  H220 8051   4.908   1.492   2.170  0.3701 -1.1337 -0.9234
   20CHTO   O79 8052   5.022   1.352   2.052  0.6592  0.5309  0.2482
   20CHTO  H201 8053   4.953   1.367   1.990  0.7893 -0.4422 -0.1305
   20CHTO  C120 8054   4.961   1.311   2.285 -0.6996 -0.3454 -0.4454
   20CHTO  H224 8055   5.042   1.237   2.267 -1.6575 -1.5662  0.1656
   20CHTO   N21 8056   4.835   1.234   2.257 -0.3079 -0.2142 -0.9121
   20CHTO  H211 8057   4.851   1.145   2.198 -0.3190 -0.6198 -0.3046
   20CHTO  H212 8058   4.773   1.213   2.343 -0.1420  0.0445 -0.7277
   20CHTO   O75 8059   5.102   1.632   2.129 -0.5095 -0.5101  0.2082
   20CHTO  C112 8060   5.197   1.655   2.014  0.1738  0.5030  0.2357
   20CHTO  H216 8061   5.199   1.566   1.949  0.3034  0.1610  0.7028
   20CHTO   O73 8062   5.326   1.686   2.071  0.2257 -0.0654 -0.3561
   20CHTO  C113 8063   5.427   1.693   1.968 -0.4033 -0.6829  0.0368
   20CHTO  H217 8064   5.425   1.599   1.909  0.2165 -2.6020  3.0086
   20CHTO  C124 8065   5.567   1.701   2.025  0.3457  0.2858  0.0996
   20CHTO   O83 8066   5.582   1.783   2.139 -0.2403 -0.2112 -0.0897
   20CHTO  H204 8067   5.519   1.853   2.144 -0.9503 -0.6036 -2.6672
   20CHTO  C109 8068   5.402   1.808   1.876 -0.3883  0.8514  0.2929
   20CHTO  H213 8069   5.415   1.899   1.936  0.1503 -0.0466  1.5550
   20CHTO  C110 8070   5.255   1.811   1.821 -1.0685 -0.6335  0.3457
   20CHTO  H214 8071   5.253   1.739   1.740  1.7671 -0.7780  0.3768
   20CHTO   O78 8072   5.232   1.949   1.774 -0.1343  0.4618  0.0522
   20CHTO  H200 8073   5.236   2.009   1.847 -1.1848  0.3867  0.1715
   20CHTO  C111 8074   5.144   1.771   1.924 -1.2989 -0.1777  0.6030
   20CHTO  H215 8075   5.127   1.857   1.990  2.6982  0.2778  1.1787
   20CHTO   N19 8076   5.017   1.743   1.853  0.0842  0.4024 -0.0775
   20CHTO  H207 8077   4.950   1.789   1.924  0.6923  1.0004  0.1185
   20CHTO  H208 8078   4.982   1.641   1.848  0.2356  0.2705  1.4042
   20CHTO   O74 8079   5.493   1.811   1.759  0.4834 -0.8387 -0.1786
   20CHTO  C115 8080   5.608   1.923   1.747 -0.1228  0.7169  0.6417
   20CHTO  H219 8081   5.607   1.987   1.835 -0.6593  1.5758  0.0096
   20CHTO   O76 8082   5.768   1.854   1.746  0.2986  0.1103 -0.5094
   20CHTO  C122 8083   5.872   1.954   1.724 -0.0873  0.0790 -0.4115
   20CHTO  H226 8084   5.963   1.896   1.716 -0.6573 -0.5486 -2.5352
   20CHTO  C126 8085   5.889   2.031   1.862  0.0972 -0.4574  0.4461
   20CHTO   O85 8086   5.991   2.131   1.860 -0.2345 -0.4416 -0.6489
   20CHTO  H206 8087   5.948   2.208   1.891 -0.3671 -1.4159  1.7557
   20CHTO  C121 8088   5.848   2.044   1.602 -0.6373  0.3504  0.1877
   20CHTO  H225 8089   5.926   2.123   1.604  1.2116 -1.4447  0.7655
   20CHTO   O81 8090   5.867   1.966   1.486  0.0098  0.1679  0.3002
   20CHTO  H202 8091   5.790   1.963   1.432  0.4973  1.0821 -0.4749
   20CHTO  C119 8092   5.710   2.116   1.598 -0.4657  0.0085 -0.2069
   20CHTO  H223 8093   5.707   2.177   1.689 -0.5417 -1.1364  0.5681
   20CHTO  C117 8094   5.593   2.016   1.616  0.4014 -0.0978 -0.2886
   20CHTO  H221 8095   5.572   1.947   1.534 -1.2071 -1.4245  1.2081
   20CHTO   N20 8096   5.469   2.096   1.632 -0.1592  0.4823 -0.5611
   20CHTO  H209 8097   5.390   2.045   1.685 -0.0804 -0.4644 -1.3500
   20CHTO  H210 8098   5.438   2.127   1.533 -0.0571  2.4274 -0.0140
   20CHTO   O80 8099   5.695   2.239   1.476 -0.3978  0.0405 -0.2027
   20CHTO  C103 8100   5.706   2.214   1.317 -0.3480 -0.9775 -0.1234
   20CHTO  H190 8101   5.808   2.188   1.287 -0.1773 -1.9030  1.2181
   20CHTO  C101 8102   5.614   2.095   1.256  0.4388 -0.2706 -0.2833
   20CHTO  H188 8103   5.514   2.099   1.299  0.5681 -0.6333  0.0498
   20CHTO   O68 8104   5.674   1.980   1.294  0.4111  0.1636 -0.2523
   20CHTO  H168 8105   5.663   1.966   1.386  0.2612 -1.1655 -0.4655
   20CHTO   C99 8106   5.608   2.108   1.098  0.3985 -0.1422 -0.2770
   20CHTO  H186 8107   5.705   2.075   1.054  1.3787  1.1893  0.8400
   20CHTO   N17 8108   5.510   2.009   1.037  0.2719 -0.4202 -0.8944
   20CHTO  H174 8109   5.484   2.028   0.934 -1.3322  1.0139 -0.2626
   20CHTO  H175 8110   5.539   1.911   1.071 -1.0567 -0.2120  0.9543
   20CHTO   C97 8111   5.579   2.254   1.056  0.2033  0.4683  0.2110
   20CHTO  H184 8112   5.478   2.273   1.093 -1.0786 -0.4659 -2.6570
   20CHTO   O64 8113   5.667   2.346   1.113 -0.4148 -0.2036  0.4211
   20CHTO  C104 8114   5.668   2.352   1.253 -0.1882 -0.6761 -0.1752
   20CHTO  H191 8115   5.576   2.393   1.296 -1.1233 -0.8002 -1.9949
   20CHTO  C108 8116   5.777   2.450   1.290 -1.0489  0.3469  0.6865
   20CHTO   O71 8117   5.723   2.567   1.346 -0.1746 -0.1063 -0.1239
   20CHTO  H171 8118   5.682   2.551   1.429 -0.7567  1.0938 -0.1729
   20CHTO   O62 8119   5.588   2.264   0.911 -0.0757  0.2478 -0.4914
   20CHTO   C91 8120   5.511   2.369   0.847  0.3386 -0.2573  0.1030
   20CHTO  H178 8121   5.475   2.443   0.919 -2.9714  0.3513 -2.0599
   20CHTO   C92 8122   5.389   2.307   0.779 -0.1517 -0.1811 -0.0748
   20CHTO  H179 8123   5.439   2.236   0.712  0.5097  0.8111 -0.6485
   20CHTO   O66 8124   5.309   2.220   0.861 -0.1748 -0.8101 -0.3508
   20CHTO  H166 8125   5.355   2.140   0.880  1.4630 -0.1430 -1.4194
   20CHTO   C93 8126   5.290   2.408   0.702 -0.5514 -0.1679  0.2078
   20CHTO  H180 8127   5.221   2.455   0.773  0.1857 -1.3481  1.7714
   20CHTO   N16 8128   5.206   2.334   0.602  0.6444 -0.4167 -0.1066
   20CHTO  H172 8129   5.256   2.330   0.507 -0.5749 -1.0881 -0.7303
   20CHTO  H173 8130   5.180   2.235   0.637 -0.3680 -0.5884 -1.3360
   20CHTO   C94 8131   5.376   2.519   0.637  0.5726  0.3705  0.2271
   20CHTO  H181 8132   5.395   2.501   0.531 -1.4336 -0.0480 -0.0737
   20CHTO   O61 8133   5.502   2.561   0.699 -0.2037 -0.0648 -0.1969
   20CHTO   C95 8134   5.579   2.442   0.726 -0.0725 -0.0216  0.5190
   20CHTO  H182 8135   5.590   2.387   0.632  0.4219 -1.5724  1.4702
   20CHTO  C106 8136   5.723   2.489   0.779 -0.1051  0.2521 -0.5486
   20CHTO   O69 8137   5.790   2.575   0.688  0.7050 -0.7078 -0.4402
   20CHTO  H169 8138   5.881   2.574   0.714  0.4893 -3.9071  0.3448
   20CHTO   O63 8139   5.301   2.649   0.646  0.3810  0.2887 -0.1459
   20CHTO   C96 8140   5.338   2.780   0.544 -0.1677  0.2864 -0.0189
   20CHTO  H183 8141   5.280   2.761   0.453 -1.4328 -1.5820  1.1521
   20CHTO   C98 8142   5.485   2.820   0.495  1.0985 -0.9716 -0.9165
   20CHTO  H185 8143   5.543   2.841   0.586  0.0779 -0.8102 -0.2904
   20CHTO   O67 8144   5.536   2.708   0.431 -0.1514  0.6809 -0.4069
   20CHTO  H167 8145   5.627   2.705   0.456 -0.1788  1.8611 -0.1380
   20CHTO  C102 8146   5.475   2.945   0.400 -0.5611 -0.2728 -0.3120
   20CHTO  H189 8147   5.434   2.905   0.307 -1.6379  0.6432 -0.2359
   20CHTO   N18 8148   5.609   3.005   0.368 -0.3780  0.4063 -0.1599
   20CHTO  H176 8149   5.641   2.953   0.279 -0.4412 -0.9194  0.5749
   20CHTO  H177 8150   5.608   3.113   0.360 -2.7951  0.3439 -1.2052
   20CHTO  C105 8151   5.386   3.051   0.462  0.0153  0.2491  0.6505
   20CHTO  H192 8152   5.430   3.093   0.552  0.8054  0.2495  0.2714
   20CHTO   O65 8153   5.265   2.997   0.513  0.1350  0.2642  0.0407
   20CHTO  C100 8154   5.271   2.903   0.618  0.6411  0.2414 -0.3834
   20CHTO  H187 8155   5.332   2.943   0.700  0.7906  0.8756 -0.7976
   20CHTO  C107 8156   5.128   2.879   0.655 -0.0321  0.4979  0.0065
   20CHTO   O70 8157   5.115   2.815   0.783 -0.1607 -0.2141 -0.3879
   20CHTO  H170 8158   5.026   2.790   0.799 -1.3145  3.2293 -0.9352
   20CHTO   O57 8159   5.351   3.165   0.352  0.0567  0.3403  0.5301
   20CHTO   C85 8160   5.213   3.181   0.317 -0.0154  0.2495 -0.7081
   20CHTO  H157 8161   5.154   3.190   0.411 -1.0365 -2.0464 -1.0885
   20CHTO   C83 8162   5.157   3.050   0.243 -0.1847  0.1324  0.5126
   20CHTO  H155 8163   5.150   2.973   0.321 -1.4746  1.4692  1.7472
   20CHTO   O56 8164   5.255   3.015   0.146 -0.2050  0.2616 -0.2124
   20CHTO  H135 8165   5.338   2.995   0.185 -1.1621  0.0262  1.7856
   20CHTO   C81 8166   5.010   3.067   0.187 -0.8663 -0.2408 -0.0908
   20CHTO  H153 8167   4.944   3.090   0.271 -1.0809  1.3856 -0.6814
   20CHTO   N14 8168   4.952   2.940   0.141 -0.2978  0.1625  0.1996
   20CHTO  H141 8169   5.006   2.900   0.057 -0.1417 -2.7525  1.6440
   20CHTO  H142 8170   4.850   2.949   0.112 -0.9716  0.1211  2.5072
   20CHTO   C79 8171   5.006   3.182   0.088 -0.8506 -0.2039 -0.3389
   20CHTO  H151 8172   4.901   3.204   0.068 -0.4703  1.3846 -0.6755
   20CHTO   O52 8173   5.058   3.304   0.156 -0.2865 -0.5017  0.1946
   20CHTO   C86 8174   5.193   3.302   0.215 -0.2457  0.1173  0.0500
   20CHTO  H158 8175   5.258   3.285   0.127 -0.4631  1.6948 -0.4156
   20CHTO   C90 8176   5.226   3.447   0.268 -0.2466 -0.2062 -0.2925
   20CHTO   O60 8177   5.153   3.470   0.388  0.7328 -0.1355  0.5281
   20CHTO  H138 8178   5.170   3.560   0.408  1.1171 -0.0264 -0.2853
   20CHTO   O50 8179   5.069   3.159  -0.040 -0.3018 -0.2218  0.5007
   20CHTO   C73 8180   5.174   3.202  -0.129 -0.7642  0.3260 -0.3176
   20CHTO  H145 8181   5.263   3.216  -0.066 -0.3809 -1.6306 -0.3803
   20CHTO   C74 8182   5.143   3.338  -0.201  0.0508 -0.0322 -0.0250
   20CHTO  H146 8183   5.128   3.418  -0.128 -2.2251 -0.5080  0.0506
   20CHTO   O54 8184   5.268   3.385  -0.261  0.1526  0.2377  0.2129
   20CHTO  H133 8185   5.281   3.357  -0.350  0.6773 -0.4216  0.4876
   20CHTO   C75 8186   5.023   3.319  -0.295 -0.2679 -0.1838 -0.4281
   20CHTO  H147 8187   4.934   3.313  -0.231 -0.2596  0.2578 -0.3733
   20CHTO   N13 8188   4.979   3.433  -0.369 -0.1120 -0.3061  0.5194
   20CHTO  H139 8189   4.939   3.500  -0.294 -0.4177  0.8790 -0.6803
   20CHTO  H140 8190   4.907   3.396  -0.441  0.3217 -0.6441  0.2605
   20CHTO   C76 8191   5.039   3.205  -0.393  0.2661 -0.3580  1.0073
   20CHTO  H148 8192   5.106   3.236  -0.472  0.2770  3.4943  2.4606
   20CHTO   O49 8193   5.086   3.083  -0.331 -0.5392 -0.6454 -0.3303
   20CHTO   C77 8194   5.203   3.101  -0.239  0.0898  0.8964  0.5498
   20CHTO  H149 8195   5.297   3.128  -0.288  0.0369  0.1025  0.0077
   20CHTO   C88 8196   5.218   2.958  -0.190  0.6034 -0.1523  0.0347
   20CHTO   O58 8197   5.267   2.867  -0.284  0.5192  0.8476 -0.0699
   20CHTO  H136 8198   5.252   2.778  -0.258  0.4133 -0.2432 -3.6742
   20CHTO   O51 8199   4.871   3.163  -0.446 -0.2968 -0.0076  0.1305
   20CHTO   C78 8200   4.789   3.054  -0.335  0.3895 -0.2909  0.4506
   20CHTO  H150 8201   4.848   3.059  -0.241 -0.5997 -2.5092  1.2180
   20CHTO   C80 8202   4.794   2.912  -0.396 -0.5563  0.3013 -0.0026
   20CHTO  H152 8203   4.721   2.903  -0.479 -0.6601  0.2519  0.0936
   20CHTO   O55 8204   4.929   2.886  -0.437  0.0065  0.4011 -0.2338
   20CHTO  H134 8205   4.919   2.803  -0.481 -1.5374  0.1818  0.5064
   20CHTO   C84 8206   4.744   2.808  -0.298 -0.2325  0.1449  0.0762
   20CHTO  H156 8207   4.796   2.807  -0.202 -0.5449 -1.7798  0.2440
   20CHTO   N15 8208   4.744   2.666  -0.356 -0.8018 -0.1495 -0.1482
   20CHTO  H143 8209   4.682   2.673  -0.442 -1.4311 -4.1023 -0.1119
   20CHTO  H144 8210   4.698   2.600  -0.285 -1.4678  1.8252  1.3109
   20CHTO   C87 8211   4.604   2.855  -0.258 -0.3944 -0.5847 -1.1557
   20CHTO  H159 8212   4.531   2.826  -0.334 -1.0947 -0.7489 -0.4187
   20CHTO   O53 8213   4.586   3.010  -0.226  0.4869 -0.9204  0.0070
   20CHTO   C82 8214   4.652   3.108  -0.300 -1.0718 -0.3253 -0.0383
   20CHTO  H154 8215   4.591   3.128  -0.387 -0.6109  1.0049 -0.0704
   20CHTO   C89 8216   4.649   3.234  -0.217 -0.2004  0.0628  0.5294
   20CHTO   O59 8217   4.517   3.277  -0.189  0.2983 -0.1957  0.0130
   20CHTO  H137 8218   4.524   3.355  -0.137  2.0806  0.5609 -1.3088
   20CHTO   O45 8219   4.557   2.764  -0.111 -0.4096 -0.0804  0.4970
   20CHTO   C67 8220   4.596   2.829   0.008  0.1831 -0.1772  0.3978
   20CHTO  H124 8221   4.698   2.861  -0.012  0.1548 -0.3705 -0.0569
   20CHTO   C65 8222   4.503   2.948   0.047 -0.4430 -0.2752 -0.5720
   20CHTO  H122 8223   4.422   2.956  -0.027 -2.4092  1.6175  1.7169
   20CHTO   O44 8224   4.577   3.073   0.042  0.8685 -0.0051  0.2370
   20CHTO  H102 8225   4.579   3.116   0.125  1.0789 -1.1287  0.8097
   20CHTO   C63 8226   4.430   2.910   0.182  0.5105 -0.4439 -0.7597
   20CHTO  H120 8227   4.374   2.821   0.152 -0.0320 -0.2226 -0.4227
   20CHTO   N11 8228   4.317   2.997   0.212 -0.2276  0.0235  0.5635
   20CHTO  H108 8229   4.249   3.008   0.131 -0.5996  0.1430  0.8876
   20CHTO  H109 8230   4.342   3.093   0.252 -1.1265 -0.1089  1.4725
   20CHTO   C61 8231   4.531   2.882   0.296 -0.4527  0.5756 -0.3976
   20CHTO  H118 8232   4.468   2.837   0.374  0.2500 -0.3147 -0.3410
   20CHTO   O40 8233   4.623   2.777   0.252 -0.9568  0.2071  0.1353
   20CHTO   C68 8234   4.610   2.714   0.118  0.1036 -0.2870 -0.1655
   20CHTO  H125 8235   4.516   2.654   0.117  0.0510 -0.2201  0.5398
   20CHTO   C72 8236   4.728   2.621   0.090  0.2113  0.0418 -0.3415
   20CHTO   O48 8237   4.735   2.532   0.199  0.4010 -0.3376  0.3040
   20CHTO  H105 8238   4.819   2.489   0.200  0.1929 -0.7507  0.0548
   20CHTO   O38 8239   4.612   2.995   0.338  0.4953  0.3072  0.1566
   20CHTO   C55 8240   4.639   3.014   0.477  0.7181  0.4655  0.8002
   20CHTO  H112 8241   4.581   2.954   0.548 -1.6429 -1.2798 -2.5207
   20CHTO   C56 8242   4.611   3.170   0.498 -0.7660 -0.6765  0.1513
   20CHTO  H113 8243   4.671   3.214   0.417 -2.8447  1.0174 -0.5129
   20CHTO   O42 8244   4.472   3.210   0.476 -1.0108 -0.2664  0.7723
   20CHTO  H100 8245   4.444   3.186   0.390  1.7919 -2.7122  0.4794
   20CHTO   C57 8246   4.666   3.215   0.639  0.3404  0.6746 -1.2594
   20CHTO  H114 8247   4.579   3.183   0.698  1.4328 -1.7865 -0.9047
   20CHTO   N10 8248   4.695   3.361   0.647 -0.0261  0.8039  0.0733
   20CHTO  H106 8249   4.746   3.386   0.555 -3.1771  0.8420 -1.7138
   20CHTO  H107 8250   4.601   3.415   0.647  0.0078  0.8613 -0.4008
   20CHTO   C58 8251   4.791   3.140   0.696 -0.2518 -0.2140  0.1278
   20CHTO  H115 8252   4.884   3.182   0.653 -1.4366  1.5635 -0.8038
   20CHTO   O37 8253   4.781   3.006   0.652  0.2885  0.5337  0.0815
   20CHTO   C59 8254   4.783   2.977   0.510  0.2423 -0.1630  0.6723
   20CHTO  H116 8255   4.859   3.033   0.456  0.1213  0.9120  1.5822
   20CHTO   C70 8256   4.817   2.826   0.485  0.3709 -0.0827  0.3105
   20CHTO   O46 8257   4.728   2.731   0.548 -0.4142 -0.3598 -0.3510
   20CHTO  H103 8258   4.740   2.736   0.641 -0.6333  1.1558 -0.3966
   20CHTO   O39 8259   4.780   3.149   0.876  0.2597  0.1486  0.4761
   20CHTO   C60 8260   4.894   3.086   0.927 -0.5019 -0.4259 -0.4935
   20CHTO  H117 8261   4.957   3.047   0.847  0.1514  1.3539 -0.8733
   20CHTO   C62 8262   4.990   3.195   0.999 -0.8389  0.3087  0.1579
   20CHTO  H119 8263   5.015   3.266   0.917  2.2367  1.8867  2.3160
   20CHTO   O43 8264   4.924   3.261   1.107  0.2204 -0.3181  0.2462
   20CHTO  H101 8265   4.844   3.292   1.070  0.3065 -2.1005 -1.4617
   20CHTO   C66 8266   5.123   3.119   1.041 -0.1764  0.2275  0.3673
   20CHTO  H123 8267   5.174   3.081   0.953  0.2630  2.3004 -0.3059
   20CHTO   N12 8268   5.225   3.211   1.101 -0.3149 -0.0298  0.0730
   20CHTO  H110 8269   5.316   3.209   1.044  0.9970  0.0088  2.1082
   20CHTO  H111 8270   5.186   3.312   1.098 -1.0509 -0.3445 -2.1284
   20CHTO   C69 8271   5.092   2.997   1.136  0.1563  0.3436  0.2766
   20CHTO  H126 8272   5.045   3.030   1.232  0.5260  0.3671  0.4508
   20CHTO   O41 8273   4.975   2.901   1.076 -0.7492 -0.1270 -0.1349
   20CHTO   C64 8274   4.851   2.975   1.022  0.1700 -0.4662  0.1883
   20CHTO  H121 8275   4.802   3.030   1.105  1.6125  0.4919  0.4408
   20CHTO   C71 8276   4.758   2.867   0.962  0.5343  0.5550 -0.5324
   20CHTO   O47 8277   4.629   2.911   0.948 -0.3576 -0.1313  0.3956
   20CHTO  H104 8278   4.608   2.991   0.992 -1.9510 -0.5091  0.3693
   20CHTO   O34 8279   5.210   2.922   1.171  0.1876  0.3564  0.1993
   20CHTO   C49 8280   5.194   2.770   1.233 -0.1089 -0.6062 -0.0680
   20CHTO   H91 8281   5.131   2.722   1.158  1.0807  1.4040 -2.4060
   20CHTO   C47 8282   5.130   2.774   1.378 -0.0569 -0.2188  0.4129
   20CHTO   H89 8283   5.022   2.779   1.352 -0.3323  0.8220  1.7278
   20CHTO   O33 8284   5.161   2.895   1.442 -0.2212 -0.1954  0.1777
   20CHTO   H70 8285   5.137   2.891   1.532  3.2478  1.9207  1.2525
   20CHTO   C45 8286   5.164   2.652   1.470  0.5415 -0.1066 -0.2982
   20CHTO   H87 8287   5.255   2.676   1.528 -0.3592 -1.4463  1.7229
   20CHTO    N8 8288   5.057   2.614   1.565  0.0034 -0.6463 -0.0243
   20CHTO   H75 8289   4.992   2.694   1.597  1.7678  0.2896  1.3251
   20CHTO   H76 8290   5.106   2.559   1.645  3.5401  3.0926  0.5631
   20CHTO   C43 8291   5.204   2.522   1.384  0.1784  0.0485 -0.9942
   20CHTO   H85 8292   5.226   2.440   1.452 -2.1913 -0.1108 -0.3747
   20CHTO   O29 8293   5.308   2.546   1.290  0.0185 -0.1679  0.1013
   20CHTO   C50 8294   5.321   2.682   1.245 -0.0754  0.1135  0.0117
   20CHTO   H92 8295   5.397   2.736   1.303  0.8256 -1.3587  0.2504
   20CHTO   C54 8296   5.398   2.677   1.103 -0.1349 -0.2880 -0.3053
   20CHTO   O36 8297   5.331   2.607   1.002 -0.1342  0.2098  0.9080
   20CHTO   H72 8298   5.388   2.562   0.943 -1.3951 -0.1531 -0.0505
   20CHTO   O27 8299   5.094   2.463   1.313 -0.2668  0.0340  0.4627
   20CHTO   C37 8300   5.027   2.376   1.220  0.0630 -0.1255  0.1217
   20CHTO   H79 8301   4.943   2.336   1.279 -0.9053 -0.4916 -1.4930
   20CHTO   C38 8302   4.969   2.459   1.096  0.3981  0.6248 -0.2253
   20CHTO   H80 8303   5.047   2.520   1.047  0.9098 -0.1611 -0.4014
   20CHTO   O31 8304   4.880   2.552   1.163  0.5708 -0.2392 -0.7761
   20CHTO   H68 8305   4.920   2.611   1.224 -1.1804  0.0748  0.1035
   20CHTO   C39 8306   4.890   2.368   1.000  0.0011 -0.1948  0.1246
   20CHTO   H81 8307   4.793   2.341   1.041 -1.5871  0.5728 -2.9449
   20CHTO    N7 8308   4.858   2.433   0.868 -0.3150  0.2217 -0.4262
   20CHTO   H73 8309   4.787   2.514   0.882 -0.5011  0.2357 -1.4436
   20CHTO   H74 8310   4.811   2.365   0.799 -1.3972  0.4890  0.0392
   20CHTO   C40 8311   4.961   2.226   0.974  0.1746  0.2771 -0.8509
   20CHTO   H82 8312   5.043   2.232   0.902 -0.2194 -0.0619 -1.3350
   20CHTO   O26 8313   5.004   2.175   1.100 -0.2807 -0.1485 -0.2005
   20CHTO   C41 8314   5.109   2.251   1.169 -0.7423 -1.0980 -0.4903
   20CHTO   H83 8315   5.193   2.278   1.102  1.1039 -0.7207  1.8992
   20CHTO   C52 8316   5.150   2.142   1.280 -0.0811 -0.3755 -0.3094
   20CHTO   O35 8317   5.246   2.176   1.360 -0.4647 -0.1141  0.1972
   20CHTO   H71 8318   5.271   2.105   1.416  1.0476  3.1546  3.9500
   20CHTO   O28 8319   4.864   2.125   0.937  0.3850 -0.0792  0.3298
   20CHTO   C42 8320   4.899   2.001   0.870  0.5802  0.1035  0.5172
   20CHTO   H84 8321   4.804   1.964   0.832  1.1119  0.4210 -1.1450
   20CHTO   C44 8322   4.948   1.896   0.971 -0.5680 -0.2011  0.4777
   20CHTO   H86 8323   5.022   1.946   1.033 -0.2152  0.0867 -0.1640
   20CHTO   O32 8324   4.846   1.864   1.061 -0.0248  0.2150 -0.1464
   20CHTO   H69 8325   4.860   1.783   1.107 -0.0822  0.1961 -0.1627
   20CHTO   C48 8326   5.003   1.767   0.901 -0.3872 -0.3538  0.3450
   20CHTO   H90 8327   4.917   1.711   0.863  1.4916 -1.4255 -2.4902
   20CHTO    N9 8328   5.065   1.685   1.004  0.2824 -0.0083 -0.6407
   20CHTO   H77 8329   5.003   1.685   1.092 -1.4056  0.7776 -1.8026
   20CHTO   H78 8330   5.074   1.587   0.961  0.0031 -0.5511  0.5267
   20CHTO   C51 8331   5.103   1.809   0.788 -0.6680 -0.7327 -1.0875
   20CHTO   H93 8332   5.171   1.871   0.847 -3.7596  1.6021  0.1576
   20CHTO   O30 8333   5.031   1.889   0.695  0.4502  0.5580 -0.6199
   20CHTO   C46 8334   4.992   2.023   0.744 -0.3130 -0.1499  0.0981
   20CHTO   H88 8335   5.078   2.082   0.776 -1.0525  0.1851  1.5215
   20CHTO   C53 8336   4.909   2.089   0.626 -0.3406 -0.5411  0.0001
   20CHTO   O72 8337   4.945   2.044   0.498  0.0586  0.7642  0.5828
   20CHTO  H199 8338   4.876   1.998   0.455  0.4367  0.4346  0.3254
   20CHTO   O22 8339   5.166   1.706   0.714  0.5186  0.3591  0.1710
   20CHTO   C31 8340   5.309   1.722   0.674  0.7509 -0.3319 -0.2176
   20CHTO   H59 8341   5.316   1.659   0.583 -1.7166 -0.2406 -0.5132
   20CHTO   C29 8342   5.360   1.868   0.646 -0.1647 -0.7867 -0.1003
   20CHTO   H57 8343   5.336   1.926   0.736  0.6458 -0.8219  0.1479
   20CHTO   O21 8344   5.283   1.936   0.540  0.2979  0.1308 -0.2093
   20CHTO   H37 8345   5.194   1.920   0.564 -0.1084 -0.8138 -2.2112
   20CHTO   C27 8346   5.514   1.874   0.619  0.6746 -0.2920  0.5108
   20CHTO   H55 8347   5.534   1.813   0.530  1.0052 -1.4309  1.3581
   20CHTO    N5 8348   5.570   2.007   0.598  0.0249  0.7471 -0.8251
   20CHTO   H43 8349   5.668   1.998   0.554  0.1989 -0.8352 -0.1694
   20CHTO   H44 8350   5.576   2.067   0.688  0.2716  0.5542 -0.7126
   20CHTO   C25 8351   5.589   1.792   0.733 -0.2766 -0.6401  0.4412
   20CHTO   H53 8352   5.581   1.841   0.831  0.1509  2.5603 -1.0573
   20CHTO   O17 8353   5.547   1.653   0.754  0.0685 -0.2805  0.1478
   20CHTO   C32 8354   5.404   1.649   0.782 -0.6416 -0.0667 -0.4049
   20CHTO   H60 8355   5.386   1.702   0.875 -1.1125  2.1160 -1.6830
   20CHTO   C36 8356   5.363   1.502   0.810 -0.4070  0.3852 -0.1154
   20CHTO   O25 8357   5.335   1.427   0.691 -0.3474  0.7592  0.0131
   20CHTO   H40 8358   5.410   1.431   0.635 -0.3018  0.5425  0.0544
   20CHTO   O15 8359   5.754   1.805   0.694 -0.6942 -0.1730  0.1094
   20CHTO   C19 8360   5.886   1.868   0.667 -0.0728  0.4787  0.1736
   20CHTO   H47 8361   5.882   1.935   0.580  0.8347  3.1373  2.1408
   20CHTO   C20 8362   5.939   1.947   0.787 -0.0028  0.0011 -0.1023
   20CHTO   H48 8363   5.956   1.881   0.873 -1.9582 -1.4054 -0.7707
   20CHTO   O19 8364   5.831   2.031   0.822 -0.2123 -0.0544  0.2585
   20CHTO   H35 8365   5.827   2.050   0.914  0.2798 -1.1609  0.5091
   20CHTO   C21 8366   6.074   2.027   0.760 -0.1359 -0.4396 -0.1285
   20CHTO   H49 8367   6.047   2.102   0.685 -0.7758 -1.5850 -1.0500
   20CHTO    N4 8368   6.143   2.104   0.875 -0.2221 -0.2540 -0.9479
   20CHTO   H41 8369   6.073   2.168   0.926  0.9001  0.1177  0.1384
   20CHTO   H42 8370   6.184   2.035   0.946 -0.3430  2.3192  1.7219
   20CHTO   C22 8371   6.173   1.933   0.692 -0.0992  0.2999  0.1065
   20CHTO   H50 8372   6.231   1.878   0.766 -1.6728 -1.4184  0.0855
   20CHTO   O14 8373   6.110   1.840   0.595 -0.1963 -0.2870  0.0457
   20CHTO   C23 8374   6.000   1.762   0.638 -0.2256 -0.2332  0.4707
   20CHTO   H51 8375   6.030   1.707   0.728  2.0959 -2.0013 -1.3376
   20CHTO   C34 8376   5.969   1.655   0.530 -0.2252 -0.1423 -0.2747
   20CHTO   O23 8377   5.964   1.698   0.390 -0.2331  0.0913 -0.3364
   20CHTO   H38 8378   5.881   1.737   0.372 -1.2125 -1.7024  0.2461
   20CHTO   O16 8379   6.255   2.021   0.608 -0.4568 -0.5685  0.1819
   20CHTO   C24 8380   6.390   1.955   0.552  0.2789  0.0356  0.3244
   20CHTO   H52 8381   6.394   1.847   0.566  0.4952 -0.1629 -1.1792
   20CHTO   C26 8382   6.509   2.030   0.614 -0.6452 -0.1912  0.2122
   20CHTO   H54 8383   6.493   2.138   0.594 -2.1575 -0.5200 -0.3529
   20CHTO   O20 8384   6.510   2.019   0.755  0.5492  0.3259  0.0291
   20CHTO   H36 8385   6.588   2.061   0.786  3.2737 -2.3910 -2.7917
   20CHTO   C30 8386   6.647   1.989   0.549  0.1566 -0.1378 -0.2254
   20CHTO   H58 8387   6.716   1.930   0.611  0.2064 -0.4050 -0.5338
   20CHTO    N6 8388   6.734   2.107   0.517 -0.2901  0.1279 -0.3535
   20CHTO   H45 8389   6.687   2.188   0.463 -0.8473  0.4863  0.6555
   20CHTO   H46 8390   6.828   2.080   0.473 -1.2767 -1.0141 -1.7805
   20CHTO   C33 8391   6.623   1.899   0.424  0.2522  0.3778  0.4523
   20CHTO   H61 8392   6.714   1.888   0.364  0.1183 -0.1641  0.3429
   20CHTO   O18 8393   6.517   1.937   0.334  0.5366 -0.0826 -0.2618
   20CHTO   C28 8394   6.398   1.980   0.398 -0.1618 -0.0431  0.6966
   20CHTO   H56 8395   6.393   2.088   0.385  1.4051 -0.0540 -0.1267
   20CHTO   C35 8396   6.278   1.924   0.319 -0.4143  0.0008  0.6107
   20CHTO   O24 8397   6.264   1.782   0.344 -0.0140  0.0716  0.3199
   20CHTO   H39 8398   6.176   1.778   0.313 -0.0410 -4.3521  0.7470
   20CHTO    O9 8399   6.601   1.764   0.474 -0.2941  0.2779 -0.5652
   20CHTO   C13 8400   6.688   1.642   0.403  0.2581 -0.5756 -0.0332
   20CHTO   H26 8401   6.793   1.674   0.388 -0.4046  2.0746  0.6085
   20CHTO   C11 8402   6.618   1.605   0.265 -0.1619  0.2974  0.3787
   20CHTO   H24 8403   6.626   1.688   0.194 -1.5010 -0.5952 -0.8478
   20CHTO    O8 8404   6.476   1.584   0.284 -0.1356  0.3782 -0.6455
   20CHTO    H3 8405   6.450   1.569   0.373  1.4657  2.5202  0.2155
   20CHTO    C9 8406   6.691   1.476   0.210  0.0986 -0.1334 -0.0660
   20CHTO   H22 8407   6.799   1.495   0.217  0.2860 -1.3147  0.4493
   20CHTO    N2 8408   6.661   1.464   0.065  0.0831  0.4993  0.7509
   20CHTO   H10 8409   6.690   1.563   0.033  1.8758 -0.7973 -1.7711
   20CHTO   H11 8410   6.555   1.444   0.054  0.0919 -0.0165  1.5157
   20CHTO    C7 8411   6.657   1.351   0.309 -0.5005 -1.1981 -0.4474
   20CHTO   H20 8412   6.750   1.293   0.330  0.1764  1.1527  3.4094
   20CHTO    O4 8413   6.624   1.395   0.440  1.1750 -0.5608 -0.3260
   20CHTO   C14 8414   6.694   1.509   0.501 -1.3557  0.0079  0.2228
   20CHTO   H27 8415   6.802   1.485   0.515 -1.2018  0.6501  0.1882
   20CHTO   C18 8416   6.641   1.539   0.643 -0.4221 -0.4157  0.3308
   20CHTO   O13 8417   6.498   1.559   0.628  0.7647  0.0832 -0.2841
   20CHTO    H7 8418   6.452   1.485   0.594  0.6575 -0.3839  0.8815
   20CHTO    O2 8419   6.545   1.272   0.246 -0.2181 -0.4828  0.3100
   20CHTO    C1 8420   6.495   1.153   0.313 -0.6956 -0.1106 -0.1648
   20CHTO   H14 8421   6.499   1.164   0.423 -2.1214 -1.2897  0.0117
   20CHTO    C2 8422   6.571   1.018   0.279 -0.0091 -0.0777  0.0043
   20CHTO   H15 8423   6.549   1.012   0.171 -0.7012  0.2731  0.1221
   20CHTO    O6 8424   6.708   1.027   0.317 -0.0435  0.6352  0.4344
   20CHTO    H1 8425   6.755   1.086   0.261  2.4819  0.7364  2.5556
   20CHTO    C3 8426   6.505   0.898   0.356  1.2392 -0.2242 -0.2464
   20CHTO   H16 8427   6.523   0.909   0.464 -2.4793  1.8609  0.2260
   20CHTO    N1 8428   6.552   0.758   0.309  0.6454 -0.1827 -0.7444
   20CHTO    H8 8429   6.601   0.693   0.381  2.1838  0.3128 -1.3110
   20CHTO    H9 8430   6.620   0.752   0.225  0.1965  0.1163 -1.1281
   20CHTO    C4 8431   6.344   0.897   0.345  0.5060  1.1406 -0.1098
   20CHTO   H17 8432   6.317   0.858   0.247  0.6685 -0.2685  0.3986
   20CHTO    O1 8433   6.291   1.029   0.363 -0.0015 -0.1372  0.4482
   20CHTO    C5 8434   6.343   1.127   0.280  0.4060 -0.8957  0.6688
   20CHTO   H18 8435   6.346   1.105   0.173 -4.0120 -1.5978  0.5845
   20CHTO   C16 8436   6.258   1.253   0.305  0.2988  1.2041  0.6197
   20CHTO   O11 8437   6.286   1.372   0.232  0.1372  0.0726 -0.3587
   20CHTO    H5 8438   6.204   1.388   0.189 -1.4818 -1.7679  1.9542
   20CHTO    O3 8439   6.289   0.809   0.448  0.1232 -0.4248  0.6405
   20CHTO    C6 8440   6.154   0.759   0.422 -0.3774 -0.1423  0.2600
   20CHTO   H19 8441   6.118   0.803   0.329  2.7929 -0.8937 -1.3757
   20CHTO    C8 8442   6.159   0.604   0.402  0.6539 -0.4020 -0.5433
   20CHTO   H21 8443   6.190   0.562   0.498 -2.0057  1.2630  1.1243
   20CHTO    O7 8444   6.254   0.573   0.297  0.0363 -0.3811  0.4199
   20CHTO    H2 8445   6.336   0.612   0.321 -0.7474  1.9542 -0.5652
   20CHTO   C12 8446   6.011   0.554   0.378  0.1399 -0.4182  0.3943
   20CHTO   H25 8447   5.976   0.587   0.278  1.4971 -0.4759 -0.1101
   20CHTO    N3 8448   6.010   0.403   0.364 -0.1903 -0.1095 -0.1147
   20CHTO   H12 8449   6.067   0.366   0.448 -1.3090 -0.7066  0.3932
   20CHTO   H13 8450   6.073   0.393   0.277 -0.0625  0.0821 -0.0444
   20CHTO   C15 8451   5.908   0.602   0.486  0.0961 -0.3725 -0.7074
   20CHTO   H28 8452   5.922   0.556   0.584 -0.7923 -0.8438 -0.7981
   20CHTO   O10 8453   5.759   0.585   0.438  0.1851  0.2260  0.2399
   20CHTO    H4 8454   5.702   0.642   0.487 -1.0256  0.0585 -0.9656
   20CHTO    O5 8455   5.923   0.751   0.491 -0.5718  0.6737  0.2535
   20CHTO   C10 8456   6.052   0.799   0.533 -1.4523  0.8223  0.3573
   20CHTO   H23 8457   6.071   0.745   0.626  0.9260  1.2470  0.1539
   20CHTO   C17 8458   6.045   0.946   0.570 -0.8517  0.2247 -0.5766
   20CHTO   O12 8459   5.944   0.955   0.674  0.2372  0.6745  0.1014
   20CHTO    H6 8460   5.965   0.906   0.751 -3.0667  0.7537  1.1254
   21GLOH   H03 8461   3.676  10.154   1.435  0.9834  1.0450 -0.6360
   21GLOH    O1 8462   3.700  10.175   1.527  0.0139 -0.3149 -0.0683
   21GLOH    C1 8463   3.746  10.315   1.530 -0.6393 -0.2403  0.1639
   21GLOH   H02 8464   3.679  10.374   1.593  0.4811  1.0662  0.1812
   21GLOH   H08 8465   3.748  10.360   1.431 -1.3315  1.7838  1.0463
   21GLOH    C2 8466   3.864  10.321   1.622  1.1674  0.3763  0.3968
   21GLOH   H04 8467   3.838  10.286   1.723  1.7494  2.0607  1.1471
   21GLOH    O2 8468   3.969  10.232   1.569  0.1162  0.1964 -0.3306
   21GLOH   H05 8469   3.957  10.138   1.590  1.4633  0.5378  2.1951
   21GLOH    C3 8470   3.908  10.467   1.635 -0.3341 -0.4409  0.4217
   21GLOH   H06 8471   3.926  10.509   1.536  1.8181 -1.6933  0.2314
   21GLOH   H07 8472   4.002  10.471   1.691 -0.0871 -0.4725  0.0081
   21GLOH    O3 8473   3.812  10.551   1.701 -0.0006 -0.2084  0.8066
   21GLOH   H01 8474   3.815  10.528   1.796 -2.8481  1.1769  1.2887
   22GLOH   H03 8475   3.324   9.553   2.455 -0.0964 -1.0063  0.2478
   22GLOH    O1 8476   3.418   9.579   2.459 -0.4258  0.2925 -0.1927
   22GLOH    C1 8477   3.493   9.456   2.450  0.1545 -0.9746 -0.0088
   22GLOH   H02 8478   3.496   9.412   2.550  5.4904 -0.8587 -0.0145
   22GLOH   H08 8479   3.595   9.489   2.430  0.3029 -1.0543  0.5865
   22GLOH    C2 8480   3.444   9.356   2.346  0.7301 -0.8954  0.2072
   22GLOH   H04 8481   3.422   9.418   2.257 -0.2758  0.3198  1.2697
   22GLOH    O2 8482   3.542   9.252   2.311  0.1230 -0.0871 -0.3342
   22GLOH   H05 8483   3.624   9.295   2.280  0.0255 -0.4268 -1.0753
   22GLOH    C3 8484   3.311   9.296   2.394 -0.0274  0.9207  0.0449
   22GLOH   H06 8485   3.333   9.244   2.487  0.8646 -1.8908 -1.6629
   22GLOH   H07 8486   3.282   9.213   2.330  2.8924  0.0100 -0.1993
   22GLOH    O3 8487   3.211   9.396   2.401  0.2237 -0.0934  0.1185
   22GLOH   H01 8488   3.159   9.375   2.321  0.5832  1.7814 -0.6310
   23GLOH   H03 8489   3.567   9.443   1.766 -0.1369 -2.4220 -0.7870
   23GLOH    O1 8490   3.659   9.445   1.797 -0.3569  0.1332 -0.1494
   23GLOH    C1 8491   3.665   9.407   1.941 -0.0939  0.2073 -0.3076
   23GLOH   H02 8492   3.637   9.302   1.949  2.2819 -0.3378  1.5925
   23GLOH   H08 8493   3.604   9.473   2.003  1.6651  2.5854 -1.0257
   23GLOH    C2 8494   3.807   9.416   1.992  0.0236 -0.1354 -0.1311
   23GLOH   H04 8495   3.863   9.363   1.913 -0.7094  0.1376 -0.8452
   23GLOH    O2 8496   3.862   9.545   2.011 -0.0861 -0.4673 -0.5737
   23GLOH   H05 8497   3.798   9.602   2.057 -1.3122 -1.4063 -1.1042
   23GLOH    C3 8498   3.825   9.345   2.119  0.5300  0.7330 -0.1337
   23GLOH   H06 8499   3.931   9.334   2.143 -0.0641 -1.6871  1.5706
   23GLOH   H07 8500   3.794   9.241   2.110 -0.5820  0.8046  2.5437
   23GLOH    O3 8501   3.741   9.391   2.231 -0.7315  0.0410 -0.1661
   23GLOH   H01 8502   3.742   9.489   2.232 -3.1431  0.0888  0.8960
   24GLOH   H03 8503   4.707   2.012   1.532  0.6879 -1.2542 -0.4696
   24GLOH    O1 8504   4.750   2.065   1.462 -0.0466  0.0544  0.0395
   24GLOH    C1 8505   4.681   2.040   1.336 -0.3005 -0.1499  0.6569
   24GLOH   H02 8506   4.582   1.998   1.352 -0.8907  0.1906 -1.9678
   24GLOH   H08 8507   4.743   1.970   1.280  1.9550  3.1816 -1.1555
   24GLOH    C2 8508   4.665   2.165   1.247 -0.3882  0.3711 -0.4871
   24GLOH   H04 8509   4.766   2.189   1.210  0.6823 -0.3019  1.8755
   24GLOH    O2 8510   4.564   2.144   1.147 -0.0902 -0.2167 -0.0448
   24GLOH   H05 8511   4.579   2.059   1.101 -0.3679  0.3541 -1.2335
   24GLOH    C3 8512   4.623   2.292   1.326 -0.8001  0.0408 -0.1317
   24GLOH   H06 8513   4.544   2.254   1.391  1.9196 -2.7343  1.6751
   24GLOH   H07 8514   4.583   2.351   1.243  0.3830 -0.9594 -1.4297
   24GLOH    O3 8515   4.731   2.360   1.395  0.0175 -0.2723  0.7963
   24GLOH   H01 8516   4.784   2.295   1.446 -0.1927  0.5164  2.0268
   25GLOH   H03 8517   2.792   3.802   1.377 -0.8349 -0.7921 -1.4227
   25GLOH    O1 8518   2.766   3.711   1.402  0.1044 -0.5248  0.6356
   25GLOH    C1 8519   2.826   3.622   1.306  0.8341 -0.0032  0.6455
   25GLOH   H02 8520   2.910   3.666   1.253 -0.4716  1.0165 -0.6209
   25GLOH   H08 8521   2.755   3.578   1.236  1.2333  0.3108  0.0390
   25GLOH    C2 8522   2.892   3.501   1.383  0.4812 -1.0383 -0.1337
   25GLOH   H04 8523   2.958   3.541   1.461 -0.9649  1.6276 -0.2264
   25GLOH    O2 8524   2.796   3.423   1.447  0.0824 -0.3150  0.3729
   25GLOH   H05 8525   2.737   3.480   1.499 -1.8063 -2.5094  0.7118
   25GLOH    C3 8526   2.962   3.407   1.288  0.6003 -0.3703 -0.1595
   25GLOH   H06 8527   2.888   3.385   1.211  0.5758 -1.2976  0.1251
   25GLOH   H07 8528   2.982   3.316   1.344 -0.1502 -0.7045 -0.4222
   25GLOH    O3 8529   3.079   3.468   1.231 -0.3439  0.2937 -0.1300
   25GLOH   H01 8530   3.076   3.466   1.134 -0.0039 -2.0517 -0.1148
   26GLOH   H03 8531   4.017   1.998   0.275 -0.0206 -0.4089  0.1242
   26GLOH    O1 8532   3.926   2.031   0.287 -0.0881 -0.4760 -0.1897
   26GLOH    C1 8533   3.865   1.991   0.170  0.2354  0.7392 -0.1000
   26GLOH   H02 8534   3.862   1.883   0.158  0.3017  0.9352 -2.2047
   26GLOH   H08 8535   3.912   2.030   0.080 -1.1501 -1.7185 -1.9605
   26GLOH    C2 8536   3.716   2.035   0.146 -0.1113 -0.0485  0.8813
   26GLOH   H04 8537   3.708   2.144   0.160 -0.2664  0.2405 -1.3732
   26GLOH    O2 8538   3.672   2.004   0.012  0.8871  0.3271 -0.4886
   26GLOH   H05 8539   3.649   2.089  -0.028 -2.4199 -0.5828 -0.7032
   26GLOH    C3 8540   3.640   1.963   0.256  0.1724  0.0385 -0.0233
   26GLOH   H06 8541   3.660   1.856   0.250  2.0272  0.2822  1.5160
   26GLOH   H07 8542   3.533   1.980   0.241 -0.1598 -0.6838  1.3832
   26GLOH    O3 8543   3.689   2.012   0.385  0.1461  0.1368  0.5488
   26GLOH   H01 8544   3.783   2.014   0.360  0.1016  3.4229  0.4819
   27GLOH   H03 8545   4.237   1.710   2.020  0.1357  2.8229 -0.3915
   27GLOH    O1 8546   4.319   1.716   2.073  0.3596 -0.4327 -0.2287
   27GLOH    C1 8547   4.280   1.708   2.215 -0.0989  0.0167  0.1662
   27GLOH   H02 8548   4.321   1.621   2.266 -1.6712 -2.1037 -2.0671
   27GLOH   H08 8549   4.172   1.708   2.227 -0.2156 -0.5968 -0.8651
   27GLOH    C2 8550   4.349   1.817   2.297  0.2154 -0.3609 -0.5660
   27GLOH   H04 8551   4.326   1.913   2.247 -1.1249 -1.0349 -1.2621
   27GLOH    O2 8552   4.294   1.817   2.432  0.1363  0.1209  0.0297
   27GLOH   H05 8553   4.298   1.727   2.469  2.4874  0.2202  0.0788
   27GLOH    C3 8554   4.499   1.789   2.307 -0.1390  0.6693  0.0075
   27GLOH   H06 8555   4.515   1.698   2.364 -1.9519  1.2068  1.4492
   27GLOH   H07 8556   4.539   1.861   2.380  1.2980  2.2620 -2.2724
   27GLOH    O3 8557   4.575   1.797   2.185  0.3427  0.6270  0.2707
   27GLOH   H01 8558   4.521   1.757   2.114  0.9640  1.2898 -0.5871
   28GLOH   H03 8559   2.737   9.429   0.251  1.1262 -1.8709 -0.9708
   28GLOH    O1 8560   2.793   9.477   0.314 -0.9918 -0.8007  0.1379
   28GLOH    C1 8561   2.847   9.591   0.245 -0.2242  0.1925 -0.5842
   28GLOH   H02 8562   2.804   9.594   0.145 -0.3929 -0.5095 -0.5313
   28GLOH   H08 8563   2.952   9.575   0.223 -0.7459  0.4229 -3.4410
   28GLOH    C2 8564   2.824   9.726   0.318  0.1431 -0.4818  0.5353
   28GLOH   H04 8565   2.861   9.725   0.421 -1.2093 -0.7673  1.0269
   28GLOH    O2 8566   2.900   9.823   0.246 -0.1910  0.3601  0.4125
   28GLOH   H05 8567   2.903   9.909   0.291 -0.8739  2.3164 -3.1057
   28GLOH    C3 8568   2.670   9.757   0.317  0.2717  0.3839  0.1335
   28GLOH   H06 8569   2.609   9.672   0.346 -0.1406  1.4177  2.4484
   28GLOH   H07 8570   2.634   9.769   0.215 -1.8256  1.0442  0.9293
   28GLOH    O3 8571   2.627   9.879   0.382 -0.1349 -0.1708 -0.3262
   28GLOH   H01 8572   2.638   9.862   0.477 -0.5601  1.0265 -0.0631
   29GLOH   H03 8573   3.955   9.637   1.294  3.3161  2.0648 -1.3135
   29GLOH    O1 8574   3.975   9.654   1.388  0.2959 -0.2462 -0.1463
   29GLOH    C1 8575   3.929   9.538   1.457 -0.2263 -0.2731 -0.3268
   29GLOH   H02 8576   3.968   9.441   1.428  0.3063 -0.3953  0.7628
   29GLOH   H08 8577   3.823   9.538   1.433 -0.8127  0.8300  2.0815
   29GLOH    C2 8578   3.940   9.551   1.609 -0.8288 -0.4278 -0.3186
   29GLOH   H04 8579   3.885   9.643   1.637  1.5494  1.3069 -1.2200
   29GLOH    O2 8580   3.885   9.435   1.677 -0.5003  0.2501  0.0775
   29GLOH   H05 8581   3.795   9.451   1.710 -0.8722  0.9692 -1.2386
   29GLOH    C3 8582   4.081   9.582   1.669 -0.2852 -0.1337 -0.1072
   29GLOH   H06 8583   4.144   9.493   1.675  0.2395  0.1722 -1.0075
   29GLOH   H07 8584   4.062   9.619   1.770  0.6721  1.5961 -0.5304
   29GLOH    O3 8585   4.142   9.692   1.601  0.1124 -0.1940 -0.2746
   29GLOH   H01 8586   4.090   9.700   1.518  0.0002  2.3453 -0.0016
   30GLOH   H03 8587   4.203   4.271   2.288  0.3191 -2.2059 -1.7905
   30GLOH    O1 8588   4.134   4.216   2.332  0.0945 -0.8359 -0.3892
   30GLOH    C1 8589   4.191   4.185   2.462  0.4266  0.7089 -0.6500
   30GLOH   H02 8590   4.259   4.258   2.506  3.3324 -0.8438 -2.4796
   30GLOH   H08 8591   4.247   4.092   2.459  2.0973  1.7422 -1.9765
   30GLOH    C2 8592   4.071   4.170   2.553 -0.0728 -0.0711  0.2460
   30GLOH   H04 8593   4.012   4.085   2.518  2.0815 -2.3082  1.9009
   30GLOH    O2 8594   4.109   4.135   2.688 -0.2689  0.5531 -0.1354
   30GLOH   H05 8595   4.105   4.215   2.744 -0.5361 -1.9190  3.6015
   30GLOH    C3 8596   3.979   4.295   2.550 -0.5293 -0.5373  0.2278
   30GLOH   H06 8597   3.886   4.269   2.600 -0.4150  1.4013  1.5319
   30GLOH   H07 8598   3.955   4.300   2.444  1.1502  3.0236 -0.0641
   30GLOH    O3 8599   4.036   4.414   2.607  0.0601 -0.4401  0.0725
   30GLOH   H01 8600   4.050   4.397   2.702  2.1352 -0.5333 -0.2215
   31GLOH   H03 8601   3.321   2.954   2.551 -0.8363  1.9194 -2.6675
   31GLOH    O1 8602   3.241   2.900   2.544  0.4120 -0.3090 -0.5635
   31GLOH    C1 8603   3.272   2.760   2.568  0.0914  0.0285  0.5813
   31GLOH   H02 8604   3.340   2.740   2.651 -2.1629 -2.7091  1.8618
   31GLOH   H08 8605   3.333   2.725   2.485  1.8216  1.6405  1.1358
   31GLOH    C2 8606   3.148   2.668   2.570 -0.3426 -0.0327  0.2421
   31GLOH   H04 8607   3.061   2.710   2.622 -0.8006 -1.3413  0.5223
   31GLOH    O2 8608   3.115   2.631   2.438 -0.3902 -0.2472  0.2034
   31GLOH   H05 8609   3.065   2.704   2.396 -0.5655 -0.7353 -0.4487
   31GLOH    C3 8610   3.189   2.544   2.647  0.8205 -0.3849 -0.2362
   31GLOH   H06 8611   3.281   2.510   2.599  0.6158  0.9706 -1.6237
   31GLOH   H07 8612   3.115   2.467   2.625 -1.0773  1.6584 -1.2896
   31GLOH    O3 8613   3.204   2.557   2.789 -0.2856 -0.0942  0.0017
   31GLOH   H01 8614   3.119   2.554   2.836 -0.1880  1.8484  0.3154
   32GLOH   H03 8615   4.395   1.781   0.539 -0.4471  0.2550  2.0759
   32GLOH    O1 8616   4.380   1.875   0.516 -0.5041 -0.3820 -0.7197
   32GLOH    C1 8617   4.399   1.959   0.624  0.2932 -0.3076 -0.0005
   32GLOH   H02 8618   4.420   2.056   0.578 -0.3996 -0.1618 -0.0039
   32GLOH   H08 8619   4.488   1.941   0.684 -0.4249  3.0489  2.1984
   32GLOH    C2 8620   4.272   1.968   0.707 -0.7825 -0.3259  0.4088
   32GLOH   H04 8621   4.241   1.864   0.724 -0.8542 -0.0510  2.0375
   32GLOH    O2 8622   4.313   2.028   0.829  0.2882  0.0925  0.0757
   32GLOH   H05 8623   4.237   2.036   0.889 -0.3752 -0.0976 -0.7373
   32GLOH    C3 8624   4.161   2.042   0.639 -0.6067 -0.1921 -0.3068
   32GLOH   H06 8625   4.126   1.984   0.554 -0.3076 -0.2914 -0.3608
   32GLOH   H07 8626   4.204   2.137   0.609 -1.4108  0.7412  1.3804
   32GLOH    O3 8627   4.049   2.060   0.727 -0.1058 -0.4358  0.0651
   32GLOH   H01 8628   4.083   2.082   0.816 -0.5811  0.4819  0.0319
   33GLOH   H03 8629   4.020   1.412   1.501 -2.5986  0.1486 -0.2174
   33GLOH    O1 8630   4.013   1.320   1.532 -0.5489 -0.2347 -0.7860
   33GLOH    C1 8631   3.970   1.317   1.668 -0.3058  0.2424  0.0643
   33GLOH   H02 8632   3.947   1.212   1.686  1.1260  0.0555  0.9410
   33GLOH   H08 8633   3.872   1.362   1.681  0.2423  1.3442  0.4042
   33GLOH    C2 8634   4.066   1.381   1.770  0.0997  0.3277 -0.1455
   33GLOH   H04 8635   4.167   1.341   1.751 -0.1471 -0.4705  0.1937
   33GLOH    O2 8636   4.074   1.524   1.746 -0.2794  0.0116 -0.1458
   33GLOH   H05 8637   4.134   1.546   1.674  0.1501  1.9277  0.7390
   33GLOH    C3 8638   4.012   1.347   1.909 -0.7503 -0.2674 -0.7775
   33GLOH   H06 8639   3.905   1.371   1.915 -0.5742  0.0046  1.8250
   33GLOH   H07 8640   4.059   1.404   1.989 -0.6537 -0.2290 -0.8627
   33GLOH    O3 8641   4.018   1.211   1.939 -0.0689  0.0994 -0.1917
   33GLOH   H01 8642   4.079   1.199   2.013 -0.8541 -0.9947  0.3067
   34GLOH   H03 8643   3.976   3.958   2.301 -0.3070 -0.1091 -0.2480
   34GLOH    O1 8644   3.950   3.885   2.360  0.2748  0.3616  0.6020
   34GLOH    C1 8645   4.057   3.833   2.440 -0.3176  0.5142 -0.0563
   34GLOH   H02 8646   4.031   3.727   2.446 -1.5619  0.8164  0.0039
   34GLOH   H08 8647   4.068   3.881   2.537  0.7553 -0.6060  0.3969
   34GLOH    C2 8648   4.188   3.826   2.354 -0.0943  0.3634 -1.0079
   34GLOH   H04 8649   4.224   3.928   2.330  3.3602 -0.3278  0.9080
   34GLOH    O2 8650   4.287   3.774   2.449 -0.5121  0.3081  0.3840
   34GLOH   H05 8651   4.257   3.689   2.486  3.8824 -1.7837 -0.6224
   34GLOH    C3 8652   4.179   3.735   2.230  0.2796  0.4082 -0.3733
   34GLOH   H06 8653   4.097   3.772   2.170  0.2327 -0.9375 -1.1556
   34GLOH   H07 8654   4.156   3.633   2.260 -2.1820  1.1047  0.2182
   34GLOH    O3 8655   4.293   3.734   2.152 -0.3058  0.6548 -0.3592
   34GLOH   H01 8656   4.270   3.698   2.064  0.9375 -1.1338  0.0228
   35GLOH   H03 8657   4.368   3.973   1.011 -0.4735  0.5275  0.5198
   35GLOH    O1 8658   4.275   3.946   1.003 -0.2148 -0.3114  0.3336
   35GLOH    C1 8659   4.273   3.807   0.952 -0.5787 -0.3508  0.1351
   35GLOH   H02 8660   4.349   3.755   1.011 -0.9272  0.3982  1.2576
   35GLOH   H08 8661   4.310   3.805   0.850  2.7300  1.9237  1.2102
   35GLOH    C2 8662   4.139   3.741   0.971  0.2100 -0.7469 -0.5435
   35GLOH   H04 8663   4.066   3.819   0.946  0.3928 -0.2965  0.3083
   35GLOH    O2 8664   4.134   3.619   0.894  0.5465  0.4352 -0.1045
   35GLOH   H05 8665   4.047   3.579   0.908  0.8988 -0.5097 -0.5559
   35GLOH    C3 8666   4.134   3.708   1.125  0.6453 -0.0667 -0.4784
   35GLOH   H06 8667   4.173   3.788   1.188 -1.3547 -1.3991  2.5470
   35GLOH   H07 8668   4.204   3.627   1.147  1.5009  0.9901  0.7622
   35GLOH    O3 8669   4.008   3.655   1.167 -0.6153 -0.5066 -0.4661
   35GLOH   H01 8670   3.952   3.734   1.181  1.2497  0.3691  2.2393
   36GLOH   H03 8671   3.506   3.384   1.820  0.7624 -0.2372 -1.7163
   36GLOH    O1 8672   3.589   3.394   1.869 -0.0933  0.1784 -0.3145
   36GLOH    C1 8673   3.697   3.392   1.776  0.9759  0.3342  0.6595
   36GLOH   H02 8674   3.674   3.449   1.686  0.5992 -1.5034 -0.4418
   36GLOH   H08 8675   3.715   3.293   1.732  1.3952  1.0994 -0.9229
   36GLOH    C2 8676   3.832   3.421   1.845 -0.4483 -0.5405  0.4050
   36GLOH   H04 8677   3.862   3.335   1.906  0.6460 -0.3727  0.1288
   36GLOH    O2 8678   3.925   3.445   1.731  0.1439  0.2927  0.7160
   36GLOH   H05 8679   3.885   3.519   1.682  0.4960 -0.1806 -0.3082
   36GLOH    C3 8680   3.833   3.545   1.934  0.9219  0.3684  0.0270
   36GLOH   H06 8681   3.744   3.531   1.996 -0.0933 -2.1691 -1.9256
   36GLOH   H07 8682   3.806   3.639   1.884 -1.2366 -1.1582 -1.7948
   36GLOH    O3 8683   3.950   3.569   2.012  0.1916 -0.1265 -1.4757
   36GLOH   H01 8684   4.024   3.514   1.982  0.8833 -0.5022  0.8901
   37GLOH   H03 8685   3.724   4.134   1.211 -2.1163  1.4078  2.9563
   37GLOH    O1 8686   3.733   4.052   1.263  0.4268  0.2057  0.7392
   37GLOH    C1 8687   3.853   4.068   1.349  0.2215 -0.2068 -0.4763
   37GLOH   H02 8688   3.863   4.171   1.384  0.9929  0.3553 -2.3000
   37GLOH   H08 8689   3.946   4.044   1.297  2.3301  2.6296  1.8261
   37GLOH    C2 8690   3.865   3.965   1.468  0.0952 -0.5831 -0.1856
   37GLOH   H04 8691   3.865   3.865   1.424 -1.0582 -1.3654  1.5054
   37GLOH    O2 8692   3.988   3.986   1.542 -0.1898 -0.5183  0.4793
   37GLOH   H05 8693   4.062   4.005   1.481 -0.3890  0.3698  0.5101
   37GLOH    C3 8694   3.741   3.989   1.557  0.1600 -0.5593 -0.0814
   37GLOH   H06 8695   3.732   3.912   1.635 -0.4745  0.7238  1.1337
   37GLOH   H07 8696   3.650   3.977   1.497 -1.2473  0.6631  1.7430
   37GLOH    O3 8697   3.735   4.123   1.614  0.4207  1.0233 -0.3814
   37GLOH   H01 8698   3.819   4.140   1.660  0.3004 -4.3478  2.1811
   38GLOH   H03 8699   3.508   2.404   0.974 -0.2338  0.4501  0.8407
   38GLOH    O1 8700   3.461   2.320   0.989  0.0020  0.1160 -0.1928
   38GLOH    C1 8701   3.555   2.204   0.988 -0.3469 -0.0301 -0.2139
   38GLOH   H02 8702   3.499   2.115   0.959 -1.9464  0.9200 -0.0981
   38GLOH   H08 8703   3.606   2.198   1.084 -2.2695 -0.5118  0.8024
   38GLOH    C2 8704   3.669   2.223   0.877 -0.1628  0.0073  0.5222
   38GLOH   H04 8705   3.615   2.204   0.783 -0.1057  1.2126  0.2386
   38GLOH    O2 8706   3.729   2.353   0.864 -0.7068 -0.0412  0.5258
   38GLOH   H05 8707   3.741   2.393   0.952  0.6009  0.2933  0.1987
   38GLOH    C3 8708   3.772   2.112   0.899  0.6460  0.4292  0.0936
   38GLOH   H06 8709   3.839   2.131   0.983  2.7288 -1.4356 -1.1038
   38GLOH   H07 8710   3.832   2.120   0.808  1.6124  1.7393  0.8237
   38GLOH    O3 8711   3.700   1.979   0.901 -0.4160 -0.4465  0.2162
   38GLOH   H01 8712   3.666   1.956   0.812  0.0424  0.9084 -0.3276
   39GLOH   H03 8713   4.398   2.626   0.538 -0.3288 -0.0624 -0.6133
   39GLOH    O1 8714   4.373   2.544   0.492 -0.3050 -0.5296  0.2019
   39GLOH    C1 8715   4.386   2.437   0.589 -0.3871 -0.1742  0.5580
   39GLOH   H02 8716   4.339   2.344   0.556 -0.8317  0.8209 -1.7465
   39GLOH   H08 8717   4.339   2.468   0.682 -1.6259  0.6575 -0.3363
   39GLOH    C2 8718   4.535   2.405   0.601  0.5617  0.0289  1.0818
   39GLOH   H04 8719   4.581   2.479   0.668  0.7545  1.3753 -0.5180
   39GLOH    O2 8720   4.561   2.279   0.656 -0.0388  0.3561  0.2785
   39GLOH   H05 8721   4.548   2.289   0.752  0.6256  1.7508  0.2224
   39GLOH    C3 8722   4.612   2.408   0.463  0.0634 -0.7345 -0.2052
   39GLOH   H06 8723   4.718   2.397   0.483  0.0942 -0.4101 -0.1945
   39GLOH   H07 8724   4.591   2.509   0.428  0.9615 -0.4420  0.0997
   39GLOH    O3 8725   4.557   2.315   0.368 -0.3721  0.0849 -0.2780
   39GLOH   H01 8726   4.537   2.233   0.416  1.7877 -0.5478 -0.3832
   40GLOH   H03 8727   4.360   1.014   0.753  0.9249 -1.0704  0.4904
   40GLOH    O1 8728   4.358   1.062   0.838  0.7620  0.1671 -0.2143
   40GLOH    C1 8729   4.438   1.176   0.815 -0.1913 -0.1860  0.4423
   40GLOH   H02 8730   4.537   1.144   0.847 -0.6613 -1.2707  0.8316
   40GLOH   H08 8731   4.417   1.256   0.886 -0.1762  1.2733 -1.1748
   40GLOH    C2 8732   4.453   1.232   0.676 -0.2324  0.6650  0.4275
   40GLOH   H04 8733   4.352   1.265   0.646 -0.4583  0.1269  0.5897
   40GLOH    O2 8734   4.540   1.345   0.673  0.2398 -0.7864  0.4045
   40GLOH   H05 8735   4.497   1.419   0.720  2.0922 -1.0214  2.5766
   40GLOH    C3 8736   4.480   1.127   0.565  0.5676  0.2244 -0.9659
   40GLOH   H06 8737   4.581   1.085   0.567  1.0990  1.5636  1.2895
   40GLOH   H07 8738   4.460   1.158   0.462  1.7900 -2.3812 -2.0499
   40GLOH    O3 8739   4.404   1.010   0.590 -0.0755 -0.0841  0.0278
   40GLOH   H01 8740   4.327   1.020   0.532  0.7080  0.0823 -0.9867
   41GLOH   H03 8741   3.943   1.573   0.069  0.2508 -3.3536 -0.0377
   41GLOH    O1 8742   3.988   1.580   0.155 -0.7158  0.0839  0.2463
   41GLOH    C1 8743   3.893   1.577   0.262 -0.0002  0.2331  0.1492
   41GLOH   H02 8744   3.910   1.481   0.311 -0.8669  0.8540  1.7058
   41GLOH   H08 8745   3.791   1.607   0.240  0.6287  0.9357 -1.8841
   41GLOH    C2 8746   3.937   1.681   0.370 -0.3601  0.1826 -0.2406
   41GLOH   H04 8747   3.947   1.781   0.326 -0.1794 -0.1002 -0.8644
   41GLOH    O2 8748   3.839   1.695   0.465  0.6338  0.6120 -0.6878
   41GLOH   H05 8749   3.866   1.759   0.534 -3.0630 -0.9301  2.3925
   41GLOH    C3 8750   4.068   1.649   0.447  0.5223 -0.9323 -0.1354
   41GLOH   H06 8751   4.065   1.555   0.502 -1.8354 -0.1342  1.1627
   41GLOH   H07 8752   4.090   1.725   0.522  0.0843 -2.3403  1.4422
   41GLOH    O3 8753   4.180   1.646   0.355  0.8317 -0.3043  0.3205
   41GLOH   H01 8754   4.152   1.610   0.269  1.8936  0.0692 -0.1921
   42GLOH   H03 8755   4.250   4.320   1.377  0.3111  0.3851 -0.2121
   42GLOH    O1 8756   4.256   4.297   1.472 -0.2176  0.0692 -0.2512
   42GLOH    C1 8757   4.134   4.302   1.546  0.0221  0.1430  0.1886
   42GLOH   H02 8758   4.154   4.259   1.644 -0.1982  1.3149  0.7576
   42GLOH   H08 8759   4.058   4.241   1.496 -0.4876  0.7348  0.2247
   42GLOH    C2 8760   4.086   4.452   1.559 -0.4746  0.0890  0.1648
   42GLOH   H04 8761   4.080   4.503   1.462 -3.1047  2.5929  1.5594
   42GLOH    O2 8762   3.951   4.456   1.603  0.1524 -0.0372  0.5658
   42GLOH   H05 8763   3.890   4.428   1.532  1.6079  0.5627 -0.9544
   42GLOH    C3 8764   4.178   4.533   1.651 -0.4163 -0.0819  0.3267
   42GLOH   H06 8765   4.167   4.639   1.627  4.5588  0.2104 -1.2585
   42GLOH   H07 8766   4.282   4.511   1.625 -0.8497 -0.2921 -1.3198
   42GLOH    O3 8767   4.163   4.516   1.796  0.1182  0.1817  0.4867
   42GLOH   H01 8768   4.206   4.433   1.822 -1.7224 -0.4755  1.5241
   43GLOH   H03 8769   4.070   0.993   0.446 -0.9645  0.0601 -1.0160
   43GLOH    O1 8770   3.991   0.938   0.461 -0.0841 -0.8181  0.4699
   43GLOH    C1 8771   4.004   0.858   0.585  0.2100  0.7803  0.4038
   43GLOH   H02 8772   3.908   0.842   0.633 -0.2609 -0.6758 -0.9926
   43GLOH   H08 8773   4.073   0.915   0.647 -0.0664  2.7977 -1.0661
   43GLOH    C2 8774   4.044   0.715   0.548 -0.0742 -0.9823  0.4979
   43GLOH   H04 8775   4.139   0.720   0.493 -1.2044  0.3662 -1.3717
   43GLOH    O2 8776   4.072   0.641   0.665  0.6415  0.1385 -0.2631
   43GLOH   H05 8777   4.156   0.677   0.697  1.0442 -3.0767  2.6600
   43GLOH    C3 8778   3.936   0.647   0.460 -0.2258  0.4250 -0.7632
   43GLOH   H06 8779   3.967   0.552   0.416 -0.8098 -0.6279  1.0212
   43GLOH   H07 8780   3.911   0.710   0.375 -0.2569  1.8969  0.3240
   43GLOH    O3 8781   3.810   0.633   0.540  0.3955  0.1171  0.0599
   43GLOH   H01 8782   3.735   0.671   0.491  0.8980  0.2985 -0.5863
   44GLOH   H03 8783   4.755   3.751   1.701  1.4797  3.5657  2.3278
   44GLOH    O1 8784   4.756   3.796   1.615  0.2434  0.3098  0.5008
   44GLOH    C1 8785   4.709   3.933   1.636  0.1642  0.0742  0.3858
   44GLOH   H02 8786   4.744   3.978   1.729  1.5790  0.4643 -0.3106
   44GLOH   H08 8787   4.601   3.935   1.632  0.0255 -3.4544  0.8996
   44GLOH    C2 8788   4.755   4.032   1.524  0.7820  0.0959  0.1516
   44GLOH   H04 8789   4.705   4.003   1.430  0.6208  0.0727  0.2448
   44GLOH    O2 8790   4.721   4.164   1.552 -0.8464  0.1869 -0.1504
   44GLOH   H05 8791   4.626   4.176   1.570 -0.9072 -2.8750  1.8122
   44GLOH    C3 8792   4.910   4.024   1.502  0.4751  0.1552 -0.8050
   44GLOH   H06 8793   4.958   4.069   1.589 -1.5572  0.0773  0.3904
   44GLOH   H07 8794   4.932   4.089   1.418 -3.2118  1.1202 -1.0876
   44GLOH    O3 8795   4.947   3.883   1.477  0.0828  0.3509 -0.1820
   44GLOH   H01 8796   4.871   3.838   1.519  1.3833 -1.0532  0.6857
   45GLOH   H03 8797   4.282   0.960   1.638  0.3521 -2.3220 -0.0516
   45GLOH    O1 8798   4.303   0.968   1.543 -0.0880  0.5014  0.0633
   45GLOH    C1 8799   4.201   1.062   1.493  0.8298 -0.0380 -0.2879
   45GLOH   H02 8800   4.229   1.091   1.392 -1.3434 -0.7847 -1.1401
   45GLOH   H08 8801   4.200   1.149   1.559 -2.3780  0.6394 -1.1685
   45GLOH    C2 8802   4.063   0.998   1.487 -0.2767 -0.2978 -0.0635
   45GLOH   H04 8803   4.035   0.973   1.590 -0.6034 -1.3364 -0.3976
   45GLOH    O2 8804   3.976   1.099   1.426 -0.1503 -0.2646  0.1209
   45GLOH   H05 8805   3.990   1.183   1.472  3.7279 -0.4740 -0.4658
   45GLOH    C3 8806   4.062   0.865   1.416  0.7787 -0.0757  0.4602
   45GLOH   H06 8807   4.140   0.804   1.460  0.8524  0.7703  1.5170
   45GLOH   H07 8808   4.088   0.879   1.311  1.1676 -0.5752  0.4873
   45GLOH    O3 8809   3.938   0.782   1.408 -0.1543  0.1151 -0.0901
   45GLOH   H01 8810   3.965   0.700   1.363  0.9217  0.6292 -0.3873
   46GLOH   H03 8811   3.007   0.780   1.361  1.8597 -0.6348  0.4707
   46GLOH    O1 8812   2.999   0.875   1.377  0.1110 -0.7457  0.4331
   46GLOH    C1 8813   2.869   0.907   1.318  0.4372  0.5649  0.2498
   46GLOH   H02 8814   2.798   0.835   1.358 -2.2140  1.6423 -2.3891
   46GLOH   H08 8815   2.879   0.886   1.211  0.4977 -0.7519  0.5026
   46GLOH    C2 8816   2.824   1.051   1.342  0.1484  0.1361 -0.6770
   46GLOH   H04 8817   2.896   1.130   1.316 -1.6695  2.1771  0.3104
   46GLOH    O2 8818   2.699   1.076   1.270 -0.1088 -0.2462 -0.2224
   46GLOH   H05 8819   2.686   1.171   1.255 -1.3606 -0.6794 -1.9637
   46GLOH    C3 8820   2.794   1.057   1.495  0.0397  0.2665  1.0250
   46GLOH   H06 8821   2.867   1.000   1.552  1.3180  0.4440 -0.4051
   46GLOH   H07 8822   2.703   1.001   1.516  0.3121 -0.8976 -0.6873
   46GLOH    O3 8823   2.784   1.191   1.545 -0.2879 -0.1073 -0.9959
   46GLOH   H01 8824   2.770   1.248   1.467  1.5827 -0.7932 -1.8743
   47GLOH   H03 8825   3.898   9.823   0.864 -1.6775 -0.9760 -1.3312
   47GLOH    O1 8826   3.906   9.747   0.924 -0.3596 -0.3743 -0.7325
   47GLOH    C1 8827   3.878   9.626   0.854  0.0130 -0.0158 -0.1185
   47GLOH   H02 8828   3.981   9.599   0.830  0.4966 -0.7292  2.6034
   47GLOH   H08 8829   3.824   9.639   0.760 -0.0730 -0.9129 -0.1911
   47GLOH    C2 8830   3.816   9.517   0.949  0.1988 -0.5028  0.2672
   47GLOH   H04 8831   3.722   9.564   0.981 -1.6847 -3.7586 -0.2019
   47GLOH    O2 8832   3.776   9.390   0.892  0.4111 -0.7296 -0.4157
   47GLOH   H05 8833   3.716   9.400   0.816 -1.7336  1.1641  1.4462
   47GLOH    C3 8834   3.912   9.496   1.066  0.3179  0.5523  0.0370
   47GLOH   H06 8835   4.002   9.458   1.017 -1.7265 -0.3896 -3.1361
   47GLOH   H07 8836   3.894   9.417   1.140  1.6079  0.9320  0.7679
   47GLOH    O3 8837   3.935   9.618   1.138 -0.4824  0.1030 -0.0608
   47GLOH   H01 8838   3.926   9.694   1.078 -0.8793 -0.0955 -0.2578
   48GLOH   H03 8839   3.456   0.519   1.536  0.5674 -0.3755  1.8477
   48GLOH    O1 8840   3.395   0.449   1.565 -0.1025 -0.2111  0.8478
   48GLOH    C1 8841   3.277   0.498   1.622 -0.2008  0.0454  0.0628
   48GLOH   H02 8842   3.298   0.593   1.670 -0.8380  0.1783  0.0892
   48GLOH   H08 8843   3.246   0.427   1.699  1.9249 -1.3325 -0.3010
   48GLOH    C2 8844   3.163   0.528   1.520  0.0311 -0.4574 -0.5125
   48GLOH   H04 8845   3.133   0.438   1.464 -0.8217  1.5265 -3.3055
   48GLOH    O2 8846   3.043   0.562   1.598  0.3394  0.2321 -0.4285
   48GLOH   H05 8847   3.047   0.657   1.617 -1.2830  0.3030 -0.3350
   48GLOH    C3 8848   3.207   0.633   1.418  0.5329 -0.0465  0.4948
   48GLOH   H06 8849   3.300   0.604   1.369 -1.1811 -0.9614 -2.3475
   48GLOH   H07 8850   3.229   0.722   1.477  1.3548 -0.3505  0.6607
   48GLOH    O3 8851   3.099   0.642   1.320 -0.1907 -0.1583  0.2901
   48GLOH   H01 8852   3.106   0.573   1.252  2.3241 -0.3070  0.6589
   49GLOH   H03 8853   3.381   4.437   0.550 -0.7462  2.3556  0.7486
   49GLOH    O1 8854   3.468   4.473   0.521  0.0369 -0.1534 -0.1807
   49GLOH    C1 8855   3.555   4.506   0.632 -0.0492  0.6102  0.1476
   49GLOH   H02 8856   3.494   4.556   0.706 -1.5850 -1.1080  0.0692
   49GLOH   H08 8857   3.638   4.567   0.595  1.8022 -1.8355  0.1795
   49GLOH    C2 8858   3.629   4.377   0.691 -0.4781  0.4597 -0.1604
   49GLOH   H04 8859   3.555   4.296   0.701  0.4422 -0.4004 -0.2317
   49GLOH    O2 8860   3.730   4.332   0.601 -0.1728  0.8063  0.3728
   49GLOH   H05 8861   3.691   4.269   0.538  1.6646  0.0155  0.0122
   49GLOH    C3 8862   3.696   4.424   0.823  0.4093 -0.6030  0.7077
   49GLOH   H06 8863   3.731   4.340   0.883  0.5988  1.0450  2.9717
   49GLOH   H07 8864   3.612   4.453   0.886  2.4479  0.8750  2.8853
   49GLOH    O3 8865   3.792   4.536   0.815  0.2668 -0.4093  0.3409
   49GLOH   H01 8866   3.879   4.513   0.853 -0.0692 -0.9524  0.7882
   50GLOH   H03 8867   3.405   3.280   1.562 -0.2306  1.3274 -0.9106
   50GLOH    O1 8868   3.370   3.232   1.485 -0.3575  0.2025 -0.1647
   50GLOH    C1 8869   3.375   3.098   1.530 -0.4113 -0.6301 -0.3948
   50GLOH   H02 8870   3.461   3.072   1.592 -2.1809 -0.2735  2.3251
   50GLOH   H08 8871   3.379   3.041   1.437 -1.8837  1.9625 -2.0939
   50GLOH    C2 8872   3.247   3.064   1.615  0.0802  0.6772 -0.1547
   50GLOH   H04 8873   3.244   2.955   1.623  2.4087  0.5626 -0.3949
   50GLOH    O2 8874   3.258   3.115   1.753  0.3886  0.1459 -0.3929
   50GLOH   H05 8875   3.206   3.055   1.810  0.6306  1.0078  0.7612
   50GLOH    C3 8876   3.127   3.116   1.538  0.1410  0.5029  0.3443
   50GLOH   H06 8877   3.137   3.224   1.525 -2.8349  1.0122  1.6665
   50GLOH   H07 8878   3.045   3.103   1.609 -0.3201  0.0116 -0.2715
   50GLOH    O3 8879   3.098   3.047   1.417 -0.1103  0.5467  0.3878
   50GLOH   H01 8880   3.145   3.078   1.337 -1.5046  2.3602  0.2567
   51GLOH   H03 8881   3.665   1.576   0.851 -0.6428 -1.4908 -0.4619
   51GLOH    O1 8882   3.604   1.546   0.921 -0.2836  0.1118  0.5894
   51GLOH    C1 8883   3.636   1.585   1.054 -0.3865  0.5868 -0.1179
   51GLOH   H02 8884   3.561   1.543   1.121 -0.0655  0.2351  0.0229
   51GLOH   H08 8885   3.625   1.691   1.077 -0.8099  0.2122  1.4296
   51GLOH    C2 8886   3.775   1.539   1.091  0.6505 -0.1542  0.9803
   51GLOH   H04 8887   3.791   1.434   1.063 -1.4422 -0.3204  0.3736
   51GLOH    O2 8888   3.872   1.622   1.017 -0.1811 -0.4362 -0.2795
   51GLOH   H05 8889   3.856   1.612   0.921 -0.9310  1.6305 -0.4057
   51GLOH    C3 8890   3.795   1.550   1.242 -0.1462 -0.6069  0.1753
   51GLOH   H06 8891   3.796   1.651   1.281 -2.4118  0.1586 -1.6272
   51GLOH   H07 8892   3.897   1.512   1.254  1.7377  3.7274 -0.9754
   51GLOH    O3 8893   3.703   1.462   1.311  0.5079 -0.0942  0.1132
   51GLOH   H01 8894   3.750   1.380   1.338  0.0612 -0.5812 -0.6024
   52GLOH   H03 8895   3.829   2.060   1.406  1.8799 -1.2858 -0.2109
   52GLOH    O1 8896   3.870   2.147   1.417  0.2450 -0.5098 -0.0715
   52GLOH    C1 8897   3.808   2.236   1.324 -0.7521 -0.2689 -0.2931
   52GLOH   H02 8898   3.836   2.211   1.222  0.0560  2.0430 -0.6809
   52GLOH   H08 8899   3.846   2.337   1.340  2.2176 -1.5994  1.4029
   52GLOH    C2 8900   3.655   2.238   1.330 -0.5115  0.1785  0.2971
   52GLOH   H04 8901   3.621   2.316   1.260 -0.5623  0.6467  0.8393
   52GLOH    O2 8902   3.594   2.111   1.304 -0.6052  0.4642  0.1395
   52GLOH   H05 8903   3.655   2.041   1.333 -0.0201  0.7892 -0.2972
   52GLOH    C3 8904   3.609   2.287   1.466 -0.4385  0.4667 -0.5262
   52GLOH   H06 8905   3.642   2.205   1.530 -0.9449 -0.8399 -1.9129
   52GLOH   H07 8906   3.502   2.307   1.461 -0.4403 -0.0080 -3.2586
   52GLOH    O3 8907   3.665   2.415   1.507  0.7607 -0.5337 -0.5688
   52GLOH   H01 8908   3.619   2.433   1.591 -0.5907  3.4823 -2.0048
   53GLOH   H03 8909   3.587   3.573   1.877 -1.1983 -1.1635 -0.5257
   53GLOH    O1 8910   3.560   3.661   1.843  0.9640 -0.4500 -0.4796
   53GLOH    C1 8911   3.448   3.704   1.923 -0.1371  0.0666  0.2276
   53GLOH   H02 8912   3.451   3.656   2.021  0.6899 -0.5178 -0.0720
   53GLOH   H08 8913   3.354   3.675   1.876  0.4414 -0.5977 -0.5424
   53GLOH    C2 8914   3.462   3.858   1.934  0.4149 -0.0033 -0.7314
   53GLOH   H04 8915   3.481   3.904   1.836  0.8387 -0.2579 -0.7718
   53GLOH    O2 8916   3.349   3.923   2.000 -0.0255  0.3488  0.4677
   53GLOH   H05 8917   3.344   3.886   2.090  0.8608 -1.3698 -0.1495
   53GLOH    C3 8918   3.578   3.878   2.031  0.2589  0.0799 -1.0771
   53GLOH   H06 8919   3.587   3.986   2.041  1.2359  0.0535 -1.5787
   53GLOH   H07 8920   3.673   3.852   1.983  2.2779  1.0617  2.2127
   53GLOH    O3 8921   3.565   3.814   2.158  0.3096  0.1491 -0.4670
   53GLOH   H01 8922   3.654   3.789   2.191  1.2456  0.1853 -2.8493
   54GLOH   H03 8923   2.863   2.055   2.699  1.3265 -1.1647  2.0728
   54GLOH    O1 8924   2.922   2.133   2.699  0.4859 -0.4628 -0.3142
   54GLOH    C1 8925   3.003   2.120   2.816  0.0037  0.1107  1.1052
   54GLOH   H02 8926   3.025   2.014   2.827 -0.5275  0.0312  1.3981
   54GLOH   H08 8927   2.956   2.147   2.910  1.4686  0.0939  1.8596
   54GLOH    C2 8928   3.127   2.212   2.803  0.4031  0.4607 -0.1725
   54GLOH   H04 8929   3.079   2.310   2.791 -2.6482 -0.8960  0.4435
   54GLOH    O2 8930   3.203   2.200   2.923  0.2773 -0.3470 -0.4320
   54GLOH   H05 8931   3.295   2.231   2.916  0.8046 -1.6556  0.6013
   54GLOH    C3 8932   3.216   2.187   2.681  0.9490 -0.0969  0.7288
   54GLOH   H06 8933   3.288   2.108   2.703  1.4320 -0.0447 -0.6551
   54GLOH   H07 8934   3.276   2.278   2.677  0.7494 -0.0241 -0.5735
   54GLOH    O3 8935   3.136   2.149   2.569  0.3929  0.3897  0.0107
   54GLOH   H01 8936   3.063   2.101   2.611  0.3645  0.9692  0.6356
   55GLOH   H03 8937   3.113   2.964   2.629  1.8930  0.5380  1.6583
   55GLOH    O1 8938   3.051   3.022   2.678  0.5649  0.2097  0.3978
   55GLOH    C1 8939   3.092   2.998   2.810  0.8689 -0.9137  0.0905
   55GLOH   H02 8940   3.080   3.083   2.876 -0.9571 -0.7924 -0.3807
   55GLOH   H08 8941   3.194   2.959   2.810  1.2376 -0.1274 -3.4941
   55GLOH    C2 8942   2.986   2.894   2.865  0.5959 -0.0647 -1.5525
   55GLOH   H04 8943   3.003   2.806   2.800 -0.6173 -1.0265 -0.5763
   55GLOH    O2 8944   3.021   2.861   3.000  0.0101 -0.4469  0.1645
   55GLOH   H05 8945   2.954   2.802   3.037 -0.0836 -0.3657  0.1229
   55GLOH    C3 8946   2.837   2.933   2.852 -0.1762 -0.4507  0.3470
   55GLOH   H06 8947   2.778   2.848   2.885 -0.4639 -0.7581 -0.9306
   55GLOH   H07 8948   2.813   2.949   2.747 -0.9160 -1.4606  0.3519
   55GLOH    O3 8949   2.799   3.059   2.906 -0.0861  0.6374  0.4135
   55GLOH   H01 8950   2.838   3.063   2.995 -0.1566 -3.2495  0.6822
   56GLOH   H03 8951   3.301   2.935   0.360 -0.8778  0.2410 -0.7421
   56GLOH    O1 8952   3.358   2.931   0.282 -0.3297 -0.2381 -0.3242
   56GLOH    C1 8953   3.369   2.802   0.218  0.1366 -0.8564 -0.4579
   56GLOH   H02 8954   3.438   2.804   0.134  0.4787  0.9795 -0.1548
   56GLOH   H08 8955   3.270   2.777   0.180 -0.8329 -0.6707  1.8418
   56GLOH    C2 8956   3.408   2.682   0.306 -0.4504  0.1948  0.6575
   56GLOH   H04 8957   3.324   2.659   0.373 -0.6314  1.0507  0.7231
   56GLOH    O2 8958   3.420   2.559   0.226  0.3568  0.4543  0.7654
   56GLOH   H05 8959   3.345   2.551   0.165  0.0700 -0.9855  1.2968
   56GLOH    C3 8960   3.543   2.713   0.380  0.1451  0.4100  0.4679
   56GLOH   H06 8961   3.557   2.627   0.446  1.7097 -0.7588 -1.3110
   56GLOH   H07 8962   3.537   2.808   0.431 -0.9231  0.4914  0.1998
   56GLOH    O3 8963   3.662   2.716   0.296  0.6358 -0.0363  0.0718
   56GLOH   H01 8964   3.667   2.630   0.250 -1.4374 -1.2181  1.9795
   57GLOH   H03 8965   3.421   9.654   0.214  2.1166 -0.4576  0.4776
   57GLOH    O1 8966   3.466   9.688   0.135  1.1139 -1.0090 -0.3374
   57GLOH    C1 8967   3.363   9.725   0.042 -0.6573 -0.0697 -0.3290
   57GLOH   H02 8968   3.404   9.725  -0.059  0.6602 -3.2239  0.1637
   57GLOH   H08 8969   3.337   9.830   0.061  4.4965  1.1603  0.6999
   57GLOH    C2 8970   3.239   9.642   0.041 -0.1268 -0.2510  1.1273
   57GLOH   H04 8971   3.270   9.539   0.019 -1.0642 -0.2285 -0.3435
   57GLOH    O2 8972   3.194   9.665   0.176 -0.1352  0.1411  0.0109
   57GLOH   H05 8973   3.230   9.600   0.239  1.7304 -0.2706 -1.4512
   57GLOH    C3 8974   3.119   9.669  -0.055  0.4403  0.6081 -0.6361
   57GLOH   H06 8975   3.103   9.777  -0.050  2.0661  0.9912 -2.8995
   57GLOH   H07 8976   3.026   9.628  -0.014  0.4672  0.7556 -0.4287
   57GLOH    O3 8977   3.143   9.628  -0.192 -0.3718 -0.6182  0.3788
   57GLOH   H01 8978   3.126   9.537  -0.219  2.3213 -0.7139 -1.1629
   58GLOH   H03 8979   3.823   2.697   0.853  1.0466  0.8852  1.4910
   58GLOH    O1 8980   3.740   2.705   0.904  0.2319  0.1946  0.2713
   58GLOH    C1 8981   3.769   2.772   1.027  0.5106 -0.4278  0.0565
   58GLOH   H02 8982   3.853   2.721   1.074 -0.2947 -0.2214  1.7588
   58GLOH   H08 8983   3.681   2.775   1.092  1.0535 -1.4448  0.8567
   58GLOH    C2 8984   3.806   2.914   0.996  0.0446  0.0824  0.4643
   58GLOH   H04 8985   3.755   2.941   0.902 -1.7629 -0.0432  1.3784
   58GLOH    O2 8986   3.761   3.006   1.090 -0.2499  0.2993  0.6045
   58GLOH   H05 8987   3.742   2.963   1.175 -0.5138 -2.2441 -0.7096
   58GLOH    C3 8988   3.964   2.920   0.976 -0.2299 -0.2551  0.1246
   58GLOH   H06 8989   3.993   2.900   1.080 -1.4252 -1.8797  0.1707
   58GLOH   H07 8990   3.993   3.020   0.946 -0.1863 -0.7795 -1.6505
   58GLOH    O3 8991   4.017   2.817   0.895  0.3944 -0.6920  0.2572
   58GLOH   H01 8992   4.113   2.811   0.910  0.7433 -0.1525 -1.5679
   59GLOH   H03 8993   4.335   2.034   1.849 -0.2401 -0.2865  2.6587
   59GLOH    O1 8994   4.260   2.096   1.849  0.2093  0.3042  0.4250
   59GLOH    C1 8995   4.228   2.112   1.989 -0.2215  0.1983 -0.2469
   59GLOH   H02 8996   4.307   2.155   2.051 -0.0160 -0.7302  0.1392
   59GLOH   H08 8997   4.197   2.016   2.031  1.1039 -0.7348 -1.3428
   59GLOH    C2 8998   4.114   2.212   2.011 -0.2079  0.3052 -0.1527
   59GLOH   H04 8999   4.022   2.171   1.969  1.2163 -2.8837 -0.2766
   59GLOH    O2 9000   4.083   2.224   2.153 -0.0239 -0.1863 -0.3265
   59GLOH   H05 9001   4.030   2.146   2.173  1.0241 -0.9206 -0.3485
   59GLOH    C3 9002   4.150   2.350   1.964 -0.3253 -0.0767 -0.0559
   59GLOH   H06 9003   4.214   2.405   2.033 -1.4124  0.1905  0.7566
   59GLOH   H07 9004   4.065   2.416   1.983 -1.3256 -0.9596 -1.3943
   59GLOH    O3 9005   4.203   2.360   1.837 -0.1516 -0.0153 -0.1585
   59GLOH   H01 9006   4.201   2.268   1.805  2.2331  0.2298 -1.0894
   60GLOH   H03 9007   3.507   3.085   1.200  0.6110 -1.1362  1.6121
   60GLOH    O1 9008   3.454   3.006   1.179 -0.2712 -0.0687 -0.3037
   60GLOH    C1 9009   3.432   2.965   1.046  0.0551 -0.1330 -0.2127
   60GLOH   H02 9010   3.393   2.864   1.059 -0.6120  0.3146  1.4307
   60GLOH   H08 9011   3.518   2.972   0.980  0.8478  0.1764  0.8388
   60GLOH    C2 9012   3.322   3.055   0.981  0.3180 -0.6102  0.8380
   60GLOH   H04 9013   3.368   3.155   0.980  0.5255 -0.6939  1.6117
   60GLOH    O2 9014   3.293   3.019   0.848 -0.5251 -0.3708  0.9444
   60GLOH   H05 9015   3.372   3.038   0.794 -0.1680 -0.8454  1.2952
   60GLOH    C3 9016   3.195   3.060   1.071 -0.2876  0.3779  0.4795
   60GLOH   H06 9017   3.156   2.958   1.071  1.3000 -0.2448 -0.4901
   60GLOH   H07 9018   3.122   3.117   1.013  2.0374  2.3949 -0.5679
   60GLOH    O3 9019   3.217   3.105   1.203 -0.1029 -0.1032  0.9682
   60GLOH   H01 9020   3.311   3.081   1.209  0.1302  1.0769  2.1310
   61GLOH   H03 9021   3.712   0.571   2.418  1.8095  0.4679  0.2399
   61GLOH    O1 9022   3.703   0.611   2.507  0.4232  0.1210  0.2547
   61GLOH    C1 9023   3.594   0.695   2.513 -0.0914 -0.4376  0.6555
   61GLOH   H02 9024   3.511   0.646   2.563  0.0907 -0.2236  1.1700
   61GLOH   H08 9025   3.567   0.730   2.413  2.3727  0.6038  0.2935
   61GLOH    C2 9026   3.627   0.821   2.597 -0.2234 -0.1969 -0.0669
   61GLOH   H04 9027   3.656   0.786   2.697 -2.4822  1.7432  1.3316
   61GLOH    O2 9028   3.738   0.902   2.547 -0.2098  0.7941 -0.2384
   61GLOH   H05 9029   3.820   0.853   2.528  0.4344  0.3025  3.4028
   61GLOH    C3 9030   3.498   0.906   2.614  0.4695 -0.4428 -0.5297
   61GLOH   H06 9031   3.458   0.921   2.514 -0.9825  0.0524  0.1028
   61GLOH   H07 9032   3.516   1.002   2.665  0.7539 -0.2300 -1.0302
   61GLOH    O3 9033   3.396   0.832   2.677 -0.2960  0.5562 -0.0582
   61GLOH   H01 9034   3.321   0.894   2.669  0.3161  1.4180  0.7097
   62GLOH   H03 9035   4.383   4.223   1.530  1.2511 -0.8017 -2.1156
   62GLOH    O1 9036   4.437   4.159   1.580  0.4266  0.1695  0.0935
   62GLOH    C1 9037   4.365   4.033   1.590  0.8557  0.1657 -0.1733
   62GLOH   H02 9038   4.257   4.049   1.599  1.1551  2.5117 -0.4706
   62GLOH   H08 9039   4.391   3.975   1.678  0.7038  1.0357  0.4544
   62GLOH    C2 9040   4.385   3.954   1.454 -0.3310 -0.0518 -0.6592
   62GLOH   H04 9041   4.494   3.957   1.435 -0.2757  0.0726 -0.3231
   62GLOH    O2 9042   4.343   3.815   1.469 -0.3661 -0.0547  0.4999
   62GLOH   H05 9043   4.357   3.757   1.391 -0.5304  1.0708 -0.3712
   62GLOH    C3 9044   4.316   4.026   1.331 -0.5807 -0.6749  0.2132
   62GLOH   H06 9045   4.344   3.975   1.239 -1.2616 -3.4310  1.4769
   62GLOH   H07 9046   4.357   4.126   1.334  0.9617 -1.3326  3.1069
   62GLOH    O3 9047   4.177   4.025   1.358 -0.2730  0.4112 -0.2972
   62GLOH   H01 9048   4.137   4.043   1.270 -0.6819  0.8781 -0.0228
   63GLOH   H03 9049   3.742   0.420   2.238 -0.0960  1.8230 -1.8821
   63GLOH    O1 9050   3.762   0.499   2.292 -0.2141  0.7978 -0.3111
   63GLOH    C1 9051   3.900   0.537   2.270  0.2214 -0.1165 -0.4399
   63GLOH   H02 9052   3.956   0.462   2.214  0.4254 -0.4211  0.1570
   63GLOH   H08 9053   3.948   0.544   2.368 -2.0352 -0.7519  0.7505
   63GLOH    C2 9054   3.917   0.668   2.189 -0.0853  0.6745 -0.0130
   63GLOH   H04 9055   4.026   0.680   2.183 -0.0995  2.3250  2.2299
   63GLOH    O2 9056   3.868   0.654   2.055  0.2714  0.0493 -0.1622
   63GLOH   H05 9057   3.873   0.562   2.026 -2.2134 -0.1600 -0.0922
   63GLOH    C3 9058   3.862   0.793   2.254  0.4484  0.5953 -0.0163
   63GLOH   H06 9059   3.756   0.778   2.278  0.4508  0.5585 -0.0272
   63GLOH   H07 9060   3.861   0.876   2.184  0.5025 -0.0244 -0.7589
   63GLOH    O3 9061   3.935   0.829   2.371 -0.3786  0.2133 -0.6072
   63GLOH   H01 9062   4.015   0.879   2.346 -0.9467  2.6154  2.0290
   64GLOH   H03 9063   3.818   3.038   2.480 -1.8725  0.1481  1.6139
   64GLOH    O1 9064   3.875   3.024   2.558  0.1765 -0.6918  0.0135
   64GLOH    C1 9065   3.930   2.897   2.570  0.3423  0.5642 -0.7378
   64GLOH   H02 9066   3.849   2.825   2.584  2.1604 -1.6198 -1.2179
   64GLOH   H08 9067   3.986   2.886   2.663 -0.4146 -1.0095 -0.4414
   64GLOH    C2 9068   4.019   2.852   2.451 -0.4909  0.0400 -0.2308
   64GLOH   H04 9069   3.961   2.846   2.358  0.6470 -4.3122 -0.7760
   64GLOH    O2 9070   4.132   2.942   2.433  0.3324 -0.0505 -0.0267
   64GLOH   H05 9071   4.114   3.019   2.489 -2.7569  0.4198 -1.5363
   64GLOH    C3 9072   4.078   2.710   2.478  0.4364  1.0883 -0.0669
   64GLOH   H06 9073   4.139   2.710   2.569 -1.1486  0.8482  1.0187
   64GLOH   H07 9074   4.146   2.685   2.397  1.2725  0.9350  0.6746
   64GLOH    O3 9075   3.979   2.604   2.486 -0.4479 -0.5074  0.2549
   64GLOH   H01 9076   3.979   2.566   2.396 -0.0644  0.1388 -0.0232
   65GLOH   H03 9077   3.405   1.936   0.766  0.5266  0.4046 -0.3008
   65GLOH    O1 9078   3.389   2.030   0.746  0.0872  0.4772  0.3678
   65GLOH    C1 9079   3.252   2.068   0.764 -0.1193 -0.3045  0.4019
   65GLOH   H02 9080   3.249   2.176   0.745  1.7520 -0.2989  0.0112
   65GLOH   H08 9081   3.236   2.066   0.872 -1.3371  4.9033  0.4734
   65GLOH    C2 9082   3.146   1.989   0.693 -0.1350  0.0134  0.2069
   65GLOH   H04 9083   3.163   1.885   0.724  1.0717 -0.5374 -2.1876
   65GLOH    O2 9084   3.021   2.038   0.742  0.2900  0.3816 -0.1882
   65GLOH   H05 9085   3.036   2.114   0.802  0.5987  1.5915 -1.7660
   65GLOH    C3 9086   3.160   2.007   0.543 -0.3325 -0.0248  0.0529
   65GLOH   H06 9087   3.192   2.111   0.528 -0.8852  0.5459  2.6385
   65GLOH   H07 9088   3.066   2.008   0.489 -1.2872 -1.0135  1.6749
   65GLOH    O3 9089   3.258   1.928   0.473 -0.1464 -0.2906  0.4495
   65GLOH   H01 9090   3.242   1.833   0.489 -0.2318 -0.5200 -0.9344
   66GLOH   H03 9091   3.919   0.810   1.998 -1.4135  1.1209 -0.7994
   66GLOH    O1 9092   3.981   0.880   1.971 -0.3015  0.5943  0.3400
   66GLOH    C1 9093   3.956   0.908   1.829  0.7749 -0.0092  0.2897
   66GLOH   H02 9094   3.999   0.845   1.751  0.1438  0.7156 -0.6606
   66GLOH   H08 9095   4.009   1.001   1.806  0.2019  0.0496 -0.8193
   66GLOH    C2 9096   3.806   0.924   1.796  0.6283  0.8132 -0.1285
   66GLOH   H04 9097   3.800   0.958   1.691 -2.2521  0.6277 -0.0689
   66GLOH    O2 9098   3.742   0.788   1.814 -0.2332 -0.1701  0.1456
   66GLOH   H05 9099   3.791   0.731   1.753 -0.4006 -0.2699  0.1025
   66GLOH    C3 9100   3.727   1.024   1.881  0.0674 -0.2046 -0.1642
   66GLOH   H06 9101   3.731   0.991   1.985 -2.1758  1.8100  0.5856
   66GLOH   H07 9102   3.620   1.017   1.858 -0.0955  2.1748 -0.1779
   66GLOH    O3 9103   3.778   1.159   1.875  0.3782 -0.2582 -0.0398
   66GLOH   H01 9104   3.864   1.177   1.919  0.0641 -0.8593  0.8431
   67GLOH   H03 9105   4.439   1.812   1.916 -0.3807 -0.6943  0.6685
   67GLOH    O1 9106   4.419   1.898   1.874  0.1805 -0.5622  0.6681
   67GLOH    C1 9107   4.539   1.987   1.877  0.6129  0.0939 -0.3832
   67GLOH   H02 9108   4.584   1.988   1.976 -0.9629 -2.7916  0.4221
   67GLOH   H08 9109   4.509   2.090   1.861 -3.0929 -0.6276  1.3924
   67GLOH    C2 9110   4.654   1.954   1.775  0.5968 -0.2357 -0.3952
   67GLOH   H04 9111   4.683   1.850   1.795 -0.0638  0.1379  2.7531
   67GLOH    O2 9112   4.609   1.961   1.643 -0.2500 -0.1225  0.4891
   67GLOH   H05 9113   4.519   1.924   1.640 -1.6898  3.1852 -0.0674
   67GLOH    C3 9114   4.778   2.036   1.804  0.0390  0.2071  0.1378
   67GLOH   H06 9115   4.864   2.001   1.746 -0.7666 -1.2380 -0.2105
   67GLOH   H07 9116   4.799   2.026   1.910 -0.1017  0.7244  0.2182
   67GLOH    O3 9117   4.754   2.170   1.771 -0.2568 -0.2431  0.0620
   67GLOH   H01 9118   4.831   2.211   1.727  0.4850 -1.7878 -0.1264
   68GLOH   H03 9119   4.424   3.551   1.002  0.4766 -2.0042 -0.1962
   68GLOH    O1 9120   4.488   3.573   1.071  0.1291 -0.2973 -0.3916
   68GLOH    C1 9121   4.593   3.474   1.062 -0.5657  0.6423  0.3950
   68GLOH   H02 9122   4.678   3.515   1.116 -2.7876  0.9200  3.8569
   68GLOH   H08 9123   4.625   3.456   0.959  0.1168 -0.6060  0.8172
   68GLOH    C2 9124   4.582   3.332   1.128  0.4692 -0.1086  0.4654
   68GLOH   H04 9125   4.671   3.274   1.098  1.4733  1.8646 -0.5014
   68GLOH    O2 9126   4.576   3.327   1.273 -0.4939  0.2931 -0.5785
   68GLOH   H05 9127   4.618   3.403   1.317 -0.8958 -1.1402  2.4138
   68GLOH    C3 9128   4.456   3.267   1.071 -0.4679  0.3316  0.4551
   68GLOH   H06 9129   4.368   3.325   1.099  0.1376  0.8787  1.2351
   68GLOH   H07 9130   4.442   3.165   1.107  2.2118 -1.1145 -2.4198
   68GLOH    O3 9131   4.463   3.263   0.927  0.3501  0.1214  0.3174
   68GLOH   H01 9132   4.410   3.340   0.899  0.5651  0.4801  0.9117
   69GLOH   H03 9133   3.345   1.369   0.387 -0.5743 -0.5376  0.1948
   69GLOH    O1 9134   3.324   1.413   0.302 -0.2861 -0.2034  0.2965
   69GLOH    C1 9135   3.438   1.466   0.245  0.3550 -0.1267  0.3093
   69GLOH   H02 9136   3.496   1.393   0.189  0.9128  0.3640  0.2580
   69GLOH   H08 9137   3.511   1.508   0.313  0.9578 -2.2640  1.0327
   69GLOH    C2 9138   3.403   1.581   0.149 -0.2494  0.7071 -0.3218
   69GLOH   H04 9139   3.355   1.659   0.210 -1.2896 -0.1039 -0.0884
   69GLOH    O2 9140   3.518   1.636   0.092  0.5781 -0.0809  0.3957
   69GLOH   H05 9141   3.488   1.726   0.074  0.3847 -0.5533 -1.6649
   69GLOH    C3 9142   3.298   1.553   0.042  0.6114  1.0867 -0.7005
   69GLOH   H06 9143   3.337   1.487  -0.035 -0.2841 -0.4656  0.1483
   69GLOH   H07 9144   3.269   1.642  -0.014  0.2714  0.3399 -1.7164
   69GLOH    O3 9145   3.184   1.498   0.109 -0.4396 -0.5978 -0.7329
   69GLOH   H01 9146   3.231   1.455   0.183 -1.4191  1.9245  1.4477
   70GLOH   H03 9147   2.715   1.127   0.241  3.1495  0.2320  1.4839
   70GLOH    O1 9148   2.692   1.185   0.316  0.3039  0.2324  0.6671
   70GLOH    C1 9149   2.775   1.152   0.424 -1.1597  0.0351  0.2169
   70GLOH   H02 9150   2.833   1.061   0.412  1.0328  1.4378  0.0248
   70GLOH   H08 9151   2.718   1.136   0.516  0.0101  0.5834  1.0423
   70GLOH    C2 9152   2.894   1.260   0.434  0.5188  0.0402 -0.4027
   70GLOH   H04 9153   2.844   1.358   0.426  0.7485  0.1430 -0.5848
   70GLOH    O2 9154   2.968   1.245   0.557  0.1475 -0.3768 -0.8068
   70GLOH   H05 9155   2.965   1.148   0.564 -0.9258 -0.3111 -0.1966
   70GLOH    C3 9156   2.983   1.236   0.307  0.1248  0.1964 -0.1084
   70GLOH   H06 9157   3.067   1.304   0.325  0.2754 -0.1988  0.7258
   70GLOH   H07 9158   2.944   1.251   0.207 -0.2434  1.6443  0.2458
   70GLOH    O3 9159   3.032   1.104   0.317  0.4983  0.7622  0.0179
   70GLOH   H01 9160   3.121   1.113   0.358 -0.1351  2.3410  1.0809
   71GLOH   H03 9161   3.628   3.316   1.141 -0.7405  0.6730  0.8934
   71GLOH    O1 9162   3.585   3.243   1.189 -0.5832  0.2584  0.4126
   71GLOH    C1 9163   3.657   3.226   1.312 -0.6113 -0.0574  0.2208
   71GLOH   H02 9164   3.753   3.178   1.291 -0.9864 -0.1243 -1.3640
   71GLOH   H08 9165   3.604   3.159   1.379 -1.0495  0.9225  0.8631
   71GLOH    C2 9166   3.690   3.364   1.373  0.3629  0.1170 -0.1394
   71GLOH   H04 9167   3.596   3.412   1.406 -0.5863 -2.2027  0.6630
   71GLOH    O2 9168   3.770   3.329   1.490  0.9149 -0.1362 -0.9324
   71GLOH   H05 9169   3.799   3.418   1.516 -0.9984  0.4133 -0.5524
   71GLOH    C3 9170   3.788   3.439   1.277  0.2619  0.7512 -0.1124
   71GLOH   H06 9171   3.874   3.373   1.276  1.9416  2.7263  2.9816
   71GLOH   H07 9172   3.816   3.540   1.310  0.5553  1.2562 -1.8707
   71GLOH    O3 9173   3.728   3.461   1.147 -0.3232  0.0291 -0.5372
   71GLOH   H01 9174   3.677   3.544   1.144  0.0650  0.2951  0.0315
   72GLOH   H03 9175   3.129   1.665   1.881  0.5217 -0.1671 -0.6233
   72GLOH    O1 9176   3.096   1.579   1.850  0.1587 -0.2397 -0.0383
   72GLOH    C1 9177   3.038   1.587   1.719 -0.8198 -0.0861 -0.0517
   72GLOH   H02 9178   3.085   1.672   1.670 -2.1323  0.2801 -0.7060
   72GLOH   H08 9179   2.931   1.609   1.724 -1.0309 -0.4228 -2.4557
   72GLOH    C2 9180   3.069   1.465   1.632  0.0203  1.0079  0.4172
   72GLOH   H04 9181   3.005   1.477   1.543  0.1066 -0.1661  0.1911
   72GLOH    O2 9182   3.208   1.464   1.593 -0.1046 -0.3225 -0.2450
   72GLOH   H05 9183   3.227   1.385   1.540 -1.5555 -1.0780  0.3113
   72GLOH    C3 9184   3.032   1.338   1.709  0.3268  0.8871 -0.9416
   72GLOH   H06 9185   3.072   1.345   1.811 -0.3477  0.3493 -0.6339
   72GLOH   H07 9186   3.072   1.250   1.659 -0.2449 -0.7345  1.3375
   72GLOH    O3 9187   2.897   1.322   1.729  0.7927  0.5438  0.6252
   72GLOH   H01 9188   2.856   1.263   1.664  0.4130  0.9895  0.4534
   73GLOH   H03 9189   2.649   2.030   2.624 -1.6498  1.2945  2.2728
   73GLOH    O1 9190   2.664   2.121   2.594  0.2531  0.1388 -0.4283
   73GLOH    C1 9191   2.736   2.116   2.467 -0.5079  0.8663 -0.0404
   73GLOH   H02 9192   2.661   2.088   2.392 -1.7018 -1.3985  1.9485
   73GLOH   H08 9193   2.817   2.044   2.476 -0.0788  1.5767  1.9514
   73GLOH    C2 9194   2.786   2.255   2.421 -0.0605  0.6191 -0.8546
   73GLOH   H04 9195   2.851   2.281   2.506 -1.1759 -0.5060  0.3512
   73GLOH    O2 9196   2.861   2.236   2.296 -0.0093 -0.2926 -0.1250
   73GLOH   H05 9197   2.925   2.308   2.286 -0.8407  0.1128 -3.0729
   73GLOH    C3 9198   2.690   2.372   2.421 -0.3029  0.7264  0.2544
   73GLOH   H06 9199   2.626   2.362   2.509  0.3836  0.9183  0.7868
   73GLOH   H07 9200   2.634   2.370   2.327  0.9393 -0.7368 -0.4774
   73GLOH    O3 9201   2.756   2.504   2.424 -1.1238  0.1219 -0.2572
   73GLOH   H01 9202   2.763   2.526   2.330  0.9809  0.9129  0.0710
   74GLOH   H03 9203   3.583   2.620   2.512 -1.2235  0.1925  0.2489
   74GLOH    O1 9204   3.553   2.609   2.420 -0.0727 -1.0839  0.0128
   74GLOH    C1 9205   3.647   2.685   2.341 -0.7532  0.1002 -0.1743
   74GLOH   H02 9206   3.750   2.668   2.373 -0.0839  2.0921 -1.2311
   74GLOH   H08 9207   3.624   2.790   2.354  1.7225  0.8929 -1.8857
   74GLOH    C2 9208   3.633   2.662   2.191 -0.3138  0.8224  0.5544
   74GLOH   H04 9209   3.527   2.657   2.161 -0.4518 -0.1524  1.1744
   74GLOH    O2 9210   3.705   2.766   2.128  0.5741  0.7891  0.0303
   74GLOH   H05 9211   3.649   2.845   2.135  0.6551  0.9430 -1.0529
   74GLOH    C3 9212   3.693   2.522   2.161  0.1318  0.0754  0.2700
   74GLOH   H06 9213   3.764   2.503   2.241 -1.8160  0.2764  2.0678
   74GLOH   H07 9214   3.744   2.529   2.064 -2.0168 -0.8331 -0.9557
   74GLOH    O3 9215   3.598   2.412   2.160  0.5689 -0.5232  0.2967
   74GLOH   H01 9216   3.610   2.363   2.244 -0.8682  0.9457  1.3938
   75GLOH   H03 9217   3.203  10.302   2.198  2.4379  0.7691  0.6598
   75GLOH    O1 9218   3.168  10.323   2.287 -0.1454  0.1840 -0.1842
   75GLOH    C1 9219   3.169  10.465   2.303 -0.4888  0.3171  0.6973
   75GLOH   H02 9220   3.091  10.497   2.372  2.0391  0.8642  3.4225
   75GLOH   H08 9221   3.146  10.510   2.206 -0.3332  1.3687  1.1422
   75GLOH    C2 9222   3.310  10.518   2.344  0.2084  0.2157 -0.4957
   75GLOH   H04 9223   3.301  10.623   2.376 -0.1467 -0.3815  1.4481
   75GLOH    O2 9224   3.359  10.435   2.456 -0.1985  0.0658  0.3231
   75GLOH   H05 9225   3.304  10.459   2.532 -0.7395 -1.6207  0.4629
   75GLOH    C3 9226   3.411  10.509   2.230  0.3151  0.1680 -0.0071
   75GLOH   H06 9227   3.432  10.405   2.205  1.9886  0.4580  0.0913
   75GLOH   H07 9228   3.509  10.546   2.262  0.3846 -0.4066  0.4520
   75GLOH    O3 9229   3.362  10.582   2.116 -0.0268 -0.2909  0.2285
   75GLOH   H01 9230   3.440  10.598   2.060  0.6913 -0.1314  1.2642
   76GLOH   H03 9231   4.832   3.784   0.875 -1.0536 -1.2130 -0.0011
   76GLOH    O1 9232   4.801   3.799   0.784  0.5578 -0.1881 -0.3966
   76GLOH    C1 9233   4.659   3.762   0.794  0.0385  0.1204  0.2283
   76GLOH   H02 9234   4.592   3.836   0.838  1.4315  1.9049 -0.5881
   76GLOH   H08 9235   4.644   3.680   0.864  0.9212 -0.6293 -0.4615
   76GLOH    C2 9236   4.587   3.726   0.659 -0.5373 -0.4360 -0.5700
   76GLOH   H04 9237   4.630   3.634   0.618 -2.1786 -1.5171  0.0454
   76GLOH    O2 9238   4.451   3.700   0.691 -0.3152 -0.2848 -0.0749
   76GLOH   H05 9239   4.402   3.725   0.610 -1.4482  0.5559  0.8502
   76GLOH    C3 9240   4.606   3.837   0.559 -0.8450 -0.2786 -0.0468
   76GLOH   H06 9241   4.708   3.837   0.521 -1.2301 -0.1670 -1.0909
   76GLOH   H07 9242   4.597   3.932   0.610  1.9564  0.4756 -0.8490
   76GLOH    O3 9243   4.506   3.842   0.456  0.2982  0.5953 -0.1661
   76GLOH   H01 9244   4.550   3.799   0.381  1.0149 -0.0549  0.6197
   77GLOH   H03 9245   3.365   9.515   1.735 -0.6036 -2.1750  0.7672
   77GLOH    O1 9246   3.430   9.459   1.687  0.3133 -0.4241 -0.0710
   77GLOH    C1 9247   3.363   9.395   1.575 -0.7378  0.2350 -0.1388
   77GLOH   H02 9248   3.298   9.460   1.516  0.5473 -2.3557 -4.6777
   77GLOH   H08 9249   3.304   9.313   1.614  1.4654  0.1524  3.2279
   77GLOH    C2 9250   3.463   9.338   1.471 -0.6444 -0.1784  0.1044
   77GLOH   H04 9251   3.529   9.265   1.520  2.0514  0.9610 -1.6887
   77GLOH    O2 9252   3.402   9.275   1.356  0.1350 -0.6208 -0.4796
   77GLOH   H05 9253   3.365   9.336   1.291  0.9511  0.6180  0.2113
   77GLOH    C3 9254   3.569   9.440   1.428  0.7701 -0.6653 -0.0516
   77GLOH   H06 9255   3.645   9.409   1.358  0.9685  1.0264 -0.6194
   77GLOH   H07 9256   3.622   9.456   1.522  1.6848 -0.0458 -0.6657
   77GLOH    O3 9257   3.521   9.571   1.378  0.1184  0.5540  0.3352
   77GLOH   H01 9258   3.439   9.543   1.333  0.5202  1.9662 -1.3246
   78GLOH   H03 9259   3.401   4.036   1.146 -0.6134 -0.2643 -1.0827
   78GLOH    O1 9260   3.407   4.099   1.071  0.0174  0.4983 -0.3991
   78GLOH    C1 9261   3.317   4.050   0.969  0.4201 -0.2684 -0.1678
   78GLOH   H02 9262   3.357   3.965   0.913  3.5326  2.6040 -2.5662
   78GLOH   H08 9263   3.312   4.128   0.893 -1.0117 -1.4347 -1.3069
   78GLOH    C2 9264   3.184   4.019   1.033  0.6781  0.9378  0.4212
   78GLOH   H04 9265   3.158   4.099   1.103  0.3968  0.8414  0.4275
   78GLOH    O2 9266   3.081   3.998   0.937 -0.2404 -0.3518  0.1593
   78GLOH   H05 9267   3.079   4.077   0.880 -0.8260 -1.3973 -1.2939
   78GLOH    C3 9268   3.201   3.896   1.124  0.0354  0.2630  0.3305
   78GLOH   H06 9269   3.214   3.805   1.065 -0.4522 -0.5583  1.4690
   78GLOH   H07 9270   3.104   3.876   1.170  0.6268 -1.8538  0.7450
   78GLOH    O3 9271   3.307   3.913   1.215 -0.2005  0.3024  0.3172
   78GLOH   H01 9272   3.303   3.836   1.274 -1.7650  1.1046  1.2696
   79GLOH   H03 9273   4.488   0.828   0.972 -0.9925 -0.2836  2.0026
   79GLOH    O1 9274   4.437   0.749   0.946 -0.0141 -0.2503 -0.1538
   79GLOH    C1 9275   4.322   0.744   1.041 -0.2262 -0.0612 -0.0687
   79GLOH   H02 9276   4.352   0.748   1.145 -2.4475  1.3568  0.5562
   79GLOH   H08 9277   4.272   0.648   1.023  1.2297 -0.8091 -0.1863
   79GLOH    C2 9278   4.203   0.839   1.013 -0.1467  0.2600 -0.4175
   79GLOH   H04 9279   4.117   0.813   1.078  0.0628 -0.3421 -0.3810
   79GLOH    O2 9280   4.233   0.981   1.036 -0.0718 -0.4634  0.0068
   79GLOH   H05 9281   4.300   1.009   0.971  0.1443  1.2192  0.9250
   79GLOH    C3 9282   4.145   0.810   0.869 -0.2767 -0.4243 -0.6774
   79GLOH   H06 9283   4.087   0.896   0.835 -0.6227 -0.9932 -1.5499
   79GLOH   H07 9284   4.075   0.726   0.878 -0.4162 -0.2040  0.3217
   79GLOH    O3 9285   4.251   0.779   0.779  0.7026  0.2325 -0.0352
   79GLOH   H01 9286   4.332   0.766   0.833  0.1629 -1.5963  0.3485
   80GLOH   H03 9287   3.893   9.958   1.640 -3.1448  1.8895  0.2005
   80GLOH    O1 9288   3.924  10.018   1.710  0.1178 -0.1803  0.6292
   80GLOH    C1 9289   3.933   9.939   1.826  0.3912  0.3933  0.0347
   80GLOH   H02 9290   4.010   9.863   1.808  0.3657  0.4064 -0.1262
   80GLOH   H08 9291   3.841   9.882   1.826  1.2115 -0.9994 -1.9966
   80GLOH    C2 9292   3.938  10.009   1.965  0.1130  0.1575 -0.1692
   80GLOH   H04 9293   3.851  10.073   1.987  0.1112  0.0965  0.0088
   80GLOH    O2 9294   3.941   9.914   2.072 -0.0676 -0.4425 -0.5047
   80GLOH   H05 9295   4.012   9.848   2.064 -0.9562 -1.6175  1.1367
   80GLOH    C3 9296   4.056  10.102   1.970  0.8287  0.8262 -0.6893
   80GLOH   H06 9297   4.146  10.044   1.951  1.0342  1.0051 -0.2492
   80GLOH   H07 9298   4.069  10.151   2.066 -1.3941 -1.5205  0.8575
   80GLOH    O3 9299   4.045  10.201   1.867 -0.2327  0.5502  0.2411
   80GLOH   H01 9300   4.001  10.162   1.789 -0.6420 -0.3518  0.9082
   81GLOH   H03 9301   4.349   3.141   1.689  0.7383  1.3381 -1.0076
   81GLOH    O1 9302   4.372   3.188   1.770  0.4718 -0.1883 -0.0207
   81GLOH    C1 9303   4.456   3.108   1.856  0.0524  0.0235 -0.4235
   81GLOH   H02 9304   4.532   3.065   1.790  0.3516  0.0988 -0.1260
   81GLOH   H08 9305   4.406   3.024   1.903  0.5416  0.7141  1.3495
   81GLOH    C2 9306   4.513   3.195   1.971 -0.2717  0.3268 -0.0775
   81GLOH   H04 9307   4.552   3.288   1.926 -1.3256  0.7657 -0.1010
   81GLOH    O2 9308   4.415   3.215   2.079  0.0354 -0.5538 -0.2110
   81GLOH   H05 9309   4.392   3.125   2.108 -0.8649 -0.7683 -1.5635
   81GLOH    C3 9310   4.638   3.125   2.027 -0.4997 -0.5225 -0.5278
   81GLOH   H06 9311   4.608   3.026   2.060  0.0800 -0.4799  0.1480
   81GLOH   H07 9312   4.682   3.177   2.113  1.6737  0.8597 -2.4193
   81GLOH    O3 9313   4.741   3.111   1.927 -0.4387  0.3277 -0.0787
   81GLOH   H01 9314   4.780   3.200   1.923  1.0713 -0.3893 -1.8199
   82GLOH   H03 9315   4.052   0.495   0.736  0.4991  0.0205 -0.2782
   82GLOH    O1 9316   4.068   0.406   0.772  0.2015  0.1903  0.2710
   82GLOH    C1 9317   4.088   0.425   0.915 -0.6930 -0.7104  0.6879
   82GLOH   H02 9318   4.004   0.470   0.968  0.4994  1.0876  1.1103
   82GLOH   H08 9319   4.178   0.487   0.924 -1.1485  0.4719 -2.3557
   82GLOH    C2 9320   4.115   0.297   0.997  0.1279  0.5434 -0.0697
   82GLOH   H04 9321   4.206   0.250   0.958  0.1815  0.6612 -0.0854
   82GLOH    O2 9322   4.116   0.317   1.139 -0.1876 -0.2091 -0.0391
   82GLOH   H05 9323   4.177   0.246   1.164  0.8874  0.8125  0.3039
   82GLOH    C3 9324   4.002   0.197   0.980 -0.1188 -0.0125  0.0384
   82GLOH   H06 9325   3.915   0.240   1.029  0.0918  0.3846  0.0597
   82GLOH   H07 9326   4.021   0.104   1.034 -0.2102  0.5745  1.0761
   82GLOH    O3 9327   3.987   0.172   0.843  0.0127  0.4776  0.3303
   82GLOH   H01 9328   4.010   0.255   0.797  0.2837  0.8738  1.1850
   83GLOH   H03 9329   4.686   2.521   1.434  0.4174 -1.3100  1.4183
   83GLOH    O1 9330   4.644   2.602   1.470  0.5542 -0.5137 -0.1854
   83GLOH    C1 9331   4.536   2.561   1.558 -0.5208 -0.7607 -0.1189
   83GLOH   H02 9332   4.484   2.484   1.502 -0.0738  0.5970 -2.4904
   83GLOH   H08 9333   4.465   2.644   1.559 -0.5545 -0.7789 -0.7112
   83GLOH    C2 9334   4.582   2.516   1.701 -0.1061 -0.1284  0.3047
   83GLOH   H04 9335   4.690   2.501   1.696  0.3241  2.5256  0.6467
   83GLOH    O2 9336   4.551   2.611   1.805  0.2572 -0.4284  0.1766
   83GLOH   H05 9337   4.613   2.687   1.803 -2.7075  2.0853 -0.6510
   83GLOH    C3 9338   4.521   2.385   1.751 -0.3604  0.1718  0.0136
   83GLOH   H06 9339   4.413   2.400   1.747 -0.4889 -0.8159 -0.4421
   83GLOH   H07 9340   4.562   2.356   1.847  0.0765  0.0721 -0.2019
   83GLOH    O3 9341   4.543   2.280   1.658  0.1366 -0.2408  0.2841
   83GLOH   H01 9342   4.634   2.249   1.669  0.8647  1.1901 -1.4883
   84GLOH   H03 9343   3.250   1.195   1.506 -3.1977  0.4065 -1.1064
   84GLOH    O1 9344   3.275   1.265   1.443  0.5715 -0.2728 -0.4739
   84GLOH    C1 9345   3.402   1.226   1.383 -0.2310  0.1241  0.5050
   84GLOH   H02 9346   3.472   1.184   1.454 -1.7494 -1.3913  1.1446
   84GLOH   H08 9347   3.449   1.315   1.341  1.9158 -0.6404  1.2513
   84GLOH    C2 9348   3.398   1.119   1.270  0.0255  0.3456 -0.1351
   84GLOH   H04 9349   3.359   1.173   1.182 -0.2095 -1.9843 -1.4938
   84GLOH    O2 9350   3.537   1.075   1.237 -0.1843 -0.0751  0.1519
   84GLOH   H05 9351   3.582   1.049   1.319  1.0792  0.6693 -0.2992
   84GLOH    C3 9352   3.300   1.000   1.275 -0.0516  0.2618 -0.5408
   84GLOH   H06 9353   3.328   0.958   1.372  1.4277  1.1619 -0.5579
   84GLOH   H07 9354   3.332   0.922   1.205 -0.9283 -0.4678 -0.1432
   84GLOH    O3 9355   3.163   1.027   1.264  0.4632  0.0111  0.3577
   84GLOH   H01 9356   3.114   0.966   1.322  0.4329 -0.3443 -0.0321
   85GLOH   H03 9357   3.569   3.191   0.658 -1.8218  2.1198 -0.2934
   85GLOH    O1 9358   3.635   3.256   0.686 -0.2406  0.1710  0.6619
   85GLOH    C1 9359   3.724   3.201   0.784 -0.0533  0.2001 -0.1580
   85GLOH   H02 9360   3.817   3.168   0.739  0.5115  1.5588 -0.0043
   85GLOH   H08 9361   3.674   3.120   0.837  0.4446  0.2161  0.3415
   85GLOH    C2 9362   3.761   3.306   0.888  0.3216 -0.1180  0.8390
   85GLOH   H04 9363   3.666   3.332   0.937 -0.4752 -0.6603 -0.3758
   85GLOH    O2 9364   3.835   3.225   0.985  0.6793 -0.3653  0.5923
   85GLOH   H05 9365   3.779   3.159   1.028 -0.6820  1.2634  1.3913
   85GLOH    C3 9366   3.832   3.426   0.830  0.4268 -0.0708  0.1063
   85GLOH   H06 9367   3.745   3.480   0.795 -1.1722 -1.7460  1.3813
   85GLOH   H07 9368   3.895   3.384   0.751  2.2487 -0.7825  1.8702
   85GLOH    O3 9369   3.903   3.513   0.920  0.3687  0.0014 -0.0954
   85GLOH   H01 9370   3.874   3.490   1.010 -0.3834 -0.5648 -0.4866
   86GLOH   H03 9371   4.598   4.474   2.648  1.3035  0.6593  0.4247
   86GLOH    O1 9372   4.580   4.490   2.743 -0.4842  0.2094  0.1746
   86GLOH    C1 9373   4.454   4.558   2.753 -0.1836 -0.9510  0.2866
   86GLOH   H02 9374   4.468   4.665   2.746  0.7789 -1.0313  0.9184
   86GLOH   H08 9375   4.406   4.543   2.850  0.4973 -2.7791  0.3649
   86GLOH    C2 9376   4.359   4.503   2.646 -0.0778 -0.5405  0.0727
   86GLOH   H04 9377   4.348   4.397   2.669  2.8548 -0.6116  1.3739
   86GLOH    O2 9378   4.238   4.574   2.637 -0.2478 -0.2290  0.0786
   86GLOH   H05 9379   4.170   4.534   2.579  0.4902  1.3345 -1.9382
   86GLOH    C3 9380   4.422   4.508   2.508  0.4213 -0.0877 -0.0973
   86GLOH   H06 9381   4.451   4.613   2.501 -0.2074  0.1417  0.6442
   86GLOH   H07 9382   4.345   4.494   2.433  0.2231 -0.4802  0.1844
   86GLOH    O3 9383   4.553   4.438   2.499  0.3200  0.0530  0.2960
   86GLOH   H01 9384   4.533   4.343   2.484  2.0879 -0.1118 -1.1569
   87GLOH   H03 9385   3.185  10.271   2.460  0.1886  2.8252  1.0277
   87GLOH    O1 9386   3.185  10.223   2.544  0.2221  0.1553 -0.4517
   87GLOH    C1 9387   3.305  10.142   2.541 -0.1203  0.0935 -0.0325
   87GLOH   H02 9388   3.357  10.165   2.448  0.6508 -0.1781  0.3315
   87GLOH   H08 9389   3.276  10.038   2.525  0.6149 -0.2690  0.9189
   87GLOH    C2 9390   3.391  10.138   2.670 -0.5791  0.0394 -0.3481
   87GLOH   H04 9391   3.434  10.239   2.677 -1.1341  0.2858 -0.4261
   87GLOH    O2 9392   3.325  10.106   2.793 -0.0510  0.0070  0.1762
   87GLOH   H05 9393   3.375  10.141   2.869 -0.3813 -2.0291  1.3609
   87GLOH    C3 9394   3.507  10.041   2.646 -0.4441 -0.3930  0.4965
   87GLOH   H06 9395   3.470   9.938   2.652 -1.5596 -0.0426 -0.1735
   87GLOH   H07 9396   3.570  10.053   2.734  1.2464  0.5430 -0.8209
   87GLOH    O3 9397   3.586  10.075   2.533 -0.2611  0.0476 -0.3998
   87GLOH   H01 9398   3.600  10.171   2.525  1.6035  0.0945  2.5986
   88GLOH   H03 9399   4.600   4.000   2.223  0.7266  2.7349 -3.1822
   88GLOH    O1 9400   4.694   3.977   2.234 -0.1539  0.4634  0.3692
   88GLOH    C1 9401   4.729   3.952   2.372 -0.1856 -0.4856 -0.0715
   88GLOH   H02 9402   4.744   4.048   2.423 -2.2899  0.1244 -0.5453
   88GLOH   H08 9403   4.826   3.903   2.361 -0.1982 -0.2193 -1.4940
   88GLOH    C2 9404   4.633   3.871   2.450 -0.0312  0.0155 -0.9763
   88GLOH   H04 9405   4.668   3.886   2.554  2.0013 -0.0804 -1.6311
   88GLOH    O2 9406   4.496   3.918   2.429 -0.1114  0.6374 -0.4569
   88GLOH   H05 9407   4.427   3.853   2.450  0.1580  0.5751  0.2619
   88GLOH    C3 9408   4.640   3.724   2.410 -0.2342 -0.0579  0.1465
   88GLOH   H06 9409   4.743   3.690   2.399 -0.5571 -0.4292 -1.7955
   88GLOH   H07 9410   4.613   3.720   2.305  0.9493  0.3857 -0.1836
   88GLOH    O3 9411   4.563   3.631   2.493 -0.6100  0.4639  0.6838
   88GLOH   H01 9412   4.507   3.577   2.434  1.2040 -2.1912  1.2994
   89GLOH   H03 9413   4.573   1.615   1.868 -0.7199 -0.8045 -0.2729
   89GLOH    O1 9414   4.571   1.630   1.965 -0.7498  0.9622 -0.5219
   89GLOH    C1 9415   4.638   1.513   2.025  0.0999  0.6935 -0.2509
   89GLOH   H02 9416   4.669   1.534   2.127  0.9632  0.1863 -0.3966
   89GLOH   H08 9417   4.735   1.498   1.976  0.0796  4.3764 -1.5895
   89GLOH    C2 9418   4.536   1.393   2.027 -0.1862 -1.5559 -0.8382
   89GLOH   H04 9419   4.583   1.304   2.072  1.4030 -0.8680 -1.0892
   89GLOH    O2 9420   4.414   1.422   2.092 -0.1400 -0.4030 -0.5283
   89GLOH   H05 9421   4.415   1.518   2.105  1.3408 -0.3409 -1.0018
   89GLOH    C3 9422   4.515   1.344   1.884 -0.0817 -0.2506  0.4068
   89GLOH   H06 9423   4.489   1.424   1.814 -0.4682  1.0041  1.9664
   89GLOH   H07 9424   4.434   1.271   1.888 -0.4370  0.2234  2.6788
   89GLOH    O3 9425   4.636   1.293   1.834  0.0721 -0.7869 -0.5177
   89GLOH   H01 9426   4.622   1.265   1.741  1.2254 -1.4221 -0.5162
   90GLOH   H03 9427   4.516   1.060   1.042 -1.7041 -0.3922 -0.5346
   90GLOH    O1 9428   4.534   0.965   1.043  0.4339 -0.0028 -0.5202
   90GLOH    C1 9429   4.569   0.927   1.182  0.8627 -0.0969  0.6878
   90GLOH   H02 9430   4.672   0.946   1.213  0.6985 -1.5769  2.2162
   90GLOH   H08 9431   4.547   0.823   1.203  0.5727  0.0097  0.9204
   90GLOH    C2 9432   4.482   1.007   1.281  0.2026 -0.0648 -0.2781
   90GLOH   H04 9433   4.379   0.969   1.275  0.2240 -0.2551  0.4458
   90GLOH    O2 9434   4.534   0.970   1.409  0.3444 -0.5418 -0.3446
   90GLOH   H05 9435   4.458   0.976   1.469  0.9736  2.8523  0.2297
   90GLOH    C3 9436   4.487   1.160   1.268 -0.9345 -0.1424  0.2771
   90GLOH   H06 9437   4.577   1.194   1.321  1.4873 -1.2249 -3.0020
   90GLOH   H07 9438   4.400   1.194   1.324  1.2193  1.2163  2.9456
   90GLOH    O3 9439   4.497   1.207   1.133  0.2057  0.3300 -0.1475
   90GLOH   H01 9440   4.513   1.303   1.136 -1.5391  0.7363 -2.0479
   91GLOH   H03 9441   3.728   3.869   0.282  1.6115 -0.1700  1.7150
   91GLOH    O1 9442   3.765   3.955   0.253  0.2444  0.0495  0.5073
   91GLOH    C1 9443   3.692   3.997   0.137 -0.1552  0.0272  0.2374
   91GLOH   H02 9444   3.663   4.101   0.142 -0.4629 -0.0232 -0.3712
   91GLOH   H08 9445   3.598   3.940   0.139  1.6980 -3.2002 -0.4500
   91GLOH    C2 9446   3.755   3.965   0.001  0.4048 -1.0561 -0.8353
   91GLOH   H04 9447   3.859   4.002   0.004  0.3948 -1.1299  2.0188
   91GLOH    O2 9448   3.745   3.829  -0.034  0.8387 -0.1103 -0.1494
   91GLOH   H05 9449   3.824   3.778  -0.012  0.0183 -0.8596  1.1590
   91GLOH    C3 9450   3.677   4.044  -0.108  0.1145 -0.8230 -0.0510
   91GLOH   H06 9451   3.663   4.149  -0.084 -4.0183 -0.8635 -1.7883
   91GLOH   H07 9452   3.576   4.010  -0.131 -1.0076  0.6548  2.4919
   91GLOH    O3 9453   3.764   4.043  -0.224  0.3505  0.6430 -0.3357
   91GLOH   H01 9454   3.829   3.970  -0.220  0.4010  0.7719  2.7675
   92GLOH   H03 9455   3.111   2.309   0.950 -1.3808  1.3581  0.1253
   92GLOH    O1 9456   3.059   2.252   0.890 -0.5383  0.2649  0.4138
   92GLOH    C1 9457   2.969   2.339   0.818 -0.4494  0.2549 -0.2608
   92GLOH   H02 9458   2.953   2.295   0.720 -1.9049 -0.2558  0.1819
   92GLOH   H08 9459   3.013   2.439   0.814 -0.2666  0.1831 -0.0330
   92GLOH    C2 9460   2.839   2.346   0.889 -0.4510 -0.1755 -0.3912
   92GLOH   H04 9461   2.855   2.375   0.994 -5.2026  1.0063  0.1239
   92GLOH    O2 9462   2.748   2.441   0.836  0.0463  0.0752  0.1874
   92GLOH   H05 9463   2.670   2.459   0.890 -0.9506  0.2750 -1.2998
   92GLOH    C3 9464   2.767   2.205   0.884 -0.3644 -0.1637  1.2009
   92GLOH   H06 9465   2.843   2.127   0.874 -0.9906 -0.3083 -3.2041
   92GLOH   H07 9466   2.707   2.205   0.793 -0.2717 -0.5955  1.1396
   92GLOH    O3 9467   2.686   2.187   1.003 -0.2261  0.3559  0.6402
   92GLOH   H01 9468   2.740   2.156   1.077  0.5507 -0.8308 -0.3994
   93GLOH   H03 9469   3.664   1.187   1.751  1.3612 -0.4454 -1.1211
   93GLOH    O1 9470   3.607   1.208   1.676 -0.1227 -0.0435  0.0981
   93GLOH    C1 9471   3.586   1.354   1.691  0.0652 -0.3515 -0.9591
   93GLOH   H02 9472   3.551   1.393   1.596 -2.8163  0.1662  0.2450
   93GLOH   H08 9473   3.679   1.405   1.716  0.5098 -1.9254  0.7003
   93GLOH    C2 9474   3.473   1.397   1.794  0.5709  0.5532 -0.2989
   93GLOH   H04 9475   3.377   1.362   1.753  1.2467 -0.6218 -0.9336
   93GLOH    O2 9476   3.482   1.344   1.935 -0.3211  0.2431 -0.2143
   93GLOH   H05 9477   3.401   1.365   1.985 -0.3788  0.9236 -0.5938
   93GLOH    C3 9478   3.449   1.549   1.805 -0.1621 -0.1237 -0.1459
   93GLOH   H06 9479   3.540   1.599   1.839 -0.3487 -0.3692  0.7488
   93GLOH   H07 9480   3.384   1.566   1.891  1.4817 -0.1579  1.1304
   93GLOH    O3 9481   3.404   1.599   1.680 -0.0505 -0.4651 -0.1480
   93GLOH   H01 9482   3.321   1.552   1.660  0.0345 -1.7090  2.2724
   94GLOH   H03 9483   4.431   2.193   1.584 -1.0578 -0.0124  0.5673
   94GLOH    O1 9484   4.353   2.157   1.537 -0.1959 -0.5283 -0.4901
   94GLOH    C1 9485   4.253   2.257   1.541  0.4583  0.3994  0.1176
   94GLOH   H02 9486   4.296   2.352   1.573  1.8715 -0.6640  1.5061
   94GLOH   H08 9487   4.188   2.236   1.626 -0.3070 -3.6216 -1.3792
   94GLOH    C2 9488   4.181   2.281   1.409  1.2987 -0.3638  0.1230
   94GLOH   H04 9489   4.266   2.302   1.343 -0.9563 -0.1405 -2.8721
   94GLOH    O2 9490   4.111   2.164   1.355  0.3065 -0.6724  0.2738
   94GLOH   H05 9491   4.019   2.159   1.386 -0.2191  2.6457 -0.5879
   94GLOH    C3 9492   4.086   2.402   1.416  0.6520 -0.0033 -0.2273
   94GLOH   H06 9493   4.021   2.394   1.502 -0.2270  0.1621 -0.8723
   94GLOH   H07 9494   4.025   2.420   1.327 -0.1393 -1.1197  0.0872
   94GLOH    O3 9495   4.156   2.523   1.443 -0.1880  0.1393 -0.4305
   94GLOH   H01 9496   4.179   2.534   1.537  2.8320  0.3291 -1.1189
   95GLOH   H03 9497   3.594   3.690   1.708  0.2597  1.0299  0.1942
   95GLOH    O1 9498   3.601   3.705   1.612  0.6234  0.1189  0.0792
   95GLOH    C1 9499   3.474   3.743   1.569 -0.2826 -0.2462 -0.2533
   95GLOH   H02 9500   3.473   3.850   1.547 -1.6257 -0.6367 -2.3004
   95GLOH   H08 9501   3.398   3.722   1.645  0.1480 -0.7634  0.0322
   95GLOH    C2 9502   3.444   3.676   1.435 -0.4726  0.1222  0.3490
   95GLOH   H04 9503   3.439   3.568   1.453  1.6397  0.1278  1.0342
   95GLOH    O2 9504   3.322   3.728   1.391  0.3455  0.3169 -0.0790
   95GLOH   H05 9505   3.251   3.687   1.443  1.8685  0.1929  1.9536
   95GLOH    C3 9506   3.562   3.691   1.335 -0.6226 -0.2978  0.7289
   95GLOH   H06 9507   3.654   3.652   1.378 -0.1975 -0.2908 -0.1565
   95GLOH   H07 9508   3.576   3.797   1.312 -0.3030 -1.0313 -2.7240
   95GLOH    O3 9509   3.538   3.631   1.205  0.1809 -0.3955 -0.2341
   95GLOH   H01 9510   3.461   3.571   1.216  1.0375 -1.2179  1.5198
   96GLOH   H03 9511   3.641  10.170   1.221 -1.7817  1.1659 -0.5951
   96GLOH    O1 9512   3.587  10.138   1.296  0.0449  0.2948  0.3905
   96GLOH    C1 9513   3.497  10.037   1.244 -0.4852 -0.1040  0.4738
   96GLOH   H02 9514   3.449  10.078   1.156  1.3621  0.4614 -0.2959
   96GLOH   H08 9515   3.413  10.024   1.313 -3.2540  0.5616 -2.6590
   96GLOH    C2 9516   3.553   9.901   1.212 -0.6678 -0.1939  0.5337
   96GLOH   H04 9517   3.626   9.875   1.290 -0.5668 -2.1340 -0.1714
   96GLOH    O2 9518   3.446   9.810   1.213 -0.2196 -0.1718 -0.4731
   96GLOH   H05 9519   3.397   9.808   1.297 -0.4275 -4.0255 -0.5914
   96GLOH    C3 9520   3.634   9.885   1.078  0.7085  0.1401  0.3833
   96GLOH   H06 9521   3.562   9.892   0.996 -2.0932 -1.3400  2.6293
   96GLOH   H07 9522   3.680   9.787   1.067 -1.8948 -0.8953 -1.8359
   96GLOH    O3 9523   3.747   9.977   1.061 -0.1237  0.0061  0.4936
   96GLOH   H01 9524   3.820   9.953   1.121  0.7098  0.4538 -0.3090
   97GLOH   H03 9525   3.797   3.927   1.213  1.0494 -0.3112  1.4762
   97GLOH    O1 9526   3.845   3.859   1.161  0.3569 -0.0214  0.4498
   97GLOH    C1 9527   3.788   3.856   1.031  0.1089 -0.2016  0.4194
   97GLOH   H02 9528   3.703   3.789   1.042 -0.1877 -0.2424 -1.9650
   97GLOH   H08 9529   3.854   3.809   0.958  0.2980 -0.4497  0.7432
   97GLOH    C2 9530   3.736   3.991   0.974 -0.1259  0.0267 -0.2593
   97GLOH   H04 9531   3.644   4.019   1.028  0.3940  0.6698  0.3012
   97GLOH    O2 9532   3.833   4.096   0.993  0.2186 -0.2377 -0.6245
   97GLOH   H05 9533   3.877   4.125   0.912 -0.6859 -1.5752 -1.6067
   97GLOH    C3 9534   3.709   3.980   0.822 -0.2281 -0.0299 -0.1768
   97GLOH   H06 9535   3.800   3.965   0.764  0.5317 -1.6572  1.3796
   97GLOH   H07 9536   3.661   4.067   0.779  2.4790  2.0360  0.8878
   97GLOH    O3 9537   3.628   3.861   0.803 -0.9557 -0.1284  0.6316
   97GLOH   H01 9538   3.574   3.867   0.722 -2.9829 -1.5818  1.8159
   98GLOH   H03 9539   4.247   3.759   0.444  0.5056  0.8177  0.2135
   98GLOH    O1 9540   4.248   3.714   0.531  0.1256  0.4702  0.0403
   98GLOH    C1 9541   4.154   3.603   0.538 -0.1449  0.0371  0.5929
   98GLOH   H02 9542   4.073   3.610   0.465 -0.7397  0.9372  1.3306
   98GLOH   H08 9543   4.118   3.605   0.641  1.2284  1.0707  1.0653
   98GLOH    C2 9544   4.219   3.468   0.509 -0.3324  0.5619 -0.3987
   98GLOH   H04 9545   4.302   3.468   0.581 -2.3051  0.3688  1.9710
   98GLOH    O2 9546   4.133   3.353   0.530 -0.5543  0.3911 -0.2540
   98GLOH   H05 9547   4.054   3.372   0.478 -1.2233  0.3786  0.7575
   98GLOH    C3 9548   4.281   3.462   0.366  0.1090  0.6460 -0.2495
   98GLOH   H06 9549   4.309   3.358   0.348 -1.0125 -0.1553  2.4151
   98GLOH   H07 9550   4.375   3.518   0.362  0.4114  0.3138  1.9627
   98GLOH    O3 9551   4.190   3.494   0.263 -0.6036  0.4663 -0.1572
   98GLOH   H01 9552   4.148   3.413   0.229  2.5559 -0.9131 -0.9488
   99GLOH   H03 9553   4.206   0.958   2.210  0.8101 -0.1981  0.0931
   99GLOH    O1 9554   4.141   0.964   2.282  0.0520  0.4113 -0.6298
   99GLOH    C1 9555   4.099   1.102   2.301 -0.3603 -0.6963  0.5257
   99GLOH   H02 9556   4.071   1.125   2.403  2.1054  1.4682  0.7692
   99GLOH   H08 9557   4.010   1.118   2.240 -1.3237  2.1991  2.6155
   99GLOH    C2 9558   4.196   1.213   2.258 -0.3830 -0.2235  0.3344
   99GLOH   H04 9559   4.293   1.194   2.306  0.5205 -0.6270 -1.5759
   99GLOH    O2 9560   4.213   1.216   2.117  0.0576  0.1220  0.6722
   99GLOH   H05 9561   4.284   1.281   2.105 -0.6517  1.1653  2.0060
   99GLOH    C3 9562   4.126   1.348   2.296  0.0369  0.0593 -0.2312
   99GLOH   H06 9563   4.023   1.348   2.260 -0.7618  1.4786  1.9788
   99GLOH   H07 9564   4.170   1.434   2.245  1.6822 -1.2516 -1.0711
   99GLOH    O3 9565   4.126   1.348   2.440  0.1874  0.7334  0.0114
   99GLOH   H01 9566   4.033   1.324   2.458  0.2370 -0.0194 -0.7136
  100GLOH   H03 9567   3.845  10.153   0.092 -0.3880  1.0970  0.8896
  100GLOH    O1 9568   3.869  10.073   0.143  0.0866  0.7009  0.0554
  100GLOH    C1 9569   3.846   9.969   0.055 -0.1024 -0.1774 -0.4714
  100GLOH   H02 9570   3.928   9.898   0.039  0.3838  0.9416 -3.3173
  100GLOH   H08 9571   3.815  10.000  -0.044 -0.7494 -1.1559 -0.5891
  100GLOH    C2 9572   3.738   9.889   0.130  0.1070  0.2965  0.7858
  100GLOH   H04 9573   3.656   9.947   0.174  0.6742  1.9937 -0.3289
  100GLOH    O2 9574   3.682   9.783   0.045 -0.6504 -0.2693  0.2827
  100GLOH   H05 9575   3.615   9.734   0.096  0.5541 -1.3642  0.8680
  100GLOH    C3 9576   3.811   9.814   0.243  0.5214  0.3957 -0.0525
  100GLOH   H06 9577   3.892   9.760   0.195 -2.0891 -2.2474 -1.6401
  100GLOH   H07 9578   3.744   9.744   0.292 -1.3183  1.8705 -0.3726
  100GLOH    O3 9579   3.860   9.916   0.334 -0.0260  0.0953  0.7135
  100GLOH   H01 9580   3.904   9.981   0.277  0.6551  0.8004  2.0259
  101GLOH   H03 9581   3.429   2.935   2.193 -0.0222 -0.8460 -0.2467
  101GLOH    O1 9582   3.518   2.965   2.167  0.0603 -0.9533 -0.0887
  101GLOH    C1 9583   3.504   3.053   2.055  0.1236 -0.1574 -0.3178
  101GLOH   H02 9584   3.463   2.993   1.974  0.6761  1.6286 -1.9636
  101GLOH   H08 9585   3.604   3.071   2.015 -0.0083  1.4858  0.0648
  101GLOH    C2 9586   3.438   3.198   2.080  0.6139 -0.2818  0.5823
  101GLOH   H04 9587   3.425   3.249   1.984  0.5905 -0.2545  0.6000
  101GLOH    O2 9588   3.306   3.166   2.129  0.1523  0.1429  0.2067
  101GLOH   H05 9589   3.269   3.252   2.156 -1.1828  0.3673 -2.1943
  101GLOH    C3 9590   3.519   3.286   2.179  0.2986 -0.3769  0.1744
  101GLOH   H06 9591   3.518   3.242   2.278 -1.3320  1.2272  0.9055
  101GLOH   H07 9592   3.456   3.373   2.197  0.4709  0.3344 -2.4552
  101GLOH    O3 9593   3.649   3.325   2.127  0.0694  0.3729  0.3396
  101GLOH   H01 9594   3.646   3.342   2.031  1.0555  0.9976  0.4089
  102GLOH   H03 9595   4.005   3.923   1.701 -2.1540  0.7251  1.2121
  102GLOH    O1 9596   4.015   3.857   1.772  0.0527 -0.0574  0.2235
  102GLOH    C1 9597   3.953   3.913   1.890 -0.2378 -0.8558 -0.3861
  102GLOH   H02 9598   3.980   3.853   1.977  0.6782  2.6657  1.8676
  102GLOH   H08 9599   3.845   3.904   1.881 -0.4519  0.5029  0.6562
  102GLOH    C2 9600   3.987   4.059   1.919 -0.4497 -0.3596 -0.1475
  102GLOH   H04 9601   4.097   4.064   1.920 -0.5485  2.3973 -0.6906
  102GLOH    O2 9602   3.935   4.147   1.816 -0.1074 -0.0183 -1.0399
  102GLOH   H05 9603   3.896   4.232   1.845 -0.5658 -1.5388  3.2658
  102GLOH    C3 9604   3.941   4.103   2.054 -0.1961 -1.0240 -0.0620
  102GLOH   H06 9605   3.832   4.108   2.063 -0.2624  2.5025 -1.6907
  102GLOH   H07 9606   3.968   4.209   2.052  0.9742 -1.3181 -0.1798
  102GLOH    O3 9607   3.998   4.050   2.169 -0.1153  0.0819 -0.4426
  102GLOH   H01 9608   4.062   4.118   2.195 -1.0611  0.6673  0.3949
  103GLOH   H03 9609   2.746   9.811   2.555  2.1994 -3.3820  0.4722
  103GLOH    O1 9610   2.724   9.783   2.464 -0.4219 -0.3200  0.0988
  103GLOH    C1 9611   2.731   9.901   2.378 -0.9577 -0.4586 -0.0607
  103GLOH   H02 9612   2.684   9.983   2.433 -0.1650 -0.9461  1.3597
  103GLOH   H08 9613   2.681   9.879   2.284 -1.4550  3.3715 -0.7907
  103GLOH    C2 9614   2.879   9.949   2.341 -0.1976  0.2938 -0.2850
  103GLOH   H04 9615   2.909   9.859   2.286 -0.8229 -0.8207  1.1801
  103GLOH    O2 9616   2.906  10.055   2.251  0.6196  0.1333 -0.0845
  103GLOH   H05 9617   2.888  10.130   2.310  2.3603  0.8044 -0.3607
  103GLOH    C3 9618   2.963   9.961   2.468 -0.4442  0.4004 -0.4366
  103GLOH   H06 9619   3.065   9.991   2.443 -0.1084  0.3099  0.7996
  103GLOH   H07 9620   2.968   9.871   2.528 -0.3633  0.3083 -0.5817
  103GLOH    O3 9621   2.913  10.057   2.561  0.4015 -0.5374 -0.0277
  103GLOH   H01 9622   2.913  10.144   2.515  1.0333  0.5099  1.8934
  104GLOH   H03 9623   3.913   4.624   1.520  0.9991  0.5883  1.3757
  104GLOH    O1 9624   3.921   4.706   1.467 -0.4552 -0.2865 -0.2810
  104GLOH    C1 9625   3.824   4.814   1.494 -0.0723  0.1696 -0.3458
  104GLOH   H02 9626   3.836   4.882   1.409 -0.4424  0.7489  0.0568
  104GLOH   H08 9627   3.849   4.869   1.585  1.4248 -1.8409  0.5093
  104GLOH    C2 9628   3.677   4.773   1.505  0.1717  0.2800 -0.1618
  104GLOH   H04 9629   3.630   4.872   1.502  0.5145  0.5051  1.4370
  104GLOH    O2 9630   3.641   4.698   1.387 -0.1814 -0.1406 -0.1001
  104GLOH   H05 9631   3.716   4.639   1.370  1.3097  1.2292  1.5179
  104GLOH    C3 9632   3.654   4.686   1.632  0.5271 -0.2705 -0.1005
  104GLOH   H06 9633   3.717   4.598   1.633 -0.0964 -0.7377 -1.0295
  104GLOH   H07 9634   3.553   4.645   1.629 -0.7040  2.5346  0.4182
  104GLOH    O3 9635   3.686   4.762   1.748  0.0939  0.5433  0.2705
  104GLOH   H01 9636   3.766   4.729   1.793 -1.4076 -2.7384  0.6511
  105GLOH   H03 9637   4.411   4.349   2.203 -0.8097  1.2176 -1.3116
  105GLOH    O1 9638   4.326   4.304   2.187 -0.3235 -0.2686  0.0427
  105GLOH    C1 9639   4.279   4.340   2.059  0.0847 -0.2924  0.1484
  105GLOH   H02 9640   4.290   4.446   2.034 -0.6689 -0.7984 -2.4587
  105GLOH   H08 9641   4.172   4.321   2.065 -0.1165  0.8948  0.4562
  105GLOH    C2 9642   4.349   4.256   1.943  0.3674 -0.0265  0.4396
  105GLOH   H04 9643   4.310   4.154   1.958 -0.1366  0.1696  0.4462
  105GLOH    O2 9644   4.308   4.301   1.811  0.5263  0.1226 -0.6259
  105GLOH   H05 9645   4.369   4.257   1.750 -0.3533 -0.1993 -1.2755
  105GLOH    C3 9646   4.498   4.249   1.955 -0.5164 -0.4681 -0.6751
  105GLOH   H06 9647   4.532   4.202   2.047 -0.3821 -0.2406 -0.6070
  105GLOH   H07 9648   4.532   4.350   1.977  2.1373 -1.4787  0.0247
  105GLOH    O3 9649   4.560   4.178   1.851 -0.0570 -0.5381 -0.1159
  105GLOH   H01 9650   4.551   4.083   1.869  0.8448 -0.2894  1.7925
  106GLOH   H03 9651   3.447   2.317   0.812  0.5167  0.3429 -0.0979
  106GLOH    O1 9652   3.413   2.354   0.728  0.1557 -0.3869 -0.2794
  106GLOH    C1 9653   3.461   2.486   0.696 -0.7705 -0.5027  0.2490
  106GLOH   H02 9654   3.417   2.525   0.604  1.9204 -1.0982 -1.3419
  106GLOH   H08 9655   3.569   2.480   0.687 -0.7886 -0.0375 -0.3012
  106GLOH    C2 9656   3.433   2.586   0.812  0.3470  0.1862  0.0940
  106GLOH   H04 9657   3.330   2.568   0.846  0.0705  1.3254 -0.1196
  106GLOH    O2 9658   3.521   2.556   0.923  0.7084 -0.2205 -0.1354
  106GLOH   H05 9659   3.604   2.603   0.904  0.9138 -0.3959  0.3090
  106GLOH    C3 9660   3.453   2.727   0.754  0.1289  0.1606 -0.3757
  106GLOH   H06 9661   3.558   2.736   0.726  0.5806 -0.0040  1.2127
  106GLOH   H07 9662   3.435   2.796   0.836 -0.8870 -0.0029 -0.4583
  106GLOH    O3 9663   3.376   2.768   0.644  0.2984  0.4362  0.5004
  106GLOH   H01 9664   3.286   2.733   0.659 -0.8407  1.9564 -2.2891
  107GLOH   H03 9665   3.809   3.398   0.417 -0.7344 -1.7150  0.0728
  107GLOH    O1 9666   3.896   3.354   0.412  0.3743  0.4230  0.3065
  107GLOH    C1 9667   3.873   3.211   0.410  0.3000 -0.1429 -0.3191
  107GLOH   H02 9668   3.775   3.183   0.371 -0.3369  0.8132  0.5660
  107GLOH   H08 9669   3.873   3.185   0.516  0.7818  0.6648 -0.1158
  107GLOH    C2 9670   3.984   3.127   0.340  1.0965  1.0854 -0.0599
  107GLOH   H04 9671   4.078   3.142   0.396 -1.6381  2.7053  4.4019
  107GLOH    O2 9672   3.952   2.988   0.347 -0.3464 -0.0084 -0.7707
  107GLOH   H05 9673   3.959   2.965   0.441 -0.1447 -1.0113 -1.0270
  107GLOH    C3 9674   3.993   3.164   0.190 -0.0858  0.6197  0.1835
  107GLOH   H06 9675   3.893   3.164   0.146  0.1246  0.9955 -0.3065
  107GLOH   H07 9676   4.049   3.091   0.131  0.9850  0.5754  1.2457
  107GLOH    O3 9677   4.077   3.282   0.170  0.2926  0.0087  0.2863
  107GLOH   H01 9678   4.101   3.293   0.077 -1.0406  1.3599  0.0835
  108GLOH   H03 9679   4.352   1.992   1.550  0.2734 -0.4660 -2.3727
  108GLOH    O1 9680   4.357   1.894   1.549  0.0937 -0.5449 -0.0878
  108GLOH    C1 9681   4.251   1.838   1.628  0.0076  0.1236 -0.2079
  108GLOH   H02 9682   4.245   1.885   1.726 -0.0453  0.5932 -0.4355
  108GLOH   H08 9683   4.269   1.732   1.647 -0.6831 -0.0835 -0.6805
  108GLOH    C2 9684   4.118   1.866   1.557  0.1873 -0.3751 -0.3971
  108GLOH   H04 9685   4.118   1.973   1.533 -0.9830 -0.3960 -0.5197
  108GLOH    O2 9686   4.106   1.801   1.437 -0.1647  0.0885  0.5824
  108GLOH   H05 9687   4.171   1.844   1.379  0.2151  0.4316  1.2567
  108GLOH    C3 9688   3.998   1.829   1.648  0.4677  0.5301  0.2951
  108GLOH   H06 9689   4.025   1.732   1.691 -1.4827  0.0229  0.4303
  108GLOH   H07 9690   3.910   1.819   1.584  0.5031 -1.1988  0.4755
  108GLOH    O3 9691   3.973   1.928   1.752 -0.3033 -0.0404  0.2233
  108GLOH   H01 9692   3.898   1.890   1.802 -0.2874 -0.9431 -0.4333
  109GLOH   H03 9693   3.236   2.394   1.552 -1.1971  0.7988  0.3625
  109GLOH    O1 9694   3.312   2.400   1.612 -0.7103  0.7023 -0.2353
  109GLOH    C1 9695   3.295   2.525   1.685 -0.7047  0.5152  0.3910
  109GLOH   H02 9696   3.322   2.507   1.789  0.0096  1.0188  0.2903
  109GLOH   H08 9697   3.192   2.561   1.679 -0.2990  1.4522 -1.0126
  109GLOH    C2 9698   3.382   2.639   1.623 -0.7950 -0.0777  0.7365
  109GLOH   H04 9699   3.341   2.723   1.681 -0.9361  0.4172 -0.0723
  109GLOH    O2 9700   3.524   2.627   1.662 -0.0304 -0.4049 -0.3691
  109GLOH   H05 9701   3.542   2.546   1.712  1.0995 -1.5371 -2.5248
  109GLOH    C3 9702   3.351   2.651   1.473  0.4789  0.1666  0.3404
  109GLOH   H06 9703   3.366   2.550   1.434  0.0475  0.5209 -0.7495
  109GLOH   H07 9704   3.438   2.703   1.433  0.8273 -0.3740  0.3786
  109GLOH    O3 9705   3.228   2.708   1.434  0.5356 -0.0909  0.2647
  109GLOH   H01 9706   3.196   2.677   1.348  0.0244 -3.1798  1.5113
  110GLOH   H03 9707   3.464   2.048   1.340 -0.0852  0.9787  0.9412
  110GLOH    O1 9708   3.375   2.011   1.353  0.0204  0.3475 -0.0940
  110GLOH    C1 9709   3.319   2.012   1.487 -0.2094  0.1651 -0.0257
  110GLOH   H02 9710   3.271   2.105   1.514 -0.4746 -0.7670  2.9119
  110GLOH   H08 9711   3.410   2.014   1.548 -1.3910 -2.1298  1.8725
  110GLOH    C2 9712   3.225   1.897   1.529  0.1902 -0.6865  0.2263
  110GLOH   H04 9713   3.290   1.809   1.541  1.6727  0.4505  0.6690
  110GLOH    O2 9714   3.165   1.939   1.656  0.1565  0.5215 -0.0872
  110GLOH   H05 9715   3.082   1.985   1.637 -0.2193  0.3448  1.0769
  110GLOH    C3 9716   3.124   1.871   1.414  0.1484  0.0685  0.2700
  110GLOH   H06 9717   3.188   1.853   1.328  1.1119  0.5511  0.8756
  110GLOH   H07 9718   3.066   1.963   1.408 -1.3643 -0.8872 -0.0375
  110GLOH    O3 9719   3.030   1.765   1.430  0.2754  0.1104  0.8266
  110GLOH   H01 9720   3.051   1.705   1.357 -0.4405 -0.6516  1.2454
  111GLOH   H03 9721   4.060   2.580   1.128 -0.0014 -0.0308  0.7247
  111GLOH    O1 9722   4.037   2.494   1.087  0.3404  0.3894 -0.3631
  111GLOH    C1 9723   4.132   2.474   0.986 -0.1336  0.5548  0.3819
  111GLOH   H02 9724   4.230   2.484   1.033  0.4078  0.9841 -0.8028
  111GLOH   H08 9725   4.123   2.554   0.912 -0.6922  1.5443  1.4942
  111GLOH    C2 9726   4.113   2.337   0.923 -0.3164 -0.5416  0.4507
  111GLOH   H04 9727   4.006   2.330   0.898  0.0257 -1.3543 -0.8029
  111GLOH    O2 9728   4.196   2.329   0.804  0.3322 -0.3573  0.4672
  111GLOH   H05 9729   4.140   2.338   0.724  2.0197  0.8713 -0.6179
  111GLOH    C3 9730   4.141   2.228   1.029  0.2906  0.5507  0.0022
  111GLOH   H06 9731   4.082   2.247   1.119  0.2390 -0.7415  0.2502
  111GLOH   H07 9732   4.245   2.232   1.061  0.0376 -0.5789  1.0143
  111GLOH    O3 9733   4.109   2.094   0.982  0.3446 -0.2105 -0.2955
  111GLOH   H01 9734   4.051   2.072   1.057  0.8668 -2.1312 -0.4535
  112GLOH   H03 9735   4.571   3.460   2.224  0.7000 -0.3142  0.8679
  112GLOH    O1 9736   4.631   3.448   2.148  0.2367 -0.6799  0.5539
  112GLOH    C1 9737   4.631   3.574   2.066  0.2385 -0.3480 -0.1077
  112GLOH   H02 9738   4.686   3.651   2.119 -1.2523 -0.5195  1.7523
  112GLOH   H08 9739   4.531   3.617   2.053  0.1817 -0.2898  0.4934
  112GLOH    C2 9740   4.695   3.569   1.925  0.0497  0.6507 -0.6025
  112GLOH   H04 9741   4.635   3.511   1.854 -1.6076  0.4362  0.9432
  112GLOH    O2 9742   4.704   3.700   1.869  0.2466  0.2594 -0.3585
  112GLOH   H05 9743   4.745   3.752   1.940 -0.9550  0.0609  0.4842
  112GLOH    C3 9744   4.829   3.489   1.925 -0.2355 -0.5124 -0.5127
  112GLOH   H06 9745   4.896   3.565   1.964 -2.2069 -0.7960  3.6799
  112GLOH   H07 9746   4.861   3.474   1.822 -0.1854 -3.7483 -0.0760
  112GLOH    O3 9747   4.823   3.370   1.994 -0.5135  0.3561 -0.3852
  112GLOH   H01 9748   4.764   3.388   2.069  0.1377  0.8427  0.0110
  113GLOH   H03 9749   4.483   2.626   1.946 -1.2002 -0.4637 -0.5255
  113GLOH    O1 9750   4.424   2.649   2.020  0.0252  0.3732  0.2077
  113GLOH    C1 9751   4.464   2.776   2.069  0.5560  0.8241 -0.3619
  113GLOH   H02 9752   4.476   2.841   1.982 -1.5842  1.1050 -0.4742
  113GLOH   H08 9753   4.554   2.761   2.128 -0.9230  0.5726  1.9052
  113GLOH    C2 9754   4.354   2.831   2.154  0.4906 -0.5938 -0.0485
  113GLOH   H04 9755   4.349   2.776   2.249 -2.4676  2.1646  1.4854
  113GLOH    O2 9756   4.381   2.965   2.190  0.0968  0.1621  0.1402
  113GLOH   H05 9757   4.324   2.987   2.265 -1.7402 -0.7353 -0.9366
  113GLOH    C3 9758   4.211   2.828   2.096 -0.1763  0.0548  0.3178
  113GLOH   H06 9759   4.208   2.858   1.992  3.3311  0.0674  0.1661
  113GLOH   H07 9760   4.135   2.888   2.146 -0.0626  1.0795 -0.7118
  113GLOH    O3 9761   4.180   2.688   2.097 -0.4559 -0.7050 -0.0150
  113GLOH   H01 9762   4.264   2.639   2.088 -2.0482 -3.7946  1.2568
  114GLOH   H03 9763   3.088   3.787   1.749 -0.6972 -0.2772 -0.8348
  114GLOH    O1 9764   3.153   3.789   1.677  0.2964 -0.4594  0.0492
  114GLOH    C1 9765   3.116   3.900   1.596 -0.0846 -0.7376 -0.4327
  114GLOH   H02 9766   3.027   3.877   1.537 -0.5068  1.0334 -0.5418
  114GLOH   H08 9767   3.197   3.921   1.527  1.3570  0.3956  1.5447
  114GLOH    C2 9768   3.091   4.031   1.680 -0.2428  0.2753 -0.0557
  114GLOH   H04 9769   3.168   4.033   1.758 -0.8872  1.8251  0.5601
  114GLOH    O2 9770   3.087   4.150   1.601 -0.6823 -0.5020  0.2625
  114GLOH   H05 9771   3.141   4.221   1.637 -0.0171 -2.2943  2.9429
  114GLOH    C3 9772   2.968   4.012   1.760 -0.0164  0.1192  0.1262
  114GLOH   H06 9773   2.888   3.989   1.690  0.6253 -1.6946 -0.0435
  114GLOH   H07 9774   2.934   4.101   1.813 -1.0577 -0.0193 -0.3008
  114GLOH    O3 9775   2.974   3.899   1.852  0.4521 -0.3108 -1.3655
  114GLOH   H01 9776   3.016   3.930   1.935  0.3780  0.4978 -1.6258
  115GLOH   H03 9777   4.066   2.902   1.457  1.2651 -0.3179 -0.8112
  115GLOH    O1 9778   4.124   2.888   1.534 -0.0645  0.2233  0.2960
  115GLOH    C1 9779   4.047   2.811   1.634 -0.2033  0.6310 -0.0508
  115GLOH   H02 9780   4.024   2.714   1.589 -0.0654  0.4095  0.3492
  115GLOH   H08 9781   3.954   2.865   1.652 -1.2076 -0.1047 -2.7146
  115GLOH    C2 9782   4.128   2.782   1.759 -0.7872 -0.2142  1.1090
  115GLOH   H04 9783   4.180   2.874   1.787  0.1516 -0.7851  1.2654
  115GLOH    O2 9784   4.039   2.740   1.866 -0.1162  0.2695 -0.7128
  115GLOH   H05 9785   4.100   2.713   1.937  1.5196  3.7602 -0.6866
  115GLOH    C3 9786   4.237   2.674   1.738  0.5562  0.5956  0.2843
  115GLOH   H06 9787   4.279   2.654   1.836  1.2877 -1.2768 -0.3859
  115GLOH   H07 9788   4.317   2.729   1.687 -0.9336  2.3545 -0.2332
  115GLOH    O3 9789   4.212   2.547   1.681 -0.0267 -0.3975  0.3932
  115GLOH   H01 9790   4.200   2.481   1.752  1.7153 -1.7270 -0.4912
  116GLOH   H03 9791   3.309   9.925   2.290  0.7049 -0.5737 -0.1709
  116GLOH    O1 9792   3.309   9.983   2.211  0.2987 -0.0346  0.2174
  116GLOH    C1 9793   3.434   9.948   2.150 -0.4815 -0.4978  0.8417
  116GLOH   H02 9794   3.504   9.934   2.233  0.6746  0.5036  0.0405
  116GLOH   H08 9795   3.468  10.025   2.081 -2.1799 -0.6942 -0.2435
  116GLOH    C2 9796   3.432   9.818   2.069 -0.0648  0.3724 -0.6145
  116GLOH   H04 9797   3.380   9.841   1.975 -2.6887 -0.2739  0.6448
  116GLOH    O2 9798   3.570   9.789   2.036  0.2729  0.5691 -0.6702
  116GLOH   H05 9799   3.578   9.795   1.939  0.3595 -0.0024 -0.7018
  116GLOH    C3 9800   3.372   9.690   2.137 -0.0003 -0.2673  0.4884
  116GLOH   H06 9801   3.434   9.676   2.225  2.3292  0.8227 -0.9270
  116GLOH   H07 9802   3.387   9.603   2.073 -0.1561 -0.4433  0.6879
  116GLOH    O3 9803   3.235   9.707   2.173  0.8734 -0.2464 -0.0029
  116GLOH   H01 9804   3.174   9.691   2.099  0.2935 -1.3402  0.7038
  117GLOH   H03 9805   3.705   2.180   0.409  0.0246  1.4021  0.9186
  117GLOH    O1 9806   3.728   2.271   0.384 -0.1718  1.0450 -0.6350
  117GLOH    C1 9807   3.708   2.342   0.513  0.4296  0.1692  0.5729
  117GLOH   H02 9808   3.671   2.267   0.583 -0.1675 -2.3675 -2.3514
  117GLOH   H08 9809   3.627   2.415   0.507 -0.2173 -0.5461  0.4428
  117GLOH    C2 9810   3.838   2.419   0.552  0.8390 -0.2830  0.0641
  117GLOH   H04 9811   3.848   2.494   0.472  0.3827 -0.5094 -0.2132
  117GLOH    O2 9812   3.818   2.492   0.667 -0.1678 -0.1103 -0.1320
  117GLOH   H05 9813   3.788   2.437   0.741 -0.6535  0.0036 -0.2410
  117GLOH    C3 9814   3.972   2.334   0.551  0.0415 -0.2588  0.0638
  117GLOH   H06 9815   4.000   2.323   0.447  3.1735  1.0364  0.6955
  117GLOH   H07 9816   3.961   2.235   0.596  0.0443 -0.2687  0.0425
  117GLOH    O3 9817   4.083   2.404   0.599  0.0618  0.3122  0.3357
  117GLOH   H01 9818   4.075   2.497   0.574 -0.4235  0.4180  0.8763
  118GLOH   H03 9819   3.205   0.834   2.439  1.0267  0.2194  0.1139
  118GLOH    O1 9820   3.239   0.868   2.354 -0.7007  0.6261 -0.4472
  118GLOH    C1 9821   3.131   0.870   2.257  0.0775 -0.3868  0.5423
  118GLOH   H02 9822   3.079   0.774   2.249  0.1068 -0.2731 -1.2445
  118GLOH   H08 9823   3.175   0.879   2.157 -0.0068  1.3447  0.6431
  118GLOH    C2 9824   3.037   0.991   2.280  0.4741 -0.0480 -0.3041
  118GLOH   H04 9825   2.961   0.972   2.202 -1.1525  0.6402  1.0771
  118GLOH    O2 9826   2.982   0.994   2.415 -0.0988 -0.4362 -0.1277
  118GLOH   H05 9827   2.887   0.975   2.409 -0.7490  2.3625  0.6932
  118GLOH    C3 9828   3.110   1.123   2.248  0.0833 -0.1538  0.5979
  118GLOH   H06 9829   3.198   1.132   2.312  1.7157 -1.7795 -1.3743
  118GLOH   H07 9830   3.039   1.202   2.274  0.8009  0.6837  0.0720
  118GLOH    O3 9831   3.143   1.125   2.113 -0.4006  0.3880  0.2443
  118GLOH   H01 9832   3.063   1.132   2.058 -0.3487 -0.5400  0.0534
  119GLOH   H03 9833   3.695   3.448   0.205  0.4384  1.2195 -3.3503
  119GLOH    O1 9834   3.598   3.446   0.214  0.7469  0.4700  0.2036
  119GLOH    C1 9835   3.573   3.592   0.250 -0.5563  0.2182 -0.1717
  119GLOH   H02 9836   3.468   3.610   0.271 -0.1707 -0.0125  2.1073
  119GLOH   H08 9837   3.595   3.651   0.161  0.1803 -1.3402 -1.0585
  119GLOH    C2 9838   3.658   3.637   0.368  0.3321 -0.2262 -0.2992
  119GLOH   H04 9839   3.764   3.620   0.345  1.2027  2.3846  1.5841
  119GLOH    O2 9840   3.647   3.776   0.381 -0.1677  0.0269 -0.2609
  119GLOH   H05 9841   3.613   3.806   0.467 -2.2349 -0.4478 -0.8871
  119GLOH    C3 9842   3.617   3.563   0.497 -0.0661  0.4915  0.1585
  119GLOH   H06 9843   3.509   3.574   0.489 -0.3361 -1.4386  0.9809
  119GLOH   H07 9844   3.645   3.623   0.584  1.9546 -0.6070  0.2965
  119GLOH    O3 9845   3.656   3.423   0.507 -0.0226 -0.0122  0.5207
  119GLOH   H01 9846   3.632   3.392   0.596 -0.6015 -1.0353  0.0193
  120GLOH   H03 9847   4.751   2.742   1.478  0.4243  0.0455  0.0864
  120GLOH    O1 9848   4.782   2.834   1.488  0.7378 -0.0975  0.4556
  120GLOH    C1 9849   4.662   2.916   1.495 -0.1574  0.3114 -0.2014
  120GLOH   H02 9850   4.655   2.953   1.597  2.3376 -0.8453  0.4297
  120GLOH   H08 9851   4.571   2.858   1.480 -0.9540  1.3705  0.4343
  120GLOH    C2 9852   4.669   3.026   1.385 -0.1741  0.7484  0.2362
  120GLOH   H04 9853   4.684   2.973   1.289 -1.0204  1.3890 -0.2577
  120GLOH    O2 9854   4.547   3.087   1.382  0.3723 -0.2626  0.0259
  120GLOH   H05 9855   4.563   3.173   1.339 -1.6147 -0.2857 -0.8383
  120GLOH    C3 9856   4.775   3.130   1.426  0.1864 -0.0878 -0.3000
  120GLOH   H06 9857   4.731   3.197   1.500  1.4754 -1.7050  1.9773
  120GLOH   H07 9858   4.808   3.195   1.345  0.2444 -0.1186 -0.3008
  120GLOH    O3 9859   4.884   3.073   1.486  0.4837  0.3302 -0.4507
  120GLOH   H01 9860   4.866   2.977   1.490  0.3167  0.4085  1.4218
  121ACOH    H4 9861   4.473   3.947   0.334 -1.6348  1.5618  1.5696
  121ACOH    O2 9862   4.485   4.033   0.290 -0.4765  0.4009 -0.4728
  121ACOH    C2 9863   4.390   4.112   0.341 -0.0792 -0.6025  0.4887
  121ACOH    O1 9864   4.314   4.092   0.431 -0.3512 -0.0426  0.0955
  121ACOH    C1 9865   4.398   4.255   0.286 -0.1541 -0.0653 -0.0341
  121ACOH    H1 9866   4.305   4.310   0.301 -1.7262 -2.3970 -0.9597
  121ACOH    H2 9867   4.424   4.255   0.180 -0.1053 -1.8861 -0.0369
  121ACOH    H3 9868   4.469   4.316   0.343 -1.6917  1.9443 -0.2227
  122ACOH    H4 9869   5.097   3.935   1.413 -0.0397  0.7679  1.2811
  122ACOH    O2 9870   5.191   3.945   1.391 -0.2921  0.0920 -0.1518
  122ACOH    C2 9871   5.211   3.970   1.256 -0.2320 -0.5361 -0.0295
  122ACOH    O1 9872   5.127   3.963   1.168  0.4886  0.3993  0.0791
  122ACOH    C1 9873   5.351   3.979   1.231 -0.4357 -0.6959 -0.2160
  122ACOH    H1 9874   5.396   4.043   1.307 -0.0996 -0.1934 -0.8305
  122ACOH    H2 9875   5.376   4.030   1.138  1.4813  0.3720  0.8547
  122ACOH    H3 9876   5.399   3.882   1.240  0.4185 -0.2024  0.6187
  123ACOH    H4 9877   2.578   3.263   0.616  2.2403  0.5615  0.7452
  123ACOH    O2 9878   2.531   3.270   0.701  0.3754 -0.2979 -0.1858
  123ACOH    C2 9879   2.606   3.184   0.784  0.2850 -0.2447  0.6362
  123ACOH    O1 9880   2.668   3.087   0.742 -0.8477  0.2705  0.2808
  123ACOH    C1 9881   2.570   3.211   0.926 -0.7438 -0.1394  0.2899
  123ACOH    H1 9882   2.563   3.115   0.977 -0.6370  0.4143  1.3615
  123ACOH    H2 9883   2.469   3.254   0.930 -0.2168  1.0715  1.1420
  123ACOH    H3 9884   2.643   3.282   0.965 -1.0189  0.9210 -1.0927
  124ACOH    H4 9885   4.278   2.584   0.361  1.3491  0.0635 -1.5711
  124ACOH    O2 9886   4.225   2.613   0.285 -0.4131 -0.1167 -0.4239
  124ACOH    C2 9887   4.102   2.632   0.333  0.5869 -0.0554  0.3174
  124ACOH    O1 9888   4.072   2.636   0.452 -0.4272  0.5343  0.5641
  124ACOH    C1 9889   4.002   2.637   0.221 -0.3427  0.4693  0.1507
  124ACOH    H1 9890   4.043   2.635   0.120 -2.2239 -1.8886 -0.6116
  124ACOH    H2 9891   3.939   2.726   0.232 -1.0250 -0.0771  0.7313
  124ACOH    H3 9892   3.944   2.545   0.232  1.3662 -0.5467  0.8693
  125ACOH    H4 9893   3.729   9.269   0.987 -0.6287 -0.4441 -2.0423
  125ACOH    O2 9894   3.665   9.200   1.011 -0.0464 -0.2911 -0.0329
  125ACOH    C2 9895   3.543   9.256   1.025 -0.2444  0.1778  0.3945
  125ACOH    O1 9896   3.516   9.375   1.041  0.4447  0.1793 -0.2846
  125ACOH    C1 9897   3.435   9.156   1.051 -0.1409 -0.8084 -0.0351
  125ACOH    H1 9898   3.405   9.168   1.155  0.5933  0.2556  0.0611
  125ACOH    H2 9899   3.469   9.056   1.023 -0.2768 -1.3421  1.6639
  125ACOH    H3 9900   3.356   9.171   0.977  0.4316  1.2869 -0.2636
  126ACOH    H4 9901   4.817   3.940   0.705  1.3692  0.0824 -0.5345
  126ACOH    O2 9902   4.815   4.022   0.652 -0.0779  0.2074 -0.3206
  126ACOH    C2 9903   4.770   4.114   0.739  0.0726 -0.1138 -0.1669
  126ACOH    O1 9904   4.726   4.100   0.855 -0.1898  0.1580  0.1029
  126ACOH    C1 9905   4.770   4.249   0.676  0.4262 -0.6560  0.6376
  126ACOH    H1 9906   4.766   4.243   0.567 -2.0787  3.0900  0.4280
  126ACOH    H2 9907   4.855   4.306   0.714  1.4057 -0.7402 -1.3755
  126ACOH    H3 9908   4.690   4.316   0.709  0.6305 -0.8507  1.5435
  127ACOH    H4 9909   4.143   4.694   2.642  0.3820  0.2764  1.8654
  127ACOH    O2 9910   4.094   4.777   2.632  0.1815 -0.0619 -0.2394
  127ACOH    C2 9911   4.059   4.790   2.505  0.4961 -0.3644 -0.0415
  127ACOH    O1 9912   4.063   4.713   2.409 -0.1416  0.0664  0.1739
  127ACOH    C1 9913   3.988   4.922   2.507 -0.5969  0.6795  0.1172
  127ACOH    H1 9914   4.026   4.971   2.597  0.6139 -0.4247  0.2282
  127ACOH    H2 9915   3.879   4.924   2.510 -0.6839 -2.4814  1.2250
  127ACOH    H3 9916   4.016   4.976   2.417  0.8774 -0.7428 -0.3031
  128ACOH    H4 9917   4.162   0.901   1.991  0.1903  0.7480 -0.3601
  128ACOH    O2 9918   4.253   0.921   2.020  0.3904 -0.0696 -0.3870
  128ACOH    C2 9919   4.325   0.958   1.913  0.7580  0.1093  0.6199
  128ACOH    O1 9920   4.288   0.938   1.795 -0.0058 -0.4464 -0.4072
  128ACOH    C1 9921   4.461   0.992   1.935 -0.5354  0.2164  0.4264
  128ACOH    H1 9922   4.472   1.085   1.991  0.7239 -0.3900  1.2101
  128ACOH    H2 9923   4.529   0.999   1.850 -2.1480  0.6932 -0.8507
  128ACOH    H3 9924   4.500   0.909   1.992  1.2845  0.6176 -0.1961
  129ACOH    H4 9925   2.887   1.798   1.473 -0.2602  1.9503  0.0099
  129ACOH    O2 9926   2.795   1.824   1.491 -0.6349  0.7428 -0.0949
  129ACOH    C2 9927   2.708   1.734   1.449  0.0658 -0.2631 -0.4163
  129ACOH    O1 9928   2.733   1.637   1.382 -0.2054 -0.4224 -0.3140
  129ACOH    C1 9929   2.574   1.774   1.498  0.2449 -0.3797  0.1626
  129ACOH    H1 9930   2.534   1.679   1.533  1.8834 -0.5357  1.6384
  129ACOH    H2 9931   2.522   1.813   1.410  1.0331  1.6851  0.5804
  129ACOH    H3 9932   2.576   1.847   1.579  2.1430 -1.1213  0.7962
  130ACOH    H4 9933   4.601   3.579   2.646 -2.6468  0.5625  1.3347
  130ACOH    O2 9934   4.635   3.547   2.731  0.1789 -0.0278  0.0522
  130ACOH    C2 9935   4.531   3.475   2.782  0.3385  0.2300  0.4306
  130ACOH    O1 9936   4.415   3.482   2.745 -0.3880  0.0186  0.2399
  130ACOH    C1 9937   4.576   3.404   2.900  0.1850 -0.3840  0.3283
  130ACOH    H1 9938   4.682   3.381   2.891  0.8989  2.0207  1.9789
  130ACOH    H2 9939   4.519   3.312   2.910 -1.7541  0.6000 -1.2570
  130ACOH    H3 9940   4.548   3.471   2.982 -0.0966  0.1537 -0.2010
  131ACOH    H4 9941   4.461   2.364   0.252  1.8815 -0.7800 -0.7597
  131ACOH    O2 9942   4.429   2.396   0.167  0.0526 -0.1676  0.1316
  131ACOH    C2 9943   4.299   2.360   0.161  0.0204 -0.0830  0.6032
  131ACOH    O1 9944   4.230   2.303   0.243  0.1993  0.0766 -0.3681
  131ACOH    C1 9945   4.241   2.380   0.028 -0.5923  0.6001 -0.0558
  131ACOH    H1 9946   4.237   2.284  -0.023  0.5114  0.8106 -0.5679
  131ACOH    H2 9947   4.298   2.448  -0.036 -2.6306  0.8642 -1.6323
  131ACOH    H3 9948   4.142   2.425   0.031 -0.4928  0.7662  0.7144
  132ACOH    H4 9949   4.029   9.540   2.002  0.4158  1.3559  2.7436
  132ACOH    O2 9950   4.125   9.526   1.998  0.1351 -0.1622 -0.1209
  132ACOH    C2 9951   4.193   9.644   1.991  0.1780  1.1539 -0.4256
  132ACOH    O1 9952   4.150   9.755   2.016 -0.5012  0.0917  0.1767
  132ACOH    C1 9953   4.319   9.626   1.925  0.4635  0.3170  0.0954
  132ACOH    H1 9954   4.305   9.664   1.823  1.6925  0.5322 -0.0065
  132ACOH    H2 9955   4.348   9.522   1.912  1.3633  0.4683  0.8344
  132ACOH    H3 9956   4.398   9.683   1.974  0.1163  2.8798 -2.1586
  133ACOH    H4 9957   4.468   1.964   0.422  0.2543  0.3258  1.5361
  133ACOH    O2 9958   4.536   2.011   0.370 -0.4151 -0.1620  0.1967
  133ACOH    C2 9959   4.614   1.922   0.307 -0.5717 -0.5880 -0.5169
  133ACOH    O1 9960   4.610   1.799   0.328 -0.1658 -0.2941 -0.1366
  133ACOH    C1 9961   4.693   1.991   0.209  0.1244 -0.2271  0.2696
  133ACOH    H1 9962   4.791   2.015   0.251  0.2521  0.6601 -0.5264
  133ACOH    H2 9963   4.644   2.083   0.179  2.3467  0.8995 -0.0433
  133ACOH    H3 9964   4.718   1.920   0.130  0.5366  2.0935 -1.7682
  134ACOH    H4 9965   2.683   0.839   0.381 -1.0527 -1.6220  1.0097
  134ACOH    O2 9966   2.592   0.873   0.384 -0.3691  0.4142 -0.0695
  134ACOH    C2 9967   2.517   0.806   0.289  0.5188 -0.4939 -0.1825
  134ACOH    O1 9968   2.556   0.720   0.213 -0.4052  0.0240  0.2527
  134ACOH    C1 9969   2.369   0.838   0.303  0.4977  0.8273  0.5213
  134ACOH    H1 9970   2.356   0.942   0.332 -0.4094  0.5425  1.1436
  134ACOH    H2 9971   2.332   0.770   0.379  2.1316 -0.5947  0.0721
  134ACOH    H3 9972   2.308   0.820   0.214  2.2968  0.5464 -0.6878
  135ACOH    H4 9973   5.007   3.175   1.456  0.2407 -2.0157 -2.4014
  135ACOH    O2 9974   5.080   3.234   1.430  0.1316 -0.7022  0.0712
  135ACOH    C2 9975   5.035   3.357   1.430 -0.0918  0.3509  0.1959
  135ACOH    O1 9976   4.928   3.401   1.472 -0.3762 -0.4182 -0.2908
  135ACOH    C1 9977   5.133   3.461   1.387  0.5283  0.3516 -0.4483
  135ACOH    H1 9978   5.235   3.448   1.424 -0.2710 -0.9488  1.3427
  135ACOH    H2 9979   5.099   3.559   1.421 -2.3072 -0.8411  0.2770
  135ACOH    H3 9980   5.138   3.467   1.278 -3.2792 -1.0140 -0.7574
  136ACOH    H4 9981   4.421   1.487   0.176 -0.0245  0.3378  0.1627
  136ACOH    O2 9982   4.345   1.479   0.115  0.9716 -0.0476 -1.0452
  136ACOH    C2 9983   4.297   1.359   0.153  0.0549 -0.4041  0.0453
  136ACOH    O1 9984   4.344   1.280   0.231  0.0613 -0.6010 -0.2581
  136ACOH    C1 9985   4.165   1.324   0.099  0.2813  0.0869 -0.6726
  136ACOH    H1 9986   4.091   1.362   0.170  0.7846  0.1602 -0.1798
  136ACOH    H2 9987   4.153   1.217   0.082  1.5061  0.4591 -4.3003
  136ACOH    H3 9988   4.148   1.376   0.005  0.5135 -0.6799 -1.1448
  137ACOH    H4 9989   2.809   9.476   0.506  0.3144  0.0571  0.0871
  137ACOH    O2 9990   2.844   9.471   0.597  0.0991 -0.6736  0.1318
  137ACOH    C2 9991   2.740   9.471   0.687 -0.5609 -0.9764  0.2852
  137ACOH    O1 9992   2.631   9.519   0.674  0.4534 -0.7416 -0.8014
  137ACOH    C1 9993   2.774   9.387   0.806 -0.0013  0.7438  0.0992
  137ACOH    H1 9994   2.698   9.319   0.843 -1.9744  2.3396 -0.9077
  137ACOH    H2 9995   2.813   9.450   0.886  1.3805  1.0548 -0.7966
  137ACOH    H3 9996   2.857   9.323   0.775 -0.9023 -0.3387 -0.1020
  138ACOH    H4 9997   3.503   9.155   2.180 -0.5385 -0.6167  0.7160
  138ACOH    O2 9998   3.516   9.119   2.091  0.0086  0.3785  0.3761
  138ACOH    C2 9999   3.390   9.140   2.032  0.3873 -0.0629 -0.2214
  138ACOH    O110000   3.316   9.224   2.072  0.0635  0.2539  0.7675
  138ACOH    C110001   3.376   9.078   1.894  0.1913  0.1483 -0.0638
  138ACOH    H110002   3.276   9.037   1.883 -0.9577  2.5380  1.1211
  138ACOH    H210003   3.457   9.009   1.874 -1.5493 -2.0970  0.5026
  138ACOH    H310004   3.371   9.163   1.826 -1.2517  0.6179  0.6072
  139ACOH    H410005   3.292   4.493   0.945 -2.2188  0.6819  0.7222
  139ACOH    O210006   3.301   4.579   0.902 -0.3878 -0.0907 -0.5290
  139ACOH    C210007   3.390   4.651   0.972 -0.1650  0.1576 -0.5523
  139ACOH    O110008   3.457   4.611   1.064  0.0346  0.2091  0.0439
  139ACOH    C110009   3.406   4.793   0.924  1.0685  0.4165  0.3913
  139ACOH    H110010   3.323   4.857   0.953  0.8549  0.7053 -0.8176
  139ACOH    H210011   3.406   4.778   0.816  0.8344 -0.0772  0.4530
  139ACOH    H310012   3.500   4.840   0.950  0.8738  0.2345  1.4542
  140ACOH    H410013   3.517   3.376   0.098  0.8570 -2.7523  0.8999
  140ACOH    O210014   3.473   3.319   0.032 -0.4873 -0.1414 -0.5330
  140ACOH    C210015   3.352   3.375   0.011  0.6950  0.4343 -0.7313
  140ACOH    O110016   3.292   3.458   0.079 -0.0169  0.2044  0.5370
  140ACOH    C110017   3.291   3.322  -0.118  0.2117  0.1399  0.2460
  140ACOH    H110018   3.233   3.394  -0.176 -2.2634 -3.0329 -1.3984
  140ACOH    H210019   3.212   3.255  -0.082 -1.7093  3.4675  2.6100
  140ACOH    H310020   3.369   3.284  -0.183  2.5133  1.8925  1.8990
  141ACOH    H410021   3.278   4.039   2.645 -2.0835  0.4364  1.6615
  141ACOH    O210022   3.272   4.118   2.589 -0.1032 -0.7013 -0.2121
  141ACOH    C210023   3.378   4.199   2.622  0.8374 -0.3063 -0.9526
  141ACOH    O110024   3.443   4.185   2.723 -0.5584 -1.0365  0.3597
  141ACOH    C110025   3.379   4.321   2.541 -0.0562  0.6059 -0.1895
  141ACOH    H110026   3.277   4.352   2.518  0.8668  2.6839 -1.6837
  141ACOH    H210027   3.434   4.300   2.450  0.9763  1.4379  0.2383
  141ACOH    H310028   3.429   4.403   2.593  0.2474 -0.1496  0.7126
  142ACOH    H410029   2.769   9.599   2.413 -1.5045  0.2037 -0.1917
  142ACOH    O210030   2.804   9.512   2.390 -0.8112  0.5602 -0.4926
  142ACOH    C210031   2.782   9.428   2.493 -0.0916 -0.3468 -0.4974
  142ACOH    O110032   2.746   9.456   2.608 -0.7247 -0.5438 -0.1830
  142ACOH    C110033   2.806   9.287   2.446 -0.1133  0.3159  0.4002
  142ACOH    H110034   2.726   9.269   2.374  1.6142  0.3997 -1.5866
  142ACOH    H210035   2.798   9.213   2.526 -0.9770 -0.8926 -0.7858
  142ACOH    H310036   2.903   9.265   2.403  0.3636  2.5241  0.2685
  143ACOH    H410037   4.853   2.989   1.942  1.6969  1.0822 -1.1651
  143ACOH    O210038   4.907   2.911   1.962  0.0990  0.2224 -0.0567
  143ACOH    C210039   4.827   2.807   1.937 -0.2159 -0.2409 -0.1206
  143ACOH    O110040   4.716   2.812   1.898 -0.0541 -0.6062  0.0021
  143ACOH    C110041   4.905   2.680   1.948  0.4108  0.3031 -0.0382
  143ACOH    H110042   5.009   2.703   1.972 -0.6552  2.1577  3.1434
  143ACOH    H210043   4.902   2.616   1.859  0.5580  3.3697 -2.3419
  143ACOH    H310044   4.866   2.623   2.033  1.3704 -0.7105 -0.2689
  144ACOH    H410045   3.753   4.471   2.339  0.5331 -1.4958  0.2963
  144ACOH    O210046   3.743   4.488   2.434 -0.3560  0.1842 -0.0699
  144ACOH    C210047   3.747   4.618   2.472  0.0845  0.3106  0.3051
  144ACOH    O110048   3.756   4.707   2.390  0.0097 -0.0272 -0.0393
  144ACOH    C110049   3.702   4.632   2.610  0.1221 -0.3258  0.2783
  144ACOH    H110050   3.635   4.552   2.642  1.4000 -1.1893  0.8487
  144ACOH    H210051   3.667   4.732   2.639 -0.2532 -0.5530  0.6267
  144ACOH    H310052   3.792   4.622   2.670  1.1013  1.0883 -0.9278
  145ACOH    H410053   4.192   9.831   1.667 -0.2195  0.4999 -0.4060
  145ACOH    O210054   4.241   9.909   1.696  0.4798 -0.1064  0.0596
  145ACOH    C210055   4.223  10.015   1.614 -0.1701 -0.6018 -0.1010
  145ACOH    O110056   4.180  10.017   1.501 -0.0166  0.7388  0.1563
  145ACOH    C110057   4.285  10.136   1.672 -0.2584  0.1556  0.4323
  145ACOH    H110058   4.288  10.141   1.781  0.7946 -1.1749  0.4784
  145ACOH    H210059   4.233  10.224   1.634 -1.0596 -0.0490  1.0280
  145ACOH    H310060   4.386  10.145   1.632 -0.6591 -0.4713 -0.7299
  146ACOH    H410061   4.211   1.961   2.424 -1.0466 -0.4121  1.3654
  146ACOH    O210062   4.154   2.039   2.413  0.0588  0.2623  0.2930
  146ACOH    C210063   4.028   2.000   2.447  0.2182 -0.2803 -0.7661
  146ACOH    O110064   3.989   1.884   2.462 -0.9808 -0.0797 -0.2719
  146ACOH    C110065   3.941   2.121   2.450 -1.1611  0.1556  0.2524
  146ACOH    H110066   3.889   2.127   2.355 -2.8264 -0.2461  1.1099
  146ACOH    H210067   3.996   2.213   2.469 -2.6268  0.9467  0.7760
  146ACOH    H310068   3.869   2.105   2.531  0.9558 -0.8198  2.0117
  147ACOH    H410069   3.511   4.764   1.322  0.2636 -0.8688 -1.7637
  147ACOH    O210070   3.429   4.814   1.309  0.4492 -0.1107 -0.1317
  147ACOH    C210071   3.325   4.737   1.342 -0.5633 -0.5893  0.8293
  147ACOH    O110072   3.317   4.627   1.392  0.4026  0.2634 -0.8298
  147ACOH    C110073   3.205   4.803   1.287 -0.2143  0.3118 -0.6500
  147ACOH    H110074   3.115   4.744   1.302  0.9515 -1.2689  0.3003
  147ACOH    H210075   3.228   4.825   1.183  3.5910  0.4714  0.1644
  147ACOH    H310076   3.198   4.901   1.336  2.5418 -0.4757  1.4457
  148ACOH    H410077   4.558   2.088   2.610 -1.4051 -0.1124  1.1329
  148ACOH    O210078   4.587   1.995   2.616 -0.6282  0.0339 -0.1816
  148ACOH    C210079   4.490   1.938   2.693 -0.3899  0.3864  0.4671
  148ACOH    O110080   4.405   1.998   2.751  0.4723  0.4280 -0.2520
  148ACOH    C110081   4.487   1.791   2.688  0.2168  0.2232  0.3086
  148ACOH    H110082   4.529   1.750   2.596 -0.2161  0.1744  0.1347
  148ACOH    H210083   4.385   1.756   2.702 -1.1280  4.0950  0.7527
  148ACOH    H310084   4.539   1.750   2.774  1.8020 -1.2079 -1.2920
  149ACOH    H410085   4.624   4.384   0.167  0.0797  1.1946  0.6304
  149ACOH    O210086   4.671   4.330   0.233  0.5122  0.2408 -0.4661
  149ACOH    C210087   4.727   4.231   0.154 -0.1125 -0.3473  0.3828
  149ACOH    O110088   4.704   4.206   0.034 -0.2096 -0.1773 -0.1962
  149ACOH    C110089   4.818   4.148   0.231 -0.3766  0.6522 -0.3458
  149ACOH    H110090   4.848   4.191   0.326  2.0293  0.6992 -1.1016
  149ACOH    H210091   4.909   4.148   0.171  0.4122  0.3721  0.8450
  149ACOH    H310092   4.778   4.048   0.246 -0.4369  0.6453 -0.5491
  150ACOH    H410093   3.630   0.341   0.774 -0.0889  0.6271 -0.0322
  150ACOH    O210094   3.712   0.356   0.724  0.0710  0.0306  0.0519
  150ACOH    C210095   3.714   0.262   0.622  0.2115 -0.6760  0.5134
  150ACOH    O110096   3.613   0.220   0.566 -0.6384 -0.1809 -0.0006
  150ACOH    C110097   3.849   0.252   0.551 -0.1496 -0.2054  0.3235
  150ACOH    H110098   3.882   0.154   0.585 -0.6038 -0.2783  0.5682
  150ACOH    H210099   3.921   0.332   0.568 -0.7337  0.2842  0.5220
  150ACOH    H310100   3.825   0.260   0.445 -0.9643  2.3800  0.6630
  151SOL     OW10101   3.748   4.568   1.068 -1.0536 -0.2637 -0.2185
  151SOL    HW110102   3.768   4.578   0.971 -1.4724  2.6512 -0.0336
  151SOL    HW210103   3.649   4.566   1.082 -1.0005  0.3619  0.2562
  152SOL     OW10104   3.447   1.886   2.698  0.0300 -0.4715  0.3213
  152SOL    HW110105   3.538   1.928   2.702 -0.1028 -0.1437 -0.0470
  152SOL    HW210106   3.424   1.865   2.603 -0.0797 -0.9993  0.4611
  153SOL     OW10107   3.602   1.821   1.683 -0.5532  0.3681  0.5285
  153SOL    HW110108   3.541   1.769   1.623 -1.4267  0.7695  1.0501
  153SOL    HW210109   3.548   1.887   1.735  0.2401  0.2760  1.4856
  154SOL     OW10110   3.644   9.824   2.470 -0.5666 -0.1465  0.0296
  154SOL    HW110111   3.663   9.800   2.565 -5.6754 -1.2266  0.9262
  154SOL    HW210112   3.629   9.923   2.464 -1.8323 -0.2808  0.7070
  155SOL     OW10113   4.051   2.888   0.637  0.2251  0.0429  0.2921
  155SOL    HW110114   4.069   2.810   0.576  0.5676 -0.5156  1.0972
  155SOL    HW210115   4.025   2.854   0.727 -0.5077  0.8690  0.3931
  156SOL     OW10116   3.189   2.468   0.661  0.6103  0.4801  0.2375
  156SOL    HW110117   3.262   2.405   0.687 -1.0737 -0.9987  1.5661
  156SOL    HW210118   3.116   2.416   0.616 -0.8785  1.4478  1.5159
  157SOL     OW10119   3.981   4.083   0.402  0.0757 -0.0671 -0.4559
  157SOL    HW110120   3.904   4.037   0.358 -0.9943  2.1047 -0.9296
  157SOL    HW210121   4.019   4.023   0.473 -1.6954 -1.3989 -0.5861
  158SOL     OW10122   4.182   4.395   1.246  0.2210 -0.4027 -0.0175
  158SOL    HW110123   4.194   4.354   1.155  1.0795 -1.2855  0.4886
  158SOL    HW210124   4.145   4.487   1.235 -2.7947 -1.6969 -1.0862
  159SOL     OW10125   3.025   4.043   0.200  0.5250  0.6154 -0.1639
  159SOL    HW110126   3.014   4.098   0.118 -2.0325  2.3180  1.2803
  159SOL    HW210127   3.123   4.025   0.215  1.2759  3.2682 -1.6005
  160SOL     OW10128   3.910   3.156   1.653  0.0046 -0.6020 -0.0395
  160SOL    HW110129   3.862   3.224   1.598  1.3672  0.2433 -0.1898
  160SOL    HW210130   4.002   3.142   1.617  1.2358  0.5815  2.5199
  161SOL     OW10131   4.216   3.333   2.274 -0.5137  0.1896  0.5570
  161SOL    HW110132   4.138   3.271   2.273 -0.7801  0.5090  1.4433
  161SOL    HW210133   4.254   3.340   2.182  0.8828 -3.0057  0.8023
  162SOL     OW10134   3.235   2.082   1.145  0.4342  0.3707  0.4405
  162SOL    HW110135   3.308   2.091   1.211  0.8606  1.8861 -0.2255
  162SOL    HW210136   3.227   2.166   1.091 -1.9583  0.3526  0.6751
  163SOL     OW10137   4.505   3.640   1.654 -0.1905  0.0612  0.0480
  163SOL    HW110138   4.450   3.698   1.594 -3.0074 -0.9235  1.6076
  163SOL    HW210139   4.543   3.695   1.728 -0.0229  0.5222 -0.3751
  164SOL     OW10140   2.645   1.385   0.150 -0.0772 -0.0315  0.1990
  164SOL    HW110141   2.674   1.476   0.178  0.9253 -0.7407  1.5218
  164SOL    HW210142   2.676   1.317   0.217 -1.9078 -1.2103 -0.0931
  165SOL     OW10143   2.802   1.567   1.068  0.5850 -0.2086 -0.6952
  165SOL    HW110144   2.740   1.563   1.146  0.7917  1.7001 -0.4117
  165SOL    HW210145   2.761   1.517   0.991 -1.7459  1.7973 -0.8109
  166SOL     OW10146   3.442   2.289   0.241  0.1288  0.1899  0.1557
  166SOL    HW110147   3.445   2.253   0.335 -0.6722 -0.3932 -0.0321
  166SOL    HW210148   3.417   2.385   0.243  0.4661  0.2723  0.5615
  167SOL     OW10149   3.812   2.337   1.861  0.1063  0.4967 -0.4860
  167SOL    HW110150   3.867   2.279   1.800 -0.4923  1.0239 -1.5559
  167SOL    HW210151   3.824   2.433   1.834  0.7035  0.8340  0.9578
  168SOL     OW10152   3.822   4.315   1.143 -0.2047 -0.3027  0.0783
  168SOL    HW110153   3.810   4.402   1.096 -0.9174 -0.5211 -0.1491
  168SOL    HW210154   3.847   4.244   1.077  1.7722  0.0237  0.4676
  169SOL     OW10155   2.512   2.696   1.469 -0.1196  0.0840 -0.5493
  169SOL    HW110156   2.451   2.616   1.465  0.8210 -0.6548 -0.2770
  169SOL    HW210157   2.506   2.746   1.383  0.1263 -0.9084 -1.1503
  170SOL     OW10158   3.677   2.962   0.033  0.4367  0.3383  0.1252
  170SOL    HW110159   3.659   3.004   0.122  0.2299 -2.5037  1.4936
  170SOL    HW210160   3.764   2.996  -0.004  1.1286  0.6489  1.9940
  171SOL     OW10161   3.483   3.866   0.591  0.2998 -0.4859  0.7437
  171SOL    HW110162   3.395   3.819   0.591  0.6176 -1.0901  1.0630
  171SOL    HW210163   3.471   3.959   0.558 -0.5440 -0.4081  1.2616
  172SOL     OW10164   3.587   0.724   0.401  0.0854 -0.5830  0.3150
  172SOL    HW110165   3.576   0.823   0.392  0.5678 -0.5536  0.0299
  172SOL    HW210166   3.540   0.679   0.325  0.9861 -0.5086 -0.2913
  173SOL     OW10167   3.671  10.231   1.062  0.1080 -0.5071  0.0910
  173SOL    HW110168   3.694  10.140   1.028  1.8488 -0.2733  0.5900
  173SOL    HW210169   3.599  10.271   1.005  0.9471 -1.2662 -1.5356
  174SOL     OW10170   3.405   4.215   1.977  0.0597 -0.3389  0.4133
  174SOL    HW110171   3.386   4.221   2.075 -1.0095 -0.3320  0.2089
  174SOL    HW210172   3.413   4.119   1.950  0.2118 -0.3450  0.4799
  175SOL     OW10173   3.634   1.992   0.630  0.4039 -0.1845  0.5865
  175SOL    HW110174   3.537   2.003   0.652 -0.3581 -1.0479 -2.1385
  175SOL    HW210175   3.647   2.001   0.532  2.8747 -1.5576  0.7498
  176SOL     OW10176   3.316   2.246   1.836  0.7683  0.4068 -0.2650
  176SOL    HW110177   3.305   2.293   1.749  0.5706  1.7485  0.4632
  176SOL    HW210178   3.304   2.311   1.911 -0.8606 -1.0792  0.8052
  177SOL     OW10179   3.314   4.558   1.755  0.0453 -0.2295  0.3257
  177SOL    HW110180   3.247   4.585   1.685  2.4546  1.5552 -1.3930
  177SOL    HW210181   3.332   4.636   1.815  0.4317 -0.7700  0.9157
  178SOL     OW10182   3.501   2.024   1.871 -0.3704  0.3978  0.5030
  178SOL    HW110183   3.564   2.083   1.923 -0.6013  0.8581  0.2562
  178SOL    HW210184   3.413   2.069   1.862 -0.7515 -0.2675  0.8781
  179SOL     OW10185   4.469   2.588   0.901  0.0727  0.1485 -0.3289
  179SOL    HW110186   4.490   2.606   0.996 -1.0297  1.9500 -0.4113
  179SOL    HW210187   4.478   2.490   0.883  0.9515 -0.1106  1.4373
  180SOL     OW10188   3.450   1.782   1.218 -0.5255 -0.1325  0.3173
  180SOL    HW110189   3.402   1.866   1.243  3.1437  2.1080  0.2519
  180SOL    HW210190   3.476   1.732   1.301 -0.4889  0.1500  0.4773
  181SOL     OW10191   2.838   2.787   2.043 -0.6799  0.2112 -0.0749
  181SOL    HW110192   2.778   2.845   1.987  1.1448  1.3998 -0.8291
  181SOL    HW210193   2.906   2.744   1.984 -0.1072 -0.2736  0.9393
  182SOL     OW10194   2.938   2.428   1.674 -0.2972  0.7808  0.2534
  182SOL    HW110195   2.966   2.358   1.740 -0.4288  0.5152  0.0252
  182SOL    HW210196   2.911   2.511   1.724 -0.5254  0.5373  0.5425
  183SOL     OW10197   2.879  10.202   1.281 -0.4047  0.0611  0.3172
  183SOL    HW110198   2.977  10.183   1.281 -0.7909 -2.0765  0.7267
  183SOL    HW210199   2.851  10.236   1.371  0.0041  0.9151  0.1202
  184SOL     OW10200   3.391  10.067   0.815 -0.1389 -0.2304  0.0551
  184SOL    HW110201   3.312  10.073   0.753 -0.6662  0.6092  0.8034
  184SOL    HW210202   3.440   9.982   0.797 -1.7865 -1.2465  0.2499
  185SOL     OW10203   2.878   3.871   0.385  0.6739  0.0494  0.2142
  185SOL    HW110204   2.910   3.792   0.331  0.0423  0.4682 -0.7791
  185SOL    HW210205   2.899   3.955   0.336 -2.3538  0.3234 -0.7048
  186SOL     OW10206   4.003   4.573   0.167 -0.0489  0.4043 -0.1189
  186SOL    HW110207   4.014   4.670   0.147  1.6629  0.3700  0.5129
  186SOL    HW210208   3.948   4.562   0.250 -1.6926  0.7627 -1.1483
  187SOL     OW10209   3.622   2.251   2.660 -0.7375  0.3468  0.4674
  187SOL    HW110210   3.696   2.310   2.626 -1.3909  0.6704 -0.4026
  187SOL    HW210211   3.616   2.260   2.760  0.3256  0.3998  0.5394
  188SOL     OW10212   2.953   0.477   0.591  0.1038 -0.2603 -0.4876
  188SOL    HW110213   2.974   0.440   0.501 -0.3702  0.1942 -0.7857
  188SOL    HW210214   2.855   0.467   0.609  0.3543 -1.2758  0.3995
  189SOL     OW10215   2.983   2.718   0.982 -0.6399 -0.2024  0.3144
  189SOL    HW110216   3.037   2.679   0.908  1.7197  0.7176  1.5038
  189SOL    HW210217   2.959   2.813   0.959 -0.9956 -0.3268  0.1722
  190SOL     OW10218   3.459   1.520   2.407  0.0969 -0.3520 -0.1181
  190SOL    HW110219   3.458   1.563   2.317 -0.0945  1.4203  0.6995
  190SOL    HW210220   3.370   1.478   2.425 -0.3032  0.4337 -0.2310
  191SOL     OW10221   4.294   3.732   0.207 -0.1652  0.1904 -0.6827
  191SOL    HW110222   4.261   3.638   0.213  1.1658 -0.3996 -2.1623
  191SOL    HW210223   4.217   3.793   0.186 -1.0894 -0.5180  0.6239
  192SOL     OW10224   3.231   1.072   1.615  0.0220  0.2025  0.6127
  192SOL    HW110225   3.303   1.011   1.580 -0.1858  0.4030 -0.1623
  192SOL    HW210226   3.213   1.050   1.711  0.5781 -0.3624  0.5919
  193SOL     OW10227   3.911   1.544   2.184  0.3519 -0.4810  0.1321
  193SOL    HW110228   3.870   1.585   2.265 -2.0892  0.2572 -1.4369
  193SOL    HW210229   3.844   1.487   2.137  1.3617  0.0658 -2.0396
  194SOL     OW10230   4.291   3.447   1.416  0.9186  0.0956  0.0609
  194SOL    HW110231   4.257   3.413   1.328  1.8148 -1.3784  0.2630
  194SOL    HW210232   4.230   3.416   1.489  0.5818  0.7030  0.0443
  195SOL     OW10233   3.689   3.544   2.569  0.3292  0.3642  0.4097
  195SOL    HW110234   3.642   3.631   2.583  1.3743  1.2070 -1.1633
  195SOL    HW210235   3.677   3.514   2.475  2.3708  0.2993  0.1291
  196SOL     OW10236   2.867   2.928   0.842  0.0964 -0.2510  0.3542
  196SOL    HW110237   2.783   2.976   0.814  0.7293  0.5943 -0.1120
  196SOL    HW210238   2.946   2.986   0.825  0.9959 -1.9299 -1.3451
  197SOL     OW10239   2.656   3.575   1.609  0.2333  0.0603  0.5846
  197SOL    HW110240   2.556   3.575   1.604  0.2045 -2.3833  0.6591
  197SOL    HW210241   2.692   3.647   1.550 -1.5767  1.3139  0.9528
  198SOL     OW10242   4.145   1.417   0.895 -0.1616 -0.1249 -0.2169
  198SOL    HW110243   4.131   1.340   0.957 -0.3003 -0.4878 -0.7003
  198SOL    HW210244   4.083   1.408   0.817  0.7009 -0.1774 -0.8884
  199SOL     OW10245   3.662   2.603   1.322 -0.9049  0.2039 -0.3755
  199SOL    HW110246   3.685   2.694   1.356 -2.5296  0.7293 -0.6380
  199SOL    HW210247   3.662   2.538   1.399  2.0343  0.0152 -0.4554
  200SOL     OW10248   2.653   0.357   0.246 -0.0078 -0.4854 -0.3959
  200SOL    HW110249   2.632   0.379   0.151  0.1583  0.5942 -0.1894
  200SOL    HW210250   2.650   0.258   0.258  2.2568 -0.7833 -2.0549
  201SOL     OW10251   3.886   1.859   0.670  0.1565  0.1809 -0.1052
  201SOL    HW110252   3.967   1.915   0.687 -0.3980  0.0315  3.3875
  201SOL    HW210253   3.806   1.918   0.660 -0.1997  0.1231  2.1813
  202SOL     OW10254   4.447   2.721   0.681 -0.0056  0.2421 -0.3426
  202SOL    HW110255   4.456   2.680   0.773  0.5354  0.2901 -0.3693
  202SOL    HW210256   4.431   2.819   0.690 -1.6999 -0.0248 -0.2702
  203SOL     OW10257   2.776   1.273   2.186  0.0019  0.0174 -0.1866
  203SOL    HW110258   2.782   1.372   2.170 -1.5327  0.1066 -0.2942
  203SOL    HW210259   2.800   1.224   2.102 -1.4650  0.3488 -0.8088
  204SOL     OW10260   2.883   2.981   2.466  0.1603 -0.3257 -0.1047
  204SOL    HW110261   2.869   3.061   2.406 -0.7872  0.2696  0.8853
  204SOL    HW210262   2.940   3.008   2.543 -0.3090 -0.5514  0.3242
  205SOL     OW10263   3.310   0.906   0.274  0.1328  0.4272 -0.2678
  205SOL    HW110264   3.220   0.890   0.233  0.4270  1.1961 -1.2134
  205SOL    HW210265   3.352   0.986   0.233  1.9150 -0.8295 -0.9378
  206SOL     OW10266   3.277   4.293   1.721 -0.4527 -0.0289  0.3404
  206SOL    HW110267   3.300   4.390   1.728  0.9360 -0.4075  1.0138
  206SOL    HW210268   3.312   4.244   1.800 -1.0065 -1.1238 -0.0755
  207SOL     OW10269   2.925   0.980   0.837 -0.0099  0.5055  0.1848
  207SOL    HW110270   2.970   0.979   0.748  0.3078  2.8602  0.2853
  207SOL    HW210271   2.964   0.910   0.895 -1.8851 -2.7378 -2.3100
  208SOL     OW10272   2.704   3.220   2.720 -0.3826  0.1173  0.1035
  208SOL    HW110273   2.789   3.239   2.672 -0.0277  1.7772  1.3438
  208SOL    HW210274   2.720   3.152   2.792 -0.0959  0.4547  0.3584
  209SOL     OW10275   3.784   4.421   1.403 -0.2469 -0.4020  0.5680
  209SOL    HW110276   3.701   4.383   1.445  0.0381  0.0770  1.6012
  209SOL    HW210277   3.781   4.407   1.304 -1.5621 -0.3941  0.5927
  210SOL     OW10278   3.163   0.991   1.000  0.0751 -0.0607 -0.6973
  210SOL    HW110279   3.144   1.019   1.094 -0.5593 -1.2002 -0.4806
  210SOL    HW210280   3.125   0.900   0.984 -0.2109  0.3097 -2.1911
  211SOL     OW10281   3.625   1.197   2.319 -0.4648 -0.2047 -0.2732
  211SOL    HW110282   3.572   1.236   2.394  1.6535 -0.3581  1.3151
  211SOL    HW210283   3.575   1.119   2.281 -2.8862  1.6038 -0.9494
  212SOL     OW10284   3.544   9.772   1.530 -0.2045  0.2986  0.5559
  212SOL    HW110285   3.554   9.702   1.460  2.2833 -0.8754  2.0035
  212SOL    HW210286   3.450   9.805   1.531 -0.7838 -1.1519 -1.9040
  213SOL     OW10287   2.511   2.303   1.841  0.1917  0.2924  0.2233
  213SOL    HW110288   2.451   2.380   1.860  0.2306  0.2150  0.6789
  213SOL    HW210289   2.575   2.327   1.768  0.2899  0.7334  0.4544
  214SOL     OW10290   3.935   4.660   2.157 -0.3276 -0.0955  0.5106
  214SOL    HW110291   3.878   4.690   2.234 -0.3245 -0.3335  0.6077
  214SOL    HW210292   4.030   4.656   2.186 -0.2467  0.4234  0.3108
  215SOL     OW10293   3.273   3.738   0.711  0.1747  0.2946 -0.6950
  215SOL    HW110294   3.316   3.715   0.799  2.2315 -1.9940 -2.2326
  215SOL    HW210295   3.174   3.745   0.724  0.5674  1.3970  2.0702
  216SOL     OW10296   2.706   1.052   2.349  0.2284  0.3031  0.3695
  216SOL    HW110297   2.732   1.129   2.290  0.6792 -0.2169 -0.1124
  216SOL    HW210298   2.665   1.087   2.433 -0.1184  1.0593 -0.1103
  217SOL     OW10299   4.899   3.791   1.034 -0.4223  0.3019  0.3221
  217SOL    HW110300   4.981   3.846   1.050 -0.1760  0.1461 -0.3774
  217SOL    HW210301   4.835   3.804   1.110 -0.0026  0.8801  0.5852
  218SOL     OW10302   3.012   0.490   1.861 -0.4895 -0.1060  0.4952
  218SOL    HW110303   3.031   0.392   1.866  0.2623  0.1264  2.9955
  218SOL    HW210304   3.010   0.518   1.766 -1.3926 -2.6726 -0.2885
  219SOL     OW10305   4.049   1.281   0.616  0.5883  0.4645  0.1831
  219SOL    HW110306   3.980   1.283   0.544  0.4134  0.0574  0.3386
  219SOL    HW210307   4.020   1.219   0.689  2.5580 -2.1819 -1.2060
  220SOL     OW10308   3.739   1.932   1.438  0.0975  0.4904 -0.3155
  220SOL    HW110309   3.736   1.859   1.369 -0.0884  2.0962 -2.0651
  220SOL    HW210310   3.692   1.902   1.521 -1.2352 -0.8708 -1.5237
  221SOL     OW10311   4.408   3.515   2.318  0.0201  0.2337  0.4156
  221SOL    HW110312   4.344   3.439   2.333 -0.4222  0.4883 -0.1457
  221SOL    HW210313   4.360   3.589   2.270  0.5097  0.7767  0.7563
  222SOL     OW10314   3.190   9.836   1.677  0.0415  0.0280 -0.7092
  222SOL    HW110315   3.100   9.864   1.713 -0.0578 -0.1723 -0.7987
  222SOL    HW210316   3.243   9.917   1.653  0.4061  0.1892  0.6154
  223SOL     OW10317   2.751   2.757   1.167 -0.2334  0.0501  0.0201
  223SOL    HW110318   2.743   2.658   1.179 -1.8895  0.1774  0.1633
  223SOL    HW210319   2.835   2.779   1.119  0.0989 -1.4381 -0.0864
  224SOL     OW10320   3.225   1.394   1.994 -0.4243  0.3932  0.0805
  224SOL    HW110321   3.161   1.457   1.950  0.4363  1.2292  0.0171
  224SOL    HW210322   3.184   1.359   2.079 -0.6864  1.4701  0.4075
  225SOL     OW10323   2.784   1.866   2.629 -0.0264  0.1517  0.5428
  225SOL    HW110324   2.724   1.792   2.598  0.2959  0.3108 -0.4871
  225SOL    HW210325   2.879   1.835   2.625  0.0119  0.1677  1.4034
  226SOL     OW10326   3.869   3.718   0.733 -0.5602  0.0176  0.3527
  226SOL    HW110327   3.784   3.757   0.769 -0.9798 -0.4553 -0.1152
  226SOL    HW210328   3.913   3.663   0.803 -0.1959  0.9615  0.8727
  227SOL     OW10329   4.371   3.010   1.566  0.2944 -0.1885 -0.1668
  227SOL    HW110330   4.409   3.036   1.477  2.0132 -0.5451  0.4391
  227SOL    HW210331   4.295   2.946   1.553  1.0616 -0.8647 -1.3427
  228SOL     OW10332   2.901   2.871   1.421  0.0569 -0.8388 -0.1293
  228SOL    HW110333   2.830   2.878   1.351 -1.7157  3.2702  1.9630
  228SOL    HW210334   2.973   2.938   1.402 -0.5038  0.4068  1.9743
  229SOL     OW10335   3.204  10.085   1.005  0.4511 -0.0030  0.0419
  229SOL    HW110336   3.144  10.162   0.985  1.2074  1.0790  1.7913
  229SOL    HW210337   3.279  10.083   0.939  1.4062  1.8471  1.0312
  230SOL     OW10338   3.191   2.963   0.468  0.7643  0.0590 -0.5320
  230SOL    HW110339   3.184   2.903   0.548 -1.3958  1.0328  0.0460
  230SOL    HW210340   3.126   2.932   0.398  1.1377  0.4858 -1.0706
  231SOL     OW10341   4.083   1.692   1.966 -0.2835 -0.0189  0.5865
  231SOL    HW110342   3.995   1.681   2.012 -0.0458 -0.6413  0.8993
  231SOL    HW210343   4.085   1.638   1.883 -0.6896  1.0588 -0.1397
  232SOL     OW10344   4.920   4.328   1.649  0.2531  0.0916  0.0908
  232SOL    HW110345   4.937   4.417   1.607 -0.0293  0.2152  0.2383
  232SOL    HW210346   4.840   4.286   1.607  0.1584  0.0756  0.2849
  233SOL     OW10347   2.594   2.314   1.252  0.3945 -0.4956 -0.1916
  233SOL    HW110348   2.685   2.344   1.280  0.6129 -0.6789 -0.6986
  233SOL    HW210349   2.602   2.248   1.178 -0.1587 -0.4171 -0.3237
  234SOL     OW10350   2.673   1.416   1.860  0.2105 -0.3466  0.2240
  234SOL    HW110351   2.750   1.371   1.813  0.3055  0.3751 -0.3168
  234SOL    HW210352   2.664   1.510   1.827 -1.9012 -0.9027 -0.8723
  235SOL     OW10353   2.716  10.122   1.051  0.1638 -1.1733 -0.5879
  235SOL    HW110354   2.680  10.029   1.064  3.4798 -2.1686  2.3136
  235SOL    HW210355   2.762  10.151   1.134 -0.0584  2.8098 -1.7675
  236SOL     OW10356   2.810   0.676   2.005  0.1065 -0.0501 -0.7042
  236SOL    HW110357   2.736   0.611   2.019  1.1017 -1.1047 -0.3435
  236SOL    HW210358   2.887   0.631   1.960  0.9379  0.7832 -0.1355
  237SOL     OW10359   4.691   3.536   1.394 -0.2950 -0.2003 -0.2331
  237SOL    HW110360   4.650   3.542   1.485 -1.3825  0.1385 -0.7432
  237SOL    HW210361   4.783   3.497   1.402  0.4420  1.7491  1.2569
  238SOL     OW10362   2.807   1.851   1.028 -0.1472  0.3858  0.0979
  238SOL    HW110363   2.791   1.756   1.052 -0.4579  0.7911  1.5686
  238SOL    HW210364   2.734   1.883   0.967 -2.0336  0.6896  2.4534
  239SOL     OW10365   2.976   2.536   0.230 -0.0389 -0.3701 -0.8175
  239SOL    HW110366   2.923   2.517   0.148 -1.3567  1.2266 -0.3623
  239SOL    HW210367   2.915   2.575   0.300  2.0803  3.3092 -0.9346
  240SOL     OW10368   4.283   2.800   0.949  0.0109  0.2160  0.5939
  240SOL    HW110369   4.330   2.715   0.926 -0.7961 -0.0800  0.0206
  240SOL    HW210370   4.338   2.878   0.917 -0.9840 -0.1851 -2.1777
  241SOL     OW10371   3.192   9.889   0.351 -0.9215  0.2152  0.0262
  241SOL    HW110372   3.173   9.798   0.314 -1.2506  0.6073 -0.7952
  241SOL    HW210373   3.214   9.951   0.275 -1.8193  1.0938  0.4731
  242SOL     OW10374   2.885   1.727   0.733  0.1954  0.1671 -0.5067
  242SOL    HW110375   2.879   1.631   0.760 -0.2180  0.6791  1.2890
  242SOL    HW210376   2.932   1.779   0.804  0.4811  1.2953 -1.4949
  243SOL     OW10377   3.402   1.307   0.543  0.0969 -0.8191 -0.5571
  243SOL    HW110378   3.325   1.354   0.587 -0.1583 -2.4133  0.7295
  243SOL    HW210379   3.488   1.341   0.582 -0.0846 -1.3274  0.3112
  244SOL     OW10380   4.010   0.544   1.280 -0.6908  0.1185  0.2084
  244SOL    HW110381   3.923   0.533   1.232 -1.1411  1.3832  0.7188
  244SOL    HW210382   4.082   0.498   1.229 -2.2745 -4.3929  1.7503
  245SOL     OW10383   2.876   1.864   1.759  0.1685  0.2018  0.1256
  245SOL    HW110384   2.829   1.950   1.744  0.2316 -0.0686 -1.7536
  245SOL    HW210385   2.884   1.847   1.857 -0.3211  2.0546  0.5074
  246SOL     OW10386   3.124   0.724   2.533  0.4675 -0.5087  0.0664
  246SOL    HW110387   3.050   0.695   2.471 -1.1707 -0.0190  1.7548
  246SOL    HW210388   3.154   0.646   2.588 -0.0242 -0.3067  0.6252
  247SOL     OW10389   3.034  10.321   0.825 -0.3375 -0.2186 -0.4366
  247SOL    HW110390   2.935  10.311   0.840 -0.3062 -1.8799 -1.2368
  247SOL    HW210391   3.050  10.383   0.748 -0.6972  1.2001  0.5966
  248SOL     OW10392   3.780   0.518   1.115 -0.6226 -0.5572 -0.4305
  248SOL    HW110393   3.743   0.425   1.110 -2.6331  0.1473  1.1409
  248SOL    HW210394   3.745   0.572   1.039 -1.0884 -0.5134 -0.1870
  249SOL     OW10395   2.960   9.899   1.822  0.6625  0.1006 -0.2553
  249SOL    HW110396   2.898   9.966   1.783 -0.8481 -1.0533  0.1206
  249SOL    HW210397   2.993   9.932   1.911  1.2820  1.1005 -0.8454
  250SOL     OW10398   3.030   0.848   1.656  0.0349  0.4082 -0.3403
  250SOL    HW110399   3.003   0.887   1.745 -1.2634 -2.1416  0.4377
  250SOL    HW210400   3.065   0.921   1.597 -0.7949  2.4626  1.6171
  251SOL     OW10401   3.257   3.434   0.374 -0.2760  0.0351  0.3555
  251SOL    HW110402   3.283   3.457   0.280 -0.5185  1.9302  0.7309
  251SOL    HW210403   3.323   3.370   0.412  1.2188  1.1867 -0.2733
  252SOL     OW10404   3.580   4.364   0.258  0.0886  0.1567 -0.3542
  252SOL    HW110405   3.615   4.458   0.254  0.7007 -0.0844 -0.7599
  252SOL    HW210406   3.481   4.366   0.269  0.2312  0.8634  1.0144
  253SOL     OW10407   3.037   2.691   1.876  0.0136  0.3475 -0.0907
  253SOL    HW110408   3.024   2.722   1.781 -0.3363  0.6502  0.0552
  253SOL    HW210409   3.110   2.744   1.918 -0.1736  0.5654 -0.0343
  254SOL     OW10410   4.170   1.649   1.134  0.1749 -0.0592  0.7290
  254SOL    HW110411   4.159   1.610   1.042  0.9132 -0.2113  0.7039
  254SOL    HW210412   4.091   1.706   1.156  0.0922  0.1433 -0.0885
  255SOL     OW10413   3.110   1.691   0.543 -0.1863  0.9488 -0.2194
  255SOL    HW110414   3.037   1.719   0.605  1.9854 -0.8912  3.4073
  255SOL    HW210415   3.140   1.599   0.567  2.3862  1.1225 -2.4966
  256SOL     OW10416   3.222   1.883   0.171 -0.0359 -0.4071  0.1455
  256SOL    HW110417   3.300   1.874   0.110 -0.8171 -2.0716 -0.6522
  256SOL    HW210418   3.250   1.926   0.257  1.7019 -0.8363 -0.2017
  257SOL     OW10419   3.243   1.365   0.882 -0.0144 -0.4474  0.2310
  257SOL    HW110420   3.276   1.455   0.910  0.7956 -0.8313  0.5134
  257SOL    HW210421   3.162   1.341   0.936 -0.9532  0.6287 -0.6806
  258SOL     OW10422   2.645   3.292   0.473 -0.0433 -0.0249 -0.4841
  258SOL    HW110423   2.727   3.235   0.478  0.6858  1.1602  1.7965
  258SOL    HW210424   2.642   3.337   0.384  2.6389  1.0875 -0.0663
  259SOL     OW10425   3.716   2.868   1.364  0.4491 -0.1357  0.0029
  259SOL    HW110426   3.812   2.890   1.347  0.2984  0.8475  0.3483
  259SOL    HW210427   3.700   2.863   1.463 -0.2332  1.5932  0.0128
  260SOL     OW10428   3.771   1.106   2.706  0.1797 -0.4504  0.5520
  260SOL    HW110429   3.736   1.029   2.651 -0.2024 -0.0859  0.2788
  260SOL    HW210430   3.847   1.149   2.657 -1.9704  1.6490 -1.0729
  261SOL     OW10431   3.765   2.751   0.580  0.4061  0.2802  0.0832
  261SOL    HW110432   3.771   2.745   0.480 -0.4032  1.0699 -0.0182
  261SOL    HW210433   3.782   2.660   0.620 -2.0732 -0.6643 -0.9194
  262SOL     OW10434   3.179   1.426   0.615 -0.9373  0.5112 -0.0432
  262SOL    HW110435   3.208   1.414   0.709  1.2390  0.8518 -0.6527
  262SOL    HW210436   3.098   1.369   0.598  1.1593 -2.8828  0.8456
  263SOL     OW10437   3.164   2.988   1.972 -0.8872  0.2904 -0.0402
  263SOL    HW110438   3.199   3.055   2.038  0.2123  0.0951 -0.4235
  263SOL    HW210439   3.224   2.908   1.970 -0.2935  0.7654 -2.0835
  264SOL     OW10440   3.257   0.648   0.418 -0.0154  0.0176  0.4230
  264SOL    HW110441   3.260   0.571   0.354  0.3687 -0.3371  0.8685
  264SOL    HW210442   3.298   0.729   0.375 -0.4385 -0.0117 -0.0526
  265SOL     OW10443   3.236   2.204   2.312 -0.5103 -0.2936 -0.5208
  265SOL    HW110444   3.200   2.291   2.277 -1.0252 -0.1459  0.3535
  265SOL    HW210445   3.205   2.191   2.407  2.0837  0.0341  0.4157
  266SOL     OW10446   3.934   3.227   2.237 -0.2163  0.3973  0.5794
  266SOL    HW110447   3.849   3.190   2.275 -0.9265  1.1748 -0.2316
  266SOL    HW210448   3.953   3.185   2.148  1.1628 -1.0319  1.5282
  267SOL     OW10449   2.862   3.956   1.321  0.1666  0.2068  0.0393
  267SOL    HW110450   2.882   3.916   1.232  0.8878 -2.6591  1.4484
  267SOL    HW210451   2.917   4.040   1.332  1.2777 -0.2818 -1.5612
  268SOL     OW10452   3.703   2.821   1.642 -0.1147 -1.1124 -0.0500
  268SOL    HW110453   3.632   2.751   1.647 -0.7397 -0.4045  1.1838
  268SOL    HW210454   3.682   2.894   1.707  0.5624  0.1924 -1.2991
  269SOL     OW10455   3.118   2.400   1.455 -0.1836  0.5477  0.1798
  269SOL    HW110456   3.084   2.389   1.362  1.0515  1.0147 -0.3323
  269SOL    HW210457   3.041   2.403   1.519 -1.0356  0.3296 -0.8324
  270SOL     OW10458   3.211   3.534   1.625  0.3548 -0.4799  0.2319
  270SOL    HW110459   3.206   3.633   1.636  1.3258 -0.4934  0.8606
  270SOL    HW210460   3.136   3.491   1.675 -0.4190 -0.0386 -0.5274
  271SOL     OW10461   3.066   2.407   2.272 -0.1827 -0.1888 -0.0882
  271SOL    HW110462   3.069   2.474   2.346  0.2072 -0.4753  0.1526
  271SOL    HW210463   3.061   2.456   2.184 -1.8484  0.1370  0.1739
  272SOL     OW10464   3.169   0.674   1.981 -0.0731  0.4068  0.0613
  272SOL    HW110465   3.121   0.596   1.941 -0.8955  0.4375  0.9659
  272SOL    HW210466   3.240   0.641   2.044  0.4320  0.3769 -0.5173
  273SOL     OW10467   3.250   1.101   0.468 -0.3118  0.3415 -0.3430
  273SOL    HW110468   3.308   1.022   0.444 -1.7401 -0.8429  0.0031
  273SOL    HW210469   3.308   1.178   0.495  1.1511 -0.2235 -1.7620
  274SOL     OW10470   4.137   3.410   1.165  0.3590 -0.5095 -0.0597
  274SOL    HW110471   4.126   3.380   1.070  1.8713 -1.0285 -0.0877
  274SOL    HW210472   4.088   3.496   1.178 -1.9207 -1.6811 -0.6513
  275SOL     OW10473   2.834   9.987   0.806  0.5378 -0.3997 -0.7052
  275SOL    HW110474   2.827  10.025   0.898 -0.4447 -0.2388 -0.8437
  275SOL    HW210475   2.833  10.062   0.739  0.6061 -0.5536 -0.8783
  276SOL     OW10476   3.615  10.065   1.766 -0.1414 -0.2038  0.1021
  276SOL    HW110477   3.675  10.073   1.686  0.3930  1.1747  0.6386
  276SOL    HW210478   3.631   9.977   1.811  0.7488 -0.2684 -0.3386
  277SOL     OW10479   2.652   1.635   2.522 -0.2240  0.4336 -0.0472
  277SOL    HW110480   2.698   1.552   2.492 -0.1956  0.3642  0.1839
  277SOL    HW210481   2.562   1.613   2.559 -0.1575  0.4865  0.1505
  278SOL     OW10482   2.902   3.472   0.158  0.2442  0.0023 -0.2257
  278SOL    HW110483   2.803   3.470   0.176  0.1656  2.4025 -0.2447
  278SOL    HW210484   2.926   3.399   0.094 -1.3317 -1.3018  0.6341
  279SOL     OW10485   2.704   9.800   0.616 -0.1043  0.1720 -0.5482
  279SOL    HW110486   2.659   9.730   0.673  1.4630 -2.0661 -2.0004
  279SOL    HW210487   2.743   9.870   0.675 -0.8761 -0.6547  0.9895
  280SOL     OW10488   2.578   3.074   2.528  0.4029  0.5330  0.5577
  280SOL    HW110489   2.636   3.136   2.581 -0.4795  0.5524  1.5135
  280SOL    HW210490   2.517   3.023   2.590  0.1243 -0.2485 -0.3392
  281SOL     OW10491   3.845   0.568   2.722  0.3605 -0.4294 -0.3144
  281SOL    HW110492   3.791   0.595   2.642 -0.0930 -0.3594  0.0164
  281SOL    HW210493   3.851   0.644   2.786  0.8016 -0.4569 -0.3195
  282SOL     OW10494   4.080   4.350   0.514 -0.2236  0.4145 -0.0725
  282SOL    HW110495   4.166   4.357   0.564  0.6258  0.0009 -1.4376
  282SOL    HW210496   4.064   4.255   0.486  1.2591  1.1641 -3.8306
  283SOL     OW10497   4.107   3.262   0.946  0.4793  0.4843  0.8458
  283SOL    HW110498   4.007   3.259   0.951  0.4293  1.3116  0.4921
  283SOL    HW210499   4.137   3.224   0.858  0.2784  3.1414 -0.4209
  284SOL     OW10500   3.824   9.864   1.489  0.0537  0.1475  0.0121
  284SOL    HW110501   3.841   9.811   1.406 -0.5894 -1.3798  0.8303
  284SOL    HW210502   3.725   9.871   1.505  0.1700  0.4823  0.6260
  285SOL     OW10503   3.558   1.638   1.460 -0.7129 -0.3472 -0.0404
  285SOL    HW110504   3.604   1.572   1.400 -0.5545 -0.4278  0.1698
  285SOL    HW210505   3.505   1.588   1.529 -1.3830 -0.2591 -0.4809
  286SOL     OW10506   2.868   3.900   1.061  0.0748 -0.0183  0.8449
  286SOL    HW110507   2.831   3.821   1.011  0.2353  0.4572 -0.0193
  286SOL    HW210508   2.936   3.946   1.005 -0.5183  1.1493  1.0809
  287SOL     OW10509   4.165   3.372   1.997  0.0113  0.0012  0.7045
  287SOL    HW110510   4.122   3.282   2.001 -1.3181  0.6571  1.6946
  287SOL    HW210511   4.256   3.365   1.956 -0.5388 -1.6078 -0.2329
  288SOL     OW10512   2.852   3.727   2.298 -0.3274  0.3396  0.4449
  288SOL    HW110513   2.823   3.814   2.337 -0.0788  0.6008  0.0549
  288SOL    HW210514   2.919   3.685   2.357  0.0876  0.7596  0.2776
  289SOL     OW10515   4.794   4.388   2.117  0.4073 -0.2193 -0.0250
  289SOL    HW110516   4.815   4.475   2.071  1.8284 -0.7233 -0.3527
  289SOL    HW210517   4.820   4.312   2.057 -0.2662 -0.8812  0.5112
  290SOL     OW10518   3.046   3.685   2.486  0.0773  0.6295  0.4289
  290SOL    HW110519   3.068   3.679   2.583  2.2860 -0.4594 -0.1181
  290SOL    HW210520   3.022   3.595   2.451  0.3204  0.8409 -0.2923
  291SOL     OW10521   3.041   1.627   1.217 -0.0941  0.4712 -0.0847
  291SOL    HW110522   2.958   1.599   1.168  0.0012  1.1745 -0.6571
  291SOL    HW210523   3.089   1.696   1.163 -0.0613  1.3590  1.0890
  292SOL     OW10524   2.979   3.402   0.414 -0.2053  0.4992 -0.4043
  292SOL    HW110525   3.078   3.388   0.420 -0.2711  0.5675  1.1284
  292SOL    HW210526   2.954   3.429   0.321  1.3476  1.6009 -0.5082
  293SOL     OW10527   2.625  10.093   0.235  0.5001  0.1965 -0.1272
  293SOL    HW110528   2.589  10.058   0.149  0.0742 -0.8332  0.4554
  293SOL    HW210529   2.627  10.019   0.303 -0.2824  1.2754  1.0856
  294SOL     OW10530   3.406   1.818   2.019  0.7383 -0.0422 -0.1877
  294SOL    HW110531   3.446   1.728   2.034 -0.7732 -0.7772 -0.4753
  294SOL    HW210532   3.472   1.876   1.972  2.5725 -0.2324  2.0884
  295SOL     OW10533   3.345   0.425   0.217  0.0719 -0.0452  0.6146
  295SOL    HW110534   3.393   0.352   0.266  1.0068  0.7701  0.9332
  295SOL    HW210535   3.408   0.501   0.200  0.0361 -0.6704 -2.6859
  296SOL     OW10536   3.125   2.733   0.640  1.0380 -0.1204  0.0695
  296SOL    HW110537   3.028   2.747   0.657  0.7479 -0.2735 -1.4285
  296SOL    HW210538   3.144   2.635   0.638  1.1475 -0.0949 -0.0943
  297SOL     OW10539   2.780   1.035   0.127 -0.4973  0.5063 -0.3974
  297SOL    HW110540   2.759   1.083   0.042 -1.7310  2.0176  0.7308
  297SOL    HW210541   2.795   0.938   0.108 -0.1590  0.9283 -2.4033
  298SOL     OW10542   3.562   4.409   1.835 -1.0638  0.2821  0.1352
  298SOL    HW110543   3.485   4.353   1.867 -0.9526  0.7412  1.2287
  298SOL    HW210544   3.530   4.471   1.764 -1.9216  1.0965  1.2170
  299SOL     OW10545   3.890   4.532   0.404  0.2665 -0.3448  0.4847
  299SOL    HW110546   3.813   4.493   0.455 -0.5221 -0.0882 -0.5044
  299SOL    HW210547   3.973   4.482   0.427 -0.3732 -1.2953  0.7869
  300SOL     OW10548   2.723   3.501   1.889  0.1785 -0.0926  0.1057
  300SOL    HW110549   2.694   3.537   1.800 -1.4259 -0.6116  0.3876
  300SOL    HW210550   2.774   3.571   1.938 -0.3012  0.7625 -0.5838
  301SOL     OW10551   3.210   0.455   2.673  0.5620 -0.0100 -0.1131
  301SOL    HW110552   3.198   0.370   2.622 -1.7562 -0.2630  0.7895
  301SOL    HW210553   3.234   0.435   2.768  0.1965  0.3404  0.0574
  302SOL     OW10554   3.782   1.874   1.916  0.0750 -0.1481 -0.2475
  302SOL    HW110555   3.747   1.967   1.931 -1.2188 -0.7836  0.7803
  302SOL    HW210556   3.723   1.827   1.851  1.0912 -0.0443 -1.2403
  303SOL     OW10557   3.363   1.811   2.457 -0.7640  0.0485  0.2901
  303SOL    HW110558   3.399   1.719   2.441  0.7779  1.0543 -2.2710
  303SOL    HW210559   3.297   1.835   2.386 -0.0991  1.4584  0.1230
  304SOL     OW10560   3.303   9.508   1.270 -0.4451 -0.2293  0.2701
  304SOL    HW110561   3.298   9.588   1.329  1.0854 -0.9977  1.4683
  304SOL    HW210562   3.235   9.516   1.197  0.5725  2.7870 -0.4182
  305SOL     OW10563   4.072   3.238   1.369 -0.1175 -0.3468  0.1880
  305SOL    HW110564   4.085   3.266   1.464 -0.0101 -0.4431  0.2018
  305SOL    HW210565   4.075   3.318   1.309  1.1619 -0.4439  0.1233
  306SOL     OW10566   4.814   4.210   1.892 -0.6972  0.2297  0.1149
  306SOL    HW110567   4.730   4.243   1.850 -0.2794 -1.2493 -1.9435
  306SOL    HW210568   4.885   4.200   1.822  0.1870 -1.7802  1.2493
  307SOL     OW10569   4.398   2.906   1.257  0.5878  0.7468  0.6095
  307SOL    HW110570   4.333   2.974   1.222  0.2110  0.5624  0.9481
  307SOL    HW210571   4.478   2.953   1.295  0.3547  0.9970  0.7952
  308SOL     OW10572   4.224   1.394   1.282  0.0271 -0.4413 -0.6414
  308SOL    HW110573   4.180   1.317   1.236 -0.5726  0.1395 -1.0530
  308SOL    HW210574   4.241   1.467   1.215  0.6384 -0.2337 -0.2658
  309SOL     OW10575   3.068   1.306   2.668 -0.3337  0.0667  0.0531
  309SOL    HW110576   3.101   1.378   2.729 -0.4296  0.3856 -0.2717
  309SOL    HW210577   2.982   1.334   2.626 -1.4023 -1.0594  1.4422
  310SOL     OW10578   3.556   0.740   1.257 -0.2838 -0.3847 -0.0849
  310SOL    HW110579   3.568   0.705   1.164  2.6191  1.2308 -0.3611
  310SOL    HW210580   3.616   0.819   1.271 -0.9355 -0.3908  3.0755
  311SOL     OW10581   3.357   3.432   1.236 -0.1971  0.2332 -0.2296
  311SOL    HW110582   3.261   3.452   1.252 -1.0580 -2.7522 -1.2954
  311SOL    HW210583   3.387   3.358   1.296  1.1026  0.3094 -0.7475
  312SOL     OW10584   4.309   1.568   2.530 -0.1687  0.4597  0.5926
  312SOL    HW110585   4.337   1.549   2.625 -0.5163 -0.8520  0.4455
  312SOL    HW210586   4.261   1.488   2.493  0.4246  0.7694 -0.8699
  313SOL     OW10587   3.095  10.232   1.834 -0.1000 -0.1718  0.2291
  313SOL    HW110588   3.135  10.168   1.768 -0.4822 -0.1117 -0.0627
  313SOL    HW210589   3.139  10.220   1.923 -0.5062 -1.1609  0.2999
  314SOL     OW10590   3.827   1.303   0.445  0.1064  0.4704 -0.2076
  314SOL    HW110591   3.791   1.341   0.360 -0.4108  0.4045 -0.0206
  314SOL    HW210592   3.799   1.207   0.453 -1.3756  0.9733  0.8927
  315SOL     OW10593   2.865   0.595   2.461 -0.2458  0.2078 -0.0328
  315SOL    HW110594   2.826   0.632   2.545  2.1099  0.6643  0.8869
  315SOL    HW210595   2.828   0.644   2.383 -1.3192  0.7862  0.8249
  316SOL     OW10596   3.933   4.683   1.848 -0.0537 -0.6991 -0.6700
  316SOL    HW110597   3.952   4.680   1.946 -0.1812  3.1835 -0.4576
  316SOL    HW210598   4.009   4.641   1.798  1.7662  0.6231  0.9194
  317SOL     OW10599   3.713  10.281   2.147  0.0203  0.3871  0.6037
  317SOL    HW110600   3.742  10.188   2.170  1.1031  0.2046 -1.3902
  317SOL    HW210601   3.630  10.276   2.092 -1.2387  0.7219  2.4321
  318SOL     OW10602   4.018   3.132   1.942 -0.0119 -0.3257 -0.1651
  318SOL    HW110603   3.991   3.038   1.962 -1.5611  0.4520  1.6185
  318SOL    HW210604   3.970   3.164   1.860 -0.4707 -0.6723 -0.0300
  319SOL     OW10605   3.380   3.353   1.733 -0.5738 -0.0693  0.3197
  319SOL    HW110606   3.316   3.281   1.761 -0.9395  0.3558  0.5821
  319SOL    HW210607   3.333   3.418   1.674 -0.6767  0.8392  1.3843
  320SOL     OW10608   3.089   3.952   2.082  0.2495 -0.3778  0.5303
  320SOL    HW110609   3.081   3.963   2.181  0.1210  0.8191  0.3934
  320SOL    HW210610   3.183   3.972   2.054  0.2849 -0.7146  0.4068
  321SOL     OW10611   3.079   9.876   1.261 -0.5517  0.4634  0.1533
  321SOL    HW110612   3.092   9.818   1.181  3.3165 -0.0966  1.0804
  321SOL    HW210613   3.068   9.971   1.232 -1.9334 -0.0812 -1.1466
  322SOL     OW10614   3.319   2.580   2.274 -0.1532  0.1467  0.2480
  322SOL    HW110615   3.257   2.613   2.346  1.5702 -1.1700  2.3872
  322SOL    HW210616   3.409   2.563   2.313  0.9384 -0.2506 -2.3410
  323SOL     OW10617   3.939   1.916   2.138 -0.2300  0.0266 -0.1226
  323SOL    HW110618   4.032   1.886   2.117 -0.9073 -1.9491 -0.3916
  323SOL    HW210619   3.883   1.911   2.056 -0.9546 -0.2549  0.3877
  324SOL     OW10620   3.751   1.042   0.463  0.1688  0.3113  0.3811
  324SOL    HW110621   3.695   0.997   0.533  0.4372  0.1389  0.4855
  324SOL    HW210622   3.836   0.991   0.451 -0.5227 -0.5451 -1.1448
  325SOL     OW10623   3.961   2.908   1.311 -0.6042 -0.6727  0.1509
  325SOL    HW110624   4.015   2.831   1.277 -0.0825  0.0492 -0.6750
  325SOL    HW210625   3.992   2.993   1.267 -2.5589 -0.2806 -0.5073
  326SOL     OW10626   3.544   2.407   1.794 -0.7529 -0.2866  0.2126
  326SOL    HW110627   3.621   2.406   1.859 -1.8592  1.0963  1.5823
  326SOL    HW210628   3.504   2.316   1.788 -0.4528 -0.4962  1.2656
  327SOL     OW10629   2.841   0.781   0.422 -0.5482  0.2416 -0.1656
  327SOL    HW110630   2.932   0.819   0.409 -0.7874  1.2742  1.0308
  327SOL    HW210631   2.846   0.705   0.487 -0.3792 -0.4028 -0.9339
  328SOL     OW10632   4.432   4.023   2.185 -0.1342 -0.3271 -0.9740
  328SOL    HW110633   4.391   3.941   2.224 -0.0189 -0.2850 -0.7597
  328SOL    HW210634   4.388   4.104   2.224  0.9848 -0.2628  0.1958
  329SOL     OW10635   3.759   1.212   1.317  0.2939  0.9589 -0.6205
  329SOL    HW110636   3.797   1.129   1.357 -0.9585  1.2149  1.1595
  329SOL    HW210637   3.700   1.188   1.239 -0.6896  0.1155  0.3713
  330SOL     OW10638   4.003   4.483   0.953  0.3956  0.1489  0.5592
  330SOL    HW110639   4.091   4.450   0.919  1.1033  0.9149  1.6418
  330SOL    HW210640   4.012   4.510   1.049 -1.2750 -0.7884  1.0096
  331SOL     OW10641   3.095   0.493   1.116 -0.1258  0.4605 -0.1188
  331SOL    HW110642   3.054   0.402   1.125  0.4418  0.3796  1.8122
  331SOL    HW210643   3.034   0.552   1.064 -0.7244 -0.8857 -0.9729
  332SOL     OW10644   3.103   0.705   0.657 -0.0095 -0.0605 -0.3224
  332SOL    HW110645   3.046   0.625   0.677  0.3099 -0.0876  0.5198
  332SOL    HW210646   3.155   0.690   0.573  0.8692 -1.1895  0.4070
  333SOL     OW10647   2.882   3.893   0.683 -0.1510 -0.3020  0.2597
  333SOL    HW110648   2.786   3.923   0.683  0.0697  0.4931 -1.5081
  333SOL    HW210649   2.901   3.846   0.597  1.6568  1.5705 -0.3832
  334SOL     OW10650   3.005   2.808   2.293 -0.0673 -0.4689  0.3055
  334SOL    HW110651   2.965   2.815   2.202  0.6903 -1.4133 -0.0987
  334SOL    HW210652   2.948   2.859   2.358 -0.5969  0.2218 -0.6894
  335SOL     OW10653   3.064   4.136   0.473  0.8745  0.1852 -0.0860
  335SOL    HW110654   3.080   4.052   0.524  1.4554 -0.0070 -0.5720
  335SOL    HW210655   3.031   4.113   0.381  1.0939  0.4811 -0.2416
  336SOL     OW10656   3.857   1.257   2.463 -0.4461  0.7076  0.2343
  336SOL    HW110657   3.789   1.206   2.411 -0.4117  0.0903  0.7799
  336SOL    HW210658   3.815   1.339   2.502 -0.3597  1.3984 -1.1133
  337SOL     OW10659   3.964   3.398   2.453  0.0607  0.1523 -0.3768
  337SOL    HW110660   3.889   3.461   2.474  0.8487  1.3456 -1.0840
  337SOL    HW210661   3.943   3.346   2.370 -0.4769 -0.3417  0.0649
  338SOL     OW10662   3.585   0.674   2.009 -0.1123 -0.4906  0.2895
  338SOL    HW110663   3.672   0.660   2.055 -0.5618 -0.2475  1.2239
  338SOL    HW210664   3.600   0.725   1.924  0.7674 -1.3104 -0.0469
  339SOL     OW10665   3.468   9.802   0.769 -0.1382  0.3114  0.1449
  339SOL    HW110666   3.515   9.746   0.700 -0.5621 -0.0325  0.1367
  339SOL    HW210667   3.445   9.745   0.848  1.1410  0.8956  0.9642
  340SOL     OW10668   4.464   1.485   1.106 -0.1518  0.3179 -0.3047
  340SOL    HW110669   4.415   1.557   1.157  0.7639  0.3747  0.5074
  340SOL    HW210670   4.516   1.527   1.032 -0.5403  0.3640 -0.5542
  341SOL     OW10671   2.804   2.661   0.689 -0.4826 -0.0760 -0.1192
  341SOL    HW110672   2.770   2.736   0.745  0.7577  0.8948 -0.6394
  341SOL    HW210673   2.816   2.579   0.746  1.9767  1.2488  1.3348
  342SOL     OW10674   4.123   3.338   1.626 -0.0755 -0.4408 -0.0091
  342SOL    HW110675   4.053   3.394   1.669 -0.3805  0.0646 -1.1410
  342SOL    HW210676   4.198   3.323   1.690 -0.0616  1.1313  0.3576
  343SOL     OW10677   2.855   3.324   0.833  0.0664  0.1310  0.1432
  343SOL    HW110678   2.915   3.279   0.766  0.5708  1.4065 -0.2805
  343SOL    HW210679   2.906   3.340   0.918 -0.4236 -1.0324  0.6593
  344SOL     OW10680   4.580   1.205   1.607  0.9808  0.7214 -0.2880
  344SOL    HW110681   4.613   1.136   1.543  0.2193  1.0918 -1.0985
  344SOL    HW210682   4.534   1.278   1.556  0.5657  1.1328  0.6646
  345SOL     OW10683   3.192   3.385   2.213  0.4581 -0.4749 -0.6460
  345SOL    HW110684   3.217   3.457   2.278 -2.6503 -0.0199  0.1400
  345SOL    HW210685   3.203   3.418   2.120 -2.4800  1.6849 -0.3044
  346SOL     OW10686   3.269   4.300   0.588  0.2430  0.1378  0.2459
  346SOL    HW110687   3.198   4.264   0.528 -0.0689  1.9349 -0.4917
  346SOL    HW210688   3.231   4.315   0.679  0.2763 -1.0034  0.4557
  347SOL     OW10689   3.700   0.933   1.379 -0.1299 -0.1026 -0.3256
  347SOL    HW110690   3.786   0.884   1.389  0.7087  1.7295  1.7798
  347SOL    HW210691   3.644   0.921   1.461 -0.3282  1.6439 -0.1902
  348SOL     OW10692   2.544   2.441   1.000 -0.0481 -0.4023  0.4891
  348SOL    HW110693   2.549   2.347   0.967 -2.2834 -1.0983  2.0124
  348SOL    HW210694   2.535   2.441   1.100 -0.9065  1.4024  0.4353
  349SOL     OW10695   3.616   3.016   0.300 -0.2291  0.3783 -0.1715
  349SOL    HW110696   3.522   2.982   0.291 -0.2066 -0.2574  1.6804
  349SOL    HW210697   3.671   2.949   0.350  1.1835  0.8196 -1.1009
  350SOL     OW10698   3.392   4.780   1.873 -0.2078 -0.1879 -0.1498
  350SOL    HW110699   3.487   4.787   1.841 -0.1948  0.3317 -0.0064
  350SOL    HW210700   3.357   4.872   1.890 -0.4444 -0.4312  0.6677
  351SOL     OW10701   4.500   4.171   2.529  0.2097 -0.1259  0.4993
  351SOL    HW110702   4.504   4.082   2.484  0.1572 -0.2902  0.8220
  351SOL    HW210703   4.567   4.175   2.603  0.6149  0.3086  0.1178
  352SOL     OW10704   4.440   1.398   1.475 -0.1275 -0.3390  0.2084
  352SOL    HW110705   4.350   1.382   1.435 -0.4756  1.1724  0.3669
  352SOL    HW210706   4.462   1.495   1.470  1.5458 -0.7067  0.0783
  353SOL     OW10707   2.678   0.419   0.509  0.8257  0.4469  0.8911
  353SOL    HW110708   2.688   0.406   0.410 -0.4286 -0.4960  0.8744
  353SOL    HW210709   2.583   0.444   0.529  1.1981  1.1403  1.8130
  354SOL     OW10710   3.089   9.908   0.687  0.4447  0.3431 -0.2208
  354SOL    HW110711   3.013   9.951   0.735  0.4450 -0.3563  0.4173
  354SOL    HW210712   3.088   9.934   0.591 -0.0452  1.0892 -0.0101
  355SOL     OW10713   2.575   2.137   0.132  0.0848 -0.1859  0.7762
  355SOL    HW110714   2.614   2.151   0.040 -1.2179  0.3554  0.2958
  355SOL    HW210715   2.563   2.225   0.177 -0.4610 -0.3608  0.9741
  356SOL     OW10716   2.686   2.330   1.620 -0.0280 -0.2290 -0.0964
  356SOL    HW110717   2.653   2.392   1.549 -0.4038  1.2743  1.3549
  356SOL    HW210718   2.780   2.356   1.645 -0.2421 -0.1433  0.6249
  357SOL     OW10719   3.697   1.371   2.120  0.3372  0.1293 -0.1622
  357SOL    HW110720   3.687   1.315   2.202 -1.1053  0.7744  0.1221
  357SOL    HW210721   3.657   1.323   2.041  1.9840 -0.6171 -0.5603
  358SOL     OW10722   4.091   4.322   0.172  0.2164 -0.0113 -0.3455
  358SOL    HW110723   4.077   4.263   0.252 -1.1272 -2.1830 -2.1207
  358SOL    HW210724   4.065   4.415   0.194 -0.2011 -0.5870  1.7175
  359SOL     OW10725   4.179   3.557   2.564 -0.1533  0.5443 -0.3698
  359SOL    HW110726   4.258   3.521   2.614 -0.0160  0.8712 -0.3531
  359SOL    HW210727   4.113   3.483   2.550  0.0097  0.3452 -0.1049
  360SOL     OW10728   3.938   9.920   1.224 -0.0844 -0.2343  0.3767
  360SOL    HW110729   4.023   9.878   1.253  0.7052 -0.3886 -2.0496
  360SOL    HW210730   3.944  10.020   1.234  1.4182 -0.0198 -2.2774
  361SOL     OW10731   3.500   3.754   2.601 -0.3929  0.0079 -0.0154
  361SOL    HW110732   3.589   3.798   2.615 -0.8962  0.7015  1.0551
  361SOL    HW210733   3.433   3.795   2.663 -1.4003 -0.6879 -0.6464
  362SOL     OW10734   3.921   1.568   2.604 -0.1227 -0.3999  0.2900
  362SOL    HW110735   3.955   1.639   2.543 -0.0828 -0.6026  0.0759
  362SOL    HW210736   3.833   1.535   2.572 -1.3831  1.3608  1.8189
  363SOL     OW10737   3.399   0.837   1.823  0.5815 -0.3107 -0.3107
  363SOL    HW110738   3.319   0.782   1.848  0.8222 -0.9845 -0.9992
  363SOL    HW210739   3.430   0.888   1.903 -0.6117  0.0620 -0.0711
  364SOL     OW10740   3.238   9.609   1.809  0.5102  0.2711  0.4011
  364SOL    HW110741   3.216   9.688   1.752 -0.5020 -1.5475 -1.7918
  364SOL    HW210742   3.164   9.593   1.875  0.9028  1.3673  1.1173
  365SOL     OW10743   2.637   2.613   0.174  0.2514 -0.5506  0.4373
  365SOL    HW110744   2.693   2.641   0.095 -0.0505 -0.3343  0.2959
  365SOL    HW210745   2.599   2.523   0.157 -1.0135  0.1017 -0.3213
  366SOL     OW10746   3.313   2.752   1.990 -0.1161  0.2624  0.0303
  366SOL    HW110747   3.302   2.733   2.088 -1.0409 -1.6496 -0.4280
  366SOL    HW210748   3.363   2.677   1.947  0.9082  1.4295 -0.8462
  367SOL     OW10749   3.146  10.148   1.273  0.4200 -0.3292  0.4633
  367SOL    HW110750   3.187  10.126   1.184  0.7742  1.7447  0.0809
  367SOL    HW210751   3.214  10.191   1.331 -0.2640 -0.1491  1.1393
  368SOL     OW10752   3.451   1.762   0.772 -0.2653 -0.2410 -0.1419
  368SOL    HW110753   3.479   1.702   0.697  1.1210  0.0699  0.1168
  368SOL    HW210754   3.381   1.716   0.827 -0.4333 -0.9428 -0.9262
  369SOL     OW10755   3.148   1.839   1.915 -0.2345 -0.3075  0.2140
  369SOL    HW110756   3.243   1.837   1.946 -0.2714 -1.2978  0.2717
  369SOL    HW210757   3.144   1.880   1.824  0.2492 -0.3274  0.1794
  370SOL     OW10758   3.986   3.697   0.067  0.4709 -0.3754  0.1976
  370SOL    HW110759   4.069   3.657   0.028  0.4074  0.6055 -0.9427
  370SOL    HW210760   4.007   3.787   0.104  0.1570 -0.6015  0.9368
  371SOL     OW10761   2.788   1.255   0.921  0.2358  0.0962 -0.0915
  371SOL    HW110762   2.864   1.273   0.984 -0.2108  1.2536  0.1430
  371SOL    HW210763   2.815   1.187   0.854  0.9177 -0.7216  1.0079
  372SOL     OW10764   2.822   1.527   2.074 -0.3146  0.2373 -0.4203
  372SOL    HW110765   2.749   1.505   2.009 -0.0329  1.6548 -1.2507
  372SOL    HW210766   2.869   1.610   2.043  1.8129 -0.8037 -0.0357
  373SOL     OW10767   3.733   4.431   2.182  0.3216  0.2298 -0.0046
  373SOL    HW110768   3.810   4.473   2.134  0.1437  0.9174  0.3192
  373SOL    HW210769   3.650   4.439   2.127  0.0023  1.5001  0.6558
  374SOL     OW10770   4.089   1.210   1.093  0.2067  0.1057  0.5976
  374SOL    HW110771   4.020   1.200   1.164  1.4685  0.8431  1.9646
  374SOL    HW210772   4.149   1.130   1.093 -1.0231 -0.8626 -1.0545
  375SOL     OW10773   2.623   9.343   0.154 -0.3756  0.3620  0.2722
  375SOL    HW110774   2.614   9.244   0.140  1.8460  0.1426  0.2912
  375SOL    HW210775   2.643   9.387   0.066 -0.5945  0.7077  0.3941
  376SOL     OW10776   3.312   9.831   2.442 -0.1747 -0.0995  0.0682
  376SOL    HW110777   3.225   9.784   2.428  0.2650 -0.3720 -1.8878
  376SOL    HW210778   3.384   9.763   2.457  0.1051  0.0030 -0.7485
  377SOL     OW10779   2.869   4.224   1.095 -0.1223 -0.5450  0.7801
  377SOL    HW110780   2.825   4.134   1.085  1.4999 -1.2655 -0.0577
  377SOL    HW210781   2.919   4.227   1.181  0.2681 -0.6451  0.5583
  378SOL     OW10782   2.773   2.546   2.171  0.2011  0.4493 -0.3123
  378SOL    HW110783   2.853   2.512   2.122 -2.1754  0.8088 -4.6889
  378SOL    HW210784   2.756   2.641   2.147 -0.2708  1.0996  2.3685
  379SOL     OW10785   3.990   1.108   0.859 -0.0634 -0.6339 -0.3559
  379SOL    HW110786   3.908   1.054   0.880 -0.5388 -0.2167 -1.1320
  379SOL    HW210787   4.049   1.110   0.939  0.3510 -2.9994 -0.5666
  380SOL     OW10788   4.026   2.480   2.236  0.2563 -0.3966  0.2685
  380SOL    HW110789   4.047   2.383   2.231  3.2274  0.0295  2.9221
  380SOL    HW210790   4.071   2.528   2.161  1.7840 -0.6178  1.0347
  381SOL     OW10791   4.558   4.436   2.241  0.0828  0.0248  0.5083
  381SOL    HW110792   4.549   4.457   2.338  0.1127 -0.9450  0.7257
  381SOL    HW210793   4.654   4.414   2.221 -0.0194 -0.2820  0.3632
  382SOL     OW10794   4.705   1.415   0.481  0.1515  0.5290  0.4254
  382SOL    HW110795   4.761   1.335   0.459  1.0178  1.7111 -1.9620
  382SOL    HW210796   4.641   1.392   0.553  1.4243 -1.8649  0.8674
  383SOL     OW10797   2.751   3.530   0.713 -0.2481 -0.1657 -0.1061
  383SOL    HW110798   2.785   3.460   0.776  0.7141 -0.2605 -0.7133
  383SOL    HW210799   2.696   3.486   0.642 -0.6212 -0.1603  0.1764
  384SOL     OW10800   2.998   1.607   0.274  0.2597  0.2014  0.3617
  384SOL    HW110801   3.041   1.640   0.358 -0.9790  0.5028  0.8867
  384SOL    HW210802   3.067   1.561   0.217  1.2099  0.4425  1.3010
  385SOL     OW10803   4.544   1.540   0.281  0.3664  0.2877  0.0858
  385SOL    HW110804   4.597   1.478   0.339 -0.4635  0.0619  0.6027
  385SOL    HW210805   4.582   1.632   0.288  1.2704 -0.0491 -0.2707
  386SOL     OW10806   3.037   9.683   1.993  0.4663  0.1899 -0.5303
  386SOL    HW110807   3.027   9.743   2.072  1.2815 -0.4679  0.0873
  386SOL    HW210808   2.983   9.718   1.917  1.2187  1.9062 -0.3011
  387SOL     OW10809   2.852   1.453   0.705  0.3976 -0.1459  0.0226
  387SOL    HW110810   2.843   1.404   0.792 -0.9674 -0.3840 -0.2432
  387SOL    HW210811   2.889   1.391   0.636 -0.0041 -0.4030  0.0389
  388SOL     OW10812   3.045   1.261   1.016 -0.5976  0.1582 -0.5098
  388SOL    HW110813   3.028   1.163   1.007 -0.8230  0.2364 -1.0308
  388SOL    HW210814   3.066   1.284   1.111 -1.3469 -0.2749 -0.2346
  389SOL     OW10815   3.399   1.090   1.973 -0.0403  0.1445  0.0704
  389SOL    HW110816   3.463   1.164   1.950 -1.4578  0.8693 -1.6176
  389SOL    HW210817   3.320   1.128   2.021 -0.7458 -0.2818 -0.7395
  390SOL     OW10818   3.428  10.106   0.367  0.9312  0.1798  0.0440
  390SOL    HW110819   3.496  10.121   0.439  0.2245  1.5210  0.4435
  390SOL    HW210820   3.369  10.030   0.393  0.8931  0.4400  0.7226
  391SOL     OW10821   4.237   1.938   1.261 -0.8920  0.0075 -0.0734
  391SOL    HW110822   4.257   1.953   1.165 -0.9388 -0.4156 -0.1491
  391SOL    HW210823   4.211   2.025   1.304  2.3222  0.8190  0.3482
  392SOL     OW10824   4.232   3.701   1.895  0.0822  0.0151 -0.4953
  392SOL    HW110825   4.268   3.615   1.858 -0.0177  0.0234 -0.6107
  392SOL    HW210826   4.157   3.733   1.837 -1.1386 -0.8064  0.6001
  393SOL     OW10827   2.618   3.434   0.172 -0.4017 -0.0259  0.1452
  393SOL    HW110828   2.637   3.358   0.110 -0.1569  1.7623 -2.0193
  393SOL    HW210829   2.549   3.494   0.131 -1.7213  0.1203  2.5008
  394SOL     OW10830   3.788   9.805   0.564  0.0160  0.3215 -0.1651
  394SOL    HW110831   3.813   9.845   0.476 -0.7419  0.5463 -0.2850
  394SOL    HW210832   3.818   9.866   0.638 -0.1330  0.5641 -0.3043
  395SOL     OW10833   2.410   2.436   1.408  0.2114 -0.2446 -0.2802
  395SOL    HW110834   2.355   2.466   1.330  0.9835 -0.4474 -0.9049
  395SOL    HW210835   2.493   2.391   1.375  1.0210  0.5540  0.6649
  396SOL     OW10836   3.689   3.048   1.792 -0.2059  0.1060 -0.1758
  396SOL    HW110837   3.725   3.017   1.881 -0.2851  0.5774  0.0213
  396SOL    HW210838   3.763   3.088   1.738 -0.5899  1.9119  0.5924
  397SOL     OW10839   3.527   0.661   0.975  0.9262  0.8211  0.5265
  397SOL    HW110840   3.521   0.760   0.969  4.1767  1.1953  2.1538
  397SOL    HW210841   3.591   0.627   0.905 -1.1560 -0.3263 -0.9033
  398SOL     OW10842   3.587   1.038   0.234 -0.1348  0.0284  0.0891
  398SOL    HW110843   3.635   1.078   0.157 -0.9933  0.6445 -0.1333
  398SOL    HW210844   3.646   1.038   0.315  0.7875 -0.6879 -0.5755
  399SOL     OW10845   3.739   1.330   0.151 -0.0586  0.5923 -0.5916
  399SOL    HW110846   3.753   1.256   0.085  2.0172  0.4174 -0.0064
  399SOL    HW210847   3.761   1.418   0.108  0.5865  0.5496 -0.3542
  400SOL     OW10848   3.346   4.373   1.292 -0.0974 -0.8249 -0.5827
  400SOL    HW110849   3.333   4.469   1.317  1.3686 -0.5497 -0.8345
  400SOL    HW210850   3.405   4.329   1.360 -1.5132 -1.8000  0.0388
  401SOL     OW10851   3.530   0.940   1.002 -0.2049 -0.2396 -0.0138
  401SOL    HW110852   3.532   0.981   1.093  0.9137  3.3515 -1.5698
  401SOL    HW210853   3.461   0.986   0.946  0.1566 -1.3967 -1.4473
  402SOL     OW10854   3.390   4.145   2.234  0.4379 -0.1288 -0.0638
  402SOL    HW110855   3.490   4.153   2.243  0.3540  0.2388  0.5600
  402SOL    HW210856   3.360   4.061   2.279  0.5664 -0.7233 -1.0576
  403SOL     OW10857   3.351   3.436   0.976  0.1163  0.1674  0.2905
  403SOL    HW110858   3.409   3.507   0.937  0.6570  0.0906  0.9332
  403SOL    HW210859   3.375   3.422   1.072  1.6606 -2.5152 -0.4186
  404SOL     OW10860   2.788  10.176   0.590  0.2954  0.5169  0.0306
  404SOL    HW110861   2.736  10.259   0.568  0.3959  0.5420 -0.1135
  404SOL    HW210862   2.810  10.127   0.506 -1.3939 -0.6491  0.2337
  405SOL     OW10863   3.046   4.197   1.333 -0.5416  0.7196 -0.4794
  405SOL    HW110864   3.055   4.185   1.432 -0.8963  1.6172 -0.3360
  405SOL    HW210865   3.135   4.220   1.294 -0.7395  2.1849 -0.1026
  406SOL     OW10866   3.212   1.927   2.231  0.3833 -0.0780  0.0605
  406SOL    HW110867   3.278   1.890   2.165 -1.6583 -2.0521 -0.9493
  406SOL    HW210868   3.236   2.021   2.252  3.4180 -0.6851 -0.3981
  407SOL     OW10869   3.834   3.591   1.537  0.2115  0.4457  0.0108
  407SOL    HW110870   3.750   3.644   1.552 -0.7889 -0.8296 -0.9970
  407SOL    HW210871   3.913   3.648   1.560 -0.9157  1.6950  0.8964
  408SOL     OW10872   3.387   9.589   0.371 -0.3275 -0.2380 -0.4115
  408SOL    HW110873   3.319   9.589   0.444 -0.1436  0.9264 -0.2340
  408SOL    HW210874   3.474   9.621   0.406  0.2603 -1.4687 -0.7062
  409SOL     OW10875   3.651   4.155   2.259  0.0361  0.4702  0.7071
  409SOL    HW110876   3.706   4.098   2.320  1.6122 -0.3491 -1.4410
  409SOL    HW210877   3.685   4.250   2.263 -0.9352  0.7635  2.3322
  410SOL     OW10878   2.778   0.591   0.932  0.2447 -0.2949  0.3021
  410SOL    HW110879   2.761   0.493   0.917 -0.3632 -0.2903  0.9098
  410SOL    HW210880   2.695   0.633   0.968  0.3336  0.5629 -0.4924
  411SOL     OW10881   3.149   9.582   1.061 -0.2518 -0.4312 -0.5108
  411SOL    HW110882   3.093   9.595   0.979 -0.4408  2.2514  0.0039
  411SOL    HW210883   3.241   9.618   1.045 -0.3652  0.3430  0.5260
  412SOL     OW10884   2.788   1.970   0.478  0.7672  0.0245  0.0438
  412SOL    HW110885   2.766   1.922   0.393  0.5970  0.9476 -0.4335
  412SOL    HW210886   2.820   1.904   0.546 -1.5494 -1.0696  0.1173
  413SOL     OW10887   3.580   4.300   1.512  0.1628 -0.3502 -0.3897
  413SOL    HW110888   3.654   4.245   1.549  0.0276 -0.5818 -0.4625
  413SOL    HW210889   3.500   4.294   1.572 -0.2217 -1.1242 -0.9779
  414SOL     OW10890   3.436   2.197   0.486 -0.5119  0.0489 -0.1538
  414SOL    HW110891   3.406   2.254   0.562 -0.1042 -0.7532  0.6141
  414SOL    HW210892   3.396   2.106   0.493  0.8698 -0.5633  0.0535
  415SOL     OW10893   3.802   3.716   2.190 -0.3058  0.5490  0.3136
  415SOL    HW110894   3.856   3.774   2.252  1.2292 -1.5115  0.9378
  415SOL    HW210895   3.859   3.685   2.114 -1.3420  0.4966 -0.4594
  416SOL     OW10896   2.869   1.380   2.450 -0.1366 -0.0731  0.4147
  416SOL    HW110897   2.822   1.314   2.391 -2.7226  1.3392  0.7901
  416SOL    HW210898   2.929   1.438   2.393  0.2403 -1.1247 -0.2682
  417SOL     OW10899   2.973   2.254   1.870 -0.3762 -0.0141 -0.0103
  417SOL    HW110900   2.899   2.234   1.934 -0.6101 -1.6596 -0.7747
  417SOL    HW210901   3.048   2.190   1.885  0.3698  0.8288 -0.0993
  418SOL     OW10902   3.853   3.452   0.146  0.5078 -0.3221 -0.6349
  418SOL    HW110903   3.892   3.527   0.093 -0.1908 -0.1765 -0.9482
  418SOL    HW210904   3.924   3.412   0.203  1.2563 -0.4297 -1.6177
  419SOL     OW10905   3.182   1.037   2.640 -0.1183  0.1716 -0.0730
  419SOL    HW110906   3.198   1.136   2.639 -0.3420  0.2058 -0.1936
  419SOL    HW210907   3.099   1.016   2.590 -1.2798  0.1515  1.8326
  420SOL     OW10908   3.296   1.651   1.005  0.1756  0.5320 -0.4554
  420SOL    HW110909   3.228   1.719   1.033  1.0447  1.4640 -0.5730
  420SOL    HW210910   3.384   1.673   1.048  0.3898 -0.6977 -0.2577
  421SOL     OW10911   4.395   3.028   0.779 -0.1155 -0.4746  0.2007
  421SOL    HW110912   4.448   3.102   0.819  0.0545  1.0690 -2.7337
  421SOL    HW210913   4.303   3.062   0.756 -0.1379 -1.2355 -0.8639
  422SOL     OW10914   3.691   2.476   0.198 -0.0104 -0.0703 -0.1214
  422SOL    HW110915   3.632   2.398   0.217  0.7847 -0.5968  0.2090
  422SOL    HW210916   3.786   2.445   0.191  0.4531  1.0439  1.1684
  423SOL     OW10917   2.871   3.133   0.460 -0.3182 -0.3749  0.3250
  423SOL    HW110918   2.942   3.088   0.515  0.0421 -2.9525 -2.1187
  423SOL    HW210919   2.909   3.215   0.418  0.6309 -0.6658  0.6018
  424SOL     OW10920   3.057   2.802   1.615 -0.6280 -0.3222  0.1561
  424SOL    HW110921   2.989   2.827   1.546  1.0863  0.2600 -1.3853
  424SOL    HW210922   3.142   2.776   1.569  1.0852  1.7049  2.0806
  425SOL     OW10923   3.045   3.471   0.966  0.0634 -0.2538  0.3050
  425SOL    HW110924   3.023   3.557   0.919 -0.2454 -0.3289  0.3134
  425SOL    HW210925   3.139   3.445   0.945 -0.0120 -0.1893 -0.1199
  426SOL     OW10926   4.364   3.501   0.859  0.0647  0.2418 -0.1842
  426SOL    HW110927   4.266   3.521   0.862 -0.0581 -0.1868 -1.1453
  426SOL    HW210928   4.409   3.563   0.795  0.6117  1.1583  1.0563
  427SOL     OW10929   3.043   3.951   2.355  0.3066  0.0609 -0.0864
  427SOL    HW110930   3.062   4.019   2.425 -2.5342 -0.6779  1.4744
  427SOL    HW210931   3.108   3.875   2.363 -0.1209 -0.1165  1.8864
  428SOL     OW10932   4.558   2.667   1.181  0.8967 -0.2201 -0.0712
  428SOL    HW110933   4.618   2.656   1.260  2.5562  2.4988 -0.9032
  428SOL    HW210934   4.513   2.756   1.185  0.0733 -0.5493 -1.5689
  429SOL     OW10935   3.071   9.311   2.203 -0.0050  0.4001 -0.1553
  429SOL    HW110936   3.136   9.280   2.134  0.2535  3.5635 -1.3883
  429SOL    HW210937   2.986   9.341   2.158  0.1917  2.5528  0.8462
  430SOL     OW10938   3.081   2.337   0.425  0.2166  0.3200 -0.3306
  430SOL    HW110939   3.040   2.407   0.366  0.3970  0.9311  0.2750
  430SOL    HW210940   3.144   2.281   0.370  0.5179  0.9949 -0.6827
  431SOL     OW10941   3.695   1.887   1.155  0.3125  0.2814  0.5944
  431SOL    HW110942   3.701   1.920   1.061 -0.5880 -0.0192  0.4203
  431SOL    HW210943   3.609   1.836   1.167  0.4304  0.2977  1.5714
  432SOL     OW10944   3.333   0.906   0.692  0.2384  0.5335  0.1328
  432SOL    HW110945   3.272   0.833   0.721  2.3413 -0.5468  1.9704
  432SOL    HW210946   3.319   0.986   0.751 -1.0033  1.1378 -0.9364
  433SOL     OW10947   4.160   3.280   2.610  0.0713  0.2403  0.1429
  433SOL    HW110948   4.107   3.290   2.526  1.2147  0.4695 -0.5703
  433SOL    HW210949   4.240   3.340   2.605  1.0930 -1.0567  0.6240
  434SOL     OW10950   4.501   1.674   1.468 -0.3818 -0.3082 -0.2150
  434SOL    HW110951   4.513   1.683   1.370 -1.5759 -1.3954 -0.4775
  434SOL    HW210952   4.438   1.745   1.501 -0.1160 -0.0516 -0.2549
  435SOL     OW10953   2.774   2.264   2.031 -0.1981  0.4428 -0.3474
  435SOL    HW110954   2.804   2.236   2.122 -0.8570 -0.8555 -0.5174
  435SOL    HW210955   2.676   2.246   2.021 -0.0520  0.1985 -1.4525
  436SOL     OW10956   3.405   3.562   2.384  0.1617  0.6043  0.4895
  436SOL    HW110957   3.428   3.601   2.474  0.4518  2.5034 -0.3804
  436SOL    HW210958   3.489   3.552   2.330  0.2114 -2.1398  1.0281
  437SOL     OW10959   4.193   4.278   0.979  0.8115 -0.2389 -0.3727
  437SOL    HW110960   4.155   4.192   1.013 -0.8758  0.1510 -1.2529
  437SOL    HW210961   4.266   4.258   0.913 -0.9889 -1.0276 -2.1702
  438SOL     OW10962   3.036  10.068   0.105  0.8537 -0.6663  0.2684
  438SOL    HW110963   3.135  10.068   0.091  0.8588 -1.7491  0.2477
  438SOL    HW210964   2.990  10.085   0.018  1.0475  1.9635  0.6494
  439SOL     OW10965   2.551   3.186   1.958  0.6368  0.3459  0.0627
  439SOL    HW110966   2.635   3.234   1.984  0.3161  1.7776 -1.4189
  439SOL    HW210967   2.482   3.197   2.029  2.1686 -2.1243  1.9975
  440SOL     OW10968   3.078   9.958   2.059 -0.0792  0.2646 -0.0967
  440SOL    HW110969   3.011  10.008   2.114  1.4211  2.8397 -0.5195
  440SOL    HW210970   3.169   9.972   2.098  0.6962  0.1306 -1.8188
  441SOL     OW10971   2.989   3.428   2.394  0.8570 -0.3028 -0.1515
  441SOL    HW110972   3.048   3.386   2.325 -0.0781 -0.3140 -0.9555
  441SOL    HW210973   2.900   3.381   2.395 -0.2917  1.7502 -1.2096
  442SOL     OW10974   2.656   2.073   1.415 -0.7525  0.0002  0.4643
  442SOL    HW110975   2.628   2.041   1.506 -1.3987  3.4079  1.5392
  442SOL    HW210976   2.637   2.171   1.407  2.1037  0.4125 -2.2580
  443SOL     OW10977   3.717   3.075   2.348  0.5882  0.0822 -0.4415
  443SOL    HW110978   3.648   3.034   2.289  1.3262  1.6932 -2.5206
  443SOL    HW210979   3.675   3.147   2.404 -0.0630 -1.2744  0.8528
  444SOL     OW10980   2.933   1.790   2.045 -0.1082 -0.7709  0.0123
  444SOL    HW110981   2.925   1.843   2.130  0.4661 -0.8004  0.0835
  444SOL    HW210982   3.019   1.813   2.000 -0.2679 -0.9935 -0.4034
  445SOL     OW10983   3.295   4.344   1.031 -0.3183 -0.3380 -0.1872
  445SOL    HW110984   3.364   4.286   0.989 -0.3099  0.7742 -1.7186
  445SOL    HW210985   3.315   4.355   1.129  2.5848  1.2817 -0.9280
  446SOL     OW10986   3.762  10.008   2.224  0.1354  0.5324  0.5167
  446SOL    HW110987   3.720   9.943   2.287  1.2274  1.2481  2.0154
  446SOL    HW210988   3.841   9.965   2.180  0.5301  0.6508  1.0991
  447SOL     OW10989   2.767   3.299   2.084 -0.4959  0.2946 -0.3068
  447SOL    HW110990   2.853   3.265   2.046 -0.6008 -2.3331  1.6582
  447SOL    HW210991   2.737   3.379   2.032  1.8530 -0.2277 -2.5769
  448SOL     OW10992   4.140   2.708   1.222 -0.3790 -0.0502 -0.0283
  448SOL    HW110993   4.220   2.760   1.193 -0.4553 -0.2194 -0.5436
  448SOL    HW210994   4.169   2.634   1.282 -0.1195 -0.2415 -0.3848
  449SOL     OW10995   3.239  10.193   0.598 -0.0199  0.1181 -0.5836
  449SOL    HW110996   3.166  10.245   0.643  0.1437  1.5000 -1.8427
  449SOL    HW210997   3.262  10.238   0.511 -0.5783 -2.6478 -2.2142
  450SOL     OW10998   3.632   1.277   0.889  0.4207 -0.1474  0.5710
  450SOL    HW110999   3.582   1.210   0.945 -1.1036  1.1802  0.8296
  450SOL    HW211000   3.620   1.368   0.928  1.0770  0.5170 -0.7593
  451SOL     OW11001   3.826   4.390   1.868 -0.3175 -0.0144 -0.2573
  451SOL    HW111002   3.726   4.399   1.873 -0.2934  0.6417 -0.9644
  451SOL    HW211003   3.865   4.472   1.826  0.6498  0.3350  1.2990
  452SOL     OW11004   3.039   3.414   1.810  0.8892  0.2844 -0.2599
  452SOL    HW111005   3.030   3.318   1.838 -0.9740  0.3498 -0.6210
  452SOL    HW211006   2.949   3.457   1.807  1.6043  1.7597 -1.1553
  453SOL     OW11007   2.584   2.072   1.688 -0.0359  0.2638 -0.5117
  453SOL    HW111008   2.560   2.075   1.784  1.7210 -0.6277 -0.0080
  453SOL    HW211009   2.598   2.164   1.653  0.7587  0.5252  0.4815
  454SOL     OW11010   3.237   1.382   2.428 -0.2058 -0.4613 -0.0074
  454SOL    HW111011   3.158   1.422   2.382 -0.6917 -1.7558 -0.3311
  454SOL    HW211012   3.206   1.336   2.512  0.4384  0.4121  0.7242
  455SOL     OW11013   2.721   1.918   0.213 -0.4546  0.9899  0.0252
  455SOL    HW111014   2.759   1.870   0.134 -0.7553  0.2780  0.2989
  455SOL    HW211015   2.666   1.996   0.183 -2.8661 -0.8796 -0.6565
  456SOL     OW11016   3.452   3.714   0.931 -0.6604  0.1543  0.3537
  456SOL    HW111017   3.469   3.706   1.029  0.0241  1.1123  0.3173
  456SOL    HW211018   3.524   3.768   0.889 -0.6748 -0.6920 -0.7711
  457SOL     OW11019   3.047   0.902   0.162 -0.0870 -0.3953  0.5698
  457SOL    HW111020   3.093   0.950   0.087  0.3879 -0.6938  0.6661
  457SOL    HW211021   2.993   0.967   0.215  0.3406 -0.0107  0.5373
  458SOL     OW11022   2.777   0.636   2.725 -0.1356  0.0141  0.1769
  458SOL    HW111023   2.866   0.652   2.769  0.0026  1.5751 -0.6206
  458SOL    HW211024   2.704   0.647   2.792  0.1514  1.0130  0.3364
  459SOL     OW11025   4.570   3.755   0.234  0.1732 -0.2531  0.3384
  459SOL    HW111026   4.638   3.750   0.161  0.3929 -0.8996  0.5786
  459SOL    HW211027   4.481   3.726   0.199  0.5155 -1.6600  0.5985
  460SOL     OW11028   4.369   4.131   0.713 -0.2001  1.0987 -0.4062
  460SOL    HW111029   4.363   4.122   0.614 -1.3964  0.0092 -0.2384
  460SOL    HW211030   4.465   4.133   0.740  0.1398  1.6954 -1.6049
  461SOL     OW11031   3.865   0.412   1.956  0.6073 -0.3155 -0.9403
  461SOL    HW111032   3.943   0.354   1.932 -0.0449 -1.1348 -1.1145
  461SOL    HW211033   3.802   0.360   2.014  0.0801  0.2612 -0.9928
  462SOL     OW11034   4.167   1.918   0.274 -0.5852 -0.1330 -0.0887
  462SOL    HW111035   4.199   1.827   0.302  1.4135  0.7338  0.5395
  462SOL    HW211036   4.239   1.963   0.220 -0.4534  2.1343  1.8850
  463SOL     OW11037   2.427   1.597   2.679 -0.8048  0.5612  0.2907
  463SOL    HW111038   2.474   1.547   2.752 -0.7293  2.3905  1.5195
  463SOL    HW211039   2.353   1.653   2.718 -0.8416  1.4799 -1.0448
  464SOL     OW11040   2.590   1.478   0.919 -0.1000  0.1074  0.0157
  464SOL    HW111041   2.619   1.384   0.933  0.0799  0.1062 -0.3454
  464SOL    HW211042   2.585   1.497   0.821  0.4041  0.6319  0.0899
  465SOL     OW11043   3.848   2.395   2.624 -0.4018  0.2070  0.2908
  465SOL    HW111044   3.911   2.461   2.585  0.5621 -2.0986 -2.1992
  465SOL    HW211045   3.883   2.363   2.713  0.8343  0.5422 -0.0749
  466SOL     OW11046   2.999   2.479   2.018  0.8661  0.5595 -0.3703
  466SOL    HW111047   3.012   2.550   1.949 -0.6488  1.2141 -0.0082
  466SOL    HW211048   2.949   2.403   1.978 -0.9973  1.4137  0.2543
  467SOL     OW11049   3.042   9.641   0.832 -0.3734 -0.3125 -0.3073
  467SOL    HW111050   3.010   9.734   0.812  0.2556 -0.0033  0.1303
  467SOL    HW211051   3.099   9.608   0.756 -0.9500 -0.5071 -0.6591
  468SOL     OW11052   3.527   0.633   0.134  0.1506 -0.2535  0.1619
  468SOL    HW111053   3.608   0.609   0.080 -0.5797  0.4025 -1.2509
  468SOL    HW211054   3.493   0.722   0.105 -0.6416 -0.1882  1.2703
  469SOL     OW11055   3.417   4.099   0.496  0.1370 -0.2223  0.1455
  469SOL    HW111056   3.366   4.178   0.530 -1.2348 -0.8205 -0.5077
  469SOL    HW211057   3.504   4.130   0.456  0.3711  0.7750  1.4174
  470SOL     OW11058   2.960   3.290   2.650 -0.2921  0.2420  0.3323
  470SOL    HW111059   2.963   3.280   2.550  0.4823  0.9996  0.2755
  470SOL    HW211060   3.006   3.212   2.692  0.6752  0.6564  0.0507
  471SOL     OW11061   4.197   1.108   0.443  0.1051  0.4593 -0.0740
  471SOL    HW111062   4.231   1.135   0.353 -0.4948  0.9295 -0.1662
  471SOL    HW211063   4.170   1.190   0.494  1.5072  0.2787  0.9672
  472SOL     OW11064   2.790   0.747   2.263 -0.1768 -0.2288 -0.2281
  472SOL    HW111065   2.799   0.732   2.164 -1.1928 -0.3672 -0.3085
  472SOL    HW211066   2.720   0.816   2.279 -0.6517 -0.8535  0.4274
  473SOL     OW11067   2.498   2.837   1.250 -0.1342 -0.2128 -0.2229
  473SOL    HW111068   2.438   2.872   1.178 -0.5597  1.0257  0.7290
  473SOL    HW211069   2.591   2.830   1.215 -0.3884  0.0977 -0.9745
  474SOL     OW11070   3.035   1.481   2.258  0.3394  0.0530 -0.1619
  474SOL    HW111071   2.987   1.464   2.172  0.6599 -1.0861 -0.1150
  474SOL    HW211072   3.033   1.579   2.277  0.8789  0.4035 -1.8246
  475SOL     OW11073   4.813   3.851   2.053  0.3264 -0.2514  0.2112
  475SOL    HW111074   4.906   3.880   2.031 -0.0708  0.2583 -0.8171
  475SOL    HW211075   4.780   3.902   2.132  0.8695 -0.3465  0.5043
  476SOL     OW11076   4.436   1.744   1.212 -0.0497 -0.9592 -0.0751
  476SOL    HW111077   4.357   1.798   1.243 -0.4096 -1.0428 -0.8550
  476SOL    HW211078   4.474   1.784   1.129 -2.3534 -3.7697 -2.5898
  477SOL     OW11079   3.601   0.353   2.498  0.1123  0.3420  0.2951
  477SOL    HW111080   3.640   0.431   2.546 -0.9193  0.3487  1.1350
  477SOL    HW211081   3.508   0.374   2.469  0.1090 -0.2892 -0.1821
  478SOL     OW11082   2.796   3.224   2.345  0.1896 -0.5247 -0.1256
  478SOL    HW111083   2.704   3.196   2.373  0.0577  0.3054  0.3012
  478SOL    HW211084   2.791   3.273   2.258  0.1599 -0.0632  0.1314
  479SOL     OW11085   3.733   1.805   2.279  0.2620  0.3028  0.2849
  479SOL    HW111086   3.738   1.842   2.371 -1.9290  0.9423  0.1909
  479SOL    HW211087   3.805   1.846   2.222  0.3900  1.3723  1.2082
  480SOL     OW11088   4.486   3.914   1.912 -0.3145 -0.2557  0.4612
  480SOL    HW111089   4.411   3.854   1.884  0.9129 -1.4720 -0.3065
  480SOL    HW211090   4.469   3.948   2.004 -2.2010  0.1378 -0.0152
  481SOL     OW11091   3.521   0.983   1.582  0.0723  0.4598  0.0604
  481SOL    HW111092   3.550   1.066   1.630 -1.8666  1.1581  0.0820
  481SOL    HW211093   3.472   0.923   1.645 -0.7791  0.4906 -0.5579
  482SOL     OW11094   2.750   2.702   1.610  0.1766  0.7748  0.0705
  482SOL    HW111095   2.807   2.728   1.532  0.8337  1.6189  0.8244
  482SOL    HW211096   2.654   2.708   1.585  0.3799  1.3493 -0.5695
  483SOL     OW11097   3.163   3.565   2.000  0.3999  0.4288 -0.0806
  483SOL    HW111098   3.105   3.634   2.043  0.2217  0.7606 -0.8475
  483SOL    HW211099   3.109   3.511   1.935  0.8457  0.4604 -0.4834
  484SOL     OW11100   2.713   2.938   1.840 -0.6544 -0.2621 -0.2572
  484SOL    HW111101   2.650   3.014   1.854  0.7912  1.1343 -1.1527
  484SOL    HW211102   2.719   2.917   1.743 -1.0586 -1.5723 -0.0198
  485SOL     OW11103   3.695   2.144   2.011 -0.2475  0.2866  0.4630
  485SOL    HW111104   3.754   2.202   1.955 -0.2907  0.3506  0.4835
  485SOL    HW211105   3.685   2.185   2.102 -0.5273  0.4024  0.3779
  486SOL     OW11106   2.914  10.296   2.404  0.0030 -0.0828  0.5254
  486SOL    HW111107   2.994  10.302   2.344 -0.2181 -0.8757  0.1514
  486SOL    HW211108   2.880  10.388   2.423 -1.0536  0.0782 -2.0526
  487SOL     OW11109   3.171   9.587   0.516  0.2389  0.1071  0.0712
  487SOL    HW111110   3.092   9.527   0.524 -0.2237  0.8494  1.2358
  487SOL    HW211111   3.149   9.677   0.554  1.9300  0.0393  1.2941
  488SOL     OW11112   3.030   0.624   0.174  0.2058 -0.2271  0.0005
  488SOL    HW111113   3.067   0.611   0.082 -3.1267  2.0189 -1.7671
  488SOL    HW211114   3.060   0.711   0.211 -0.5969  0.0878 -0.0727
  489SOL     OW11115   3.551   1.637   0.563  0.1262 -0.8534  0.4902
  489SOL    HW111116   3.629   1.686   0.524  1.0452 -0.7292  2.4496
  489SOL    HW211117   3.572   1.539   0.570  0.0506 -0.8450  0.8613
  490SOL     OW11118   2.809   2.457   1.357  0.1531  0.2742  0.0699
  490SOL    HW111119   2.850   2.540   1.396  0.7627  0.3516 -0.7251
  490SOL    HW211120   2.880   2.401   1.315 -0.3010 -0.5134  0.3340
  491SOL     OW11121   3.598   9.621   0.573  0.0745  0.3054 -0.1743
  491SOL    HW111122   3.630   9.529   0.595  0.0299  0.4841  0.6478
  491SOL    HW211123   3.677   9.682   0.563  0.0088  0.9382  2.7015
  492SOL     OW11124   3.864   2.918   1.999 -0.0841 -0.4853 -0.5498
  492SOL    HW111125   3.926   2.862   1.943  0.9916 -0.5613  0.6885
  492SOL    HW211126   3.806   2.858   2.054  0.4369 -0.3786  0.1069
  493SOL     OW11127   4.757   1.658   0.597  0.2460 -0.0545 -0.0403
  493SOL    HW111128   4.757   1.571   0.548  0.4182  0.1194 -0.3482
  493SOL    HW211129   4.794   1.730   0.539 -0.2146  0.2953  0.0909
  494SOL     OW11130   3.285   9.784   1.427  0.0744 -0.3532 -0.6922
  494SOL    HW111131   3.252   9.762   1.518  1.4771 -1.1648 -0.3703
  494SOL    HW211132   3.221   9.847   1.382  0.7250  2.2031  1.8537
  495SOL     OW11133   2.702   1.208   2.612 -0.1628  0.2470 -0.2908
  495SOL    HW111134   2.758   1.280   2.570  0.6067  0.0581  0.4082
  495SOL    HW211135   2.628   1.250   2.665 -1.1441  0.4889 -1.8175
  496SOL     OW11136   2.885  10.318   1.566 -0.0184  0.0146 -0.2099
  496SOL    HW111137   2.904  10.413   1.544  1.5647 -0.0378  0.8716
  496SOL    HW211138   2.942  10.289   1.643  1.5582 -2.5997 -2.2613
  497SOL     OW11139   4.652   1.586   1.696  0.1054  0.4891  0.1152
  497SOL    HW111140   4.624   1.609   1.603  1.4109 -1.2321 -0.7171
  497SOL    HW211141   4.703   1.500   1.696  0.8823  0.9135  2.2955
  498SOL     OW11142   2.740   1.645   0.191 -0.1385 -0.0879 -0.0293
  498SOL    HW111143   2.838   1.652   0.210 -0.6033 -1.6701  3.3250
  498SOL    HW211144   2.695   1.732   0.212  0.2964  0.0982  0.1285
  499SOL     OW11145   3.296   3.896   0.044 -0.4956 -0.4486  0.5649
  499SOL    HW111146   3.311   3.937   0.134  1.2485 -0.7009  0.3888
  499SOL    HW211147   3.222   3.828   0.051 -1.8242  1.0457  1.3334
  500SOL     OW11148   3.601   2.269   2.374  0.2039 -0.0874  0.4003
  500SOL    HW111149   3.588   2.279   2.473 -1.5735 -0.7967  0.2556
  500SOL    HW211150   3.554   2.187   2.343 -0.6265  1.0165 -1.2995
  501SOL     OW11151   3.134   3.394   0.702  0.6871  0.1618  0.0069
  501SOL    HW111152   3.227   3.384   0.668  0.6012 -0.0212 -0.1733
  501SOL    HW211153   3.097   3.483   0.673  0.2681 -0.4086 -1.1996
  502SOL     OW11154   4.403   1.548   0.795 -0.2082  0.2144  1.0245
  502SOL    HW111155   4.392   1.562   0.696  1.4303 -0.5447  0.7352
  502SOL    HW211156   4.316   1.516   0.833 -1.0915  1.2978 -0.0179
  503SOL     OW11157   4.425   3.653   1.302  0.0911  0.1052 -0.5224
  503SOL    HW111158   4.472   3.627   1.218 -2.2021  0.5223 -1.9852
  503SOL    HW211159   4.416   3.573   1.361  1.2937 -0.2990 -0.8829
  504SOL     OW11160   3.592   0.904   0.646  0.0040 -0.4225 -0.4720
  504SOL    HW111161   3.496   0.926   0.661  0.0403 -0.3478 -0.3487
  504SOL    HW211162   3.599   0.826   0.583 -0.1791 -1.4344  0.7401
  505SOL     OW11163   3.020   0.744   0.934 -0.0445 -0.5086  0.0468
  505SOL    HW111164   3.051   0.706   0.847 -1.0353 -1.2300 -0.0049
  505SOL    HW211165   2.923   0.724   0.946  0.0797 -0.4012  1.3079
  506SOL     OW11166   3.382   9.367   0.608  0.4068  0.8553 -0.3679
  506SOL    HW111167   3.373   9.437   0.680  1.1707 -0.3385  0.9042
  506SOL    HW211168   3.358   9.408   0.520  0.5232  2.6452  0.3989
  507SOL     OW11169   3.799   1.613   0.747  0.2607  0.0172  0.0839
  507SOL    HW111170   3.838   1.699   0.716  0.5897 -0.1065  0.1476
  507SOL    HW211171   3.770   1.559   0.668  0.7958 -0.1589  0.0066
  508SOL     OW11172   3.360  10.247   1.405 -0.4671 -0.2087  0.1798
  508SOL    HW111173   3.371  10.317   1.476 -1.9791  0.5258 -0.2877
  508SOL    HW211174   3.424  10.265   1.330 -2.2566  1.9285 -0.8946
  509SOL     OW11175   4.374   1.591   0.508  0.5022  0.1467  0.0519
  509SOL    HW111176   4.450   1.540   0.468 -0.0152  0.3506 -1.2100
  509SOL    HW211177   4.309   1.617   0.436 -0.1308  1.0553  0.9340
  510SOL     OW11178   3.443   3.047   2.613 -0.1895 -0.3397  0.0777
  510SOL    HW111179   3.444   3.133   2.664 -0.7806 -0.5039  0.3704
  510SOL    HW211180   3.529   2.999   2.627 -0.0569 -0.0312  0.3220
  511SOL     OW11181   3.724   9.656   2.221 -0.1735  0.3753  0.2778
  511SOL    HW111182   3.713   9.697   2.312  3.2130  2.1449 -0.0410
  511SOL    HW211183   3.663   9.702   2.156  0.4381  2.0155  0.8261
  512SOL     OW11184   2.924   2.101   1.581  0.5327  0.4285  0.8400
  512SOL    HW111185   2.853   2.151   1.631  0.5848  3.6255 -2.1127
  512SOL    HW211186   2.890   2.079   1.489  2.3934 -0.3725  0.3355
  513SOL     OW11187   3.613   2.968   0.642  0.1774 -0.1611  0.4456
  513SOL    HW111188   3.541   2.924   0.588 -0.5446  1.4946  0.0232
  513SOL    HW211189   3.683   2.900   0.665 -1.1028 -1.6170  0.1783
  514SOL     OW11190   3.276  10.213   2.066 -0.2116  0.0598 -0.3436
  514SOL    HW111191   3.360  10.236   2.016 -0.1474 -0.9948 -0.7388
  514SOL    HW211192   3.295  10.136   2.128 -0.4912  0.8423  0.7228
  515SOL     OW11193   3.088   1.874   2.608  0.0969  0.2389  0.0866
  515SOL    HW111194   3.149   1.943   2.568 -1.3138  0.9960 -0.8342
  515SOL    HW211195   3.096   1.875   2.707  0.1521  1.6987  0.0760
  516SOL     OW11196   3.936   2.313   0.173 -0.1585  0.0581 -0.0077
  516SOL    HW111197   4.029   2.340   0.198 -0.0528  0.6517 -0.9966
  516SOL    HW211198   3.902   2.245   0.238 -0.0284  1.7967  1.9375
  517SOL     OW11199   4.966   2.262   1.583  0.0295  0.5266  0.3651
  517SOL    HW111200   4.959   2.193   1.510 -0.4539 -1.4632  2.2241
  517SOL    HW211201   5.058   2.299   1.586  0.8069 -1.3511  0.4434
  518SOL     OW11202   4.081   4.067   1.115  0.1306  0.7120  0.0009
  518SOL    HW111203   4.145   4.021   1.053  0.9120  1.2007  0.4412
  518SOL    HW211204   3.988   4.050   1.084  0.4651 -0.0289 -0.6352
  519SOL     OW11205   3.636   1.393   0.649  0.3397  0.3739 -0.3654
  519SOL    HW111206   3.651   1.339   0.732  1.4427  1.4166  0.1351
  519SOL    HW211207   3.714   1.382   0.588 -0.1966  0.0876 -1.0048
  520SOL     OW11208   3.039   4.257   0.880  0.2713  0.0968  0.0019
  520SOL    HW111209   3.039   4.355   0.860 -1.5299 -0.0531 -0.8347
  520SOL    HW211210   2.985   4.240   0.963 -0.1329 -0.2606 -0.3298
  521SOL     OW11211   2.936   3.170   1.898  0.3945  0.0617 -0.4357
  521SOL    HW111212   2.853   3.146   1.847 -0.0168  1.8134 -0.6208
  521SOL    HW211213   2.993   3.089   1.910 -1.6391 -1.2803  0.2239
  522SOL     OW11214   3.167   2.612   1.178  0.1812  0.0218 -0.2311
  522SOL    HW111215   3.135   2.701   1.145 -0.9102 -0.9224 -1.7858
  522SOL    HW211216   3.266   2.606   1.166  0.3470  1.2158  0.3942
  523SOL     OW11217   2.755   3.234   1.660  0.2912 -0.3230  0.2023
  523SOL    HW111218   2.657   3.235   1.681  0.0927 -1.0348 -0.6639
  523SOL    HW211219   2.773   3.287   1.578  0.5359 -0.7883 -0.0473
  524SOL     OW11220   3.127   1.851   1.067  0.0400  0.1133 -0.0976
  524SOL    HW111221   3.035   1.877   1.036 -0.5539  0.0677  1.6222
  524SOL    HW211222   3.168   1.927   1.117  0.5319 -0.2557  0.0601
  525SOL     OW11223   4.144   3.136   0.702 -0.0894  0.5725  0.3296
  525SOL    HW111224   4.109   3.054   0.656  2.5073 -0.4774  0.1231
  525SOL    HW211225   4.155   3.210   0.636  0.8670 -0.0172 -0.1774
  526SOL     OW11226   3.845   9.968   0.797 -0.8001  0.3504  0.0684
  526SOL    HW111227   3.763   9.989   0.850 -0.9540  0.8876 -0.3843
  526SOL    HW211228   3.907  10.046   0.799 -1.8337  1.3081 -2.4762
  527SOL     OW11229   3.469   3.249   0.382  0.8148 -0.7222 -0.0683
  527SOL    HW111230   3.505   3.172   0.331  0.7713  0.5724 -2.1224
  527SOL    HW211231   3.541   3.317   0.395  0.2255 -0.0260 -0.4204
  528SOL     OW11232   3.783   2.437   1.106 -0.2590  0.7114 -0.5170
  528SOL    HW111233   3.881   2.456   1.106 -0.2318  0.5918  0.2346
  528SOL    HW211234   3.739   2.485   1.182 -0.7088  0.4129 -0.5838
  529SOL     OW11235   3.348   1.116   0.868  0.0846 -0.1782 -0.1642
  529SOL    HW111236   3.331   1.214   0.876  0.7101 -0.0105 -0.8531
  529SOL    HW211237   3.283   1.066   0.925  0.1454  0.6642  0.6544
  530SOL     OW11238   3.567   0.623   1.496 -0.0419  0.0812  0.2582
  530SOL    HW111239   3.561   0.678   1.413  0.0600 -0.0091  0.1912
  530SOL    HW211240   3.662   0.624   1.529 -0.0484 -0.0230  0.2789
  531SOL     OW11241   2.918   1.163   1.954  0.4030 -0.0356  0.0013
  531SOL    HW111242   2.895   1.203   1.865 -1.5271  0.7668  0.8276
  531SOL    HW211243   2.932   1.065   1.944 -2.9186 -0.5043 -0.7115
  532SOL     OW11244   2.839   2.680   0.425  0.3799 -0.2842  0.1645
  532SOL    HW111245   2.834   2.679   0.525 -0.4144  0.7162  0.1352
  532SOL    HW211246   2.750   2.703   0.387  0.1144 -2.8280 -0.8352
  533SOL     OW11247   4.126   1.545   1.472 -0.1721  0.2555  0.3770
  533SOL    HW111248   4.114   1.638   1.436 -1.0955 -0.5576 -1.5289
  533SOL    HW211249   4.168   1.488   1.401  1.8653 -0.4283  2.0789
  534SOL     OW11250   2.958   1.765   2.383 -0.1343  0.1976  0.7393
  534SOL    HW111251   2.999   1.783   2.472  0.5227  1.1082  0.2566
  534SOL    HW211252   2.943   1.851   2.334  0.5605 -0.3526 -0.4791
  535SOL     OW11253   3.691   3.246   2.558  0.3673  0.4128 -0.4963
  535SOL    HW111254   3.788   3.228   2.573  0.0127 -1.7020 -0.7006
  535SOL    HW211255   3.665   3.328   2.610  1.2601 -1.4641  3.0834
  536SOL     OW11256   3.094   3.688   0.098  0.2362 -0.4545 -0.3552
  536SOL    HW111257   3.158   3.614   0.077 -1.0400 -1.1585 -1.8309
  536SOL    HW211258   3.011   3.651   0.139  1.0627  0.5412  2.2831
  537SOL     OW11259   3.207   2.367   1.065  0.0450  0.1229 -0.7895
  537SOL    HW111260   3.304   2.368   1.039 -0.3251 -1.1439 -2.3013
  537SOL    HW211261   3.188   2.445   1.125  1.6505  1.2968 -1.7460
  538SOL     OW11262   3.370   0.452   1.079  0.5506 -0.3263  0.1827
  538SOL    HW111263   3.279   0.489   1.058 -0.0518 -1.2590  1.1725
  538SOL    HW211264   3.439   0.524   1.063 -0.5362  0.9910  1.3337
  539SOL     OW11265   2.724   2.718   2.607 -0.1198  0.1095 -0.4577
  539SOL    HW111266   2.704   2.638   2.551  1.0150 -0.5647  0.1070
  539SOL    HW211267   2.741   2.797   2.547 -1.3465 -0.0220 -1.0085
  540SOL     OW11268   3.554   1.620   2.166  0.1404 -0.1574 -0.2650
  540SOL    HW111269   3.617   1.696   2.185 -0.2098 -0.1337  0.8178
  540SOL    HW211270   3.607   1.538   2.147  0.5277  0.4268 -1.7582
  541SOL     OW11271   2.950   1.986   2.214 -0.1587  0.5970 -0.0773
  541SOL    HW111272   2.924   2.077   2.246 -2.1347  0.0339  0.0305
  541SOL    HW211273   3.046   1.970   2.233  0.2169  2.6508 -0.0835
  542SOL     OW11274   3.479   0.976   2.205 -0.2034 -0.7386  0.1815
  542SOL    HW111275   3.476   0.988   2.106 -1.9343  1.4189  0.4733
  542SOL    HW211276   3.402   0.920   2.235 -0.1651 -0.6795  0.3945
  543SOL     OW11277   3.670   3.499   2.310  0.2277  0.1593  0.0261
  543SOL    HW111278   3.667   3.419   2.251 -0.9746 -0.3815  0.7916
  543SOL    HW211279   3.718   3.574   2.264 -0.8337 -0.2007 -1.6843
  544SOL     OW11280   4.027   3.924   0.608 -0.0205 -0.5910  0.0255
  544SOL    HW111281   3.977   3.844   0.642 -1.0443  0.8346  1.9719
  544SOL    HW211282   4.117   3.928   0.651 -0.3389 -0.1833  0.6621
  545SOL     OW11283   2.983   3.603   0.597 -0.3303 -0.0431  0.5873
  545SOL    HW111284   3.003   3.535   0.527 -0.5483  0.6235 -0.1286
  545SOL    HW211285   2.891   3.587   0.633  0.0666 -0.8515  1.2757
  546SOL     OW11286   3.641   9.773   1.782 -0.1316  0.3820  0.2512
  546SOL    HW111287   3.582   9.758   1.703 -0.1933  1.6982  0.0394
  546SOL    HW211288   3.709   9.699   1.787 -1.2966 -0.7274  0.0709
  547SOL     OW11289   4.107   3.702   1.595  0.2655 -0.5988 -0.0549
  547SOL    HW111290   4.080   3.789   1.636 -1.3970  0.2160 -2.7116
  547SOL    HW211291   4.197   3.713   1.552  0.3673 -0.3901  0.2059
  548SOL     OW11292   3.823   0.881   0.955 -0.2214  0.3078 -0.0722
  548SOL    HW111293   3.823   0.796   0.903 -0.0252  0.9796 -1.1963
  548SOL    HW211294   3.729   0.912   0.969 -0.2399  0.6210 -0.8677
  549SOL     OW11295   3.282   2.904   2.245  0.2466  0.2126  0.0591
  549SOL    HW111296   3.218   2.841   2.287 -0.0402 -0.2179 -1.0091
  549SOL    HW211297   3.238   2.993   2.230 -0.0330 -0.0132 -0.4641
  550SOL     OW11298   3.047   1.332   1.282  0.5229 -0.3155  1.0111
  550SOL    HW111299   3.113   1.286   1.342  0.4277 -2.0476 -0.1865
  550SOL    HW211300   3.069   1.429   1.278  1.1775 -0.3631  3.0070
  551SOL     OW11301   3.669   1.463   2.579 -0.2861  0.6596 -0.0024
  551SOL    HW111302   3.638   1.510   2.661 -1.3948  0.2257 -0.1707
  551SOL    HW211303   3.598   1.468   2.509  0.4472  0.5802 -0.7586
  552SOL     OW11304   3.280   3.967   0.298 -0.3301 -0.4776  0.1520
  552SOL    HW111305   3.267   3.873   0.328 -1.8928  0.3419  2.1697
  552SOL    HW211306   3.328   4.018   0.369 -1.1626  0.6831 -0.0994
  553SOL     OW11307   3.460   9.636   0.992  0.2955  0.8685  0.3146
  553SOL    HW111308   3.488   9.540   0.989 -1.9769  0.1280  1.3713
  553SOL    HW211309   3.493   9.677   1.077  0.8926  0.9147  0.0651
  554SOL     OW11310   3.618   2.631   2.659 -0.0811  0.2696  0.1179
  554SOL    HW111311   3.668   2.569   2.719  0.1671  1.6749  1.4137
  554SOL    HW211312   3.625   2.724   2.695 -1.6393  0.8334 -0.9935
  555SOL     OW11313   3.422   2.603   1.156 -0.4177  0.1686  0.1587
  555SOL    HW111314   3.459   2.592   1.064 -1.4135  0.0719 -0.2323
  555SOL    HW211315   3.497   2.623   1.219  0.0364  2.1560 -0.9758
  556SOL     OW11316   4.986   3.536   1.095 -0.0982  0.1297  0.1693
  556SOL    HW111317   4.991   3.633   1.071 -0.5187 -0.0038 -0.4642
  556SOL    HW211318   4.980   3.482   1.011 -1.2724 -0.3634  0.5630
  557SOL     OW11319   3.656   4.163   0.411 -0.0010 -0.1490 -0.6649
  557SOL    HW111320   3.630   4.236   0.348  2.3631  0.1389 -1.3445
  557SOL    HW211321   3.707   4.093   0.361  0.6916 -0.5971  0.6596
  558SOL     OW11322   4.205   3.076   1.192  0.0783  0.5499 -0.2728
  558SOL    HW111323   4.197   3.141   1.117 -2.3059  1.6680  0.9048
  558SOL    HW211324   4.172   3.118   1.276 -0.2178 -1.7222  0.7838
  559SOL     OW11325   2.809   2.233   0.408  0.1658 -0.0903  0.8424
  559SOL    HW111326   2.907   2.254   0.405  0.0105  0.6939  1.0903
  559SOL    HW211327   2.796   2.140   0.442  0.8615 -0.5027  0.0268
  560SOL     OW11328   3.765  10.290   2.723  0.0557 -0.4339 -0.2182
  560SOL    HW111329   3.696  10.300   2.651  1.3202 -0.1149 -1.4173
  560SOL    HW211330   3.823  10.372   2.725  0.3203 -0.6406  0.8607
  561SOL     OW11331   2.950   0.406   0.337  0.2877 -0.0076 -0.3957
  561SOL    HW111332   2.969   0.470   0.262  1.3511 -0.2899 -0.3788
  561SOL    HW211333   2.946   0.313   0.300  3.0057 -0.4036  0.1952
  562SOL     OW11334   2.869   3.696   2.018 -0.1425 -0.1743  0.1631
  562SOL    HW111335   2.869   3.767   1.948 -1.3488  1.1643  1.4949
  562SOL    HW211336   2.854   3.737   2.107  0.8396 -1.9283  1.1626
  563SOL     OW11337   2.784   1.362   1.353 -0.2690  0.2386  0.6040
  563SOL    HW111338   2.769   1.444   1.408 -0.8021  0.0080  0.8099
  563SOL    HW211339   2.877   1.361   1.317 -0.3698  1.0991  0.3223
  564SOL     OW11340   4.467   2.304   0.912 -0.4575 -0.1139 -0.2755
  564SOL    HW111341   4.483   2.277   1.007  0.3380  1.4346  0.0555
  564SOL    HW211342   4.376   2.274   0.884 -1.4140  0.9255  1.5637
  565SOL     OW11343   4.559   2.277   2.633 -0.4087  0.0948 -0.1908
  565SOL    HW111344   4.595   2.371   2.630 -0.8652  0.2783 -0.0454
  565SOL    HW211345   4.495   2.269   2.710  0.2210 -0.5481  0.2688
  566SOL     OW11346   3.518  10.260   1.947  0.9240  0.0095 -0.1596
  566SOL    HW111347   3.540  10.178   1.894  1.5753 -0.2650  0.5288
  566SOL    HW211348   3.542  10.341   1.894  1.2226 -0.2573 -0.4314
  567SOL     OW11349   3.658   9.374   0.663 -0.3475 -0.6434  0.3154
  567SOL    HW111350   3.568   9.366   0.620 -0.1072  0.2997 -0.3762
  567SOL    HW211351   3.718   9.304   0.625 -0.5792 -0.8070  0.2437
  568SOL     OW11352   4.677   3.804   1.247  0.6579 -0.6244 -0.1548
  568SOL    HW111353   4.592   3.763   1.279  0.4579  0.7679  1.1634
  568SOL    HW211354   4.749   3.790   1.315  1.1885 -0.8118 -0.7529
  569SOL     OW11355   2.830   2.043   1.222  0.0877 -0.2503 -0.4004
  569SOL    HW111356   2.842   1.951   1.186 -0.2621  0.7461 -3.1852
  569SOL    HW211357   2.772   2.040   1.303  2.1887 -2.7422  1.0992
  570SOL     OW11358   2.687   3.713   0.918  0.7102  0.0735 -0.3718
  570SOL    HW111359   2.724   3.641   0.861 -0.1862  1.0558 -2.2366
  570SOL    HW211360   2.625   3.771   0.864  0.4022  1.4598  1.3942
  571SOL     OW11361   2.750   9.916   2.704  0.0297  0.4195 -0.6592
  571SOL    HW111362   2.769   9.886   2.797 -0.1597  0.5647 -0.5740
  571SOL    HW211363   2.801   9.999   2.684  0.0741  0.3855 -0.6869
  572SOL     OW11364   4.508   1.936   0.977 -0.1530 -0.2053  0.6919
  572SOL    HW111365   4.541   1.849   0.940  0.8734  0.2579  0.4850
  572SOL    HW211366   4.444   1.978   0.913 -0.5010 -0.7135  0.7040
  573SOL     OW11367   3.375  10.036   1.608  0.0809 -0.0505 -0.4585
  573SOL    HW111368   3.377  10.105   1.536  2.1158  1.4499  0.9649
  573SOL    HW211369   3.464  10.033   1.654 -0.8088 -1.7760  1.2309
  574SOL     OW11370   2.583   2.364   0.317  0.0517  0.0392 -0.7296
  574SOL    HW111371   2.546   2.422   0.390  0.6859  0.7623 -0.9711
  574SOL    HW211372   2.661   2.313   0.352 -0.8089 -1.0589 -0.3784
  575SOL     OW11373   2.716  10.332   0.892 -0.4254 -0.0657 -0.0467
  575SOL    HW111374   2.713  10.298   0.798  0.5461  0.2172 -0.1818
  575SOL    HW211375   2.710  10.255   0.955 -1.0178 -0.2623 -0.3301
  576SOL     OW11376   4.001   4.617   1.201  0.4556  0.2834  0.2716
  576SOL    HW111377   3.930   4.629   1.132  0.4727  1.7962  0.5102
  576SOL    HW211378   3.965   4.643   1.290 -0.2703 -3.7412  1.2396
  577SOL     OW11379   4.500   4.007   1.075 -0.3704  0.3410 -0.2750
  577SOL    HW111380   4.565   4.075   1.041  0.8993 -2.5247 -3.8822
  577SOL    HW211381   4.543   3.952   1.147  0.1760  0.4055 -0.5546
  578SOL     OW11382   2.977   2.296   1.217  0.2998 -0.1802 -0.2563
  578SOL    HW111383   2.937   2.205   1.219 -0.3003  0.0312 -2.0344
  578SOL    HW211384   3.061   2.295   1.162 -0.1822  0.5205 -1.0162
  579SOL     OW11385   4.345   3.455   1.801  0.7205 -0.3730  0.0331
  579SOL    HW111386   4.377   3.360   1.799 -0.2223 -0.7008  0.0605
  579SOL    HW211387   4.410   3.513   1.752  1.1774 -1.0734 -0.2052
  580SOL     OW11388   3.951   4.179   0.784  0.0646 -0.2999  0.2823
  580SOL    HW111389   4.003   4.114   0.728  3.1977  2.0687  0.2749
  580SOL    HW211390   3.913   4.250   0.726 -0.2540 -0.1135  0.7146
  581SOL     OW11391   4.627   1.713   0.834  0.7233 -0.6957 -0.0177
  581SOL    HW111392   4.692   1.714   0.759 -0.1620  0.6001 -0.8039
  581SOL    HW211393   4.557   1.643   0.817 -1.2153  1.6384 -1.9813
  582SOL     OW11394   3.022   0.887   1.928  0.1200  0.0170 -0.3695
  582SOL    HW111395   3.101   0.834   1.959  0.2620 -0.8194 -2.1060
  582SOL    HW211396   2.938   0.839   1.954  0.2067 -0.0344 -0.1798
  583SOL     OW11397   3.507  10.322   0.873 -0.6086  0.6807 -0.1213
  583SOL    HW111398   3.446  10.354   0.945 -0.3915  2.3358 -0.6471
  583SOL    HW211399   3.462  10.250   0.820 -0.6583 -0.7643  1.8299
  584SOL     OW11400   2.638   1.863   0.791  0.5894 -0.0377 -0.0523
  584SOL    HW111401   2.675   1.775   0.761  0.2751 -0.9830  2.2303
  584SOL    HW211402   2.594   1.909   0.714  0.8283 -1.8484 -1.2865
  585SOL     OW11403   3.779   0.603   0.840  0.1987  0.4322 -0.4063
  585SOL    HW111404   3.784   0.504   0.830 -0.9690  0.4405 -1.1212
  585SOL    HW211405   3.799   0.647   0.752 -0.6358  0.7876 -0.4217
  586SOL     OW11406   4.069   3.949   0.155 -0.1449  0.5140  0.0554
  586SOL    HW111407   4.084   4.017   0.082 -2.3074  0.4521 -0.5019
  586SOL    HW211408   4.016   3.991   0.229  1.3101  0.3304  1.2201
  587SOL     OW11409   3.963   2.179   1.667  0.2636 -0.4844  0.5181
  587SOL    HW111410   3.942   2.166   1.570  1.7698 -0.3260  0.1654
  587SOL    HW211411   4.003   2.095   1.704  0.8601 -0.1314  0.6842
  588SOL     OW11412   3.827   2.604   1.795 -0.1542 -0.0573  0.6159
  588SOL    HW111413   3.915   2.645   1.817 -0.1937 -0.0214  0.7056
  588SOL    HW211414   3.776   2.666   1.736 -0.4968  0.3225  1.3114
  589SOL     OW11415   3.353   3.150   0.605  0.3834 -0.3658 -0.0434
  589SOL    HW111416   3.402   3.205   0.537  0.6784 -0.0412  0.4203
  589SOL    HW211417   3.284   3.094   0.560 -2.0560  2.6664 -0.2392
  590SOL     OW11418   3.030   3.739   0.856  0.2813  0.5026 -0.0904
  590SOL    HW111419   3.066   3.813   0.914 -1.2081  0.3562  1.0558
  590SOL    HW211420   2.958   3.776   0.797 -0.0634  0.0998  0.0728
  591SOL     OW11421   3.175   3.704   0.415 -0.1458  0.1352 -0.4879
  591SOL    HW111422   3.201   3.608   0.401  0.9385  0.5712 -1.5659
  591SOL    HW211423   3.102   3.709   0.483  1.2050 -1.2825  1.1081
  592SOL     OW11424   3.339   3.837   2.250 -0.5006  0.0530  0.3435
  592SOL    HW111425   3.436   3.831   2.225 -0.7237  0.1461 -0.5777
  592SOL    HW211426   3.316   3.760   2.310 -0.2325 -0.9086 -0.7488
  593SOL     OW11427   2.858   2.398   2.722  0.3541  0.0764 -0.2821
  593SOL    HW111428   2.823   2.439   2.638  0.4260 -0.3463 -0.5247
  593SOL    HW211429   2.855   2.298   2.712  1.7677  0.0425 -0.3594
  594SOL     OW11430   3.043   0.970   0.583  0.1816  0.1232  0.0070
  594SOL    HW111431   3.069   0.875   0.603 -0.0580 -0.3799 -1.9893
  594SOL    HW211432   3.122   1.020   0.549 -0.0815  0.1963 -0.4938
  595SOL     OW11433   3.365   2.480   2.026  0.9586 -0.2126 -0.0064
  595SOL    HW111434   3.449   2.448   2.069 -0.4521 -1.7988  1.6387
  595SOL    HW211435   3.305   2.519   2.096 -0.1380 -0.1288 -0.9846
  596SOL     OW11436   3.968   1.987   1.170 -0.7652 -0.0717  0.5044
  596SOL    HW111437   3.972   1.942   1.259 -0.9286 -0.2067  0.4460
  596SOL    HW211438   3.901   1.939   1.113 -0.1879 -0.3900  0.0836
  597SOL     OW11439   2.961  10.074   0.361 -0.1813 -0.1225  0.3006
  597SOL    HW111440   2.971  10.082   0.262 -1.8193 -0.1739  0.1281
  597SOL    HW211441   3.042  10.028   0.398  1.0318  1.0548 -0.8437
  598SOL     OW11442   3.929  10.200   1.319  0.2113  0.0884  0.7123
  598SOL    HW111443   3.933  10.218   1.417 -2.0642  0.8580  0.7107
  598SOL    HW211444   3.980  10.270   1.270 -0.1804  0.7770  1.2688
  599SOL     OW11445   4.257  10.116   1.228  0.2703  0.4205 -0.0475
  599SOL    HW111446   4.318  10.042   1.202  0.3557 -0.0068  1.3236
  599SOL    HW211447   4.231  10.106   1.324  0.1649  2.0814  0.1182
  600SOL     OW11448   3.070   3.124   0.750 -1.0234  0.6303 -0.4705
  600SOL    HW111449   3.093   3.220   0.732  0.6275  0.3874  0.2480
  600SOL    HW211450   3.154   3.074   0.771 -1.7247 -1.2472 -2.0937
  10.00000  10.00000   2.87600
