chitosan Film  in water:acetic acid 2%
11776
    1CHTO  H203    1   4.746   7.287   0.066  1.8401  0.4591 -0.1160
    1CHTO   O82    2   4.777   7.215   0.014 -0.1501 -0.0252 -0.6961
    1CHTO  C123    3   4.892   7.161   0.082  0.1773  0.2824  0.1114
    1CHTO  H227    4   4.938   7.228   0.155  1.2138  1.8109 -1.8956
    1CHTO   O77    5   4.834   7.038   0.138  0.2959  0.0042  0.0823
    1CHTO  C118    6   4.928   6.966   0.216 -0.2296  0.2070 -0.0549
    1CHTO  H222    7   4.982   7.034   0.284 -1.6107  2.0830 -0.8174
    1CHTO  C125    8   4.851   6.862   0.301 -0.0906 -0.0068  0.4386
    1CHTO   O84    9   4.809   6.748   0.224  0.0637  0.2760  0.4595
    1CHTO  H205   10   4.751   6.762   0.152 -1.1589  0.6403  1.4778
    1CHTO  C114   11   5.032   6.899   0.119  1.2457  0.4847 -0.1832
    1CHTO  H218   12   4.975   6.831   0.056 -1.8276  2.6986  0.0777
    1CHTO  C116   13   5.102   7.011   0.043 -0.3860 -0.3475 -0.3338
    1CHTO  H220   14   5.169   7.066   0.111 -2.0653  0.1869  0.9384
    1CHTO   O79   15   5.188   6.954  -0.053  0.3090 -0.1163 -0.4222
    1CHTO  H201   16   5.277   6.983  -0.058  0.0393  1.1125  1.4304
    1CHTO  C120   17   5.003   7.118  -0.025 -0.2924  0.0937 -0.4822
    1CHTO  H224   18   4.950   7.066  -0.108 -0.3023 -1.4291  0.4646
    1CHTO   N21   19   5.069   7.231  -0.098  0.3364  0.7142 -0.4336
    1CHTO  H211   20   5.164   7.197  -0.136  1.8310 -0.7776  4.2263
    1CHTO  H212   21   5.010   7.271  -0.179 -1.4532 -0.1973  0.3727
    1CHTO   O75   22   5.120   6.828   0.205 -0.8664 -0.5984  0.4454
    1CHTO  C112   23   5.161   6.670   0.146 -0.5349  0.0186  0.3446
    1CHTO  H216   24   5.152   6.670   0.036 -3.1591 -2.8511  0.4617
    1CHTO   O73   25   5.068   6.580   0.201  0.2298  0.5985  0.0020
    1CHTO  C113   26   5.086   6.437   0.192  0.1952 -0.2426  0.0362
    1CHTO  H217   27   5.075   6.412   0.084 -0.4521 -0.1991  0.0911
    1CHTO  C124   28   4.968   6.372   0.262  0.5371  0.4501  0.2913
    1CHTO   O83   29   4.959   6.226   0.258 -0.3135  0.1656 -0.3124
    1CHTO  H204   30   5.029   6.184   0.303 -2.1271 -0.7398  1.8001
    1CHTO  C109   31   5.213   6.400   0.264  0.6785 -0.2572 -0.4126
    1CHTO  H213   32   5.196   6.434   0.368  0.7738  1.9037 -1.0656
    1CHTO  C110   33   5.340   6.472   0.203  0.2405  0.0466 -0.1188
    1CHTO  H214   34   5.348   6.436   0.101 -2.7278 -1.0857  0.0180
    1CHTO   O78   35   5.458   6.447   0.274 -0.1790 -0.1362 -0.3074
    1CHTO  H200   36   5.529   6.432   0.215 -0.7781  0.3385 -1.1615
    1CHTO  C111   37   5.312   6.626   0.198  0.2285  0.7183 -0.1529
    1CHTO  H215   38   5.307   6.667   0.299  0.0415  1.1289 -0.3273
    1CHTO   N19   39   5.411   6.709   0.124  0.9059  0.2623  0.1183
    1CHTO  H207   40   5.506   6.685   0.169 -0.3945 -2.4942  1.5175
    1CHTO  H208   41   5.383   6.814   0.128  0.5801  0.2585 -1.5821
    1CHTO   O74   42   5.223   6.255   0.268 -0.5153 -0.1335  0.2630
    1CHTO  C115   43   5.289   6.194   0.390  0.3994  0.3972 -0.5901
    1CHTO  H219   44   5.313   6.270   0.465  1.2941 -0.9680  0.5234
    1CHTO   O76   45   5.195   6.090   0.464  0.4561 -0.3928  0.5496
    1CHTO  C122   46   5.164   5.981   0.370  0.3223  0.4897  0.2784
    1CHTO  H226   47   5.068   6.009   0.327  1.1090  0.8221 -1.3156
    1CHTO  C126   48   5.137   5.854   0.450 -0.1149 -0.1088 -0.0817
    1CHTO   O85   49   5.251   5.826   0.529 -0.8000  0.5791  0.5600
    1CHTO  H206   50   5.267   5.887   0.598 -0.0458 -0.5492  1.4002
    1CHTO  C121   51   5.257   5.949   0.242  0.0360  0.4383 -0.2609
    1CHTO  H225   52   5.244   5.841   0.220  0.6320  0.3853 -0.3460
    1CHTO   O81   53   5.212   6.012   0.126 -0.2410 -0.5503  0.0085
    1CHTO  H202   54   5.236   6.103   0.132 -0.4433 -0.6539  2.7321
    1CHTO  C119   55   5.404   5.979   0.270 -0.0803  0.2700 -0.0207
    1CHTO  H223   56   5.429   5.908   0.349  0.3248  0.7194  0.2521
    1CHTO  C117   57   5.424   6.124   0.334 -0.3405 -0.2117 -0.8317
    1CHTO  H221   58   5.467   6.195   0.264  0.6661  0.0454  0.0229
    1CHTO   N20   59   5.522   6.120   0.445  0.5940  0.2220 -0.1753
    1CHTO  H209   60   5.490   6.060   0.529 -1.4800  1.4225 -0.0781
    1CHTO  H210   61   5.546   6.223   0.469 -0.0501  0.2714  0.2749
    1CHTO   O80   62   5.506   5.940   0.153  0.4805 -0.0906  0.4394
    1CHTO  C103   63   5.591   5.820   0.166 -0.4483  0.3720 -0.4522
    1CHTO  H190   64   5.603   5.798   0.272  1.4074  0.2644 -0.6784
    1CHTO  C101   65   5.551   5.680   0.087  0.6308  0.3215 -0.4594
    1CHTO  H188   66   5.540   5.699  -0.019 -3.2403  0.2744 -0.1320
    1CHTO   O68   67   5.417   5.629   0.140 -0.1832  0.4184 -0.4451
    1CHTO  H168   68   5.393   5.553   0.090 -1.8874  1.8003 -1.7961
    1CHTO   C99   69   5.666   5.563   0.102  1.1205  0.2278  0.1406
    1CHTO  H186   70   5.674   5.537   0.210 -1.3970  0.5752  0.4245
    1CHTO   N17   71   5.633   5.434   0.029  0.1339 -0.7776  0.1205
    1CHTO  H174   72   5.707   5.434  -0.049 -1.0034  1.3216 -1.0084
    1CHTO  H175   73   5.637   5.342   0.086 -1.3358 -1.8236 -1.4221
    1CHTO   C97   74   5.804   5.621   0.059  0.5658  0.0769 -0.1894
    1CHTO  H184   75   5.805   5.639  -0.050  3.9896 -1.5820 -0.5136
    1CHTO   O64   76   5.824   5.742   0.136  0.1957  0.2368  0.6881
    1CHTO  C104   77   5.735   5.851   0.110  0.5957  0.1867  0.2754
    1CHTO  H191   78   5.727   5.861   0.001 -0.8719 -2.1527  0.1469
    1CHTO  C108   79   5.789   5.988   0.167  0.2951  0.1605 -0.2246
    1CHTO   O71   80   5.803   5.996   0.312 -0.0538  0.8524  0.1226
    1CHTO  H171   81   5.873   5.942   0.342 -0.3940  0.4778  0.2591
    1CHTO   O62   82   5.908   5.544   0.108 -0.1720  0.0408 -0.0049
    1CHTO   C91   83   6.006   5.497   0.013  0.3596 -0.4236 -0.0240
    1CHTO  H178   84   5.959   5.487  -0.085 -0.9869  0.3161  0.5424
    1CHTO   C92   85   6.042   5.348   0.058 -0.0828 -0.4116  0.2124
    1CHTO  H179   86   6.066   5.349   0.166  0.5397  1.8765  0.0769
    1CHTO   O66   87   5.918   5.272   0.048 -0.4341  0.6088 -0.3060
    1CHTO  H166   88   5.864   5.286   0.123  0.3973 -2.3146  0.9094
    1CHTO   C93   89   6.157   5.292  -0.031 -0.4479 -0.2184  0.3904
    1CHTO  H180   90   6.126   5.296  -0.136 -0.0234 -0.1309  0.2686
    1CHTO   N16   91   6.198   5.153  -0.004  0.4683  0.1728  0.2065
    1CHTO  H172   92   6.260   5.159   0.084  0.4126  0.1738  0.2462
    1CHTO  H173   93   6.257   5.115  -0.087 -1.6290 -1.8353 -0.4186
    1CHTO   C94   94   6.279   5.388  -0.014 -0.2322 -0.2906  0.0317
    1CHTO  H181   95   6.306   5.402   0.090 -1.4710  0.4860  0.2566
    1CHTO   O61   96   6.245   5.519  -0.065 -0.6532 -0.1211  0.2256
    1CHTO   C95   97   6.133   5.588  -0.001 -0.2917 -0.2957 -0.2839
    1CHTO  H182   98   6.162   5.619   0.099  0.1392  2.5041 -1.2517
    1CHTO  C106   99   6.112   5.719  -0.079  0.4958  0.3807  0.7489
    1CHTO   O69  100   6.089   5.702  -0.218  0.2929 -0.5441  0.3232
    1CHTO  H169  101   6.105   5.613  -0.244  0.6328 -0.5525  0.5567
    1CHTO   O63  102   6.402   5.341  -0.098  0.1465 -0.3613 -0.0138
    1CHTO   C96  103   6.527   5.440  -0.098 -0.1639 -0.2935 -0.5848
    1CHTO  H183  104   6.499   5.527  -0.039  0.2711 -0.5776  0.0501
    1CHTO   C98  105   6.562   5.477  -0.244 -0.0751 -0.0747  0.0167
    1CHTO  H185  106   6.471   5.508  -0.298  0.9145 -0.4906 -1.9228
    1CHTO   O67  107   6.648   5.592  -0.237 -0.0052 -0.0653  0.1456
    1CHTO  H167  108   6.641   5.648  -0.312  1.3398  0.6161  0.5204
    1CHTO  C102  109   6.639   5.365  -0.326 -0.1588 -0.6906 -0.0759
    1CHTO  H189  110   6.694   5.421  -0.403 -3.1759  1.3280 -0.8783
    1CHTO   N18  111   6.556   5.266  -0.406  0.4478 -0.1435  0.2829
    1CHTO  H176  112   6.509   5.312  -0.491  2.0648  0.5079 -0.2919
    1CHTO  H177  113   6.619   5.184  -0.437  3.7129  0.6389  4.3828
    1CHTO  C105  114   6.740   5.286  -0.234 -0.1560 -0.5076 -0.2527
    1CHTO  H192  115   6.697   5.190  -0.208  0.6053 -0.7406  0.1595
    1CHTO   O65  116   6.766   5.353  -0.109 -0.2872 -0.2681  0.0925
    1CHTO  C100  117   6.653   5.372  -0.022  0.7446  0.2809 -0.0487
    1CHTO  H187  118   6.625   5.269   0.003 -0.3999  0.4131 -0.7440
    1CHTO  C107  119   6.700   5.454   0.098 -0.6650  0.4862 -0.2082
    1CHTO   O70  120   6.761   5.368   0.196 -0.1688 -0.5403  0.1121
    1CHTO  H170  121   6.838   5.411   0.228 -1.1618  0.8608  0.6373
    1CHTO   O57  122   6.883   5.275  -0.301 -0.4409 -0.0234 -0.5880
    1CHTO   C85  123   6.950   5.147  -0.311  0.2520 -0.7218 -0.2219
    1CHTO  H157  124   6.866   5.082  -0.342  0.4164 -0.9161 -0.2600
    1CHTO   C83  125   7.000   5.094  -0.173  0.0509  0.5709 -0.4494
    1CHTO  H155  126   6.917   5.064  -0.109  1.9772  0.1309  1.9007
    1CHTO   O56  127   7.071   5.187  -0.095 -0.3467  0.0437  0.3081
    1CHTO  H135  128   7.010   5.246  -0.055 -1.7508 -0.8237 -0.5154
    1CHTO   C81  129   7.078   4.962  -0.204 -0.0193 -0.2871 -0.6158
    1CHTO  H153  130   7.007   4.894  -0.252 -2.1378 -0.1888  2.2794
    1CHTO   N14  131   7.116   4.885  -0.084 -0.2859 -0.7345 -0.0838
    1CHTO  H141  132   7.094   4.783  -0.106 -0.5411 -0.8371  0.6567
    1CHTO  H142  133   7.057   4.918  -0.001  0.7623  0.5960  0.1608
    1CHTO   C79  134   7.198   4.982  -0.304  0.6801  0.0076  0.3879
    1CHTO  H151  135   7.240   4.883  -0.321  0.3381 -0.2735  1.1510
    1CHTO   O52  136   7.143   5.028  -0.434  0.0084  0.1275 -0.0367
    1CHTO   C86  137   7.063   5.150  -0.423 -0.5835  0.3057 -0.1531
    1CHTO  H158  138   7.136   5.230  -0.400  0.4288 -0.4832 -0.5865
    1CHTO   C90  139   7.011   5.180  -0.569  0.0062  0.8299  0.1282
    1CHTO   O60  140   7.085   5.272  -0.644  0.2437  0.2796  0.5721
    1CHTO  H138  141   7.070   5.265  -0.737 -0.3294 -0.4400  0.7163
    1CHTO   O50  142   7.307   5.069  -0.260  0.3087 -0.0115  0.3269
    1CHTO   C73  143   7.435   5.136  -0.250  0.4228 -0.1518  0.3451
    1CHTO  H145  144   7.464   5.165  -0.352 -0.5477  0.4609  0.2313
    1CHTO   C74  145   7.554   5.050  -0.189 -0.0141  0.8489  0.3292
    1CHTO  H146  146   7.568   4.965  -0.257  1.0950 -0.0027  1.6207
    1CHTO   O54  147   7.677   5.125  -0.189 -0.3073 -0.2527 -1.1601
    1CHTO  H133  148   7.709   5.130  -0.277  2.2812  0.3068 -0.2253
    1CHTO   C75  149   7.510   5.005  -0.046 -0.3120 -0.0668  0.4198
    1CHTO  H147  150   7.412   4.957  -0.054  1.2395 -3.2566 -0.5562
    1CHTO   N13  151   7.598   4.912   0.027 -0.3258  0.1346 -0.1465
    1CHTO  H139  152   7.597   4.820  -0.030  0.7364 -0.8979  1.4570
    1CHTO  H140  153   7.700   4.949   0.017 -0.4702  0.6858  0.3735
    1CHTO   C76  154   7.478   5.138   0.040  0.6454 -0.1228 -0.2388
    1CHTO  H148  155   7.578   5.183   0.044  1.3666 -1.7806  0.9816
    1CHTO   O49  156   7.381   5.224  -0.029  0.4602  0.0811  0.7005
    1CHTO   C77  157   7.416   5.265  -0.164 -0.2630 -0.1635  0.0021
    1CHTO  H149  158   7.511   5.317  -0.156 -0.6756  0.4067  1.2684
    1CHTO   C88  159   7.309   5.361  -0.214 -0.1957  0.1951 -0.1488
    1CHTO   O58  160   7.337   5.425  -0.357 -0.2772 -0.2086  0.2797
    1CHTO  H136  161   7.387   5.503  -0.343 -1.0169  0.0664  1.4842
    1CHTO   O51  162   7.432   5.094   0.203  0.3073 -0.1918  0.2686
    1CHTO   C78  163   7.370   5.215   0.281 -0.1972 -0.1682  0.3006
    1CHTO  H150  164   7.341   5.300   0.216  0.3984  0.1711  0.4739
    1CHTO   C80  165   7.475   5.273   0.383 -0.5222 -0.3781  0.3472
    1CHTO  H152  166   7.504   5.191   0.452  1.4808  0.9953  1.1636
    1CHTO   O55  167   7.589   5.307   0.306  1.0532  0.2316 -0.0236
    1CHTO  H134  168   7.651   5.236   0.308  1.9505  1.0248  0.9170
    1CHTO   C84  169   7.412   5.392   0.467 -0.0653 -0.1778 -0.3290
    1CHTO  H156  170   7.374   5.471   0.403  0.8511  0.2575 -0.3455
    1CHTO   N15  171   7.506   5.452   0.562 -0.5976  0.1791  0.3377
    1CHTO  H143  172   7.460   5.544   0.591 -0.1875  1.2000 -2.1155
    1CHTO  H144  173   7.607   5.464   0.529 -1.4170  0.5445 -2.0909
    1CHTO   C87  174   7.290   5.324   0.535 -0.0044  0.4314  0.2523
    1CHTO  H159  175   7.319   5.241   0.599 -0.2219  1.7968  2.1581
    1CHTO   O53  176   7.190   5.275   0.440 -0.4794  0.5432 -0.1358
    1CHTO   C82  177   7.238   5.166   0.351 -0.2163 -0.5048  0.0418
    1CHTO  H154  178   7.251   5.079   0.415  0.1633 -0.6968 -0.2929
    1CHTO   C89  179   7.125   5.140   0.252 -0.0226 -0.3658 -0.0235
    1CHTO   O59  180   7.006   5.095   0.313  0.3197 -0.7968  0.2768
    1CHTO  H137  181   7.007   5.140   0.396  1.4963 -2.1686  1.0358
    1CHTO   O45  182   7.187   5.428   0.617 -0.3041 -0.0639 -0.2230
    1CHTO   C67  183   7.111   5.518   0.532  0.1896 -0.5010  0.4494
    1CHTO  H124  184   7.132   5.502   0.427 -0.3303 -0.8887  0.4031
    1CHTO   C65  185   6.957   5.504   0.549 -0.1971 -0.1602  0.4272
    1CHTO  H122  186   6.937   5.398   0.537 -1.7332  0.2401 -0.6795
    1CHTO   O44  187   6.894   5.566   0.435 -0.1268 -0.4489 -0.2670
    1CHTO  H102  188   6.900   5.523   0.352  0.6101 -0.7255 -0.0648
    1CHTO   C63  189   6.909   5.560   0.696 -0.2513  0.1479  0.5751
    1CHTO  H120  190   6.964   5.502   0.770  0.2801 -0.8682 -0.5881
    1CHTO   N11  191   6.769   5.534   0.732  0.0877 -0.3020 -0.1261
    1CHTO  H108  192   6.706   5.504   0.651 -1.9055 -0.3601  1.3788
    1CHTO  H109  193   6.724   5.616   0.785  1.1217 -0.1798  0.5735
    1CHTO   C61  194   6.939   5.711   0.690 -0.4564  0.7780  0.8338
    1CHTO  H118  195   6.909   5.751   0.787 -1.5466  1.3286  0.2834
    1CHTO   O40  196   7.093   5.717   0.684 -0.1676 -0.1156  0.0243
    1CHTO   C68  197   7.151   5.664   0.560  0.0037  0.1809  0.5042
    1CHTO  H125  198   7.261   5.650   0.566 -0.1234 -0.3110  1.8089
    1CHTO   C72  199   7.130   5.765   0.438  0.3113 -0.3547  0.0297
    1CHTO   O48  200   7.181   5.896   0.451 -0.1593  0.5979 -0.5265
    1CHTO  H105  201   7.108   5.943   0.414 -1.1910  0.8115  1.6714
    1CHTO   O38  202   6.867   5.788   0.591 -0.3882 -0.5815  0.1348
    1CHTO   C55  203   6.791   5.904   0.639 -0.0374  0.3670  0.3876
    1CHTO  H112  204   6.781   5.892   0.748 -1.6178 -2.0500  0.0169
    1CHTO   C56  205   6.649   5.911   0.560 -0.7683 -0.5782 -0.1239
    1CHTO  H113  206   6.679   5.909   0.454  0.9924 -2.2690  0.3794
    1CHTO   O42  207   6.559   5.797   0.587  0.3777  0.2484  0.2353
    1CHTO  H100  208   6.585   5.723   0.537  1.0376 -0.0375  0.9918
    1CHTO   C57  209   6.572   6.053   0.581 -0.4493 -0.3849 -0.4114
    1CHTO  H114  210   6.546   6.051   0.687 -0.2569 -0.9812 -0.3726
    1CHTO   N10  211   6.449   6.075   0.508  0.3475 -0.1959  0.2863
    1CHTO  H106  212   6.385   6.130   0.576  0.4382 -0.1605  0.3425
    1CHTO  H107  213   6.399   5.984   0.479  0.9291 -0.5647  0.4362
    1CHTO   C58  214   6.675   6.165   0.552 -0.1536  0.4210  0.0026
    1CHTO  H115  215   6.706   6.162   0.446  1.0731 -0.0092  0.3554
    1CHTO   O37  216   6.792   6.147   0.629 -0.2459  0.5276  0.1456
    1CHTO   C59  217   6.871   6.028   0.605 -0.0875  0.3153 -0.2023
    1CHTO  H116  218   6.906   6.018   0.502 -0.2608 -0.6541 -0.1711
    1CHTO   C70  219   6.993   6.041   0.694 -0.4654 -0.0354  0.0210
    1CHTO   O46  220   7.072   6.155   0.658  0.1954 -0.2655  0.1324
    1CHTO  H103  221   7.154   6.153   0.704 -1.1272 -0.7327  2.5763
    1CHTO   O39  222   6.610   6.309   0.593  0.4777 -0.2009 -0.2064
    1CHTO   C60  223   6.603   6.406   0.477  0.2777  0.4392 -1.0036
    1CHTO  H117  224   6.647   6.359   0.389 -1.2223 -2.0039 -0.4730
    1CHTO   C62  225   6.457   6.436   0.437 -0.0632 -0.0852 -0.3131
    1CHTO  H119  226   6.419   6.344   0.387 -0.1224 -0.8489  1.0998
    1CHTO   O43  227   6.378   6.465   0.553 -0.5233 -0.1726 -0.3016
    1CHTO  H101  228   6.413   6.539   0.599 -2.5925  1.0254 -0.5724
    1CHTO   C66  229   6.451   6.542   0.317 -0.4229  0.0559  0.4963
    1CHTO  H123  230   6.500   6.498   0.230  1.0100 -0.8957  1.7787
    1CHTO   N12  231   6.314   6.565   0.267 -0.6162  0.1693  0.1982
    1CHTO  H110  232   6.312   6.639   0.189  0.2730  0.9590  0.9023
    1CHTO  H111  233   6.282   6.472   0.223 -0.0298  0.3686 -0.6525
    1CHTO   C69  234   6.536   6.666   0.350  0.4476 -0.0645 -0.0975
    1CHTO  H126  235   6.498   6.722   0.437  1.9888 -1.4264  1.4881
    1CHTO   O41  236   6.686   6.624   0.380 -0.5093 -0.1563 -0.4151
    1CHTO   C64  237   6.683   6.537   0.505  0.1174  0.4138 -0.3554
    1CHTO  H121  238   6.636   6.592   0.589  1.4811  0.2468  0.5260
    1CHTO   C71  239   6.826   6.498   0.544  0.4401 -0.0647 -0.0782
    1CHTO   O47  240   6.828   6.464   0.684 -0.3366  0.7119 -0.3824
    1CHTO  H104  241   6.796   6.377   0.699 -0.5140  0.8544  0.0571
    1CHTO   O34  242   6.534   6.759   0.233 -0.0431 -0.0011 -0.1514
    1CHTO   C49  243   6.554   6.913   0.208  0.0281  0.2554 -0.3623
    1CHTO   H91  244   6.554   6.921   0.099  1.0433  1.2771 -0.2896
    1CHTO   C47  245   6.691   6.962   0.268  0.3866  0.7119 -0.0121
    1CHTO   H89  246   6.710   7.069   0.245  0.7929  0.4103 -1.1233
    1CHTO   O33  247   6.795   6.886   0.207 -0.1466 -0.1089 -0.3111
    1CHTO   H70  248   6.869   6.906   0.260  1.0845 -0.7813 -1.7406
    1CHTO   C45  249   6.683   6.945   0.432  0.5869 -0.7788 -0.0661
    1CHTO   H87  250   6.652   6.842   0.452 -0.7153 -0.5767 -0.9781
    1CHTO    N8  251   6.814   6.973   0.494  0.4154  0.3682  0.1740
    1CHTO   H75  252   6.806   6.930   0.593  0.8951 -0.8563 -0.3118
    1CHTO   H76  253   6.834   7.079   0.505 -1.4740  0.6726  0.7455
    1CHTO   C43  254   6.560   7.034   0.488 -0.1239  0.1924  0.1531
    1CHTO   H85  255   6.548   7.020   0.595  2.1098  1.7503  0.6363
    1CHTO   O29  256   6.440   7.001   0.417  0.2320  0.6954 -0.0117
    1CHTO   C50  257   6.429   6.990   0.271 -0.8692  0.6162 -0.7764
    1CHTO   H92  258   6.338   6.928   0.258 -2.0995  1.5613  2.8131
    1CHTO   C54  259   6.406   7.129   0.203 -0.4342  0.6877 -0.4265
    1CHTO   O36  260   6.283   7.187   0.229  0.8488 -0.1453 -0.2431
    1CHTO   H72  261   6.272   7.263   0.174  2.8198  0.6638  0.4298
    1CHTO   O27  262   6.586   7.175   0.480 -0.1569 -0.5620 -0.1173
    1CHTO   C37  263   6.599   7.316   0.513 -0.1825  0.2652  0.2255
    1CHTO   H79  264   6.607   7.335   0.621 -3.3053 -0.5594  0.6273
    1CHTO   C38  265   6.740   7.364   0.457 -0.5490  0.2339 -0.1536
    1CHTO   H80  266   6.744   7.339   0.350 -1.2280  0.4447 -0.2318
    1CHTO   O31  267   6.843   7.308   0.534  0.1983  0.3078 -0.3888
    1CHTO   H68  268   6.844   7.327   0.625  1.0130  2.0800 -0.7601
    1CHTO   C39  269   6.747   7.519   0.466  0.1840 -0.1446 -0.1000
    1CHTO   H81  270   6.751   7.547   0.571  2.0565  1.8908 -0.6796
    1CHTO    N7  271   6.865   7.583   0.409  0.6278 -0.6431  0.4932
    1CHTO   H73  272   6.947   7.567   0.477 -0.0843  0.2657  1.5868
    1CHTO   H74  273   6.850   7.685   0.376 -0.5477 -0.6787  0.8665
    1CHTO   C40  274   6.616   7.591   0.414  0.7046 -0.0906 -0.3319
    1CHTO   H82  275   6.616   7.574   0.306  3.0829 -0.1954 -0.3496
    1CHTO   O26  276   6.499   7.540   0.477  0.3181 -0.2012 -0.1228
    1CHTO   C41  277   6.475   7.394   0.460 -0.3576 -0.2882  0.2400
    1CHTO   H83  278   6.452   7.372   0.355 -1.2284 -0.1039  0.3830
    1CHTO   C52  279   6.348   7.355   0.543  0.1813  0.1302 -0.1911
    1CHTO   O35  280   6.229   7.413   0.487  0.6639 -0.2652 -0.3684
    1CHTO   H71  281   6.175   7.432   0.561 -1.3679 -1.9757 -1.3486
    1CHTO   O28  282   6.599   7.731   0.450 -0.0551  0.6188  0.4204
    1CHTO   C42  283   6.602   7.839   0.353  0.5948  0.3695  0.1080
    1CHTO   H84  284   6.649   7.791   0.267 -0.4189  1.2212 -0.9376
    1CHTO   C44  285   6.691   7.961   0.395 -0.3058  0.8179 -0.6184
    1CHTO   H86  286   6.657   8.001   0.491  0.9583  0.8342 -0.1722
    1CHTO   O32  287   6.825   7.919   0.425  0.3837  0.0019 -0.3845
    1CHTO   H69  288   6.881   7.993   0.437 -1.3081  1.8074 -2.9443
    1CHTO   C48  289   6.686   8.074   0.282  0.1706  0.2172  0.3972
    1CHTO   H90  290   6.739   8.031   0.197 -1.7973  2.3919 -1.9967
    1CHTO    N9  291   6.771   8.195   0.319  0.0255 -0.5484 -0.0952
    1CHTO   H77  292   6.760   8.271   0.243 -0.3477 -1.9014 -1.4038
    1CHTO   H78  293   6.875   8.168   0.323  0.2744  0.3684 -0.2607
    1CHTO   C51  294   6.538   8.105   0.259 -0.8990  0.1404  0.4758
    1CHTO   H93  295   6.502   8.134   0.358  0.2162  3.7653 -0.1100
    1CHTO   O30  296   6.475   7.986   0.205  0.3358  0.7324 -0.0738
    1CHTO   C46  297   6.462   7.888   0.306  0.2314  0.2058 -0.4044
    1CHTO   H88  298   6.416   7.938   0.391 -2.8546  1.6023 -2.8282
    1CHTO   C53  299   6.371   7.773   0.246  0.0047  0.4114 -0.2209
    1CHTO   O72  300   6.238   7.817   0.217 -0.0924  0.4378  0.5450
    1CHTO  H199  301   6.175   7.749   0.202  0.0030  0.7251 -1.2559
    1CHTO   O22  302   6.522   8.221   0.167 -0.1361  0.6571  0.0878
    1CHTO   C31  303   6.494   8.213   0.018  0.5608  0.1488 -0.4280
    1CHTO   H59  304   6.488   8.321  -0.008 -0.8084  0.6462  1.7682
    1CHTO   C29  305   6.609   8.151  -0.057 -0.4754  0.3139 -0.5462
    1CHTO   H57  306   6.615   8.044  -0.035 -1.2441  0.4096  0.1661
    1CHTO   O21  307   6.730   8.214  -0.004  0.6729 -0.3111  0.6426
    1CHTO   H37  308   6.796   8.213  -0.071  0.0049  1.3129 -0.0557
    1CHTO   C27  309   6.587   8.169  -0.216 -0.6337  0.3119 -0.3748
    1CHTO   H55  310   6.592   8.277  -0.239  3.9991  0.4807  1.0935
    1CHTO    N5  311   6.693   8.100  -0.296 -0.0247 -0.4437  0.3638
    1CHTO   H43  312   6.678   8.113  -0.402  0.6855  0.6649  0.4009
    1CHTO   H44  313   6.793   8.122  -0.263  0.6936 -2.2988 -0.4956
    1CHTO   C25  314   6.447   8.114  -0.251  0.3306 -0.2316 -0.0989
    1CHTO   H53  315   6.433   8.005  -0.237  1.0079 -0.2292  0.6324
    1CHTO   O17  316   6.344   8.172  -0.166 -0.1114 -0.1467  0.3594
    1CHTO   C32  317   6.362   8.152  -0.024 -0.3523  0.0743 -0.2478
    1CHTO   H60  318   6.363   8.045  -0.003  0.0685  0.1488  0.1248
    1CHTO   C36  319   6.247   8.206   0.065 -0.1051 -0.0022  0.5891
    1CHTO   O25  320   6.219   8.344   0.041  0.5418  0.3313 -0.2542
    1CHTO   H40  321   6.238   8.369  -0.047 -0.5379  1.3071 -0.2283
    1CHTO   O15  322   6.405   8.149  -0.411  0.1044  0.0439 -0.1655
    1CHTO   C19  323   6.356   8.077  -0.530 -0.8415  0.3974 -0.1032
    1CHTO   H47  324   6.281   8.150  -0.565 -1.6729 -1.0147 -1.3388
    1CHTO   C20  325   6.468   8.057  -0.642 -0.6945 -0.2317 -0.4255
    1CHTO   H48  326   6.561   8.012  -0.603  1.3591  2.6464 -1.8205
    1CHTO   O19  327   6.506   8.187  -0.682  0.2247 -0.0338  0.2526
    1CHTO   H35  328   6.538   8.243  -0.613 -1.7578  1.2142  0.1880
    1CHTO   C21  329   6.411   7.980  -0.767 -0.3790  0.1846  0.5456
    1CHTO   H49  330   6.336   8.045  -0.813  0.3156  1.1021  0.6934
    1CHTO    N4  331   6.517   7.944  -0.870  0.2428 -0.2778  0.1123
    1CHTO   H41  332   6.561   7.848  -0.897  2.7601  0.8299  0.1008
    1CHTO   H42  333   6.491   8.003  -0.957 -1.9458 -0.6867  0.4728
    1CHTO   C22  334   6.347   7.854  -0.715  0.5578  0.3950 -0.4895
    1CHTO   H50  335   6.421   7.784  -0.676  0.9326  0.6449 -0.7422
    1CHTO   O14  336   6.245   7.885  -0.624  0.0229 -0.3240  0.2883
    1CHTO   C23  337   6.284   7.947  -0.497  0.5159 -0.0623 -0.0598
    1CHTO   H51  338   6.350   7.877  -0.444 -0.5500 -1.1391 -0.1504
    1CHTO   C34  339   6.164   7.965  -0.408 -0.5148  0.6193 -0.1263
    1CHTO   O23  340   6.102   7.839  -0.369  0.3111 -0.0883 -0.0835
    1CHTO   H38  341   6.023   7.866  -0.327  0.4192 -2.5048  1.7474
    1CHTO   O16  342   6.259   7.788  -0.815  0.1606  0.1360 -0.3742
    1CHTO   C24  343   6.282   7.628  -0.848 -0.0819 -0.5394 -0.5178
    1CHTO   H52  344   6.379   7.593  -0.814 -0.4223 -1.9713 -0.9647
    1CHTO   C26  345   6.264   7.602  -1.001  0.0883  0.1630  0.8358
    1CHTO   H54  346   6.174   7.658  -1.034  0.5503  0.7201  0.5213
    1CHTO   O20  347   6.374   7.674  -1.065  0.3570 -0.4465 -0.1659
    1CHTO   H36  348   6.354   7.766  -1.063 -0.1055 -0.5488 -0.1506
    1CHTO   C30  349   6.266   7.450  -1.035  0.0158 -0.1515 -0.9920
    1CHTO   H58  350   6.363   7.399  -1.021 -1.0988 -2.1407 -0.3344
    1CHTO    N6  351   6.219   7.430  -1.179 -0.0726 -0.1091 -0.3831
    1CHTO   H45  352   6.277   7.481  -1.254  0.6029 -0.0173  0.1982
    1CHTO   H46  353   6.113   7.449  -1.193 -0.2751 -1.7156 -1.1480
    1CHTO   C33  354   6.185   7.364  -0.939 -0.4350 -0.1151 -0.6088
    1CHTO   H61  355   6.076   7.375  -0.951 -0.6308 -1.3155 -0.0480
    1CHTO   O18  356   6.214   7.402  -0.802  0.2494  0.1945 -0.1057
    1CHTO   C28  357   6.176   7.539  -0.783  0.1390  0.3771  0.1438
    1CHTO   H56  358   6.083   7.565  -0.833  0.2636 -0.5318 -0.5684
    1CHTO   C35  359   6.158   7.569  -0.633 -0.3589  0.3290 -0.0682
    1CHTO   O24  360   6.271   7.569  -0.548 -0.0000 -0.1573  0.1486
    1CHTO   H39  361   6.294   7.658  -0.531 -0.8621  0.2600 -0.7961
    1CHTO    O9  362   6.210   7.222  -0.961  0.0782 -0.0882  0.2711
    1CHTO   C13  363   6.120   7.133  -0.868  0.4948  0.0919  0.4501
    1CHTO   H26  364   6.027   7.192  -0.854  0.2985 -0.0466 -0.2743
    1CHTO   C11  365   6.193   7.106  -0.736 -0.5908 -0.2126 -0.3504
    1CHTO   H24  366   6.167   7.194  -0.674  1.6321 -1.0469  1.8486
    1CHTO    O8  367   6.334   7.104  -0.749 -0.1502  0.0622 -0.2391
    1CHTO    H3  368   6.363   7.016  -0.765  1.0455 -0.0889  2.4651
    1CHTO    C9  369   6.133   6.986  -0.667  0.0497  0.1495 -0.0319
    1CHTO   H22  370   6.024   6.998  -0.681  0.1873  0.6547 -0.6687
    1CHTO    N2  371   6.158   6.975  -0.526  0.3478 -0.0740  0.0171
    1CHTO   H10  372   6.155   7.071  -0.476  1.6618 -0.0844  0.1389
    1CHTO   H11  373   6.098   6.897  -0.483  0.3308 -1.3060 -2.1598
    1CHTO    C7  374   6.180   6.859  -0.751  0.4622 -0.4831 -0.2202
    1CHTO   H20  375   6.118   6.772  -0.721  0.6844 -1.0695 -1.4410
    1CHTO    O4  376   6.171   6.885  -0.894  0.2421 -0.1010  0.0800
    1CHTO   C14  377   6.086   6.994  -0.938  0.5386 -0.3549  0.3876
    1CHTO   H27  378   5.981   6.964  -0.916  0.0784 -0.0301 -1.2579
    1CHTO   C18  379   6.091   7.006  -1.089 -0.6065  0.8168  0.2476
    1CHTO   O13  380   6.066   6.885  -1.162 -0.4626 -0.0038  0.2696
    1CHTO    H7  381   6.136   6.823  -1.165 -1.1430 -0.7662 -0.0562
    1CHTO    O2  382   6.340   6.824  -0.712 -0.0204  0.3717 -0.4117
    1CHTO    C1  383   6.386   6.687  -0.747 -0.4311 -0.5838 -0.3598
    1CHTO   H14  384   6.324   6.636  -0.824 -0.7097 -0.1125 -0.4510
    1CHTO    C2  385   6.388   6.597  -0.617  0.0204  0.2670 -0.6999
    1CHTO   H15  386   6.456   6.652  -0.550 -1.2314 -1.4478  2.0971
    1CHTO    O6  387   6.255   6.582  -0.566 -0.5974  0.0730  0.7067
    1CHTO    H1  388   6.193   6.556  -0.632 -0.0463 -2.4210  1.1289
    1CHTO    C3  389   6.452   6.456  -0.643  0.3409  0.5629  0.5828
    1CHTO   H16  390   6.380   6.411  -0.713  1.3628  1.5159 -1.1418
    1CHTO    N1  391   6.467   6.361  -0.524  0.0714 -0.0763 -0.1896
    1CHTO    H8  392   6.366   6.348  -0.487 -0.2948  0.9791 -0.7795
    1CHTO    H9  393   6.517   6.269  -0.548 -1.2754 -1.4625  2.2008
    1CHTO    C4  394   6.582   6.472  -0.731  0.2096  0.0063 -0.0299
    1CHTO   H17  395   6.667   6.508  -0.672 -0.0811  1.7528 -0.6732
    1CHTO    O1  396   6.560   6.561  -0.842  0.3956  0.4607  0.4626
    1CHTO    C5  397   6.519   6.693  -0.818  0.6195  0.5784  0.1093
    1CHTO   H18  398   6.591   6.743  -0.752  2.0617  1.1643 -1.8636
    1CHTO   C16  399   6.505   6.773  -0.950 -0.2716 -0.6542 -0.3628
    1CHTO   O11  400   6.550   6.904  -0.948  0.4169 -0.0293  0.3272
    1CHTO    H5  401   6.530   6.940  -1.033  0.3930 -1.9516 -0.4985
    1CHTO    O3  402   6.615   6.341  -0.786 -0.1715  0.0209  0.5216
    1CHTO    C6  403   6.723   6.331  -0.887  0.3077 -0.2428 -0.2620
    1CHTO   H19  404   6.760   6.431  -0.908 -1.3334  0.1624 -1.2736
    1CHTO    C8  405   6.849   6.254  -0.830  0.7571 -0.2406  0.5405
    1CHTO   H21  406   6.818   6.153  -0.806  0.8082 -0.4213 -0.1399
    1CHTO    O7  407   6.905   6.317  -0.712 -0.1468  0.4714 -0.4767
    1CHTO    H2  408   6.871   6.269  -0.639  0.0585 -1.1547 -1.4517
    1CHTO   C12  409   6.960   6.238  -0.935  0.2607  0.1737  0.1514
    1CHTO   H25  410   6.991   6.341  -0.962 -0.8661  0.8778  1.5032
    1CHTO    N3  411   7.080   6.163  -0.883 -1.1624 -0.2392 -0.6476
    1CHTO   H12  412   7.053   6.083  -0.816  1.3885 -1.7017 -1.2651
    1CHTO   H13  413   7.135   6.238  -0.828 -0.6317  0.3493 -1.9502
    1CHTO   C15  414   6.898   6.168  -1.066  0.5096 -0.1389 -0.1525
    1CHTO   H28  415   6.863   6.067  -1.043 -0.9073  0.6376  1.1509
    1CHTO   O10  416   6.996   6.165  -1.189  0.1557 -0.0615 -0.3350
    1CHTO    H4  417   7.034   6.251  -1.197  0.0696  0.1389  1.1645
    1CHTO    O5  418   6.780   6.243  -1.111  0.2034 -0.0401 -0.2135
    1CHTO   C10  419   6.675   6.266  -1.021  0.2557 -0.7832 -0.7954
    1CHTO   H23  420   6.627   6.172  -0.997  0.7270 -1.3867 -2.1697
    1CHTO   C17  421   6.569   6.357  -1.093 -0.1065  0.3391 -0.3645
    1CHTO   O12  422   6.639   6.471  -1.137 -0.5189 -0.2082 -0.8192
    1CHTO    H6  423   6.577   6.541  -1.142 -2.2371 -1.7298 -1.4350
    2CHTO  H203  424   5.402   4.364   0.540  0.1851 -3.8404 -2.0639
    2CHTO   O82  425   5.331   4.341   0.597 -0.1330  0.0893 -0.6735
    2CHTO  C123  426   5.246   4.456   0.626 -1.2563  0.2385  0.3252
    2CHTO  H227  427   5.298   4.522   0.697  0.8568 -1.6741  0.6212
    2CHTO   O77  428   5.238   4.532   0.502  0.0256 -0.2281  0.3735
    2CHTO  C118  429   5.171   4.659   0.504  0.3580  0.3387  0.0682
    2CHTO  H222  430   5.218   4.719   0.583 -0.5522  0.2478  0.6870
    2CHTO  C125  431   5.172   4.737   0.361  0.2113  0.1639  0.2679
    2CHTO   O84  432   5.120   4.872   0.361  0.3437  0.6158 -0.4190
    2CHTO  H205  433   5.189   4.917   0.406  0.2221  0.4753 -0.0925
    2CHTO  C114  434   5.020   4.621   0.536  0.6485  0.3553 -0.4931
    2CHTO  H218  435   4.979   4.552   0.463 -2.2993  0.6051  0.8753
    2CHTO  C116  436   5.006   4.548   0.676  0.4545 -0.7813  0.1506
    2CHTO  H220  437   5.039   4.618   0.756  0.3667  0.2013 -0.6587
    2CHTO   O79  438   4.866   4.510   0.709 -0.2027  0.3186 -0.2998
    2CHTO  H201  439   4.859   4.488   0.799  0.4223  0.9382 -0.0915
    2CHTO  C120  440   5.103   4.423   0.681 -0.8963 -0.1284  0.5249
    2CHTO  H224  441   5.064   4.351   0.605  1.3945 -1.3691  0.4881
    2CHTO   N21  442   5.107   4.352   0.810 -0.3993  0.2477  0.2585
    2CHTO  H211  443   5.017   4.297   0.835 -0.6691  0.4123 -0.3350
    2CHTO  H212  444   5.120   4.419   0.893  2.9092 -0.7717  0.6412
    2CHTO   O75  445   4.950   4.745   0.532 -0.1953  0.6220  0.0716
    2CHTO  C112  446   4.797   4.709   0.466 -0.3414 -0.2422  0.2380
    2CHTO  H216  447   4.746   4.625   0.513 -0.7639 -3.6986 -5.8445
    2CHTO   O73  448   4.821   4.678   0.323 -0.7950  0.3314  0.2527
    2CHTO  C113  449   4.700   4.636   0.263 -0.1950  0.2204  0.6551
    2CHTO  H217  450   4.667   4.539   0.306  1.4010 -0.7130 -0.1708
    2CHTO  C124  451   4.742   4.621   0.115 -0.0054  0.1255 -0.4313
    2CHTO   O83  452   4.776   4.484   0.082  0.2356  0.3187  0.1668
    2CHTO  H204  453   4.860   4.458   0.117  0.9241  3.0491  0.6836
    2CHTO  C109  454   4.590   4.748   0.269 -0.1658 -0.7981 -0.8930
    2CHTO  H213  455   4.623   4.824   0.197 -0.4261 -1.2012 -1.4341
    2CHTO  C110  456   4.563   4.802   0.419  0.0830  0.8429 -0.4405
    2CHTO  H214  457   4.510   4.720   0.467  0.6338  0.9486  0.3529
    2CHTO   O78  458   4.468   4.912   0.417  0.6399  0.1995 -0.2663
    2CHTO  H200  459   4.390   4.895   0.465 -0.2020  2.6850 -0.6768
    2CHTO  C111  460   4.701   4.837   0.484 -0.8015  0.6299 -0.1229
    2CHTO  H215  461   4.753   4.915   0.427  0.4748  0.4679  0.8038
    2CHTO   N19  462   4.699   4.885   0.626  0.2599  0.0633 -0.0098
    2CHTO  H207  463   4.757   4.975   0.642  0.5772 -0.0367 -0.5684
    2CHTO  H208  464   4.597   4.896   0.659 -0.1071 -0.6057 -0.9085
    2CHTO   O74  465   4.468   4.688   0.219  0.5069 -0.1732 -0.3537
    2CHTO  C115  466   4.380   4.760   0.112 -0.5224 -0.5598 -0.1733
    2CHTO  H219  467   4.392   4.868   0.117  1.4092 -0.7044 -1.1809
    2CHTO   O76  468   4.420   4.716  -0.023  0.4542 -0.2715 -0.2603
    2CHTO  C122  469   4.359   4.783  -0.139 -0.0208 -0.0028 -0.0179
    2CHTO  H226  470   4.391   4.729  -0.228  0.7230 -0.1040  0.3125
    2CHTO  C126  471   4.400   4.932  -0.159 -0.0860  0.1295 -0.1585
    2CHTO   O85  472   4.541   4.954  -0.130  0.3187 -0.0383 -0.1402
    2CHTO  H206  473   4.557   5.007  -0.055  1.7250  1.5314 -1.5075
    2CHTO  C121  474   4.206   4.774  -0.131  0.1165 -0.8359  0.4143
    2CHTO  H225  475   4.163   4.844  -0.205 -0.0611 -0.3624  0.9640
    2CHTO   O81  476   4.159   4.646  -0.166  0.0032 -0.4423 -0.2401
    2CHTO  H202  477   4.179   4.616  -0.252  0.7771  1.1664 -0.6435
    2CHTO  C119  478   4.148   4.808   0.012 -0.3445  0.0573  0.3922
    2CHTO  H223  479   4.162   4.916   0.021  0.4120  0.4783 -4.2806
    2CHTO  C117  480   4.228   4.732   0.127 -0.1892 -0.8486 -0.4577
    2CHTO  H221  481   4.213   4.624   0.123  0.3046 -0.9145 -0.6579
    2CHTO   N20  482   4.179   4.776   0.262 -0.3971  0.4146  0.4658
    2CHTO  H209  483   4.221   4.872   0.289  1.9856 -0.4030 -0.2100
    2CHTO  H210  484   4.195   4.702   0.339  0.6396 -0.3960 -0.5250
    2CHTO   O80  485   3.981   4.795   0.022  0.7550  0.1512 -0.5721
    2CHTO  C103  486   3.902   4.903  -0.054 -0.3876 -0.0914  0.3005
    2CHTO  H190  487   3.969   4.982  -0.090 -1.4700 -0.1475 -1.9133
    2CHTO  C101  488   3.809   4.861  -0.177 -0.8892 -0.2743  0.5678
    2CHTO  H188  489   3.735   4.788  -0.146 -2.0368  0.7337  0.2580
    2CHTO   O68  490   3.912   4.789  -0.290  0.5612 -0.2046 -0.3210
    2CHTO  H168  491   3.978   4.846  -0.324 -2.4432  2.7903 -1.4744
    2CHTO   C99  492   3.733   4.987  -0.236 -0.3331 -0.3092 -0.1869
    2CHTO  H186  493   3.816   5.052  -0.272  0.6139 -1.8737 -0.8729
    2CHTO   N17  494   3.640   4.962  -0.348 -0.2655 -0.4693  0.1735
    2CHTO  H174  495   3.635   5.047  -0.415  2.3664  0.6911  1.3821
    2CHTO  H175  496   3.543   4.944  -0.303  0.1585 -0.6939  0.9872
    2CHTO   C97  497   3.670   5.064  -0.120 -0.4625  0.4171 -0.8239
    2CHTO  H184  498   3.575   5.018  -0.089 -0.4173  2.0438  1.9177
    2CHTO   O64  499   3.753   5.090  -0.013  0.0777  0.0679  0.1476
    2CHTO  C104  500   3.792   4.967   0.044  0.2528  0.4889 -0.5221
    2CHTO  H191  501   3.706   4.900   0.050  1.9561 -1.6795  0.3616
    2CHTO  C108  502   3.842   4.994   0.189 -0.9030 -0.6591  0.0916
    2CHTO   O71  503   3.729   5.018   0.271  0.3517  0.5182  0.3735
    2CHTO  H171  504   3.690   5.101   0.252 -0.9289 -0.1048  0.2137
    2CHTO   O62  505   3.640   5.202  -0.170 -0.3543  0.1782 -0.3303
    2CHTO   C91  506   3.542   5.265  -0.090 -0.0807 -0.6778 -0.7370
    2CHTO  H178  507   3.524   5.209   0.002  2.2208 -0.4820 -0.1413
    2CHTO   C92  508   3.404   5.271  -0.168  0.2514  0.9358 -0.5389
    2CHTO  H179  509   3.384   5.177  -0.222  0.6029  0.7981 -0.4306
    2CHTO   O66  510   3.299   5.290  -0.072  0.2401  0.1729  0.4216
    2CHTO  H166  511   3.229   5.234  -0.100 -1.2561  2.1757 -0.0094
    2CHTO   C93  512   3.402   5.397  -0.260  0.0142 -0.0958 -0.3525
    2CHTO  H180  513   3.297   5.414  -0.288  0.0805  0.3812 -0.3139
    2CHTO   N16  514   3.479   5.373  -0.385 -0.0175  0.7515  0.5471
    2CHTO  H172  515   3.541   5.287  -0.361 -1.1755  0.6160  3.3322
    2CHTO  H173  516   3.420   5.354  -0.473  2.9056 -0.2868 -1.2841
    2CHTO   C94  517   3.449   5.533  -0.185  0.3353  0.3213  0.5034
    2CHTO  H181  518   3.532   5.582  -0.235  0.5329 -0.5469 -0.0286
    2CHTO   O61  519   3.478   5.507  -0.050  0.2017 -0.0628 -0.0167
    2CHTO   C95  520   3.582   5.409  -0.034  0.3146 -0.2466  0.4613
    2CHTO  H182  521   3.667   5.446  -0.091 -0.6765  0.2770 -0.6871
    2CHTO  C106  522   3.643   5.416   0.114  0.6022 -0.5101 -0.3349
    2CHTO   O69  523   3.766   5.350   0.130 -0.1896  0.2065 -0.0676
    2CHTO  H169  524   3.764   5.274   0.075 -0.3328  0.5844 -0.5876
    2CHTO   O63  525   3.314   5.648  -0.186  0.2589 -0.0876 -0.0712
    2CHTO   C96  526   3.331   5.778  -0.128 -0.5195  0.0430  0.3158
    2CHTO  H183  527   3.439   5.785  -0.114 -0.6598  0.2790  1.2866
    2CHTO   C98  528   3.262   5.806   0.009 -0.6564 -0.0049  0.1806
    2CHTO  H185  529   3.155   5.783  -0.005 -0.2268 -0.7406 -2.2048
    2CHTO   O67  530   3.301   5.710   0.107 -0.1292  0.2136  0.6177
    2CHTO  H167  531   3.354   5.752   0.172  0.3774  0.8719 -0.2140
    2CHTO  C102  532   3.293   5.956   0.066 -0.3099  0.3774  0.6753
    2CHTO  H189  533   3.396   5.947   0.103 -0.5146 -1.2469  0.8705
    2CHTO   N18  534   3.215   6.001   0.180 -0.7426  0.0179  0.1080
    2CHTO  H176  535   3.205   5.920   0.250  0.8708  1.2900  1.8545
    2CHTO  H177  536   3.118   6.035   0.147 -1.3334 -0.0248  1.7489
    2CHTO  C105  537   3.287   6.060  -0.051 -0.1912 -0.5030  0.0120
    2CHTO  H192  538   3.182   6.081  -0.070 -0.3017  0.5695  1.7097
    2CHTO   O65  539   3.343   6.021  -0.176  0.2408  0.1399  0.1357
    2CHTO  C100  540   3.287   5.896  -0.225 -0.2544  0.1691  0.2852
    2CHTO  H187  541   3.177   5.907  -0.227 -0.3619 -0.4199  1.7663
    2CHTO  C107  542   3.342   5.887  -0.362  0.7246  0.4406  0.3477
    2CHTO   O70  543   3.280   5.777  -0.434 -0.0570  0.0659  0.7377
    2CHTO  H170  544   3.282   5.693  -0.394  0.7264 -1.0203 -1.5042
    2CHTO   O57  545   3.354   6.192  -0.007  0.6732 -0.8656  0.3034
    2CHTO   C85  546   3.315   6.320  -0.060 -0.0016  0.1875 -0.3205
    2CHTO  H157  547   3.208   6.311  -0.088  0.0416 -0.5646 -0.2655
    2CHTO   C83  548   3.391   6.334  -0.197  0.9681  0.0283 -0.6924
    2CHTO  H155  549   3.357   6.258  -0.266 -0.4718  0.0358 -0.0127
    2CHTO   O56  550   3.532   6.299  -0.183  0.0886 -0.0948 -0.1331
    2CHTO  H135  551   3.549   6.228  -0.242 -0.6171  0.2321 -0.7481
    2CHTO   C81  552   3.361   6.472  -0.252  0.2693 -0.2351  0.0274
    2CHTO  H153  553   3.253   6.479  -0.260  0.4991  0.2774 -3.1733
    2CHTO   N14  554   3.413   6.495  -0.392  0.1181 -0.1139 -0.3989
    2CHTO  H141  555   3.338   6.471  -0.465  0.5656  0.3001 -1.0033
    2CHTO  H142  556   3.439   6.597  -0.409 -0.5334 -0.2609 -2.5068
    2CHTO   C79  557   3.415   6.585  -0.149  0.6587 -0.2457  0.4721
    2CHTO  H151  558   3.391   6.683  -0.191 -0.2469 -1.3708 -1.6810
    2CHTO   O52  559   3.342   6.582  -0.019  0.6104 -0.1262  0.1734
    2CHTO   C86  560   3.345   6.440   0.038  0.5144  0.1159  0.0963
    2CHTO  H158  561   3.452   6.427   0.062  1.2091  1.4787 -2.0806
    2CHTO   C90  562   3.270   6.437   0.182  0.3868 -0.0780 -0.2070
    2CHTO   O60  563   3.142   6.502   0.166  0.4056 -0.6852 -0.0373
    2CHTO  H138  564   3.108   6.518   0.252  0.1558  0.2734 -0.3032
    2CHTO   O50  565   3.557   6.582  -0.128  0.2706  0.0994 -0.1841
    2CHTO   C73  566   3.665   6.677  -0.118  0.8475 -0.2508 -0.3260
    2CHTO  H145  567   3.643   6.772  -0.068  2.1008 -0.2765  0.2823
    2CHTO   C74  568   3.730   6.708  -0.257  0.6135 -0.5154  0.2275
    2CHTO  H146  569   3.665   6.764  -0.325  1.1085 -0.4855 -0.2302
    2CHTO   O54  570   3.843   6.795  -0.235 -0.6996  0.0648 -0.5010
    2CHTO  H133  571   3.912   6.748  -0.193  0.5498  2.5930  0.3805
    2CHTO   C75  572   3.772   6.575  -0.320 -0.2040 -0.7456 -0.2602
    2CHTO  H147  573   3.684   6.509  -0.321 -1.5355  0.9964 -0.6915
    2CHTO   N13  574   3.820   6.574  -0.459 -0.1731  0.0530 -0.3017
    2CHTO  H139  575   3.822   6.469  -0.483 -1.0088 -0.0024 -0.1518
    2CHTO  H140  576   3.924   6.600  -0.463  0.0112 -0.7187 -0.5935
    2CHTO   C76  577   3.883   6.508  -0.225  0.1284 -0.2433  0.5642
    2CHTO  H148  578   3.967   6.576  -0.212 -0.4627  0.1207  2.7186
    2CHTO   O49  579   3.825   6.490  -0.091 -0.1178  0.2177 -0.6856
    2CHTO   C77  580   3.773   6.606  -0.029 -0.2344 -0.0671  0.1340
    2CHTO  H149  581   3.849   6.680  -0.004 -1.0287  1.1427 -0.9654
    2CHTO   C88  582   3.710   6.582   0.115  0.3988 -0.3409 -0.0091
    2CHTO   O58  583   3.807   6.520   0.204 -0.2541 -0.6233 -0.1885
    2CHTO  H136  584   3.759   6.504   0.284 -1.1675  1.3312 -0.2969
    2CHTO   O51  585   3.929   6.354  -0.288  0.2470 -0.1977 -0.3001
    2CHTO   C78  586   3.995   6.265  -0.169 -0.4552  0.6527  0.1462
    2CHTO  H150  587   3.955   6.295  -0.070 -0.0179 -2.0645  1.1883
    2CHTO   C80  588   4.143   6.294  -0.167 -0.6975  0.4292  0.6656
    2CHTO  H152  589   4.184   6.271  -0.268  1.7443 -1.2683  1.9975
    2CHTO   O55  590   4.168   6.430  -0.137 -0.0699 -0.2453 -0.8442
    2CHTO  H134  591   4.162   6.444  -0.045 -1.1732 -0.5435 -0.8739
    2CHTO   C84  592   4.210   6.201  -0.056  0.4461 -0.5623 -0.3916
    2CHTO  H156  593   4.174   6.236   0.041  0.3690 -0.3955 -0.4801
    2CHTO   N15  594   4.364   6.213  -0.051 -0.9088 -0.8180 -0.2426
    2CHTO  H143  595   4.395   6.312  -0.076  1.3699 -0.9127  2.0701
    2CHTO  H144  596   4.398   6.195   0.048  0.4066  1.1295 -0.3127
    2CHTO   C87  597   4.167   6.054  -0.069 -0.4320 -0.1240  0.8383
    2CHTO  H159  598   4.226   5.997  -0.140  1.9940  3.0046  0.2328
    2CHTO   O53  599   4.022   6.035  -0.094 -0.3666  0.3229  0.1116
    2CHTO   C82  600   3.954   6.116  -0.188 -0.2478 -0.0041  0.1999
    2CHTO  H154  601   3.977   6.078  -0.288 -2.2677 -0.6276 -0.0349
    2CHTO   C89  602   3.804   6.098  -0.167  0.9239  0.1036 -0.1108
    2CHTO   O59  603   3.762   6.129  -0.033  0.3250  0.4362  0.0418
    2CHTO  H137  604   3.720   6.212  -0.018 -1.3123 -0.4346  0.3663
    2CHTO   O45  605   4.196   5.972   0.067 -0.7958 -0.6450  0.3494
    2CHTO   C67  606   4.105   5.955   0.175 -0.0712  0.6621  0.0985
    2CHTO  H124  607   4.018   6.019   0.167  0.0332  0.8212  0.2286
    2CHTO   C65  608   4.053   5.804   0.182 -0.8535 -0.6347  0.2157
    2CHTO  H122  609   4.117   5.739   0.123 -0.3042 -0.1359  0.2671
    2CHTO   O44  610   3.923   5.810   0.123 -0.3913  0.2094 -0.0427
    2CHTO  H102  611   3.933   5.825   0.031  0.3670 -0.3264 -0.0524
    2CHTO   C63  612   4.042   5.743   0.334  0.2669 -0.6298 -0.2489
    2CHTO  H120  613   4.143   5.726   0.372 -0.4351  0.0359  1.9822
    2CHTO   N11  614   3.978   5.612   0.351  0.3911 -0.2121 -0.8199
    2CHTO  H108  615   3.910   5.600   0.269 -0.9903 -0.3708  0.3345
    2CHTO  H109  616   3.921   5.602   0.440  1.3664 -0.3433 -0.2049
    2CHTO   C61  617   3.991   5.854   0.429 -0.6358 -0.0786 -0.2730
    2CHTO  H118  618   3.996   5.817   0.532  0.9549  1.1663  0.1104
    2CHTO   O40  619   4.076   5.976   0.422  0.2328 -0.2148 -0.3397
    2CHTO   C68  620   4.176   5.991   0.312  0.1250 -0.0865 -0.4077
    2CHTO  H125  621   4.251   5.915   0.339 -1.9738 -2.6657 -1.5901
    2CHTO   C72  622   4.240   6.133   0.320  0.3531  0.5193  0.0695
    2CHTO   O48  623   4.144   6.233   0.321  0.9327 -0.0140 -0.0501
    2CHTO  H105  624   4.180   6.300   0.267 -1.4159  1.0724 -0.3191
    2CHTO   O38  625   3.860   5.896   0.395 -0.0521  0.0237  0.0481
    2CHTO   C55  626   3.781   5.976   0.486 -0.8255  0.1864 -0.0463
    2CHTO  H112  627   3.843   6.033   0.556  1.0814 -1.0931 -0.6651
    2CHTO   C56  628   3.683   5.878   0.564 -0.0140  0.5766  0.7053
    2CHTO  H113  629   3.632   5.818   0.487 -0.4706  1.0016  0.6707
    2CHTO   O42  630   3.756   5.793   0.655 -0.6067 -0.1440  0.4646
    2CHTO  H100  631   3.802   5.727   0.606 -0.5085  1.1828 -1.2586
    2CHTO   C57  632   3.565   5.956   0.641  0.5758  0.3052  0.0916
    2CHTO  H114  633   3.606   5.994   0.735  0.0660  0.0164  0.4305
    2CHTO   N10  634   3.452   5.870   0.678 -0.1385 -0.4295  0.2383
    2CHTO  H106  635   3.466   5.810   0.767  0.0795 -0.9359 -0.1377
    2CHTO  H107  636   3.430   5.807   0.593 -0.7514  1.9358 -1.4013
    2CHTO   C58  637   3.511   6.080   0.558  0.1202  0.2163 -0.9091
    2CHTO  H115  638   3.443   6.048   0.476  0.6880 -0.7447 -1.0078
    2CHTO   O37  639   3.617   6.154   0.498 -1.0218 -0.1498  0.4712
    2CHTO   C59  640   3.697   6.077   0.404 -0.0564 -0.1007  0.0188
    2CHTO  H116  641   3.627   6.021   0.342  2.2661 -1.7983 -1.1364
    2CHTO   C70  642   3.791   6.170   0.331  0.1109 -0.0282 -0.0184
    2CHTO   O46  643   3.712   6.256   0.250  0.0572  0.0918  0.3302
    2CHTO  H103  644   3.647   6.208   0.202 -1.3101  0.7485  1.4786
    2CHTO   O39  645   3.443   6.175   0.661  0.2647 -0.1466  0.3574
    2CHTO   C60  646   3.322   6.236   0.617  0.8436 -0.5565  0.0048
    2CHTO  H117  647   3.339   6.263   0.513  0.4282 -0.6092 -0.0768
    2CHTO   C62  648   3.201   6.140   0.624 -0.5397  0.3669  0.0206
    2CHTO  H119  649   3.219   6.059   0.550 -0.1910  1.0508 -0.6564
    2CHTO   O43  650   3.190   6.083   0.758 -0.0471 -0.2858  0.3920
    2CHTO  H101  651   3.214   5.992   0.756 -1.2210 -0.5907 -4.0713
    2CHTO   C66  652   3.059   6.211   0.586  0.9468 -0.6115  0.1604
    2CHTO  H123  653   3.059   6.238   0.481  0.1897 -0.2987  0.2367
    2CHTO   N12  654   2.944   6.112   0.595  0.0477  0.2822 -0.1049
    2CHTO  H110  655   2.883   6.111   0.506  0.6371  0.0004 -0.5151
    2CHTO  H111  656   2.896   6.132   0.690  1.4017 -0.8087  0.8297
    2CHTO   C69  657   3.031   6.341   0.663 -0.1444  0.0661  0.5298
    2CHTO  H126  658   3.021   6.322   0.772  0.3619 -1.1638  0.3754
    2CHTO   O41  659   3.170   6.441   0.652 -0.3917 -0.1256  0.2743
    2CHTO   C64  660   3.301   6.373   0.703  0.1740  0.6138 -0.2845
    2CHTO  H121  661   3.299   6.360   0.813  3.0039 -0.8423 -0.3671
    2CHTO   C71  662   3.425   6.463   0.679  0.0476 -0.4711 -0.2583
    2CHTO   O47  663   3.411   6.587   0.754 -0.1451 -0.2313 -0.0360
    2CHTO  H104  664   3.344   6.636   0.709  0.0863 -0.8125 -1.0355
    2CHTO   O34  665   2.890   6.414   0.611  0.6640  0.3102  0.4193
    2CHTO   C49  666   2.809   6.539   0.722  0.4214  0.8283  0.0529
    2CHTO   H91  667   2.723   6.491   0.769  0.1346  0.2625 -1.0373
    2CHTO   C47  668   2.750   6.645   0.629 -0.1263  0.1677  0.5040
    2CHTO   H89  669   2.686   6.722   0.677  0.2428  1.1145 -0.4980
    2CHTO   O33  670   2.665   6.569   0.537 -0.1120 -0.4913  0.1817
    2CHTO   H70  671   2.710   6.497   0.496  0.2272 -0.6549  0.8329
    2CHTO   C45  672   2.870   6.731   0.558 -0.2606 -0.5306  0.5320
    2CHTO   H87  673   2.943   6.656   0.524  1.5638  0.4102  2.2356
    2CHTO    N8  674   2.830   6.805   0.437 -0.1857  0.3604 -0.0834
    2CHTO   H75  675   2.757   6.878   0.468  0.2064  0.8582 -0.3142
    2CHTO   H76  676   2.794   6.719   0.383  2.3557 -1.8516  1.5884
    2CHTO   C43  677   2.957   6.811   0.675 -0.0799  0.0115 -0.0642
    2CHTO   H85  678   3.039   6.861   0.624 -0.5469 -0.9968 -1.8621
    2CHTO   O29  679   3.001   6.707   0.764  0.0833  0.7433  0.1161
    2CHTO   C50  680   2.917   6.601   0.825  0.0284 -0.5343  0.4243
    2CHTO   H92  681   2.982   6.519   0.859 -1.0863 -2.1687 -1.2361
    2CHTO   C54  682   2.849   6.648   0.956  0.4772 -0.6488  0.2034
    2CHTO   O36  683   2.941   6.691   1.059  0.1148 -0.3836  0.0238
    2CHTO   H72  684   2.892   6.761   1.099  1.5307  0.7707 -0.2302
    2CHTO   O27  685   2.884   6.915   0.746  0.9364 -0.0359 -0.1511
    2CHTO   C37  686   2.813   7.041   0.768  0.5926  0.1339 -0.9066
    2CHTO   H79  687   2.739   7.063   0.690  0.3684  0.4076 -0.6160
    2CHTO   C38  688   2.746   7.031   0.913 -0.0035 -0.2981 -0.2135
    2CHTO   H80  689   2.817   6.985   0.984 -0.4324 -0.5370  0.0629
    2CHTO   O31  690   2.638   6.944   0.908  0.5998  0.0439  0.1147
    2CHTO   H68  691   2.572   6.962   0.845  1.4662  0.3123 -0.7205
    2CHTO   C39  692   2.693   7.174   0.970 -0.5356 -0.0252 -0.4338
    2CHTO   H81  693   2.602   7.197   0.915  0.1558  0.6354 -1.3101
    2CHTO    N7  694   2.638   7.166   1.109 -0.3907 -0.2281 -0.4714
    2CHTO   H73  695   2.568   7.247   1.126  0.8885  0.8771 -0.4193
    2CHTO   H74  696   2.720   7.183   1.177 -1.3603 -0.9898  0.9086
    2CHTO   C40  697   2.792   7.294   0.943  0.4379  0.2800 -0.3310
    2CHTO   H82  698   2.873   7.303   1.015  2.2082  0.5474 -2.2950
    2CHTO   O26  699   2.838   7.274   0.807  0.0050  0.6726 -0.0325
    2CHTO   C41  700   2.910   7.155   0.779 -0.8507  0.0398 -0.2794
    2CHTO   H83  701   2.981   7.131   0.859 -2.4618 -2.7344  0.3967
    2CHTO   C52  702   2.993   7.169   0.646  0.6472  0.4505  0.0738
    2CHTO   O35  703   2.916   7.214   0.516 -0.0895  0.3814 -0.8074
    2CHTO   H71  704   2.957   7.191   0.435  0.0724 -0.3920 -0.5060
    2CHTO   O28  705   2.730   7.423   0.935 -0.5245 -1.3917  0.3659
    2CHTO   C42  706   2.795   7.552   0.977  0.6997  0.4502 -0.0811
    2CHTO   H84  707   2.735   7.627   0.924 -1.4970  0.1172  1.8801
    2CHTO   C44  708   2.937   7.575   0.922 -0.0324  0.1020  0.3818
    2CHTO   H86  709   3.001   7.488   0.937  0.4902 -0.0732 -2.6002
    2CHTO   O32  710   2.928   7.581   0.777 -0.1438 -0.0704 -0.2756
    2CHTO   H69  711   2.951   7.498   0.739  0.1428  0.1430 -0.5793
    2CHTO   C48  712   3.002   7.704   0.985  0.0243  0.2938 -0.0599
    2CHTO   H90  713   2.954   7.795   0.949  1.0090  1.6487  2.0168
    2CHTO    N9  714   3.146   7.710   0.957  0.0291 -0.1689 -0.3612
    2CHTO   H77  715   3.185   7.617   0.919  0.4905  0.6865 -2.0517
    2CHTO   H78  716   3.173   7.799   0.902  1.9106 -0.6109 -0.1883
    2CHTO   C51  717   2.974   7.711   1.135 -0.0672 -0.9737 -0.1729
    2CHTO   H93  718   3.031   7.635   1.188  2.5038 -0.5581 -2.2348
    2CHTO   O30  719   2.829   7.710   1.166  0.6029  0.5204  0.1853
    2CHTO   C46  720   2.777   7.571   1.130 -0.1272 -0.5214 -0.2453
    2CHTO   H88  721   2.836   7.496   1.183  0.1690  0.4379  0.8094
    2CHTO   C53  722   2.631   7.554   1.167 -0.5291 -0.0558  0.3404
    2CHTO   O72  723   2.613   7.513   1.300  0.3761 -0.1362  0.1803
    2CHTO  H199  724   2.628   7.591   1.350  0.9085  0.0091 -0.2037
    2CHTO   O22  725   3.011   7.841   1.182  0.0667 -0.1182  0.0666
    2CHTO   C31  726   3.035   7.887   1.319 -0.4176  0.2306  0.5412
    2CHTO   H59  727   3.042   7.998   1.320 -2.1955  0.3630  0.9561
    2CHTO   C29  728   2.917   7.852   1.419 -0.3500 -0.1889  0.7927
    2CHTO   H57  729   2.903   7.743   1.421  1.6789 -0.4429  2.0684
    2CHTO   O21  730   2.795   7.906   1.359  0.0370  0.0995 -0.1052
    2CHTO   H37  731   2.792   7.999   1.376  2.8255 -0.0527  1.4556
    2CHTO   C27  732   2.944   7.902   1.567  0.0931 -0.7466 -0.2465
    2CHTO   H55  733   2.944   8.012   1.571  0.1615 -0.8196  4.3524
    2CHTO    N5  734   2.839   7.852   1.671  0.4305 -0.1104  0.4442
    2CHTO   H43  735   2.775   7.784   1.617  1.4022  0.0783 -0.9926
    2CHTO   H44  736   2.789   7.932   1.724  0.1864  0.2649 -0.3458
    2CHTO   C25  737   3.093   7.864   1.609  0.0172 -0.6913  0.1451
    2CHTO   H53  738   3.099   7.756   1.627 -0.3778 -0.6315  0.6415
    2CHTO   O17  739   3.182   7.897   1.506 -0.0069  0.5320 -0.4580
    2CHTO   C32  740   3.173   7.836   1.382  0.1510 -0.2071 -0.3797
    2CHTO   H60  741   3.171   7.727   1.380 -1.0582 -0.1858 -0.6894
    2CHTO   C36  742   3.300   7.877   1.298  0.2455  0.1199  0.1850
    2CHTO   O25  743   3.416   7.794   1.313 -0.2638  0.2496 -0.3086
    2CHTO   H40  744   3.501   7.832   1.296  0.2684 -1.0385 -0.5982
    2CHTO   O15  745   3.134   7.943   1.745  0.3765  0.5521 -0.2796
    2CHTO   C19  746   3.220   7.881   1.848  0.4710  0.0567 -0.5392
    2CHTO   H47  747   3.178   7.782   1.871  3.4652 -1.2580 -0.5039
    2CHTO   C20  748   3.361   7.864   1.803 -0.3367  0.5699  0.0508
    2CHTO   H48  749   3.401   7.955   1.758 -1.0689  0.2084 -1.3610
    2CHTO   O19  750   3.356   7.759   1.700  0.3533  0.4901 -0.6978
    2CHTO   H35  751   3.344   7.675   1.741 -1.5881  2.2066  2.3803
    2CHTO   C21  752   3.456   7.822   1.918  0.1093 -0.2042 -0.3580
    2CHTO   H49  753   3.438   7.716   1.938 -0.0260 -0.6060 -2.5583
    2CHTO    N4  754   3.602   7.835   1.886  0.6380  0.1721  0.4972
    2CHTO   H41  755   3.633   7.733   1.871 -1.6718 -1.0672  3.5612
    2CHTO   H42  756   3.619   7.887   1.793  3.4818 -1.7521 -0.0910
    2CHTO   C22  757   3.431   7.891   2.052 -0.3082  0.0986 -0.2564
    2CHTO   H50  758   3.458   7.996   2.041 -1.2407  0.5850  1.9401
    2CHTO   O14  759   3.290   7.880   2.069  0.4042  0.4432  0.1700
    2CHTO   C23  760   3.222   7.961   1.978 -0.3478  0.1894 -0.1814
    2CHTO   H51  761   3.267   8.061   1.966 -0.8843  0.5133  0.4731
    2CHTO   C34  762   3.080   7.978   2.032 -0.1967  0.0316  0.1954
    2CHTO   O23  763   3.063   8.054   2.152 -0.0466 -0.6637 -0.1094
    2CHTO   H38  764   3.063   7.992   2.223 -0.1349 -3.4829 -2.4794
    2CHTO   O16  765   3.489   7.828   2.166  0.3396 -0.4477 -0.4488
    2CHTO   C24  766   3.460   7.917   2.301  0.4158  0.3722  0.1479
    2CHTO   H52  767   3.394   8.001   2.280 -0.7416 -0.5273  0.1457
    2CHTO   C26  768   3.592   7.970   2.352 -0.3136 -0.2853  0.2345
    2CHTO   H54  769   3.664   7.886   2.357 -1.6127 -1.4994 -1.0198
    2CHTO   O20  770   3.640   8.059   2.243  0.1590 -0.5435 -0.6217
    2CHTO   H36  771   3.728   8.085   2.261 -0.3137  1.3032 -0.8613
    2CHTO   C30  772   3.571   8.046   2.481 -0.4636  0.7468  0.1077
    2CHTO   H58  773   3.513   8.136   2.453 -1.0270  0.1689 -0.6071
    2CHTO    N6  774   3.697   8.102   2.528 -0.1578  0.5111 -0.0602
    2CHTO   H45  775   3.695   8.146   2.626  1.2225 -0.8769  0.6110
    2CHTO   H46  776   3.767   8.020   2.531 -0.5601  0.1596 -0.1003
    2CHTO   C33  777   3.496   7.963   2.589  0.2609  0.1078  0.5781
    2CHTO   H61  778   3.561   7.884   2.627  0.2304 -0.1123  0.1774
    2CHTO   O18  779   3.378   7.903   2.530  0.0982 -0.1259  0.1003
    2CHTO   C28  780   3.400   7.824   2.408 -0.0023  0.0299  0.1146
    2CHTO   H56  781   3.467   7.739   2.419  0.4744  0.5907  1.6893
    2CHTO   C35  782   3.261   7.770   2.366 -0.2596 -0.1680  0.4384
    2CHTO   O24  783   3.207   7.681   2.464  0.2440  0.0221  0.2001
    2CHTO   H39  784   3.142   7.629   2.420 -0.7013  0.9218  0.5075
    2CHTO    O9  785   3.457   8.040   2.708 -0.9167 -0.0649  0.2925
    2CHTO   C13  786   3.429   7.956   2.835 -0.0488  0.0190 -0.2080
    2CHTO   H26  787   3.501   7.871   2.838 -1.0437 -0.8287 -0.0903
    2CHTO   C11  788   3.279   7.904   2.835  0.1334  0.4405  0.2867
    2CHTO   H24  789   3.267   7.825   2.760 -0.6129 -0.0196  0.8797
    2CHTO    O8  790   3.186   8.000   2.784  0.4910 -0.3910 -0.3311
    2CHTO    H3  791   3.102   7.973   2.816  1.6065 -1.0151  2.1579
    2CHTO    C9  792   3.249   7.855   2.979 -0.1039  0.4346  1.0493
    2CHTO   H22  793   3.320   7.773   2.999 -0.0188  0.1984 -0.1799
    2CHTO    N2  794   3.119   7.780   2.978 -0.3095  0.3985  0.3177
    2CHTO   H10  795   3.131   7.695   2.913 -0.8949 -0.9602  1.9364
    2CHTO   H11  796   3.046   7.852   2.944  2.1372  2.4506 -0.7996
    2CHTO    C7  797   3.253   7.974   3.083 -0.1208 -0.4424 -0.7946
    2CHTO   H20  798   3.295   7.932   3.177  0.7383 -1.7415 -1.7525
    2CHTO    O4  799   3.339   8.076   3.041  0.3001 -0.3151 -0.7121
    2CHTO   C14  800   3.458   8.033   2.974 -0.0489 -0.4727  0.0877
    2CHTO   H27  801   3.513   7.962   3.040  1.7788  1.2035  0.3937
    2CHTO   C18  802   3.548   8.160   2.960 -0.4036 -0.3650 -0.0487
    2CHTO   O13  803   3.621   8.186   3.084  0.6027  0.5685 -0.1322
    2CHTO    H7  804   3.632   8.279   3.093 -0.0076  0.9533 -2.8307
    2CHTO    O2  805   3.098   8.051   3.136  0.4156  0.2813 -0.4560
    2CHTO    C1  806   3.086   8.031   3.277  0.5516  0.4131 -0.4688
    2CHTO   H14  807   3.168   7.973   3.325  1.9649  1.2574 -1.8164
    2CHTO    C2  808   2.955   7.954   3.322 -0.5646 -0.0800  0.0424
    2CHTO   H15  809   2.880   8.007   3.262  0.8531 -0.3267 -2.0161
    2CHTO    O6  810   2.974   7.818   3.279  0.0911  0.1173  0.2473
    2CHTO    H1  811   2.997   7.822   3.188  0.4867 -0.3199  0.3263
    2CHTO    C3  812   2.927   7.955   3.477 -0.1205 -0.4721  0.2028
    2CHTO   H16  813   2.988   7.882   3.533  0.1719 -0.7105 -0.4183
    2CHTO    N1  814   2.782   7.911   3.500 -0.4976 -0.2396  0.0593
    2CHTO    H8  815   2.733   7.959   3.583  0.8720  0.7379  0.3247
    2CHTO    H9  816   2.778   7.803   3.497  0.6672 -0.3218  1.0672
    2CHTO    C4  817   2.961   8.100   3.539 -0.1781  0.4771 -0.3433
    2CHTO   H17  818   2.871   8.160   3.523 -1.1036 -0.2576  1.9186
    2CHTO    O1  819   3.079   8.159   3.485 -0.4415 -0.1231 -0.3589
    2CHTO    C5  820   3.082   8.174   3.342 -0.7743  0.0306 -0.7122
    2CHTO   H18  821   2.993   8.222   3.302 -0.8424  0.8378  0.4114
    2CHTO   C16  822   3.206   8.256   3.297 -0.2294 -0.3092 -0.1245
    2CHTO   O11  823   3.333   8.203   3.333  0.3838 -0.0595  0.2415
    2CHTO    H5  824   3.385   8.279   3.354 -2.2546  1.3534  2.0038
    2CHTO    O3  825   2.978   8.078   3.679  0.1069 -0.3064  0.0682
    2CHTO    C6  826   2.958   8.193   3.777 -0.3318  0.3123 -0.7789
    2CHTO   H19  827   2.926   8.285   3.729  0.3382  0.7288 -0.4254
    2CHTO    C8  828   2.841   8.155   3.880  0.6708  0.6534 -0.6872
    2CHTO   H21  829   2.864   8.058   3.924  1.5305  0.3714 -1.7279
    2CHTO    O7  830   2.715   8.148   3.803 -0.9981  0.0225  0.1146
    2CHTO    H2  831   2.657   8.214   3.835  1.5841  1.0121  2.9539
    2CHTO   C12  832   2.837   8.262   4.001 -0.3180  0.6600 -0.2779
    2CHTO   H25  833   2.798   8.355   3.954  1.6363  1.3389 -0.6055
    2CHTO    N3  834   2.733   8.226   4.098  0.2224 -0.3264 -0.3822
    2CHTO   H12  835   2.673   8.314   4.116  0.0793 -0.3396 -0.7908
    2CHTO   H13  836   2.783   8.189   4.186  0.0733  2.8333  1.0988
    2CHTO   C15  837   2.980   8.293   4.061 -0.1932 -0.2967 -0.4982
    2CHTO   H28  838   3.022   8.215   4.124  0.5157 -0.3330 -1.0097
    2CHTO   O10  839   2.981   8.422   4.145 -0.6107  0.1321  0.2414
    2CHTO    H4  840   2.921   8.407   4.215 -1.9255 -1.5541 -1.1959
    2CHTO    O5  841   3.068   8.325   3.956 -0.2625 -0.3672  0.0938
    2CHTO   C10  842   3.092   8.227   3.856  0.4502 -0.0000  0.2718
    2CHTO   H23  843   3.121   8.131   3.898  0.9550 -0.5507 -1.2982
    2CHTO   C17  844   3.199   8.281   3.767  0.4903 -0.0849  0.2197
    2CHTO   O12  845   3.316   8.313   3.845 -0.5934  0.1609 -0.0297
    2CHTO    H6  846   3.382   8.350   3.789  0.6769 -1.1512  0.5759
    3CHTO  H203  847   7.454   2.192   1.723  0.2310 -2.2519 -0.1894
    3CHTO   O82  848   7.497   2.190   1.806 -0.1458  0.2056  0.1039
    3CHTO  C123  849   7.520   2.062   1.860 -0.0106 -0.1020  0.4864
    3CHTO  H227  850   7.608   2.064   1.926 -0.5312  1.2097  1.1515
    3CHTO   O77  851   7.395   2.044   1.930 -0.0435 -0.0928 -0.3695
    3CHTO  C118  852   7.365   1.919   2.000  0.5175 -0.3910 -0.3568
    3CHTO  H222  853   7.450   1.896   2.065  1.0421  0.4211 -0.7446
    3CHTO  C125  854   7.237   1.951   2.088  0.6476 -0.7275 -0.2881
    3CHTO   O84  855   7.119   1.981   2.013  0.0102 -0.3076 -0.2643
    3CHTO  H205  856   7.069   1.905   1.991 -0.7027  0.3843 -1.1338
    3CHTO  C114  857   7.354   1.803   1.898 -0.1007 -0.1100  0.3060
    3CHTO  H218  858   7.270   1.822   1.832 -0.3519 -1.3884  0.2406
    3CHTO  C116  859   7.493   1.792   1.823 -0.2996 -0.0137  0.1091
    3CHTO  H220  860   7.574   1.768   1.895 -0.8306 -0.5245  0.5384
    3CHTO   O79  861   7.482   1.686   1.728  0.3386  0.2642 -0.5517
    3CHTO  H201  862   7.470   1.600   1.763  0.5758  0.3110 -0.3530
    3CHTO  C120  863   7.518   1.938   1.756 -0.6793  0.2249  0.0930
    3CHTO  H224  864   7.437   1.953   1.682  1.0147 -2.2711 -2.3924
    3CHTO   N21  865   7.655   1.940   1.694 -0.4492 -0.1330 -0.3908
    3CHTO  H211  866   7.690   2.042   1.688 -0.3147 -0.3440 -3.5530
    3CHTO  H212  867   7.643   1.893   1.598 -1.2738  0.5274 -0.6213
    3CHTO   O75  868   7.329   1.680   1.972  0.6008 -0.0943 -0.2216
    3CHTO  C112  869   7.214   1.576   1.895  0.2646 -0.5150  0.8470
    3CHTO  H216  870   7.257   1.549   1.798 -0.2958  0.5731  0.2983
    3CHTO   O73  871   7.094   1.654   1.882 -0.3369 -0.0334 -0.1579
    3CHTO  C113  872   6.979   1.581   1.829 -0.0920  0.1317 -0.3793
    3CHTO  H217  873   6.993   1.539   1.727 -0.5329  1.5840 -1.0420
    3CHTO  C124  874   6.868   1.689   1.816 -0.4139 -0.5232 -0.6951
    3CHTO   O83  875   6.888   1.766   1.699 -0.1127 -0.1903  0.3001
    3CHTO  H204  876   6.811   1.815   1.676 -1.1288 -2.7650 -2.1006
    3CHTO  C109  877   6.946   1.457   1.913 -0.1712  0.1896  0.5797
    3CHTO  H213  878   6.920   1.497   2.012 -0.4222  0.4176  0.4218
    3CHTO  C110  879   7.074   1.369   1.939 -0.8116 -0.3093  0.5538
    3CHTO  H214  880   7.092   1.329   1.839  2.3233  0.3386  0.8035
    3CHTO   O78  881   7.052   1.264   2.035 -0.7430 -0.1538  0.2648
    3CHTO  H200  882   7.051   1.179   1.995  2.4980 -0.7540  1.2379
    3CHTO  C111  883   7.193   1.453   1.987 -0.5444  0.6420  0.4759
    3CHTO  H215  884   7.175   1.486   2.090 -1.2156  2.0490 -0.0850
    3CHTO   N19  885   7.323   1.379   1.991 -0.5884 -0.0687 -0.2038
    3CHTO  H207  886   7.328   1.292   2.054  0.8622  1.4832  1.9007
    3CHTO  H208  887   7.398   1.452   2.020 -1.3293  0.7742 -0.3692
    3CHTO   O74  888   6.828   1.384   1.857 -1.1913 -0.4051  0.3268
    3CHTO  C115  889   6.737   1.326   1.986  0.1081  0.4860 -0.4728
    3CHTO  H219  890   6.796   1.273   2.061  0.9367  1.9056 -0.0993
    3CHTO   O76  891   6.658   1.459   2.068  0.2070  0.5756 -0.1615
    3CHTO  C122  892   6.556   1.513   1.986  0.1726 -0.9613  0.3267
    3CHTO  H226  893   6.602   1.551   1.895 -1.1666 -0.9924 -0.3681
    3CHTO  C126  894   6.488   1.625   2.047  0.3123  0.0458  0.3785
    3CHTO   O85  895   6.570   1.735   2.081  0.2118  0.0035  0.1331
    3CHTO  H206  896   6.627   1.766   2.013 -0.1720  1.5334  0.4875
    3CHTO  C121  897   6.447   1.406   1.941  0.5321 -0.5117  0.0915
    3CHTO  H225  898   6.354   1.427   1.998  0.4450  1.7672 -0.8452
    3CHTO   O81  899   6.412   1.435   1.806 -0.1702 -0.3041  0.4184
    3CHTO  H202  900   6.319   1.419   1.803 -0.2663  0.6424 -1.9927
    3CHTO  C119  901   6.491   1.258   1.965 -0.3688 -0.3785  0.6337
    3CHTO  H223  902   6.486   1.239   2.072  1.5582  0.8628  0.9703
    3CHTO  C117  903   6.635   1.220   1.924 -0.6060 -0.4244 -0.0143
    3CHTO  H221  904   6.652   1.216   1.816 -1.0725  2.1882 -0.2238
    3CHTO   N20  905   6.677   1.077   1.972 -0.0473 -0.8711 -0.0174
    3CHTO  H209  906   6.675   1.022   1.879  0.4570 -1.4390  0.3067
    3CHTO  H210  907   6.776   1.080   2.014 -1.3897 -0.1132  3.3049
    3CHTO   O80  908   6.386   1.154   1.906  0.0808 -0.2563 -0.2690
    3CHTO  C103  909   6.250   1.139   1.966 -0.3058 -0.2563  0.1011
    3CHTO  H190  910   6.253   1.167   2.071  3.7767 -2.9627  0.7927
    3CHTO  C101  911   6.134   1.224   1.897 -0.5710 -0.5522  0.1923
    3CHTO  H188  912   6.158   1.218   1.791 -4.2276 -2.5308 -0.6109
    3CHTO   O68  913   6.136   1.379   1.954  0.0373  0.0650 -0.2020
    3CHTO  H168  914   6.202   1.424   1.905  1.1032  0.0507  1.2115
    3CHTO   C99  915   5.985   1.158   1.925 -0.9945 -0.7014  0.3288
    3CHTO  H186  916   5.959   1.172   2.032 -0.8650 -1.1795  0.4231
    3CHTO   N17  917   5.865   1.222   1.853  0.4171  0.1306  0.1066
    3CHTO  H174  918   5.907   1.275   1.769  0.6997  1.8546  1.3088
    3CHTO  H175  919   5.822   1.291   1.923  0.8304  4.0045 -3.2467
    3CHTO   C97  920   5.987   1.004   1.913 -0.2063 -0.0938  0.6390
    3CHTO  H184  921   6.018   0.987   1.808 -0.4561  0.5756  0.4539
    3CHTO   O64  922   6.085   0.951   2.005 -0.2611 -0.3598 -0.7347
    3CHTO  C104  923   6.221   0.984   1.961 -0.1270 -0.5410 -0.1082
    3CHTO  H191  924   6.226   0.959   1.855 -1.3292  2.0479 -0.8306
    3CHTO  C108  925   6.325   0.902   2.030 -0.3118 -0.2750  0.6151
    3CHTO   O71  926   6.346   0.940   2.169 -0.2111 -0.5917  0.4771
    3CHTO  H171  927   6.268   0.918   2.217  0.4412 -3.3996  0.2784
    3CHTO   O62  928   5.868   0.939   1.946 -0.3254  0.6339  0.3608
    3CHTO   C91  929   5.822   0.810   1.902 -0.1231 -0.4142 -0.4052
    3CHTO  H178  930   5.797   0.803   1.796 -1.4830 -3.0628  0.0504
    3CHTO   C92  931   5.676   0.790   1.957 -0.0152  0.6361 -0.6994
    3CHTO  H179  932   5.676   0.805   2.066  0.6297  0.9875 -0.7477
    3CHTO   O66  933   5.595   0.888   1.897  0.7723 -0.1752 -0.0990
    3CHTO  H166  934   5.622   0.926   1.816  1.5774  3.6513  1.8494
    3CHTO   C93  935   5.609   0.643   1.934  0.4658  0.3987 -0.4249
    3CHTO  H180  936   5.585   0.634   1.827  1.5122  1.8552 -0.7951
    3CHTO   N16  937   5.477   0.628   2.008 -0.0277  0.1796  0.3813
    3CHTO  H172  938   5.445   0.723   2.048  2.3759  2.0531 -1.9474
    3CHTO  H173  939   5.408   0.575   1.944  0.1545  0.7433 -0.2944
    3CHTO   C94  940   5.705   0.527   1.967 -0.1537  0.3674 -0.1286
    3CHTO  H181  941   5.668   0.466   2.049 -0.1600  0.2583 -0.2115
    3CHTO   O61  942   5.833   0.578   2.014 -0.2143  0.5572 -0.2245
    3CHTO   C95  943   5.913   0.680   1.948  0.0522 -0.9108  0.1001
    3CHTO  H182  944   5.996   0.705   2.015 -0.5336 -0.9024  0.8355
    3CHTO  C106  945   5.987   0.622   1.828 -0.3653 -0.2935 -0.1537
    3CHTO   O69  946   6.090   0.709   1.781 -0.1054 -0.3436  0.9251
    3CHTO  H169  947   6.167   0.701   1.834  1.0335  1.0068 -0.4690
    3CHTO   O63  948   5.731   0.438   1.836 -0.3128  0.4055  0.0396
    3CHTO   C96  949   5.703   0.284   1.874 -0.1125  0.7227 -0.0666
    3CHTO  H183  950   5.717   0.234   1.778 -0.6180 -0.8238  0.6521
    3CHTO   C98  951   5.551   0.264   1.919  0.0567  0.8441  0.0775
    3CHTO  H185  952   5.525   0.330   2.003  0.2373  0.1026  0.7287
    3CHTO   O67  953   5.473   0.308   1.809 -0.1696 -0.2654  0.0484
    3CHTO  H167  954   5.481   0.400   1.790 -0.4535  0.0017  1.1456
    3CHTO  C102  955   5.523   0.108   1.953  0.5646  0.1611 -0.1007
    3CHTO  H189  956   5.548   0.051   1.862 -1.0457 -0.4201 -0.1857
    3CHTO   N18  957   5.383   0.074   1.988 -0.2411  0.7658 -0.1874
    3CHTO  H176  958   5.372  -0.029   2.017  2.3747  0.4870 -0.1575
    3CHTO  H177  959   5.330   0.099   1.897 -0.5041  0.4371 -0.1273
    3CHTO  C105  960   5.631   0.075   2.060  0.3480  0.1418 -0.2074
    3CHTO  H192  961   5.605   0.132   2.150 -0.3828 -1.4308  0.6033
    3CHTO   O65  962   5.768   0.097   2.018  0.0319 -0.1021  0.3223
    3CHTO  C100  963   5.803   0.230   1.981 -0.5482  0.3785  0.0011
    3CHTO  H187  964   5.801   0.284   2.077 -0.5755 -1.7162  1.2082
    3CHTO  C107  965   5.941   0.227   1.930 -0.1157 -0.1892  0.6847
    3CHTO   O70  966   5.954   0.153   1.807  0.2219 -0.6137  0.0142
    3CHTO  H170  967   5.898   0.078   1.801  1.1575 -1.3817  0.8329
    3CHTO   O57  968   5.618  -0.083   2.098 -0.0438 -0.0840 -0.0395
    3CHTO   C85  969   5.659  -0.139   2.220 -0.4970 -0.0780 -0.3194
    3CHTO  H157  970   5.679  -0.239   2.176  0.4541 -0.5225  1.1107
    3CHTO   C83  971   5.533  -0.151   2.314 -0.4671 -0.0904  0.1913
    3CHTO  H155  972   5.456  -0.204   2.259 -1.7248  3.4979 -1.6898
    3CHTO   O56  973   5.476  -0.020   2.345 -0.5285 -0.3526 -0.0070
    3CHTO  H135  974   5.470   0.032   2.267  0.1620  0.8744  0.7367
    3CHTO   C81  975   5.578  -0.222   2.450 -0.3878 -0.3183  0.0226
    3CHTO  H153  976   5.615  -0.322   2.427  0.4910 -0.0895  0.4368
    3CHTO   N14  977   5.471  -0.239   2.549  0.3122  0.6755 -0.2892
    3CHTO  H141  978   5.395  -0.292   2.496  0.5975  2.4097 -2.4976
    3CHTO  H142  979   5.504  -0.293   2.636 -2.5883  0.2670  0.5969
    3CHTO   C79  980   5.697  -0.140   2.525  0.1885 -0.0803  0.5464
    3CHTO  H151  981   5.737  -0.199   2.608  1.1924  0.9858  0.8504
    3CHTO   O52  982   5.810  -0.117   2.434  0.0081  0.1129  0.4657
    3CHTO   C86  983   5.782  -0.076   2.296  0.0843 -0.8948  0.3385
    3CHTO  H158  984   5.759   0.032   2.310 -2.3356 -1.3042 -0.2230
    3CHTO   C90  985   5.916  -0.084   2.209 -0.5087  0.1000  0.2946
    3CHTO   O60  986   6.014   0.020   2.216  0.2934  0.2931 -0.3236
    3CHTO  H138  987   6.062  -0.004   2.293  0.3918 -0.9772 -0.7588
    3CHTO   O50  988   5.650  -0.008   2.572  0.0847  0.1741  0.4123
    3CHTO   C73  989   5.665   0.111   2.645  0.2885  0.2470 -0.6055
    3CHTO  H145  990   5.767   0.132   2.680  0.3255 -0.3341 -0.3656
    3CHTO   C74  991   5.571   0.121   2.773 -0.1051 -0.0705  0.5832
    3CHTO  H146  992   5.603   0.033   2.831 -0.0465 -1.6550 -1.8231
    3CHTO   O54  993   5.598   0.248   2.848 -0.1251 -0.1096  0.5284
    3CHTO  H133  994   5.653   0.228   2.921 -0.1206  1.4997  0.9863
    3CHTO   C75  995   5.425   0.112   2.731 -0.5029  0.5675  0.4290
    3CHTO  H147  996   5.417   0.017   2.677 -1.2331  0.5413  0.5867
    3CHTO   N13  997   5.325   0.108   2.842  0.0919 -0.2356  0.0627
    3CHTO  H139  998   5.267   0.017   2.834 -0.1858 -0.2933  2.4309
    3CHTO  H140  999   5.259   0.193   2.841 -3.1786 -2.6792 -1.5549
    3CHTO   C76 1000   5.402   0.223   2.628 -0.6218 -0.0308 -0.0207
    3CHTO  H148 1001   5.407   0.315   2.687 -1.2820  0.2834 -0.4543
    3CHTO   O49 1002   5.490   0.228   2.512 -0.1585 -0.3945 -0.1543
    3CHTO   C77 1003   5.630   0.234   2.557  0.1942  0.6800  0.0935
    3CHTO  H149 1004   5.639   0.324   2.619  1.2696 -0.0630  1.0353
    3CHTO   C88 1005   5.723   0.263   2.443 -0.2975  0.2857 -0.6145
    3CHTO   O58 1006   5.862   0.294   2.479 -0.6504 -0.8153  0.2237
    3CHTO  H136 1007   5.908   0.217   2.507 -0.8419 -1.9482 -2.4811
    3CHTO   O51 1008   5.257   0.207   2.567  0.1254 -0.1811  0.0960
    3CHTO   C78 1009   5.205   0.365   2.539 -0.0865  0.3837 -0.1671
    3CHTO  H150 1010   5.288   0.438   2.554  0.3748 -0.2649  0.5171
    3CHTO   C80 1011   5.090   0.405   2.636 -0.7437 -0.0118 -0.7673
    3CHTO  H152 1012   5.007   0.334   2.617  0.4272 -1.0877 -2.0009
    3CHTO   O55 1013   5.135   0.391   2.769 -0.4467  0.4345 -0.2543
    3CHTO  H134 1014   5.162   0.303   2.790 -0.8806  0.1222 -0.9642
    3CHTO   C84 1015   5.048   0.559   2.605 -0.0516  0.5415  0.0848
    3CHTO  H156 1016   5.136   0.614   2.636  1.0165 -0.1128 -1.7045
    3CHTO   N15 1017   4.940   0.612   2.689  0.5243 -0.4348 -0.3211
    3CHTO  H143 1018   4.843   0.567   2.689 -0.4050  1.4892 -0.9768
    3CHTO  H144 1019   4.939   0.719   2.699 -0.3006 -0.4575 -0.0648
    3CHTO   C87 1020   5.023   0.584   2.450 -0.0123 -0.8186  0.1993
    3CHTO  H159 1021   4.923   0.552   2.420 -0.0310  0.3390 -1.0118
    3CHTO   O53 1022   5.127   0.528   2.382  0.1158 -0.4543  0.2335
    3CHTO   C82 1023   5.153   0.389   2.392  0.1614  0.4583  0.1026
    3CHTO  H154 1024   5.062   0.332   2.376 -0.3855  1.1408  0.6746
    3CHTO   C89 1025   5.257   0.355   2.284  0.4177 -0.3523 -0.5182
    3CHTO   O59 1026   5.276   0.217   2.277 -0.2070 -0.1091 -0.3638
    3CHTO  H137 1027   5.324   0.195   2.200 -0.9507  2.0461 -1.5041
    3CHTO   O45 1028   5.028   0.762   2.421  0.4961  0.2707 -0.0797
    3CHTO   C67 1029   5.158   0.825   2.403 -0.0504  0.7657 -0.9356
    3CHTO  H124 1030   5.238   0.758   2.436 -1.9991 -1.3830 -0.4086
    3CHTO   C65 1031   5.174   0.845   2.244  0.3994  0.1608  0.7965
    3CHTO  H122 1032   5.071   0.851   2.210  0.5551  0.9009  0.4571
    3CHTO   O44 1033   5.229   0.726   2.192 -0.4870  0.1142  0.4681
    3CHTO  H102 1034   5.248   0.734   2.101 -0.8000  2.6093  0.5859
    3CHTO   C63 1035   5.251   0.982   2.219  0.0437  0.1207  0.3337
    3CHTO  H120 1036   5.177   1.062   2.226  1.8016  1.9086 -0.9084
    3CHTO   N11 1037   5.285   0.990   2.073  0.2668  0.5395  0.2071
    3CHTO  H108 1038   5.200   1.012   2.012 -0.3562 -1.7448  0.2373
    3CHTO  H109 1039   5.345   1.077   2.054  1.0516 -0.4334 -1.8918
    3CHTO   C61 1040   5.361   1.004   2.323 -1.0401  0.7589 -0.5186
    3CHTO  H118 1041   5.413   1.098   2.299 -1.0817  0.6318 -1.1265
    3CHTO   O40 1042   5.308   1.013   2.461 -0.5290  0.3591  0.1775
    3CHTO   C68 1043   5.177   0.957   2.484  0.1801  0.0143 -0.6035
    3CHTO  H125 1044   5.097   1.026   2.448 -2.1288 -2.0508  0.4051
    3CHTO   C72 1045   5.154   0.942   2.639  0.5132 -0.1193  0.2715
    3CHTO   O48 1046   5.159   1.078   2.692 -0.1269  0.4927  0.0811
    3CHTO  H105 1047   5.244   1.113   2.674 -0.2489  0.7574  0.0168
    3CHTO   O38 1048   5.453   0.892   2.323  0.4381 -0.1358  0.1273
    3CHTO   C55 1049   5.572   0.893   2.406 -0.0967  0.1647  0.9193
    3CHTO  H112 1050   5.540   0.943   2.499  1.8486  0.7675  1.2847
    3CHTO   C56 1051   5.691   0.975   2.339  0.6534  0.2466  0.0212
    3CHTO  H113 1052   5.690   0.942   2.234  0.9433  0.8940 -0.1854
    3CHTO   O42 1053   5.665   1.122   2.325  0.0011  0.2982  0.1920
    3CHTO  H100 1054   5.584   1.135   2.279  0.3817 -0.1155 -0.6068
    3CHTO   C57 1055   5.823   0.947   2.417 -0.6101  0.5452 -0.4336
    3CHTO  H114 1056   5.804   1.000   2.510  2.5500  3.2267 -1.2437
    3CHTO   N10 1057   5.942   1.008   2.342 -0.3929 -0.2353 -0.0305
    3CHTO  H106 1058   5.939   1.112   2.369 -0.4670 -0.3350  0.3516
    3CHTO  H107 1059   6.037   0.965   2.373 -1.5228 -4.1401 -1.6673
    3CHTO   C58 1060   5.851   0.800   2.452  1.4154 -0.3089 -0.2173
    3CHTO  H115 1061   5.866   0.739   2.361 -1.4795 -1.3811 -0.0424
    3CHTO   O37 1062   5.733   0.743   2.514  0.1765 -0.1026  0.2406
    3CHTO   C59 1063   5.612   0.748   2.435 -0.1637 -0.1633  0.2332
    3CHTO  H116 1064   5.630   0.692   2.344  1.8689  1.3455 -0.3293
    3CHTO   C70 1065   5.503   0.680   2.523 -0.2730  0.1764  0.2360
    3CHTO   O46 1066   5.526   0.541   2.539  0.1002 -0.2540 -0.0310
    3CHTO  H103 1067   5.452   0.492   2.571 -0.3862 -0.9681 -2.1540
    3CHTO   O39 1068   5.979   0.767   2.561  0.1684  0.0410 -0.3218
    3CHTO   C60 1069   6.028   0.629   2.549  0.4845  0.5498  0.7934
    3CHTO  H117 1070   5.948   0.576   2.498  1.6033 -3.0975  2.6178
    3CHTO   C62 1071   6.156   0.618   2.456  0.3614 -0.7840  0.5663
    3CHTO  H119 1072   6.138   0.683   2.367 -1.6341 -0.3055  1.2929
    3CHTO   O43 1073   6.277   0.673   2.513  0.0359 -0.3944 -0.3489
    3CHTO  H101 1074   6.297   0.649   2.602 -0.7413  1.3040  0.2976
    3CHTO   C66 1075   6.168   0.463   2.420 -0.6842 -0.5061 -0.1277
    3CHTO  H123 1076   6.069   0.435   2.381 -0.0020 -2.6341 -0.3936
    3CHTO   N12 1077   6.258   0.438   2.303  0.1838  0.0319  0.2460
    3CHTO  H110 1078   6.352   0.389   2.328 -0.6694 -2.2031 -0.8523
    3CHTO  H111 1079   6.207   0.400   2.216 -1.3402  1.7292  0.3917
    3CHTO   C69 1080   6.204   0.381   2.553  0.1938 -0.4384  0.1345
    3CHTO  H126 1081   6.303   0.421   2.585 -0.7537  0.9597  1.4254
    3CHTO   O41 1082   6.101   0.409   2.668  0.0039 -0.4137 -0.3017
    3CHTO   C64 1083   6.051   0.556   2.686 -0.4935  0.4900  0.4737
    3CHTO  H121 1084   6.137   0.604   2.737  0.3642  0.2041 -0.6835
    3CHTO   C71 1085   5.924   0.571   2.768  0.1072  0.1187 -0.8529
    3CHTO   O47 1086   5.813   0.506   2.710  0.8626  0.0346  0.2799
    3CHTO  H104 1087   5.827   0.414   2.722  0.2192  0.1667  2.1900
    3CHTO   O34 1088   6.199   0.234   2.524 -0.5573  0.4836  0.3367
    3CHTO   C49 1089   6.238   0.089   2.573  0.7496 -0.0181 -0.1306
    3CHTO   H91 1090   6.289   0.046   2.486 -0.6871  0.1876 -1.1053
    3CHTO   C47 1091   6.116   0.011   2.622  1.0713  0.0449 -0.3588
    3CHTO   H89 1092   6.066  -0.014   2.526  0.3319 -1.0747  0.3096
    3CHTO   O33 1093   6.030   0.098   2.701 -0.4495  0.4838 -0.2062
    3CHTO   H70 1094   5.947   0.061   2.723 -0.8470  1.5179  0.0885
    3CHTO   C45 1095   6.150  -0.120   2.705 -0.3438 -0.3053  0.2998
    3CHTO   H87 1096   6.129  -0.098   2.811 -0.0636 -0.4721  0.3890
    3CHTO    N8 1097   6.067  -0.234   2.678  0.0781  0.0007  0.0479
    3CHTO   H75 1098   5.968  -0.219   2.718 -0.6683 -1.1829 -1.3001
    3CHTO   H76 1099   6.098  -0.333   2.710 -1.2281 -0.7485 -0.9383
    3CHTO   C43 1100   6.312  -0.155   2.695 -0.0768 -0.7817  0.0656
    3CHTO   H85 1101   6.336  -0.237   2.764  2.6879 -0.9288 -1.0056
    3CHTO   O29 1102   6.395  -0.038   2.716 -0.4810  0.0217 -0.1605
    3CHTO   C50 1103   6.350   0.092   2.683 -0.4440 -0.5941  0.0989
    3CHTO   H92 1104   6.306   0.135   2.773  0.3262 -1.0051  0.6811
    3CHTO   C54 1105   6.477   0.179   2.649  0.2884  0.1926 -0.6124
    3CHTO   O36 1106   6.548   0.137   2.530  0.5789 -0.0932  0.2416
    3CHTO   H72 1107   6.596   0.058   2.544 -0.2059 -0.5010  0.6628
    3CHTO   O27 1108   6.345  -0.214   2.565  0.3914  0.2282 -0.0610
    3CHTO   C37 1109   6.463  -0.207   2.484 -0.1087 -0.1437 -0.9379
    3CHTO   H79 1110   6.512  -0.109   2.483  2.9789 -1.6398 -0.5372
    3CHTO   C38 1111   6.579  -0.296   2.534 -0.1677 -0.0485 -0.2557
    3CHTO   H80 1112   6.535  -0.394   2.560  0.6662 -0.7400 -1.3976
    3CHTO   O31 1113   6.627  -0.234   2.652 -0.1783 -0.0593  0.2319
    3CHTO   H68 1114   6.685  -0.163   2.637 -0.3745 -0.4846 -2.7925
    3CHTO   C39 1115   6.700  -0.305   2.429 -0.2309  0.4595 -0.1599
    3CHTO   H81 1116   6.740  -0.203   2.421 -0.7919  0.4954 -3.2855
    3CHTO    N7 1117   6.816  -0.392   2.486 -0.5438 -1.0581 -0.4015
    3CHTO   H73 1118   6.819  -0.487   2.434  1.6137 -1.9763  1.3206
    3CHTO   H74 1119   6.915  -0.349   2.496 -0.6959 -0.6713 -0.5732
    3CHTO   C40 1120   6.646  -0.337   2.289 -1.1374  0.2028 -0.1881
    3CHTO   H82 1121   6.612  -0.441   2.286  2.0304 -0.8306 -3.3574
    3CHTO   O26 1122   6.540  -0.243   2.258  0.4278  0.0467 -0.2244
    3CHTO   C41 1123   6.425  -0.248   2.345  0.8773  0.0719 -0.1972
    3CHTO   H83 1124   6.386  -0.351   2.350 -1.9120  1.0904  0.0416
    3CHTO   C52 1125   6.313  -0.162   2.294 -0.4428  0.5739  0.0342
    3CHTO   O35 1126   6.238  -0.211   2.182 -0.3220  0.7087  0.1656
    3CHTO   H71 1127   6.194  -0.291   2.200  1.1863 -0.1030  0.2984
    3CHTO   O28 1128   6.748  -0.314   2.190 -0.0440  0.6035  0.0575
    3CHTO   C42 1129   6.788  -0.188   2.130 -0.1072  0.2590 -0.3968
    3CHTO   H84 1130   6.874  -0.219   2.071  0.4776  1.8409 -0.3839
    3CHTO   C44 1131   6.841  -0.077   2.228 -0.0854 -0.3318  0.6744
    3CHTO   H86 1132   6.766  -0.045   2.300  1.5327  0.1944  2.1757
    3CHTO   O32 1133   6.952  -0.128   2.306 -0.2490 -0.1834 -0.4026
    3CHTO   H69 1134   7.001  -0.193   2.260  0.0861  0.8870 -1.5619
    3CHTO   C48 1135   6.890   0.058   2.149 -0.1213 -0.1172 -0.8540
    3CHTO   H90 1136   6.990   0.032   2.114  0.3891  0.0659  0.4524
    3CHTO    N9 1137   6.919   0.170   2.246 -0.5945 -0.0769 -0.3309
    3CHTO   H77 1138   6.853   0.161   2.331 -0.0608 -0.8178  0.0082
    3CHTO   H78 1139   6.904   0.270   2.208  1.5654 -0.0019 -1.0879
    3CHTO   C51 1140   6.782   0.102   2.036 -0.4857 -0.4124  0.0667
    3CHTO   H93 1141   6.692   0.132   2.089 -0.0631  2.0473 -0.5352
    3CHTO   O30 1142   6.764  -0.015   1.953 -0.1716  0.0763  0.5276
    3CHTO   C46 1143   6.688  -0.119   2.022 -0.3442 -0.2266 -0.7000
    3CHTO   H88 1144   6.593  -0.084   2.063  0.3981 -0.9624  1.7375
    3CHTO   C53 1145   6.645  -0.213   1.913 -0.0090  0.8142  0.4670
    3CHTO   O72 1146   6.565  -0.323   1.962  0.2905  0.1109  0.2039
    3CHTO  H199 1147   6.508  -0.362   1.899 -0.9282 -1.0098  1.9594
    3CHTO   O22 1148   6.831   0.204   1.950 -0.0277  0.2476 -0.3396
    3CHTO   C31 1149   6.750   0.295   1.879 -0.1909 -0.0599  0.0772
    3CHTO   H59 1150   6.671   0.232   1.832  0.9161 -3.6157  2.7347
    3CHTO   C29 1151   6.676   0.407   1.955  0.8025  0.1281  0.5451
    3CHTO   H57 1152   6.761   0.469   1.987 -0.8169 -0.0380  5.5119
    3CHTO   O21 1153   6.602   0.352   2.061 -0.1237 -0.1241  0.4855
    3CHTO   H37 1154   6.598   0.423   2.122 -0.8269 -0.7967  1.2196
    3CHTO   C27 1155   6.589   0.496   1.859 -0.0064  0.3012  0.0764
    3CHTO   H55 1156   6.515   0.430   1.812 -0.0949  1.1096 -0.9406
    3CHTO    N5 1157   6.522   0.607   1.930  0.6666 -0.1126 -0.6419
    3CHTO   H43 1158   6.445   0.658   1.874 -0.1128  0.2304  0.7332
    3CHTO   H44 1159   6.492   0.600   2.033  0.1752  2.3780 -0.5923
    3CHTO   C25 1160   6.685   0.556   1.744  0.1225  0.4540 -0.5751
    3CHTO   H53 1161   6.762   0.616   1.794  0.4969 -2.0261  1.9737
    3CHTO   O17 1162   6.763   0.448   1.682  0.5930  0.3757  0.2884
    3CHTO   C32 1163   6.841   0.356   1.764 -0.4890  0.3867 -0.2278
    3CHTO   H60 1164   6.920   0.418   1.805 -2.9605  2.7187  1.2337
    3CHTO   C36 1165   6.909   0.247   1.672  0.3201  0.2006 -0.2062
    3CHTO   O25 1166   7.003   0.306   1.578  0.4078 -0.3406 -0.2705
    3CHTO   H40 1167   6.954   0.353   1.513 -0.1913 -0.4374  0.1097
    3CHTO   O15 1168   6.613   0.633   1.647  0.3958  0.4746  0.0060
    3CHTO   C19 1169   6.561   0.727   1.553  0.1649  0.2460  0.5121
    3CHTO   H47 1170   6.495   0.666   1.489 -0.2578 -2.2978  3.2610
    3CHTO   C20 1171   6.457   0.830   1.614  0.8023 -0.3376 -0.6051
    3CHTO   H48 1172   6.506   0.909   1.673 -1.0793 -0.3360  0.9939
    3CHTO   O19 1173   6.358   0.754   1.687  0.1360 -0.1761 -0.2724
    3CHTO   H35 1174   6.371   0.746   1.780  1.2182 -1.1861 -0.5031
    3CHTO   C21 1175   6.385   0.898   1.486 -0.2115  0.4624 -0.8324
    3CHTO   H49 1176   6.317   0.823   1.446 -1.3743 -0.8557  3.4406
    3CHTO    N4 1177   6.298   1.010   1.531 -0.2014  0.2253 -0.0183
    3CHTO   H41 1178   6.291   1.036   1.636  1.3671  0.5233  0.0155
    3CHTO   H42 1179   6.198   1.011   1.489  0.5203  0.3639 -1.7674
    3CHTO   C22 1180   6.488   0.952   1.375  0.5490 -0.1068 -1.1900
    3CHTO   H50 1181   6.529   1.051   1.396 -0.9793  0.1686  0.6611
    3CHTO   O14 1182   6.592   0.863   1.349  0.6092  0.6581  0.4979
    3CHTO   C23 1183   6.658   0.799   1.458  0.0422  0.1030 -0.8412
    3CHTO   H51 1184   6.720   0.873   1.511 -1.6187  0.1712  1.0541
    3CHTO   C34 1185   6.751   0.696   1.394  0.2548  0.6157 -0.4213
    3CHTO   O23 1186   6.692   0.598   1.316 -0.3507  0.0964  0.4875
    3CHTO   H38 1187   6.693   0.630   1.228 -0.9424  1.0482  0.8195
    3CHTO   O16 1188   6.420   0.967   1.252 -0.5116  0.4154 -0.2623
    3CHTO   C24 1189   6.469   1.124   1.164  0.0436 -0.2285  0.2559
    3CHTO   H52 1190   6.523   1.190   1.232 -0.1497 -0.7018  0.8670
    3CHTO   C26 1191   6.341   1.199   1.128 -0.2822  0.5214  0.1448
    3CHTO   H54 1192   6.270   1.131   1.077 -1.8119  2.6959 -0.6747
    3CHTO   O20 1193   6.278   1.240   1.251 -0.4488 -0.3151  0.2408
    3CHTO   H36 1194   6.248   1.165   1.298 -2.7629  0.0361 -0.6460
    3CHTO   C30 1195   6.363   1.324   1.037  0.2893  0.0737  0.0317
    3CHTO   H58 1196   6.408   1.407   1.093  0.3499  0.1202 -0.0872
    3CHTO    N6 1197   6.231   1.372   0.988  0.2646  0.1885  0.2498
    3CHTO   H45 1198   6.181   1.416   1.073  1.8642  2.7619 -0.0772
    3CHTO   H46 1199   6.239   1.446   0.910  0.7208 -1.2549 -1.0823
    3CHTO   C33 1200   6.461   1.287   0.919 -0.1074 -0.3675  0.1386
    3CHTO   H61 1201   6.415   1.217   0.848 -0.4063  0.0576 -0.0874
    3CHTO   O18 1202   6.582   1.224   0.971 -0.1648  0.1306  0.1714
    3CHTO   C28 1203   6.561   1.099   1.043 -0.1199  0.2336 -0.0751
    3CHTO   H56 1204   6.514   1.027   0.975  1.5490 -0.3040 -0.6755
    3CHTO   C35 1205   6.703   1.048   1.078 -0.4912 -0.1205  0.4630
    3CHTO   O24 1206   6.709   0.908   1.104 -0.4653 -0.2506  0.0447
    3CHTO   H39 1207   6.801   0.891   1.094 -0.3020 -0.0458  1.0975
    3CHTO    O9 1208   6.491   1.401   0.837 -0.7690 -0.1268  0.1022
    3CHTO   C13 1209   6.615   1.509   0.900  0.5930 -0.5706  0.5041
    3CHTO   H26 1210   6.632   1.479   1.005 -2.0117 -0.2168  1.0569
    3CHTO   C11 1211   6.567   1.661   0.891 -0.1576  0.2156  0.1442
    3CHTO   H24 1212   6.474   1.668   0.949 -0.8879 -2.4558 -0.6062
    3CHTO    O8 1213   6.533   1.696   0.759 -0.3180  0.4285 -0.1077
    3CHTO    H3 1214   6.488   1.778   0.761 -1.6193 -0.2647  2.5945
    3CHTO    C9 1215   6.682   1.750   0.944 -0.6844  0.2685  0.0700
    3CHTO   H22 1216   6.709   1.714   1.044 -0.8033 -2.3111 -0.7679
    3CHTO    N2 1217   6.630   1.888   0.966 -0.4864 -0.2712 -0.0673
    3CHTO   H10 1218   6.588   1.921   0.872  0.5699 -0.6903 -0.6868
    3CHTO   H11 1219   6.563   1.883   1.051  1.7240 -2.8609  1.6027
    3CHTO    C7 1220   6.810   1.730   0.857  0.1556 -0.5987 -0.1522
    3CHTO   H20 1221   6.888   1.705   0.931  2.1160  0.4722 -1.7958
    3CHTO    O4 1222   6.802   1.619   0.766  0.2066  0.0785 -0.4767
    3CHTO   C14 1223   6.753   1.496   0.824  0.0689  0.6492  0.3011
    3CHTO   H27 1224   6.833   1.459   0.893 -0.1888  1.6285  1.1363
    3CHTO   C18 1225   6.747   1.390   0.705  0.4067  0.2489  0.0840
    3CHTO   O13 1226   6.875   1.379   0.637  0.5999  0.0633 -0.4366
    3CHTO    H7 1227   6.866   1.330   0.558 -1.1947  0.9194 -0.7798
    3CHTO    O2 1228   6.862   1.866   0.776 -0.0767 -0.3217  0.0962
    3CHTO    C1 1229   6.993   1.846   0.717  0.1537 -0.1858  0.1206
    3CHTO   H14 1230   7.006   1.738   0.695  1.1799 -0.0426  0.0025
    3CHTO    C2 1231   7.113   1.890   0.813 -0.1947  0.0300 -0.2224
    3CHTO   H15 1232   7.106   1.999   0.823  2.9091  0.3075 -0.5656
    3CHTO    O6 1233   7.099   1.823   0.941 -0.5549 -0.1704  0.3499
    3CHTO    H1 1234   7.079   1.886   1.007  0.9615  0.0572  0.6055
    3CHTO    C3 1235   7.248   1.852   0.743  0.4321  1.0023  0.2458
    3CHTO   H16 1236   7.256   1.743   0.729 -0.3912  0.7052  1.8847
    3CHTO    N1 1237   7.371   1.886   0.817  0.0846 -0.1246 -0.2039
    3CHTO    H8 1238   7.381   1.834   0.911 -4.7977  0.3300  0.7247
    3CHTO    H9 1239   7.450   1.862   0.748  0.1139  1.7768 -0.8858
    3CHTO    C4 1240   7.247   1.917   0.598 -0.4243 -0.4544 -0.9951
    3CHTO   H17 1241   7.258   2.024   0.610 -1.3510 -0.2962 -1.5315
    3CHTO    O1 1242   7.130   1.888   0.523 -0.5197 -0.4437  0.1226
    3CHTO    C5 1243   7.003   1.928   0.583  0.8373  0.1462  0.9670
    3CHTO   H18 1244   7.007   2.034   0.609  0.7592  0.0078  1.5437
    3CHTO   C16 1245   6.890   1.902   0.477  0.4366  0.2731 -0.5809
    3CHTO   O11 1246   6.884   2.004   0.375 -0.3686  0.1211 -0.6224
    3CHTO    H5 1247   6.961   2.007   0.323 -0.7996 -0.3126 -1.3002
    3CHTO    O3 1248   7.349   1.859   0.515  0.2112  0.4906 -0.2047
    3CHTO    C6 1249   7.374   1.930   0.386  0.2407  0.1888  0.6836
    3CHTO   H19 1250   7.314   2.017   0.361  1.0874  0.0552 -2.0393
    3CHTO    C8 1251   7.520   1.985   0.391 -0.3045 -0.8553  0.7700
    3CHTO   H21 1252   7.582   1.899   0.417 -0.3115 -1.5383 -1.4264
    3CHTO    O7 1253   7.527   2.089   0.496  0.2996  0.4139 -0.0695
    3CHTO    H2 1254   7.554   2.043   0.573 -0.3827 -1.0394 -0.6843
    3CHTO   C12 1255   7.568   2.040   0.249  0.5876  0.0547  0.1886
    3CHTO   H25 1256   7.501   2.129   0.241  0.7687  0.1925  0.2162
    3CHTO    N3 1257   7.710   2.098   0.252  0.9119 -0.1141 -0.3442
    3CHTO   H12 1258   7.742   2.126   0.152  2.3999  2.2143  0.7575
    3CHTO   H13 1259   7.773   2.021   0.292  3.8074  2.1004 -0.5096
    3CHTO   C15 1260   7.537   1.937   0.133 -0.1096  0.2563  0.2852
    3CHTO   H28 1261   7.606   1.853   0.141 -1.6303 -0.9677  0.9735
    3CHTO   O10 1262   7.534   1.992  -0.009  0.3186  0.0298  0.3064
    3CHTO    H4 1263   7.499   1.931  -0.072 -0.9882 -1.0960  2.0586
    3CHTO    O5 1264   7.397   1.893   0.138 -0.6731 -0.2489 -0.2271
    3CHTO   C10 1265   7.369   1.829   0.267 -0.4033  1.1255 -0.2486
    3CHTO   H23 1266   7.431   1.740   0.281 -2.0920  0.3860  3.1330
    3CHTO   C17 1267   7.230   1.772   0.249 -1.3015 -0.0872 -0.5207
    3CHTO   O12 1268   7.227   1.656   0.165  0.3450  0.4160 -0.4781
    3CHTO    H6 1269   7.262   1.675   0.080  0.3259 -1.1480 -0.8561
    4CHTO  H203 1270   5.663   7.111   2.708  0.2202  0.7358  0.6165
    4CHTO   O82 1271   5.586   7.131   2.758 -0.2524 -0.2507  0.2857
    4CHTO  C123 1272   5.557   7.269   2.747  0.1759 -0.0279  0.2740
    4CHTO  H227 1273   5.458   7.279   2.795 -0.5074 -0.6985 -0.9712
    4CHTO   O77 1274   5.663   7.337   2.825 -0.3644  0.1666  0.1183
    4CHTO  C118 1275   5.629   7.472   2.859  0.1904  0.2768 -0.4649
    4CHTO  H222 1276   5.533   7.464   2.912  2.0841  1.4753  3.3085
    4CHTO  C125 1277   5.735   7.534   2.952 -0.3446  0.4032  0.7969
    4CHTO   O84 1278   5.761   7.474   3.074 -0.1087  0.7944 -0.2742
    4CHTO  H205 1279   5.790   7.531   3.142 -0.2531  0.0543  0.4239
    4CHTO  C114 1280   5.612   7.560   2.727  0.4744 -0.1986  0.8236
    4CHTO  H218 1281   5.707   7.572   2.675  0.6512  1.4845  1.4923
    4CHTO  C116 1282   5.518   7.489   2.629 -0.6399  0.1037  0.5146
    4CHTO  H220 1283   5.415   7.488   2.670 -0.8008  0.8967  0.1437
    4CHTO   O79 1284   5.517   7.576   2.509  0.3219 -0.1518  0.1504
    4CHTO  H201 1285   5.576   7.552   2.440  4.9591  1.0845  3.3902
    4CHTO  C120 1286   5.559   7.342   2.602 -0.3606  0.3135  0.0999
    4CHTO  H224 1287   5.661   7.334   2.558 -1.5732 -1.3620 -2.5447
    4CHTO   N21 1288   5.463   7.284   2.505 -0.3544  0.0619  0.0998
    4CHTO  H211 1289   5.509   7.203   2.450  0.3382  0.7764 -0.3786
    4CHTO  H212 1290   5.368   7.262   2.550  0.8994  0.1680  2.9304
    4CHTO   O75 1291   5.566   7.694   2.771  0.2255 -0.2031 -0.3251
    4CHTO  C112 1292   5.655   7.819   2.717  1.0995  0.1751 -0.0319
    4CHTO  H216 1293   5.676   7.800   2.611 -1.1175 -2.0553 -0.1262
    4CHTO   O73 1294   5.776   7.820   2.798 -0.3184 -0.1554  0.5229
    4CHTO  C113 1295   5.873   7.923   2.774  0.2062 -0.1688  0.3172
    4CHTO  H217 1296   5.902   7.923   2.667  1.0004 -0.9185  0.5251
    4CHTO  C124 1297   5.994   7.901   2.862 -0.5569 -0.6592  0.1739
    4CHTO   O83 1298   5.961   7.888   2.997  0.7628 -0.2356 -0.0929
    4CHTO  H204 1299   6.031   7.899   3.058  0.8645  1.0771 -0.4404
    4CHTO  C109 1300   5.809   8.061   2.793 -0.7167  0.6613 -0.5938
    4CHTO  H213 1301   5.780   8.068   2.899 -1.0383  0.7483 -0.6866
    4CHTO  C110 1302   5.668   8.074   2.718  0.4431  0.1668 -0.3569
    4CHTO  H214 1303   5.686   8.083   2.611  2.1832 -0.4376 -0.1324
    4CHTO   O78 1304   5.612   8.194   2.769  0.1252 -0.1887  0.0818
    4CHTO  H200 1305   5.668   8.269   2.760  0.1781 -0.3377 -0.8597
    4CHTO  C111 1306   5.576   7.956   2.744 -0.3044  0.2580 -0.8856
    4CHTO  H215 1307   5.558   7.952   2.853  0.1202 -0.4730 -0.8405
    4CHTO   N19 1308   5.443   7.969   2.672  0.2424  0.0753  0.4768
    4CHTO  H207 1309   5.379   7.888   2.704  1.5358 -0.6499  1.3143
    4CHTO  H208 1310   5.458   7.969   2.565 -0.3007 -1.1497  0.3823
    4CHTO   O74 1311   5.905   8.171   2.758 -0.5766  0.6028 -0.4429
    4CHTO  C115 1312   5.867   8.336   2.722  0.3509  0.2768 -0.3712
    4CHTO  H219 1313   5.769   8.342   2.673 -0.3402  0.6976  1.0248
    4CHTO   O76 1314   5.849   8.423   2.856  0.2353  0.1030  0.0935
    4CHTO  C122 1315   5.837   8.565   2.840 -0.3163 -0.3437 -0.5036
    4CHTO  H226 1316   5.829   8.621   2.933  0.6635  0.3514 -0.8299
    4CHTO  C126 1317   5.701   8.603   2.771 -0.5754  0.1075 -0.5521
    4CHTO   O85 1318   5.683   8.743   2.779  0.0199 -0.1716 -0.0076
    4CHTO  H206 1319   5.629   8.769   2.851 -0.5444  3.2148 -1.5418
    4CHTO  C121 1320   5.951   8.628   2.758 -0.1635  0.7751  0.0243
    4CHTO  H225 1321   5.934   8.737   2.745  0.4490  1.0084  1.1256
    4CHTO   O81 1322   6.075   8.614   2.828  0.1462 -0.0902 -0.0513
    4CHTO  H202 1323   6.128   8.692   2.831 -3.6807  2.6911  0.1849
    4CHTO  C119 1324   5.964   8.557   2.614 -0.8381 -0.2533  0.2967
    4CHTO  H223 1325   5.866   8.589   2.578 -0.7014  2.3907  2.1184
    4CHTO  C117 1326   5.977   8.397   2.625  0.0824 -0.1759 -1.1317
    4CHTO  H221 1327   6.070   8.358   2.665 -0.6024 -0.9383 -0.2525
    4CHTO   N20 1328   5.963   8.331   2.494  0.2020  0.7128  0.2520
    4CHTO  H209 1329   6.041   8.372   2.431  0.2531  0.5307  0.1949
    4CHTO  H210 1330   5.859   8.340   2.465  0.0079  1.2500  1.1349
    4CHTO   O80 1331   6.058   8.630   2.517  0.7124 -0.0888  0.3861
    4CHTO  C103 1332   6.193   8.690   2.561 -0.2480 -0.1019  0.0854
    4CHTO  H190 1333   6.182   8.746   2.654 -1.3598 -1.5267  0.8357
    4CHTO  C101 1334   6.315   8.590   2.568 -0.1977  0.0288  0.4673
    4CHTO  H188 1335   6.319   8.539   2.472  0.6854 -0.9599  1.0259
    4CHTO   O68 1336   6.311   8.490   2.677 -0.1791  0.2156  0.2540
    4CHTO  H168 1337   6.230   8.444   2.670  0.3247 -0.8085  1.0583
    4CHTO   C99 1338   6.451   8.674   2.587  0.3305  0.1400  0.7771
    4CHTO  H186 1339   6.450   8.723   2.686 -0.9880  0.4198  0.6345
    4CHTO   N17 1340   6.574   8.589   2.574 -0.3419  0.2871  0.3500
    4CHTO  H174 1341   6.633   8.612   2.486 -0.1263  1.0663  0.6903
    4CHTO  H175 1342   6.629   8.606   2.665  0.8584 -2.4866  0.1775
    4CHTO   C97 1343   6.452   8.790   2.482  0.3252 -0.0010 -0.1736
    4CHTO  H184 1344   6.484   8.747   2.385 -1.5614  0.4564 -1.0129
    4CHTO   O64 1345   6.338   8.867   2.468  0.4360 -0.0597  0.1125
    4CHTO  C104 1346   6.220   8.793   2.442  0.0231 -0.3895  0.4606
    4CHTO  H191 1347   6.227   8.741   2.347 -1.0557 -0.4577  0.4117
    4CHTO  C108 1348   6.096   8.882   2.425  0.0913 -0.4448  0.1651
    4CHTO   O71 1349   6.110   8.981   2.322  0.3984 -0.6045 -0.2839
    4CHTO  H171 1350   6.143   9.056   2.367 -0.0691 -1.1829  1.0534
    4CHTO   O62 1351   6.547   8.888   2.522  0.8172 -0.2128 -0.1753
    4CHTO   C91 1352   6.593   8.991   2.429 -0.6312 -0.2298  0.7992
    4CHTO  H178 1353   6.526   9.011   2.346  0.5326 -0.8576 -0.3150
    4CHTO   C92 1354   6.739   8.968   2.381  0.8832 -0.2257  0.3865
    4CHTO  H179 1355   6.805   8.960   2.469  0.5084  1.1807  0.8058
    4CHTO   O66 1356   6.743   8.838   2.328  0.1382 -0.3541 -0.2774
    4CHTO  H166 1357   6.741   8.770   2.392 -0.2935  0.9102  1.0644
    4CHTO   C93 1358   6.795   9.064   2.275  0.5317  0.5777 -0.3336
    4CHTO  H180 1359   6.755   9.015   2.184 -1.2784 -2.2086  1.8856
    4CHTO   N16 1360   6.945   9.068   2.270 -0.3504  0.3781  0.5633
    4CHTO  H172 1361   6.980   9.096   2.368  0.1389  1.2388  0.1460
    4CHTO  H173 1362   6.976   9.149   2.206 -0.8925  1.5076  1.7055
    4CHTO   C94 1363   6.729   9.211   2.297 -0.5056 -0.2679 -0.6944
    4CHTO  H181 1364   6.802   9.290   2.286  0.1973 -0.8046 -0.0028
    4CHTO   O61 1365   6.683   9.236   2.434  0.2221 -0.6934 -0.7977
    4CHTO   C95 1366   6.592   9.141   2.496 -0.0862  0.0247  0.0082
    4CHTO  H182 1367   6.620   9.130   2.600 -1.4355  0.6946  0.4561
    4CHTO  C106 1368   6.451   9.205   2.496 -0.4846  0.0320 -0.0773
    4CHTO   O69 1369   6.431   9.328   2.575  0.4112  0.7259 -0.4184
    4CHTO  H169 1370   6.485   9.394   2.536  1.9776  0.7019  1.6658
    4CHTO   O63 1371   6.621   9.234   2.192  0.1378 -0.4445  0.5214
    4CHTO   C96 1372   6.672   9.222   2.028  0.6105  0.5023  0.3727
    4CHTO  H183 1373   6.755   9.152   2.023  0.2514  0.2225 -2.6696
    4CHTO   C98 1374   6.715   9.363   1.972 -0.1311  0.6251  0.4330
    4CHTO  H185 1375   6.631   9.432   1.991 -1.0977  0.0070 -1.4892
    4CHTO   O67 1376   6.823   9.414   2.050 -0.1955  0.1438 -0.4265
    4CHTO  H167 1377   6.846   9.503   2.031  0.5354  0.5318  2.1109
    4CHTO  C102 1378   6.742   9.344   1.813 -0.0065  0.4884 -0.1844
    4CHTO  H189 1379   6.826   9.273   1.810 -0.4733 -0.0185 -2.2308
    4CHTO   N18 1380   6.789   9.467   1.746 -0.1847  0.9864 -0.0770
    4CHTO  H176 1381   6.893   9.492   1.762 -0.2527  2.8515 -2.1662
    4CHTO  H177 1382   6.780   9.463   1.638  0.7869 -1.8383 -0.0911
    4CHTO  C105 1383   6.617   9.282   1.750 -0.0851  0.2834 -0.3924
    4CHTO  H192 1384   6.540   9.359   1.750  1.3556  1.7791  1.8985
    4CHTO   O65 1385   6.575   9.157   1.807 -0.0447 -0.1753 -1.0434
    4CHTO  C100 1386   6.548   9.159   1.947 -0.0435  0.3763 -0.2000
    4CHTO  H187 1387   6.459   9.218   1.970 -0.1391  0.1323  0.0759
    4CHTO  C107 1388   6.522   9.010   1.987  0.3070 -0.3067 -0.3123
    4CHTO   O70 1389   6.458   8.981   2.110 -1.2137  0.2909 -0.5906
    4CHTO  H170 1390   6.504   8.915   2.158 -2.2396 -0.0682 -0.0904
    4CHTO   O57 1391   6.676   9.257   1.581  0.3248  0.1732 -0.1557
    4CHTO   C85 1392   6.572   9.244   1.486  0.1263 -0.1849  0.1017
    4CHTO  H157 1393   6.508   9.331   1.511  1.9209  1.4762 -0.9662
    4CHTO   C83 1394   6.495   9.105   1.525 -0.3918 -0.1822 -0.0052
    4CHTO  H155 1395   6.445   9.126   1.619 -0.4107  1.1533 -0.2934
    4CHTO   O56 1396   6.591   9.004   1.557 -0.0162  0.1600  0.1179
    4CHTO  H135 1397   6.545   8.935   1.602 -0.8515  0.6290 -0.0059
    4CHTO   C81 1398   6.391   9.083   1.416  0.2641  0.1364  0.3069
    4CHTO  H153 1399   6.328   9.171   1.412 -1.2997 -0.9124  0.9352
    4CHTO   N14 1400   6.298   8.974   1.450  0.0604 -0.2063  0.7653
    4CHTO  H141 1401   6.254   8.991   1.546 -0.7841  0.1835  0.3158
    4CHTO  H142 1402   6.221   8.984   1.376  0.8492  0.7455  0.0624
    4CHTO   C79 1403   6.458   9.050   1.280 -0.2815 -0.0702  0.1387
    4CHTO  H151 1404   6.383   9.036   1.202  1.3140 -0.8876 -1.3016
    4CHTO   O52 1405   6.526   9.169   1.237 -0.0810  0.2756 -0.7952
    4CHTO   C86 1406   6.614   9.242   1.331 -0.1249  0.0338  0.4655
    4CHTO  H158 1407   6.711   9.190   1.321 -0.4938 -0.9700  1.9290
    4CHTO   C90 1408   6.641   9.383   1.278 -0.4252 -0.2728 -0.4547
    4CHTO   O60 1409   6.531   9.445   1.220  0.6336 -0.3203  0.1173
    4CHTO  H138 1410   6.563   9.501   1.152  0.3154 -0.9790 -0.5894
    4CHTO   O50 1411   6.548   8.941   1.267 -0.9867  0.1106 -0.5465
    4CHTO   C73 1412   6.550   8.832   1.174 -0.8556 -1.0424  0.1203
    4CHTO  H145 1413   6.503   8.864   1.080 -5.3012 -2.1193  1.8482
    4CHTO   C74 1414   6.475   8.713   1.219 -0.2894  0.1896  0.7032
    4CHTO  H146 1415   6.369   8.740   1.230 -0.5394 -1.2098  1.8392
    4CHTO   O54 1416   6.470   8.609   1.121 -0.0602  0.1709 -0.2787
    4CHTO  H133 1417   6.460   8.639   1.032 -0.2558  2.5810  0.5431
    4CHTO   C75 1418   6.530   8.652   1.356 -0.9093  0.2922  0.5989
    4CHTO  H147 1419   6.545   8.732   1.430 -0.0980 -1.3699  2.2897
    4CHTO   N13 1420   6.446   8.559   1.428 -0.4262  0.9802  0.1732
    4CHTO  H139 1421   6.491   8.533   1.523  0.6273  2.1349 -0.0122
    4CHTO  H140 1422   6.435   8.466   1.374 -0.8163  1.6814 -0.9729
    4CHTO   C76 1423   6.682   8.613   1.332 -0.2347  0.2898  0.6176
    4CHTO  H148 1424   6.688   8.524   1.269  0.9926  1.2781 -0.6995
    4CHTO   O49 1425   6.754   8.722   1.272  0.0794 -0.3237 -0.0981
    4CHTO   C77 1426   6.698   8.785   1.153  0.3643 -0.9298  0.4910
    4CHTO  H149 1427   6.692   8.708   1.076 -1.5665 -1.2753  0.9665
    4CHTO   C88 1428   6.794   8.893   1.098  0.0401  0.3244 -0.4274
    4CHTO   O58 1429   6.920   8.843   1.040  0.4958 -0.1248  0.0318
    4CHTO  H136 1430   6.972   8.811   1.111 -0.6248  0.4086  1.1244
    4CHTO   O51 1431   6.765   8.597   1.477  0.3212 -0.7418  0.1993
    4CHTO   C78 1432   6.903   8.496   1.492 -0.2133  0.2210  0.1810
    4CHTO  H150 1433   6.942   8.476   1.594  1.0559 -0.6752 -0.4611
    4CHTO   C80 1434   7.017   8.568   1.414 -0.2653  0.5152 -0.7616
    4CHTO  H152 1435   6.985   8.589   1.310 -0.1875 -1.6988 -1.2506
    4CHTO   O55 1436   7.055   8.684   1.487  0.1681 -0.5722 -0.1193
    4CHTO  H134 1437   7.062   8.671   1.580 -0.6329  0.1364  0.0432
    4CHTO   C84 1438   7.144   8.471   1.388 -0.1052 -0.3630  0.6824
    4CHTO  H156 1439   7.206   8.464   1.478  0.6155  0.8727  0.2914
    4CHTO   N15 1440   7.249   8.524   1.288 -0.3800 -0.1200 -0.0579
    4CHTO  H143 1441   7.205   8.604   1.233  0.6355  0.0738 -0.5916
    4CHTO  H144 1442   7.336   8.555   1.341 -0.6390 -1.5858  1.2628
    4CHTO   C87 1443   7.090   8.333   1.339  0.4955  0.8625  0.1012
    4CHTO  H159 1444   7.049   8.348   1.239 -0.8283  1.5682  0.7475
    4CHTO   O53 1445   6.985   8.287   1.439 -0.0496  0.5130  0.3586
    4CHTO   C82 1446   6.867   8.357   1.449  0.1319  0.1039 -0.3401
    4CHTO  H154 1447   6.818   8.371   1.352  3.3465 -0.0009 -2.0363
    4CHTO   C89 1448   6.768   8.270   1.537 -0.4391 -0.6324  0.1044
    4CHTO   O59 1449   6.649   8.347   1.553  0.1887 -0.0771  0.0378
    4CHTO  H137 1450   6.591   8.294   1.605  0.9442  0.9847  2.0158
    4CHTO   O45 1451   7.207   8.227   1.355 -0.0659 -0.3439 -0.0241
    4CHTO   C67 1452   7.204   8.136   1.246  0.1256 -0.2562 -0.3189
    4CHTO  H124 1453   7.214   8.180   1.147  0.6892  0.1872 -0.0707
    4CHTO   C65 1454   7.333   8.055   1.261  0.1431 -0.4983 -0.0372
    4CHTO  H122 1455   7.410   8.132   1.275  0.0723  0.1896 -2.9678
    4CHTO   O44 1456   7.365   7.982   1.143 -0.0383 -1.0605 -0.1542
    4CHTO  H102 1457   7.324   8.020   1.068  1.3876  2.8646  0.9490
    4CHTO   C63 1458   7.337   7.967   1.388  0.4829  0.5674 -0.6851
    4CHTO  H120 1459   7.322   8.034   1.473  1.8164  1.0641 -0.8347
    4CHTO   N11 1460   7.466   7.902   1.429 -0.1544  0.5522  0.2111
    4CHTO  H108 1461   7.522   7.977   1.480 -0.1458  0.3137  0.5508
    4CHTO  H109 1462   7.444   7.817   1.490 -2.7502  0.2266 -1.0905
    4CHTO   C61 1463   7.213   7.869   1.380  0.4069  0.1353  0.4146
    4CHTO  H118 1464   7.186   7.832   1.480 -1.5467  0.1991 -0.0613
    4CHTO   O40 1465   7.086   7.924   1.329 -0.0402  0.1956  0.1521
    4CHTO   C68 1466   7.080   8.040   1.246 -1.0689 -0.3380 -0.7961
    4CHTO  H125 1467   6.990   8.093   1.285 -2.1189 -3.3787  1.0498
    4CHTO   C72 1468   7.045   7.997   1.104 -0.1730  0.2107  0.3044
    4CHTO   O48 1469   7.034   8.097   0.999  0.5695 -0.3703 -1.0005
    4CHTO  H105 1470   6.968   8.081   0.934  1.0715 -2.7954 -0.9671
    4CHTO   O38 1471   7.228   7.754   1.295  0.2386  0.6106  0.0121
    4CHTO   C55 1472   7.180   7.626   1.342 -0.0756  0.0250 -0.2251
    4CHTO  H112 1473   7.086   7.647   1.393 -1.1640  0.4179 -2.3436
    4CHTO   C56 1474   7.290   7.547   1.431 -0.6091  0.1944  0.5748
    4CHTO  H113 1475   7.379   7.542   1.367 -1.1908 -0.2290 -0.2152
    4CHTO   O42 1476   7.325   7.619   1.551 -0.3689 -0.1625  0.5027
    4CHTO  H100 1477   7.267   7.590   1.619 -1.0686 -0.5305 -0.2445
    4CHTO   C57 1478   7.243   7.395   1.458 -0.5321  0.3754 -0.0063
    4CHTO  H114 1479   7.164   7.408   1.532 -1.1648  0.7650 -0.7588
    4CHTO   N10 1480   7.348   7.313   1.519 -0.3222  0.4196  0.3691
    4CHTO  H106 1481   7.407   7.378   1.582 -0.8102  0.6266  0.6088
    4CHTO  H107 1482   7.299   7.241   1.581 -0.7064  1.7914  1.6999
    4CHTO   C58 1483   7.186   7.327   1.333 -0.1455 -0.0901  0.4714
    4CHTO  H115 1484   7.270   7.305   1.263 -0.3681 -0.2003  0.2362
    4CHTO   O37 1485   7.089   7.412   1.260  0.7247  0.0455 -0.2841
    4CHTO   C59 1486   7.143   7.539   1.218 -0.6332  0.1949 -0.3418
    4CHTO  H116 1487   7.232   7.519   1.158  0.8502  1.7732  1.2797
    4CHTO   C70 1488   7.043   7.604   1.123 -0.0824 -0.4251  0.3644
    4CHTO   O46 1489   6.926   7.664   1.177  0.3295  0.2167  0.0226
    4CHTO  H103 1490   6.879   7.721   1.119  0.1747  0.7811  0.6979
    4CHTO   O39 1491   7.107   7.186   1.374 -0.6088  0.4894 -0.4211
    4CHTO   C60 1492   7.006   7.123   1.293 -0.2409  0.8334  0.1191
    4CHTO  H117 1493   6.910   7.174   1.307 -0.9458 -0.5942  0.4945
    4CHTO   C62 1494   7.031   7.110   1.135  0.9002  0.4530 -0.6307
    4CHTO  H119 1495   7.028   7.216   1.103 -1.2074  0.8101  0.7024
    4CHTO   O43 1496   7.164   7.058   1.115 -0.1105 -1.0396 -0.7288
    4CHTO  H101 1497   7.173   6.977   1.161  0.7894  0.1414  1.2635
    4CHTO   C66 1498   6.916   7.027   1.069 -0.3744 -0.4026 -0.1283
    4CHTO  H123 1499   6.818   7.058   1.106 -1.1669 -0.2500 -2.2678
    4CHTO   N12 1500   6.923   7.031   0.923  0.0138 -0.0010  0.5851
    4CHTO  H110 1501   7.020   6.991   0.895 -0.6185 -2.7056  2.1462
    4CHTO  H111 1502   6.851   6.978   0.862  0.4881 -0.1559  0.1459
    4CHTO   C69 1503   6.923   6.887   1.126 -0.1255 -0.0485  0.0952
    4CHTO  H126 1504   7.025   6.847   1.105 -0.4212 -1.3257  1.0598
    4CHTO   O41 1505   6.900   6.905   1.295  0.0282  0.3607  0.0454
    4CHTO   C64 1506   6.997   6.980   1.351  0.1329 -0.1678  0.1409
    4CHTO  H121 1507   7.091   6.928   1.322 -0.2914 -1.8142  1.6238
    4CHTO   C71 1508   6.982   6.985   1.502  0.4226  0.4397  0.1388
    4CHTO   O47 1509   6.839   6.984   1.539  0.4686  0.9664  0.1292
    4CHTO  H104 1510   6.811   7.072   1.557 -0.5680  0.4782  0.9495
    4CHTO   O34 1511   6.810   6.790   1.074 -0.0647  0.0188  0.0812
    4CHTO   C49 1512   6.650   6.826   1.053 -0.1861 -0.1877  0.0618
    4CHTO   H91 1513   6.625   6.930   1.076  0.4686  0.0247 -0.1752
    4CHTO   C47 1514   6.576   6.739   1.159  0.2437  0.1719  0.3754
    4CHTO   H89 1515   6.468   6.766   1.155 -0.1692 -1.5358 -0.3501
    4CHTO   O33 1516   6.623   6.774   1.289  0.4410  0.3013  0.8593
    4CHTO   H70 1517   6.580   6.718   1.352  0.5802  0.2641  0.9201
    4CHTO   C45 1518   6.602   6.579   1.126 -0.3566 -0.5230  0.7546
    4CHTO   H87 1519   6.687   6.545   1.187  0.5490  0.2067 -0.0732
    4CHTO    N8 1520   6.478   6.513   1.168  0.1545  0.2098 -0.5474
    4CHTO   H75 1521   6.384   6.558   1.139 -0.2324 -0.3215 -0.1313
    4CHTO   H76 1522   6.484   6.406   1.157 -0.3096 -0.0541  1.5419
    4CHTO   C43 1523   6.650   6.547   0.972  0.6242  0.5627 -0.8276
    4CHTO   H85 1524   6.759   6.544   0.971  0.7269 -1.5637  3.4188
    4CHTO   O29 1525   6.601   6.647   0.875 -0.6648 -0.3592 -0.4018
    4CHTO   C50 1526   6.601   6.790   0.905  0.4812  0.5129 -0.2564
    4CHTO   H92 1527   6.663   6.838   0.828  1.2079  0.6327  0.3968
    4CHTO   C54 1528   6.459   6.846   0.886 -0.3673  0.3330 -0.2142
    4CHTO   O36 1529   6.421   6.851   0.746 -0.2583 -0.4745 -0.2131
    4CHTO   H72 1530   6.428   6.941   0.721  0.5400 -0.7328 -0.9639
    4CHTO   O27 1531   6.634   6.410   0.923 -0.0150  0.0350 -0.3541
    4CHTO   C37 1532   6.669   6.268   0.945 -0.1901 -1.0442  0.1407
    4CHTO   H79 1533   6.674   6.207   0.854 -2.4016 -1.2906  0.1622
    4CHTO   C38 1534   6.807   6.270   1.012  0.0521 -0.0435  0.0418
    4CHTO   H80 1535   6.802   6.339   1.098  0.3074  1.1850 -0.9156
    4CHTO   O31 1536   6.907   6.321   0.913  0.0100 -0.0357  0.2667
    4CHTO   H68 1537   6.992   6.342   0.946  1.5166 -2.0636 -2.1381
    4CHTO   C39 1538   6.846   6.123   1.062 -0.3814  0.3418 -0.6118
    4CHTO   H81 1539   6.850   6.061   0.972  0.3462  1.6838 -1.5238
    4CHTO    N7 1540   6.986   6.117   1.121 -0.1443 -0.1854 -0.7612
    4CHTO   H73 1541   7.027   6.215   1.139 -0.8577 -0.0686  0.2951
    4CHTO   H74 1542   6.994   6.043   1.200  1.0653  2.4197  1.6412
    4CHTO   C40 1543   6.735   6.048   1.150 -0.5490 -0.3331  0.1697
    4CHTO   H82 1544   6.731   6.100   1.246  0.2669  1.7031 -0.8628
    4CHTO   O26 1545   6.610   6.060   1.076  0.1198 -0.2579  0.2038
    4CHTO   C41 1546   6.574   6.196   1.049  0.3123 -0.6349 -0.0086
    4CHTO   H83 1547   6.582   6.251   1.145 -1.3832 -1.3123  0.5320
    4CHTO   C52 1548   6.429   6.205   0.995 -0.5583  0.6513 -0.0477
    4CHTO   O35 1549   6.340   6.130   1.070 -0.0698  0.4193  0.2528
    4CHTO   H71 1550   6.370   6.041   1.067  0.7604  0.7130 -0.4087
    4CHTO   O28 1551   6.752   5.904   1.141 -0.0470  0.2914  0.5012
    4CHTO   C42 1552   6.802   5.823   1.250 -0.8835 -0.2089 -0.3927
    4CHTO   H84 1553   6.878   5.885   1.297 -1.2711  1.4723 -1.9187
    4CHTO   C44 1554   6.870   5.689   1.202 -0.1081 -0.6027  0.3879
    4CHTO   H86 1555   6.799   5.630   1.145  0.1292 -0.0119 -0.5398
    4CHTO   O32 1556   6.973   5.731   1.119 -0.4100 -0.1647  0.0742
    4CHTO   H69 1557   7.008   5.655   1.077  0.0991 -0.0728  0.3228
    4CHTO   C48 1558   6.926   5.597   1.318  0.4140  0.0334  0.1018
    4CHTO   H90 1559   7.014   5.642   1.366  0.4175 -1.7722  1.8457
    4CHTO    N9 1560   6.987   5.458   1.275 -0.0066 -0.4020 -0.1923
    4CHTO   H77 1561   7.058   5.483   1.198  0.4882 -0.9786  0.0795
    4CHTO   H78 1562   6.910   5.390   1.240  1.5729 -2.4802  0.3248
    4CHTO   C51 1563   6.833   5.588   1.445  0.0954  1.0350  0.1240
    4CHTO   H93 1564   6.755   5.514   1.426  1.2844 -0.3322  0.5394
    4CHTO   O30 1565   6.778   5.718   1.480 -0.6375 -0.8565  0.4426
    4CHTO   C46 1566   6.697   5.784   1.357  0.1414 -1.0310 -0.3604
    4CHTO   H88 1567   6.628   5.705   1.327 -1.5737  0.2170  0.2298
    4CHTO   C53 1568   6.613   5.899   1.415 -0.1368 -0.1865 -0.2076
    4CHTO   O72 1569   6.503   5.929   1.326 -0.0449 -0.5469 -0.0411
    4CHTO  H199 1570   6.464   6.013   1.342  0.7227 -0.2890  0.5562
    4CHTO   O22 1571   6.902   5.539   1.564 -0.0858 -0.2045 -0.2082
    4CHTO   C31 1572   6.871   5.553   1.709 -0.3753 -0.9358  0.5316
    4CHTO   H59 1573   6.777   5.613   1.716  0.5114  0.3859  1.3548
    4CHTO   C29 1574   6.840   5.416   1.777 -0.1826 -0.1985  0.7083
    4CHTO   H57 1575   6.924   5.347   1.764  0.0895  0.0768  1.0125
    4CHTO   O21 1576   6.726   5.347   1.725  0.1728 -0.2407 -0.2122
    4CHTO   H37 1577   6.728   5.259   1.759  2.6017  0.0809  0.6062
    4CHTO   C27 1578   6.810   5.441   1.926  0.1989  0.5842 -0.5623
    4CHTO   H55 1579   6.717   5.497   1.938  0.2436  0.3797  0.8199
    4CHTO    N5 1580   6.804   5.316   2.007 -0.3207 -0.3636 -0.6444
    4CHTO   H43 1581   6.723   5.261   1.960 -0.3707 -0.6128 -0.2669
    4CHTO   H44 1582   6.764   5.340   2.104  0.4421 -0.4421 -0.3006
    4CHTO   C25 1583   6.912   5.528   2.003  0.1766  0.0560 -0.1718
    4CHTO   H53 1584   7.008   5.477   2.025 -0.5840 -0.4788  2.0608
    4CHTO   O17 1585   6.946   5.650   1.926  0.1042 -0.1532  0.0496
    4CHTO   C32 1586   6.977   5.636   1.786  0.3906  0.4494 -0.5264
    4CHTO   H60 1587   7.073   5.585   1.781 -0.5292 -1.3800  0.1596
    4CHTO   C36 1588   6.991   5.787   1.741  0.1381 -0.0031 -0.1125
    4CHTO   O25 1589   7.080   5.870   1.817 -0.1876  0.3010  0.6637
    4CHTO   H40 1590   7.037   5.915   1.887  0.3625  0.3229  0.9933
    4CHTO   O15 1591   6.856   5.575   2.149 -0.2204 -0.9138  0.2237
    4CHTO   C19 1592   6.890   5.673   2.255 -0.2643 -0.2418 -0.0434
    4CHTO   H47 1593   6.798   5.691   2.313 -0.7285 -0.5115 -0.7056
    4CHTO   C20 1594   7.001   5.635   2.355 -0.2376 -0.0920  0.3344
    4CHTO   H48 1595   7.098   5.626   2.304  0.2084  0.2516  1.0982
    4CHTO   O19 1596   6.962   5.496   2.386 -0.0454 -0.0817  0.2676
    4CHTO   H35 1597   7.036   5.451   2.422 -0.2535 -1.5490 -1.0918
    4CHTO   C21 1598   7.020   5.731   2.480 -1.2391  0.3367 -0.6119
    4CHTO   H49 1599   6.932   5.729   2.544  0.7168  0.0232  2.1491
    4CHTO    N4 1600   7.134   5.692   2.569  0.5262  0.6850 -0.1609
    4CHTO   H41 1601   7.135   5.738   2.666 -0.6469  0.1833  0.0986
    4CHTO   H42 1602   7.224   5.712   2.512  0.6192  2.1173  0.4754
    4CHTO   C22 1603   7.024   5.875   2.428  0.0263 -0.9496  0.1000
    4CHTO   H50 1604   7.124   5.900   2.392 -0.6916 -0.1142 -1.3841
    4CHTO   O14 1605   6.928   5.904   2.326  0.3452 -0.6568  0.0088
    4CHTO   C23 1606   6.928   5.821   2.208  0.1260 -0.3657  0.3945
    4CHTO   H51 1607   7.031   5.824   2.168  0.5295 -1.0008  1.3453
    4CHTO   C34 1608   6.823   5.875   2.107 -0.5084  0.0029  0.1776
    4CHTO   O23 1609   6.694   5.868   2.162 -0.1707  0.0909  0.1481
    4CHTO   H38 1610   6.624   5.887   2.102  1.3174  1.2680 -1.2417
    4CHTO   O16 1611   6.992   5.966   2.537  0.0596  0.0462 -0.3430
    4CHTO   C24 1612   6.988   6.130   2.483  0.7052  0.5794  0.4664
    4CHTO   H52 1613   6.986   6.139   2.374  2.2029  2.5132  0.5633
    4CHTO   C26 1614   7.109   6.204   2.539  0.1352 -0.3965  0.4630
    4CHTO   H54 1615   7.101   6.202   2.650 -2.3130  0.6185  0.3312
    4CHTO   O20 1616   7.231   6.136   2.512  0.0780 -0.0521  0.3390
    4CHTO   H36 1617   7.303   6.172   2.561 -1.3774  2.3874  0.7934
    4CHTO   C30 1618   7.098   6.354   2.497  0.1383  0.1347  0.5094
    4CHTO   H58 1619   7.100   6.359   2.387 -0.1424 -0.5254  0.4672
    4CHTO    N6 1620   7.216   6.436   2.552 -0.3744  0.0062  0.2494
    4CHTO   H45 1621   7.178   6.537   2.564 -0.5166  0.2575 -2.0941
    4CHTO   H46 1622   7.291   6.440   2.475 -1.0260 -0.7442 -0.4370
    4CHTO   C33 1623   6.958   6.413   2.537 -0.8233  0.3588  0.0757
    4CHTO   H61 1624   6.947   6.419   2.646  1.0198  1.6742  0.2035
    4CHTO   O18 1625   6.851   6.331   2.484  0.3875 -0.0854 -0.0826
    4CHTO   C28 1626   6.848   6.198   2.538 -0.5816 -0.0100 -0.4703
    4CHTO   H56 1627   6.848   6.202   2.647 -1.2938  3.4744 -0.5149
    4CHTO   C35 1628   6.714   6.130   2.482 -0.6424  0.3927  0.3500
    4CHTO   O24 1629   6.696   5.993   2.525 -0.4560 -0.2672 -0.5672
    4CHTO   H39 1630   6.685   5.935   2.452 -1.5700  0.3452 -0.8865
    4CHTO    O9 1631   6.951   6.550   2.483  0.8831 -0.5745  0.4181
    4CHTO   C13 1632   6.829   6.638   2.527 -0.0709 -0.5198 -0.4575
    4CHTO   H26 1633   6.740   6.572   2.539  0.7654 -1.1940  2.3824
    4CHTO   C11 1634   6.801   6.755   2.421 -0.7912  0.6785 -0.9824
    4CHTO   H24 1635   6.754   6.704   2.336 -3.4235  0.9220  0.2490
    4CHTO    O8 1636   6.928   6.815   2.390  0.3933  0.1760 -0.1417
    4CHTO    H3 1637   6.910   6.902   2.360  1.1023 -0.1552 -1.5651
    4CHTO    C9 1638   6.691   6.852   2.477 -0.3467 -0.1173 -0.9620
    4CHTO   H22 1639   6.604   6.787   2.492 -1.1487  1.2190  0.2752
    4CHTO    N2 1640   6.643   6.939   2.373  0.1663 -0.0526 -0.0427
    4CHTO   H10 1641   6.564   6.897   2.314 -0.4315  0.6449  0.2455
    4CHTO   H11 1642   6.612   7.031   2.421 -0.6567 -0.8271  0.9226
    4CHTO    C7 1643   6.740   6.914   2.618  0.0755  0.4249 -0.2986
    4CHTO   H20 1644   6.654   6.977   2.648 -0.5420 -0.5956  0.1030
    4CHTO    O4 1645   6.760   6.810   2.709 -0.0885  0.6618  0.2835
    4CHTO   C14 1646   6.847   6.701   2.675 -0.6867  0.1544  0.7279
    4CHTO   H27 1647   6.804   6.630   2.749  0.1511 -0.1478  0.9261
    4CHTO   C18 1648   6.989   6.734   2.717  0.3963 -0.4555  0.1370
    4CHTO   O13 1649   7.017   6.722   2.857 -0.2722 -0.2795  0.2282
    4CHTO    H7 1650   7.087   6.663   2.874 -1.7493 -2.2980 -0.5608
    4CHTO    O2 1651   6.889   7.000   2.604  0.3342 -0.0712  0.6164
    4CHTO    C1 1652   6.877   7.141   2.578 -0.3880  0.0990 -0.7256
    4CHTO   H14 1653   6.772   7.167   2.552 -0.0169  1.1595 -1.1869
    4CHTO    C2 1654   6.955   7.186   2.453  0.3305  0.1875  0.1256
    4CHTO   H15 1655   7.063   7.165   2.459  0.7061  2.0500  0.2158
    4CHTO    O6 1656   6.900   7.120   2.337  0.0471  0.5534 -0.1888
    4CHTO    H1 1657   6.810   7.146   2.335 -0.0271  0.2787 -0.4017
    4CHTO    C3 1658   6.949   7.349   2.439 -0.1146  0.4405  0.0506
    4CHTO   H16 1659   6.842   7.374   2.431 -0.3236 -0.3798  0.1812
    4CHTO    N1 1660   7.007   7.402   2.311  0.7366 -0.3735  0.4064
    4CHTO    H8 1661   7.115   7.400   2.315  0.8647  1.1965 -1.8775
    4CHTO    H9 1662   6.968   7.500   2.290  1.7429 -0.0560 -0.0427
    4CHTO    C4 1663   6.993   7.421   2.574 -0.3069  0.1595  0.7005
    4CHTO   H17 1664   7.098   7.395   2.588 -0.1774 -1.0439 -2.1574
    4CHTO    O1 1665   6.908   7.365   2.677  0.1107 -0.3407  0.4606
    4CHTO    C5 1666   6.935   7.226   2.703 -0.4446 -0.5141 -0.5623
    4CHTO   H18 1667   7.040   7.195   2.706 -0.4869 -0.5287  1.5398
    4CHTO   C16 1668   6.852   7.169   2.825  0.3259 -0.2946  0.2672
    4CHTO   O11 1669   6.907   7.225   2.945 -0.3581  0.4122  0.2708
    4CHTO    H5 1670   6.846   7.211   3.014  0.9624 -0.3100  1.3210
    4CHTO    O3 1671   6.960   7.562   2.573  0.3470  0.2789  0.4217
    4CHTO    C6 1672   7.050   7.643   2.653 -0.1007  0.5881 -0.1821
    4CHTO   H19 1673   7.094   7.584   2.734  1.3200  0.1928 -1.2411
    4CHTO    C8 1674   7.157   7.714   2.561  0.0534  0.0612  0.4953
    4CHTO   H21 1675   7.105   7.757   2.476 -2.2549 -2.5027  0.5828
    4CHTO    O7 1676   7.240   7.604   2.513  0.0615 -0.1828 -0.6141
    4CHTO    H2 1677   7.307   7.631   2.453  1.0412 -0.2780  0.4271
    4CHTO   C12 1678   7.246   7.822   2.636  0.4604 -0.1610  0.1072
    4CHTO   H25 1679   7.301   7.759   2.710  0.1077  0.4522  0.8944
    4CHTO    N3 1680   7.355   7.887   2.550  0.1185  0.0483  0.2420
    4CHTO   H12 1681   7.371   7.828   2.461 -0.7113  1.3948 -0.8224
    4CHTO   H13 1682   7.328   7.985   2.511  0.3630 -0.2780 -0.7661
    4CHTO   C15 1683   7.150   7.915   2.719 -0.0012  0.0778  0.4401
    4CHTO   H28 1684   7.091   7.975   2.650  0.2865  0.4014  0.4749
    4CHTO   O10 1685   7.227   7.998   2.821 -0.2654  0.7167 -0.1982
    4CHTO    H4 1686   7.168   8.057   2.864 -1.0240 -0.0928 -0.1110
    4CHTO    O5 1687   7.068   7.829   2.800  0.1395  0.1407  0.2794
    4CHTO   C10 1688   6.970   7.751   2.723  0.5700 -0.3299 -0.1380
    4CHTO   H23 1689   6.924   7.814   2.648 -1.2678 -0.0908  1.1322
    4CHTO   C17 1690   6.868   7.691   2.821 -0.2213  0.2781 -0.1402
    4CHTO   O12 1691   6.803   7.790   2.900 -0.4626 -1.0852  0.4289
    4CHTO    H6 1692   6.712   7.792   2.876 -1.0196  0.5068  2.4547
    5CHTO  H203 1693   7.668   3.320   1.286 -1.6773 -1.3535  1.5250
    5CHTO   O82 1694   7.673   3.391   1.347  0.4444 -0.2019  0.0735
    5CHTO  C123 1695   7.673   3.335   1.479 -0.1496 -0.7943 -0.8496
    5CHTO  H227 1696   7.749   3.256   1.487  2.6172  1.9406  0.9305
    5CHTO   O77 1697   7.705   3.441   1.574 -0.7027  0.6433 -0.3076
    5CHTO  C118 1698   7.713   3.400   1.709 -0.1453  0.1341 -0.8162
    5CHTO  H222 1699   7.775   3.311   1.728 -2.5000 -1.2679  0.6407
    5CHTO  C125 1700   7.766   3.517   1.797 -0.7092 -0.0409 -0.5591
    5CHTO   O84 1701   7.703   3.646   1.796  0.3558 -0.2859 -0.1229
    5CHTO  H205 1702   7.612   3.639   1.818  0.4263 -1.2274 -0.1124
    5CHTO  C114 1703   7.572   3.363   1.757  0.1527  0.2447 -0.0215
    5CHTO  H218 1704   7.509   3.451   1.746 -0.6894 -0.3928 -0.3635
    5CHTO  C116 1705   7.507   3.255   1.669 -0.1846  0.2658 -0.4623
    5CHTO  H220 1706   7.558   3.165   1.709 -1.0876 -1.4792 -3.0953
    5CHTO   O79 1707   7.366   3.249   1.692  0.3469  0.0737 -0.3933
    5CHTO  H201 1708   7.321   3.200   1.626 -0.9113  0.9038 -0.1810
    5CHTO  C120 1709   7.530   3.278   1.516  0.1992  0.4818  0.2211
    5CHTO  H224 1710   7.453   3.352   1.486  0.5687  0.4751 -0.7553
    5CHTO   N21 1711   7.505   3.151   1.434 -0.2137  0.1028  1.0384
    5CHTO  H211 1712   7.558   3.142   1.340 -2.9163  0.0045 -0.5561
    5CHTO  H212 1713   7.401   3.124   1.427 -1.0912  2.8188  2.7885
    5CHTO   O75 1714   7.581   3.318   1.892  0.4537 -0.1867 -0.3407
    5CHTO  C112 1715   7.453   3.370   1.993  0.2883 -0.6193 -0.0328
    5CHTO  H216 1716   7.364   3.311   1.968 -0.7097  0.7486  0.2938
    5CHTO   O73 1717   7.439   3.510   1.968  0.2883  0.1507  0.1668
    5CHTO  C113 1718   7.322   3.577   2.027 -0.8798  0.8497 -0.3071
    5CHTO  H217 1719   7.220   3.538   2.007 -0.5915 -0.7047  1.1175
    5CHTO  C124 1720   7.325   3.727   1.989  0.3487 -0.8426 -0.5333
    5CHTO   O83 1721   7.206   3.805   2.025  0.3392  0.3400  0.0524
    5CHTO  H204 1722   7.131   3.757   1.995  1.1241 -0.0763 -1.2557
    5CHTO  C109 1723   7.342   3.562   2.184  0.4932 -0.4137  0.0748
    5CHTO  H213 1724   7.434   3.617   2.207  1.1003 -0.8094 -1.3454
    5CHTO  C110 1725   7.366   3.412   2.227  0.6330  0.0529  0.2807
    5CHTO  H214 1726   7.282   3.348   2.199  1.4343 -0.6601 -0.5523
    5CHTO   O78 1727   7.397   3.409   2.369  0.4078  0.1410 -0.4563
    5CHTO  H200 1728   7.487   3.386   2.386  0.3059  0.2589  0.2429
    5CHTO  C111 1729   7.483   3.355   2.145  0.6358 -0.2980  0.0528
    5CHTO  H215 1730   7.575   3.410   2.169  0.9202 -0.8524  0.2453
    5CHTO   N19 1731   7.511   3.214   2.177  0.6213 -0.9235 -0.5996
    5CHTO  H207 1732   7.614   3.195   2.151  0.2702 -2.8874 -0.6477
    5CHTO  H208 1733   7.436   3.151   2.129 -3.3763  3.7522 -0.8621
    5CHTO   O74 1734   7.230   3.634   2.252  0.2308 -0.3603 -0.0092
    5CHTO  C115 1735   7.206   3.631   2.417 -0.1687  0.0958 -0.1020
    5CHTO  H219 1736   7.295   3.597   2.470 -0.6597  1.9451  1.9535
    5CHTO   O76 1737   7.186   3.772   2.473  0.3337  0.4646  0.0931
    5CHTO  C122 1738   7.068   3.852   2.432 -0.1543  0.1773  0.1275
    5CHTO  H226 1739   7.085   3.899   2.336  1.1975 -0.8808 -0.1704
    5CHTO  C126 1740   7.053   3.970   2.535  0.3031  0.8399 -0.0981
    5CHTO   O85 1741   7.050   3.919   2.669  0.9056 -0.1238 -0.4294
    5CHTO  H206 1742   7.039   3.994   2.725  0.2799 -0.0510 -0.6405
    5CHTO  C121 1743   6.939   3.756   2.411  0.3235  0.1993  0.0168
    5CHTO  H225 1744   6.850   3.808   2.453  1.7228  0.5745  2.6053
    5CHTO   O81 1745   6.920   3.741   2.270  0.3803 -0.3580  0.3066
    5CHTO  H202 1746   6.839   3.697   2.253 -0.3357  0.6058  1.1747
    5CHTO  C119 1747   6.959   3.619   2.488 -0.0072  0.4070  0.0268
    5CHTO  H223 1748   6.989   3.649   2.589 -0.4636 -0.5814  0.4689
    5CHTO  C117 1749   7.084   3.536   2.441 -0.0724  0.4681 -0.3824
    5CHTO  H221 1750   7.073   3.485   2.346 -0.1294  1.2555 -0.8075
    5CHTO   N20 1751   7.118   3.428   2.543 -0.1315 -0.6587 -0.0529
    5CHTO  H209 1752   7.217   3.387   2.532  0.0687 -0.4695  1.0061
    5CHTO  H210 1753   7.117   3.468   2.643 -0.7449  1.7725 -0.9904
    5CHTO   O80 1754   6.825   3.514   2.523 -0.2943  0.7495  0.2525
    5CHTO  C103 1755   6.717   3.497   2.417 -0.4735  0.0082 -0.4920
    5CHTO  H190 1756   6.710   3.582   2.350  0.2483  1.8460  1.6862
    5CHTO  C101 1757   6.738   3.369   2.327 -0.5891  0.1710  0.2724
    5CHTO  H188 1758   6.767   3.280   2.384 -1.4969  1.2476  2.4447
    5CHTO   O68 1759   6.841   3.403   2.231  0.2223  0.6360  0.2668
    5CHTO  H168 1760   6.858   3.331   2.174 -2.5166 -3.2021  3.9342
    5CHTO   C99 1761   6.601   3.330   2.254  0.2232  0.5446 -0.7467
    5CHTO  H186 1762   6.561   3.413   2.193 -1.7052  0.9752  1.0276
    5CHTO   N17 1763   6.605   3.222   2.153 -0.4964 -0.2883  0.0895
    5CHTO  H174 1764   6.673   3.245   2.072  0.0724 -0.0329  0.6331
    5CHTO  H175 1765   6.506   3.192   2.123 -0.7799  2.2063 -1.6963
    5CHTO   C97 1766   6.485   3.305   2.360  0.3444 -0.4399 -0.2256
    5CHTO  H184 1767   6.496   3.221   2.432 -2.3757  0.7809  1.6763
    5CHTO   O64 1768   6.472   3.433   2.426  0.1275  0.1270 -0.2053
    5CHTO  C104 1769   6.589   3.484   2.499 -0.4016  0.4146 -1.1486
    5CHTO  H191 1770   6.608   3.429   2.591  0.8725 -0.3664 -1.8665
    5CHTO  C108 1771   6.546   3.621   2.550  0.5036  0.4580 -0.2136
    5CHTO   O71 1772   6.444   3.630   2.652  0.3847  0.9904  0.9518
    5CHTO  H171 1773   6.481   3.583   2.724  1.8548  1.5481  0.5739
    5CHTO   O62 1774   6.361   3.281   2.288  0.0063 -0.2907 -0.3086
    5CHTO   C91 1775   6.255   3.202   2.346 -0.4758  0.3395  0.0502
    5CHTO  H178 1776   6.273   3.173   2.449 -0.5101  2.2480  0.5971
    5CHTO   C92 1777   6.252   3.065   2.279  0.8226  0.2891  0.2991
    5CHTO  H179 1778   6.251   3.067   2.169 -0.8071  0.6843  0.3097
    5CHTO   O66 1779   6.374   2.996   2.311  0.5476  0.4259  0.3339
    5CHTO  H166 1780   6.449   3.029   2.265  0.5704  0.9354  0.7256
    5CHTO   C93 1781   6.129   2.978   2.326 -0.6777  0.4172  0.9981
    5CHTO  H180 1782   6.135   2.968   2.435 -0.9452  0.0633  0.9804
    5CHTO   N16 1783   6.128   2.837   2.265 -0.0621 -0.2383  0.2339
    5CHTO  H172 1784   6.049   2.822   2.193 -1.5577 -1.8387  2.1342
    5CHTO  H173 1785   6.229   2.817   2.234 -0.2346 -0.2945 -0.3008
    5CHTO   C94 1786   5.999   3.063   2.296  0.1826 -0.5138 -0.5148
    5CHTO  H181 1787   5.985   3.083   2.190 -0.7177  1.4905 -0.0297
    5CHTO   O61 1788   6.001   3.187   2.363 -0.1951  0.3128  0.3450
    5CHTO   C95 1789   6.114   3.271   2.321  0.5605  0.3065  0.6581
    5CHTO  H182 1790   6.104   3.287   2.214 -1.6484  1.0350  0.9488
    5CHTO  C106 1791   6.103   3.415   2.385 -0.0758 -0.2958  0.4386
    5CHTO   O69 1792   6.124   3.406   2.525  0.4082 -0.2369 -0.3138
    5CHTO  H169 1793   6.100   3.328   2.571  0.9979  0.3426  0.9856
    5CHTO   O63 1794   5.871   2.991   2.349 -0.5242 -0.3917 -0.4012
    5CHTO   C96 1795   5.761   2.951   2.244  0.3411 -0.6174 -0.3186
    5CHTO  H183 1796   5.814   2.922   2.153  2.0798  2.0578 -0.2210
    5CHTO   C98 1797   5.659   3.074   2.216 -0.6734  0.1011  0.1924
    5CHTO  H185 1798   5.600   3.097   2.305  1.3270 -0.4270  1.6986
    5CHTO   O67 1799   5.740   3.190   2.188 -0.4857 -0.0324  0.1798
    5CHTO  H167 1800   5.737   3.213   2.097  0.5333  0.2634  0.2048
    5CHTO  C102 1801   5.573   3.030   2.093 -0.9986 -0.1484 -0.2651
    5CHTO  H189 1802   5.639   3.029   2.005  0.7173  2.0733  0.9368
    5CHTO   N18 1803   5.462   3.119   2.057  0.3731 -0.0976 -0.4575
    5CHTO  H176 1804   5.400   3.070   1.984 -0.1915 -1.7528  1.0941
    5CHTO  H177 1805   5.402   3.142   2.144  0.4142 -0.7303 -0.2635
    5CHTO  C105 1806   5.524   2.881   2.114 -0.4769  0.4153 -0.2576
    5CHTO  H192 1807   5.428   2.878   2.166  0.2681 -0.6746  1.0812
    5CHTO   O65 1808   5.609   2.778   2.181 -0.3393  0.1098 -0.0298
    5CHTO  C100 1809   5.664   2.835   2.295 -0.4656 -0.2260 -0.4334
    5CHTO  H187 1810   5.579   2.875   2.353 -3.0990 -1.8374 -3.0549
    5CHTO  C107 1811   5.742   2.726   2.381 -0.2525 -0.3928 -0.7887
    5CHTO   O70 1812   5.739   2.734   2.525 -0.3410 -0.3325  0.2867
    5CHTO  H170 1813   5.802   2.682   2.570  1.2742  2.0731  0.9022
    5CHTO   O57 1814   5.495   2.822   1.960  0.7063  0.2819  0.5285
    5CHTO   C85 1815   5.380   2.736   1.922  0.1346 -0.3697 -0.5736
    5CHTO  H157 1816   5.297   2.785   1.976  0.2152  1.1436 -1.8034
    5CHTO   C83 1817   5.400   2.588   1.975  0.0679  0.0214  1.0705
    5CHTO  H155 1818   5.396   2.581   2.083  0.8051 -0.4878  1.0643
    5CHTO   O56 1819   5.531   2.545   1.933  0.2396  0.5284  0.1817
    5CHTO  H135 1820   5.591   2.581   1.996 -1.8254  1.4064  1.7172
    5CHTO   C81 1821   5.287   2.491   1.920  0.4238  1.1484  1.1926
    5CHTO  H153 1822   5.189   2.520   1.959 -0.3521 -0.1669  0.2545
    5CHTO   N14 1823   5.299   2.353   1.973  0.2322  0.5342 -0.1371
    5CHTO  H141 1824   5.275   2.339   2.077  0.5559 -2.6421 -0.4326
    5CHTO  H142 1825   5.231   2.294   1.915  1.2838  0.9707 -1.8368
    5CHTO   C79 1826   5.281   2.497   1.763  0.0095  0.6509 -0.4004
    5CHTO  H151 1827   5.193   2.441   1.732  0.2192 -2.0440  3.5050
    5CHTO   O52 1828   5.272   2.633   1.704 -0.4501  0.0627  0.0605
    5CHTO   C86 1829   5.358   2.732   1.765 -0.2623  0.7406 -0.2096
    5CHTO  H158 1830   5.455   2.717   1.714  0.0134  1.0605  0.2222
    5CHTO   C90 1831   5.301   2.870   1.716 -0.0643 -0.5537 -0.1171
    5CHTO   O60 1832   5.389   2.980   1.744 -0.1921  0.1986 -0.2277
    5CHTO  H138 1833   5.340   3.060   1.740  2.9473  2.1407 -1.4531
    5CHTO   O50 1834   5.386   2.430   1.694 -0.4463 -0.1238 -0.0320
    5CHTO   C73 1835   5.448   2.347   1.600 -0.5874  0.6266 -0.2700
    5CHTO  H145 1836   5.381   2.329   1.516  0.4873 -0.7309 -0.8575
    5CHTO   C74 1837   5.492   2.210   1.673 -0.2935 -0.0473 -0.0500
    5CHTO  H146 1838   5.401   2.159   1.707  1.3264 -1.4206  2.3455
    5CHTO   O54 1839   5.541   2.129   1.565  0.7795 -0.0620  0.2099
    5CHTO  H133 1840   5.558   2.040   1.586 -0.5282 -0.1859  0.8464
    5CHTO   C75 1841   5.597   2.236   1.793  0.5904 -0.4583  0.5575
    5CHTO  H147 1842   5.538   2.283   1.874  0.0088  0.5756 -0.4464
    5CHTO   N13 1843   5.647   2.116   1.858 -0.3789 -0.5669  1.0225
    5CHTO  H139 1844   5.754   2.114   1.850 -0.5480 -1.5440 -1.8813
    5CHTO  H140 1845   5.608   2.032   1.801  1.4267 -1.2052  0.7102
    5CHTO   C76 1846   5.723   2.320   1.736 -0.3170 -0.3302  0.7258
    5CHTO  H148 1847   5.783   2.268   1.661  0.0668  0.8380  0.2062
    5CHTO   O49 1848   5.674   2.436   1.655  0.3727 -0.5227 -0.1801
    5CHTO   C77 1849   5.583   2.417   1.545  0.4251  0.5291 -0.0102
    5CHTO  H149 1850   5.623   2.355   1.465 -0.6990  2.4618 -2.1569
    5CHTO   C88 1851   5.546   2.549   1.483 -0.3336 -0.4179 -0.1248
    5CHTO   O58 1852   5.460   2.546   1.368  0.7020  0.1743 -0.0450
    5CHTO  H136 1853   5.507   2.502   1.299  0.0397  0.5697 -0.7589
    5CHTO   O51 1854   5.831   2.359   1.873 -0.1548  0.6917  0.1649
    5CHTO   C78 1855   5.957   2.445   1.850  0.3319 -0.9649  0.0391
    5CHTO  H150 1856   5.943   2.513   1.763 -0.0986 -0.0794  0.8005
    5CHTO   C80 1857   6.084   2.363   1.833  0.4744 -0.3014  0.2292
    5CHTO  H152 1858   6.097   2.301   1.924  0.5303  1.1481  1.2218
    5CHTO   O55 1859   6.057   2.279   1.720  0.0547 -0.8124  0.2043
    5CHTO  H134 1860   6.013   2.199   1.744  0.0540 -1.0288 -0.5253
    5CHTO   C84 1861   6.214   2.447   1.806  1.0206 -0.3764  0.5294
    5CHTO  H156 1862   6.191   2.500   1.713  1.2315  3.0325  2.3200
    5CHTO   N15 1863   6.336   2.363   1.781 -0.0066 -0.2417  0.0683
    5CHTO  H143 1864   6.418   2.431   1.768 -0.0275 -0.2363 -0.0341
    5CHTO  H144 1865   6.356   2.302   1.867 -0.3683 -1.3335 -0.6084
    5CHTO   C87 1866   6.228   2.546   1.924 -0.4500  0.6494  0.3224
    5CHTO  H159 1867   6.261   2.495   2.015  1.1620  0.0064 -0.6116
    5CHTO   O53 1868   6.097   2.623   1.939  0.0827 -0.2336  0.2728
    5CHTO   C82 1869   5.985   2.536   1.969 -0.3096  0.4035  0.0669
    5CHTO  H154 1870   6.008   2.471   2.053 -2.9213 -1.1263 -0.3395
    5CHTO   C89 1871   5.862   2.615   2.013  0.1969 -1.1415  0.0943
    5CHTO   O59 1872   5.790   2.546   2.107  0.6948 -0.1083 -0.9405
    5CHTO  H137 1873   5.761   2.467   2.066 -1.6968 -0.4213  1.2565
    5CHTO   O45 1874   6.345   2.657   1.866 -0.0222 -0.2236 -0.4862
    5CHTO   C67 1875   6.454   2.663   1.962 -0.0340  0.3185 -0.2821
    5CHTO  H124 1876   6.415   2.667   2.064  1.2787  3.6512  0.1756
    5CHTO   C65 1877   6.569   2.550   1.949 -0.0979 -0.3208  0.5397
    5CHTO  H122 1878   6.569   2.508   1.849  2.8336  1.1771 -0.1525
    5CHTO   O44 1879   6.534   2.450   2.051 -0.2419 -0.3438  0.0056
    5CHTO  H102 1880   6.587   2.373   2.054  0.3266  0.0650  0.6864
    5CHTO   C63 1881   6.712   2.610   1.964  0.0451  0.3561 -0.7368
    5CHTO  H120 1882   6.732   2.669   1.875  2.2068 -0.5852 -0.9183
    5CHTO   N11 1883   6.831   2.516   1.979  0.2225 -0.1512 -0.6338
    5CHTO  H108 1884   6.838   2.496   2.084 -0.8956 -3.0984 -1.0753
    5CHTO  H109 1885   6.922   2.560   1.945 -0.8001  0.7014 -2.2927
    5CHTO   C61 1886   6.711   2.723   2.075  0.8810 -0.1263  0.2685
    5CHTO  H118 1887   6.814   2.761   2.079  0.5682  0.8076 -0.4956
    5CHTO   O40 1888   6.632   2.837   2.024  0.0638  0.5073 -0.6751
    5CHTO   C68 1889   6.510   2.808   1.946 -0.0089  0.6702  0.4160
    5CHTO  H125 1890   6.527   2.814   1.837  1.8320 -0.0477  0.6460
    5CHTO   C72 1891   6.402   2.913   1.976 -0.3853  0.9620 -0.1215
    5CHTO   O48 1892   6.427   3.047   1.920 -0.4124 -0.0083 -0.2847
    5CHTO  H105 1893   6.400   3.056   1.830  0.2501  0.7505 -0.4113
    5CHTO   O38 1894   6.669   2.676   2.208 -0.4340 -0.5067 -0.2069
    5CHTO   C55 1895   6.620   2.760   2.314 -0.1139  0.9612 -0.2810
    5CHTO  H112 1896   6.538   2.824   2.279  1.1249  2.1740 -1.0207
    5CHTO   C56 1897   6.737   2.844   2.381  0.7508 -0.4275 -0.8399
    5CHTO  H113 1898   6.813   2.766   2.400 -0.0941 -0.1226  4.5428
    5CHTO   O42 1899   6.782   2.933   2.277  0.1972  0.3071 -0.3027
    5CHTO  H100 1900   6.837   2.882   2.221  1.9882  0.6397  1.1244
    5CHTO   C57 1901   6.686   2.918   2.511 -0.2262 -0.0642 -0.1603
    5CHTO  H114 1902   6.627   3.001   2.471  0.2275 -0.6002 -2.0177
    5CHTO   N10 1903   6.791   2.983   2.593 -0.0037 -0.3819 -0.5908
    5CHTO  H106 1904   6.882   2.926   2.602  0.6127  0.8210  1.1134
    5CHTO  H107 1905   6.752   2.999   2.693 -1.4455 -0.4649 -1.1310
    5CHTO   C58 1906   6.600   2.826   2.600 -0.6510  0.1345  0.2016
    5CHTO  H115 1907   6.664   2.750   2.649  0.3963  0.1550 -1.1129
    5CHTO   O37 1908   6.500   2.748   2.526  0.3493 -0.1115 -0.8716
    5CHTO   C59 1909   6.549   2.664   2.420 -0.4318 -0.2831  0.1673
    5CHTO  H116 1910   6.613   2.582   2.452 -0.2519 -0.3681 -0.4043
    5CHTO   C70 1911   6.425   2.587   2.370 -0.1241 -0.0604  0.2458
    5CHTO   O46 1912   6.368   2.495   2.471  0.6365  0.6757 -0.2788
    5CHTO  H103 1913   6.276   2.508   2.459  0.7415  2.6565  0.7784
    5CHTO   O39 1914   6.524   2.919   2.716  0.4520  0.1275 -0.2024
    5CHTO   C60 1915   6.387   2.950   2.694  0.2627 -0.2386  0.4958
    5CHTO  H117 1916   6.376   2.957   2.585 -0.0670 -1.6696  0.4305
    5CHTO   C62 1917   6.299   2.842   2.746  0.0428 -0.3798 -0.6421
    5CHTO  H119 1918   6.336   2.745   2.707  0.1118  0.3360 -2.4209
    5CHTO   O43 1919   6.319   2.824   2.888  0.0184 -0.8755  0.2391
    5CHTO  H101 1920   6.410   2.808   2.902  0.7887  1.5601 -1.6489
    5CHTO   C66 1921   6.146   2.874   2.709  0.0991 -0.2134 -0.0765
    5CHTO  H123 1922   6.133   2.898   2.603 -1.1524  0.1037  0.1420
    5CHTO   N12 1923   6.044   2.772   2.741  0.2745  0.5647  0.3049
    5CHTO  H110 1924   6.052   2.687   2.676  0.5635  0.7900  0.0440
    5CHTO  H111 1925   6.062   2.738   2.841 -0.6283 -0.1577  0.2243
    5CHTO   C69 1926   6.111   3.012   2.776  0.7822 -1.0318 -0.7566
    5CHTO  H126 1927   6.127   3.011   2.886  0.3150  2.4966 -0.5779
    5CHTO   O41 1928   6.203   3.117   2.720 -0.0138 -0.5186  0.1232
    5CHTO   C64 1929   6.346   3.089   2.756  0.3935 -1.0776 -0.2917
    5CHTO  H121 1930   6.353   3.088   2.867 -0.3536 -1.0641 -0.2439
    5CHTO   C71 1931   6.427   3.207   2.704 -0.0490 -0.2141  0.2372
    5CHTO   O47 1932   6.393   3.324   2.780 -0.1976 -0.3088  0.2556
    5CHTO  H104 1933   6.442   3.398   2.751  0.1422 -0.5081  0.3085
    5CHTO   O34 1934   5.976   3.063   2.744  0.8169 -0.0447 -0.0469
    5CHTO   C49 1935   5.924   3.205   2.732 -0.2066 -0.4235 -0.6705
    5CHTO   H91 1936   5.990   3.244   2.655  1.7932 -1.7901  0.2891
    5CHTO   C47 1937   5.944   3.298   2.857 -0.2758 -0.2199 -0.6567
    5CHTO   H89 1938   5.925   3.403   2.824 -1.3185  0.6629  2.5758
    5CHTO   O33 1939   6.083   3.291   2.889 -0.1633 -0.1670  0.3149
    5CHTO   H70 1940   6.126   3.370   2.915 -4.5306  2.0521  1.1433
    5CHTO   C45 1941   5.848   3.247   2.975  0.0846 -0.1662  0.0841
    5CHTO   H87 1942   5.865   3.141   2.995 -0.3063 -0.5893 -1.7351
    5CHTO    N8 1943   5.877   3.318   3.102 -0.5711 -0.4115 -0.4134
    5CHTO   H75 1944   5.877   3.247   3.183  2.5600  0.5707  0.5035
    5CHTO   H76 1945   5.818   3.406   3.121  1.2914  0.5238  1.0504
    5CHTO   C43 1946   5.694   3.263   2.928  0.1570  0.9245 -0.4754
    5CHTO   H85 1947   5.633   3.223   3.009  1.3575 -3.0425 -1.4270
    5CHTO   O29 1948   5.679   3.184   2.806 -0.6414 -0.3171 -0.0825
    5CHTO   C50 1949   5.773   3.205   2.698  0.4347  0.4825  0.0138
    5CHTO   H92 1950   5.761   3.127   2.621 -0.5361  0.4340  0.1985
    5CHTO   C54 1951   5.736   3.338   2.614  0.0005 -0.0849  0.3928
    5CHTO   O36 1952   5.626   3.305   2.521 -0.6482 -0.2975 -0.3692
    5CHTO   H72 1953   5.597   3.390   2.494  3.1011  1.2636  0.2321
    5CHTO   O27 1954   5.660   3.401   2.907 -0.0132 -0.0007 -0.1931
    5CHTO   C37 1955   5.590   3.528   2.917 -0.7241  0.2406  0.5470
    5CHTO   H79 1956   5.614   3.600   2.837 -2.4372  0.9572  0.6478
    5CHTO   C38 1957   5.439   3.495   2.898 -0.8584  0.5116 -0.0709
    5CHTO   H80 1958   5.401   3.425   2.973  0.8508  0.9258  1.2101
    5CHTO   O31 1959   5.422   3.440   2.762  0.0142  0.4932 -0.1141
    5CHTO   H68 1960   5.402   3.349   2.764 -3.3327  1.1765  0.4943
    5CHTO   C39 1961   5.346   3.617   2.912  0.4225 -0.1583 -0.1687
    5CHTO   H81 1962   5.371   3.697   2.843 -0.9162 -0.9713 -1.6234
    5CHTO    N7 1963   5.204   3.588   2.893 -0.2221 -0.0166  0.3732
    5CHTO   H73 1964   5.167   3.488   2.876 -0.9496  0.2715  0.2324
    5CHTO   H74 1965   5.140   3.674   2.905  1.1768  0.8787  1.6807
    5CHTO   C40 1966   5.379   3.661   3.062 -0.1522 -0.7488 -0.0932
    5CHTO   H82 1967   5.367   3.576   3.129 -2.1665  0.3452  0.9711
    5CHTO   O26 1968   5.518   3.709   3.059 -0.2279  0.2962 -0.2424
    5CHTO   C41 1969   5.612   3.596   3.056 -0.1109  0.3293 -0.0289
    5CHTO   H83 1970   5.579   3.524   3.132  0.5076 -2.0617 -1.9751
    5CHTO   C52 1971   5.758   3.647   3.088  0.0634 -0.3612  0.0083
    5CHTO   O35 1972   5.765   3.717   3.207 -0.1334  0.2028  0.2692
    5CHTO   H71 1973   5.773   3.808   3.188 -0.7474  0.1873 -0.0593
    5CHTO   O28 1974   5.309   3.779   3.111 -0.4261 -0.8536  0.5216
    5CHTO   C42 1975   5.245   3.760   3.245  0.1203 -0.4659 -0.5220
    5CHTO   H84 1976   5.186   3.850   3.265  1.2244  0.0932  0.2468
    5CHTO   C44 1977   5.348   3.756   3.364  0.5396 -0.4579 -0.3352
    5CHTO   H86 1978   5.443   3.718   3.326 -0.1424 -2.0460 -0.5217
    5CHTO   O32 1979   5.371   3.895   3.391  0.2006 -0.1555  0.0866
    5CHTO   H69 1980   5.442   3.931   3.341 -1.1627  0.8873 -1.1784
    5CHTO   C48 1981   5.312   3.659   3.487 -0.1550  0.2164 -0.9097
    5CHTO   H90 1982   5.237   3.710   3.547  1.3458  0.7588  0.5275
    5CHTO    N9 1983   5.434   3.635   3.568 -0.6890 -0.4493 -0.0207
    5CHTO   H77 1984   5.425   3.657   3.673 -0.3110  3.3425 -0.7102
    5CHTO   H78 1985   5.489   3.546   3.542 -0.8771  0.3789 -3.5810
    5CHTO   C51 1986   5.238   3.534   3.420 -0.8070  0.4725 -0.4240
    5CHTO   H93 1987   5.303   3.494   3.342  0.3764 -1.0296  1.2843
    5CHTO   O30 1988   5.115   3.584   3.370 -0.4789  0.0448  0.5165
    5CHTO   C46 1989   5.138   3.640   3.239 -0.5017  0.4216 -1.2717
    5CHTO   H88 1990   5.178   3.572   3.164 -1.6254 -1.1781 -0.4494
    5CHTO   C53 1991   5.004   3.692   3.190 -0.1220  0.0889  0.5414
    5CHTO   O72 1992   5.003   3.742   3.056 -0.2296 -0.0151  0.3651
    5CHTO  H199 1993   4.914   3.752   3.028 -0.2945 -0.3580  0.4415
    5CHTO   O22 1994   5.213   3.427   3.509 -0.3573  0.1008  0.2192
    5CHTO   C31 1995   5.251   3.287   3.490 -0.6907  0.3949  0.3139
    5CHTO   H59 1996   5.158   3.229   3.504 -0.6019 -0.0280 -0.7705
    5CHTO   C29 1997   5.313   3.256   3.348  0.1918 -0.1849 -0.5748
    5CHTO   H57 1998   5.394   3.320   3.311 -0.1008  0.3255 -0.3312
    5CHTO   O21 1999   5.207   3.268   3.250  0.2993 -0.3231  0.0058
    5CHTO   H37 2000   5.182   3.183   3.218  1.0616  0.4712 -2.8512
    5CHTO   C27 2001   5.369   3.106   3.347  0.7142 -0.1956 -0.1788
    5CHTO   H55 2002   5.283   3.038   3.353  0.8140 -0.1665  1.7543
    5CHTO    N5 2003   5.442   3.077   3.223 -0.2144 -0.0614  0.2528
    5CHTO   H43 2004   5.377   3.109   3.143 -0.4026 -0.6737  0.1529
    5CHTO   H44 2005   5.527   3.143   3.210 -0.7854  0.7174  0.4625
    5CHTO   C25 2006   5.465   3.072   3.471  0.2445 -1.0385  0.7608
    5CHTO   H53 2007   5.544   3.149   3.472 -0.1503 -0.6139 -0.0845
    5CHTO   O17 2008   5.384   3.103   3.598 -0.3721  0.0010  0.6448
    5CHTO   C32 2009   5.351   3.238   3.602  0.2908  0.2507  0.3261
    5CHTO   H60 2010   5.444   3.295   3.598  0.8739 -0.8236 -2.1455
    5CHTO   C36 2011   5.303   3.267   3.744 -0.2680 -0.2320 -0.5324
    5CHTO   O25 2012   5.205   3.176   3.800  0.1750 -0.5353 -0.4943
    5CHTO   H40 2013   5.204   3.184   3.893 -2.1039 -0.5825 -0.4706
    5CHTO   O15 2014   5.524   2.950   3.473 -0.2755  0.0868  0.2044
    5CHTO   C19 2015   5.643   2.865   3.512  0.5569  0.5875  0.1992
    5CHTO   H47 2016   5.662   2.910   3.610  1.9792  1.0185 -0.2583
    5CHTO   C20 2017   5.607   2.712   3.517 -0.5422 -0.1154  0.2568
    5CHTO   H48 2018   5.573   2.677   3.418  1.5222  1.2216 -0.9579
    5CHTO   O19 2019   5.500   2.698   3.616 -0.6679 -1.2214 -0.1702
    5CHTO   H35 2020   5.531   2.693   3.704  1.0322 -0.2406 -0.6740
    5CHTO   C21 2021   5.734   2.629   3.561 -0.0871 -0.1905 -0.6667
    5CHTO   H49 2022   5.757   2.654   3.665 -0.8021  0.1186 -0.5792
    5CHTO    N4 2023   5.716   2.485   3.558  0.5261 -0.5613  0.5064
    5CHTO   H41 2024   5.783   2.465   3.641  1.1196 -1.3752 -0.1602
    5CHTO   H42 2025   5.616   2.454   3.585  0.5289 -1.3717 -0.3583
    5CHTO   C22 2026   5.858   2.676   3.482  0.0823  0.1810 -0.1630
    5CHTO   H50 2027   5.845   2.649   3.377  0.7324  1.4696 -0.5894
    5CHTO   O14 2028   5.879   2.816   3.492 -0.4249  0.0887  0.8359
    5CHTO   C23 2029   5.773   2.894   3.430 -0.1941 -0.0542 -0.5903
    5CHTO   H51 2030   5.762   2.862   3.325 -0.4411 -1.4431 -0.1522
    5CHTO   C34 2031   5.815   3.043   3.426 -0.3785  0.1607  0.9133
    5CHTO   O23 2032   5.898   3.060   3.302 -0.5275 -0.3876  0.3052
    5CHTO   H38 2033   5.969   3.119   3.318  0.7737 -2.1564  1.2166
    5CHTO   O16 2034   5.983   2.619   3.526 -0.4040 -0.0760  0.0522
    5CHTO   C24 2035   6.085   2.553   3.416 -0.1160  0.0080  0.2275
    5CHTO   H52 2036   6.033   2.496   3.339  0.1316 -0.5017  0.4369
    5CHTO   C26 2037   6.174   2.459   3.497  0.4341  0.3337 -0.2965
    5CHTO   H54 2038   6.220   2.514   3.582 -0.5886  0.7944 -0.0387
    5CHTO   O20 2039   6.089   2.358   3.546 -0.1094 -0.1684 -0.6373
    5CHTO   H36 2040   6.027   2.325   3.484  1.4249 -0.0918 -2.2435
    5CHTO   C30 2041   6.281   2.403   3.398 -0.1550  0.0228  0.8450
    5CHTO   H58 2042   6.234   2.351   3.313  0.0627  2.8271 -1.0733
    5CHTO    N6 2043   6.365   2.294   3.468 -0.1610 -0.2158 -0.6041
    5CHTO   H45 2044   6.394   2.323   3.568 -1.1195  2.1308 -0.9622
    5CHTO   H46 2045   6.305   2.205   3.457 -2.7989  1.8175 -3.8785
    5CHTO   C33 2046   6.365   2.519   3.337 -0.1016  0.0429  0.5366
    5CHTO   H61 2047   6.407   2.582   3.417  0.5881 -0.6804  0.7558
    5CHTO   O18 2048   6.274   2.594   3.258  0.3247 -0.1235 -0.1759
    5CHTO   C28 2049   6.178   2.663   3.336 -0.1375 -0.0337  0.0026
    5CHTO   H56 2050   6.223   2.737   3.403 -1.0911  1.2265 -0.7258
    5CHTO   C35 2051   6.097   2.750   3.234 -0.2272 -0.2064  0.6050
    5CHTO   O24 2052   6.169   2.868   3.194  0.2133  0.3112 -0.4855
    5CHTO   H39 2053   6.138   2.937   3.249 -0.7905 -0.2084 -0.4001
    5CHTO    O9 2054   6.478   2.470   3.260 -0.3604 -0.6044 -0.1996
    5CHTO   C13 2055   6.466   2.408   3.112 -0.7381 -0.8511 -0.0777
    5CHTO   H26 2056   6.362   2.372   3.103 -1.1068  0.5467 -1.5034
    5CHTO   C11 2057   6.571   2.291   3.097  0.2044 -0.4487  0.0664
    5CHTO   H24 2058   6.546   2.210   3.168 -1.3514  0.9607  1.1527
    5CHTO    O8 2059   6.703   2.337   3.131  0.0717 -0.6186 -0.4694
    5CHTO    H3 2060   6.762   2.270   3.101  0.3986 -0.6215  0.1561
    5CHTO    C9 2061   6.561   2.225   2.953 -0.2295  0.1598  0.1142
    5CHTO   H22 2062   6.455   2.204   2.938 -0.1478  0.5624 -1.0645
    5CHTO    N2 2063   6.644   2.100   2.943 -0.3101  0.2893 -0.7518
    5CHTO   H10 2064   6.609   2.026   3.014 -2.4383  1.6842 -0.3096
    5CHTO   H11 2065   6.750   2.113   2.959 -0.2142 -1.1155 -0.0968
    5CHTO    C7 2066   6.606   2.338   2.852  0.5883 -0.5670  0.8484
    5CHTO   H20 2067   6.577   2.293   2.756  0.0440 -1.1225  1.2737
    5CHTO    O4 2068   6.532   2.460   2.880 -0.2419  0.3882 -0.2434
    5CHTO   C14 2069   6.490   2.514   3.003  0.0543 -0.0487 -0.2725
    5CHTO   H27 2070   6.398   2.574   2.987  1.0506  1.5134 -0.2434
    5CHTO   C18 2071   6.593   2.610   3.057 -0.2763 -0.2538 -0.1536
    5CHTO   O13 2072   6.613   2.713   2.959  0.7645  0.3476 -0.0249
    5CHTO    H7 2073   6.692   2.758   2.982  0.7044 -0.0842  1.0511
    5CHTO    O2 2074   6.782   2.384   2.841  1.0424 -0.0651  0.0203
    5CHTO    C1 2075   6.810   2.445   2.714  0.3642 -0.2744 -0.6647
    5CHTO   H14 2076   6.714   2.495   2.688  0.4097  0.5535  0.7026
    5CHTO    C2 2077   6.848   2.342   2.596  0.0499  0.2763  0.1312
    5CHTO   H15 2078   6.917   2.277   2.653  0.8368  1.6843  0.7972
    5CHTO    O6 2079   6.727   2.272   2.552  0.6822 -0.3945  0.3136
    5CHTO    H1 2080   6.687   2.232   2.627 -1.4107  1.2214  0.0932
    5CHTO    C3 2081   6.918   2.411   2.469 -0.8025 -0.1486 -0.0244
    5CHTO   H16 2082   6.843   2.475   2.420  0.1865  0.5310 -0.6526
    5CHTO    N1 2083   6.978   2.314   2.376  0.5712 -0.3672  0.1442
    5CHTO    H8 2084   7.068   2.269   2.415  1.2142  0.1640 -0.6959
    5CHTO    H9 2085   7.002   2.372   2.287  3.3169 -1.9910 -0.2134
    5CHTO    C4 2086   7.031   2.514   2.523  0.7903  0.6191 -0.1934
    5CHTO   H17 2087   7.110   2.453   2.567  1.1506  0.4401 -1.0718
    5CHTO    O1 2088   6.972   2.603   2.609 -0.2552 -0.6179  0.9738
    5CHTO    C5 2089   6.930   2.543   2.728  0.1399 -0.2441  0.3439
    5CHTO   H18 2090   7.007   2.483   2.775 -0.5219 -1.5973 -0.2709
    5CHTO   C16 2091   6.898   2.661   2.828 -0.9697  0.3024  0.3102
    5CHTO   O11 2092   7.013   2.745   2.847 -0.6286  0.0047  0.0845
    5CHTO    H5 2093   6.994   2.836   2.850 -1.0241 -0.0852  0.3465
    5CHTO    O3 2094   7.093   2.599   2.422 -0.4201  0.0942  0.6892
    5CHTO    C6 2095   7.227   2.645   2.444  0.0819  0.4827 -0.2993
    5CHTO   H19 2096   7.267   2.613   2.540 -0.2341  2.6206  0.5793
    5CHTO    C8 2097   7.319   2.569   2.336 -1.1809  0.2650  0.0917
    5CHTO   H21 2098   7.273   2.581   2.237 -0.2908 -1.6918 -0.5894
    5CHTO    O7 2099   7.307   2.428   2.364 -0.0256  0.0671  0.0931
    5CHTO    H2 2100   7.336   2.415   2.452 -0.3569  0.0745  0.2023
    5CHTO   C12 2101   7.466   2.623   2.351 -0.7833  0.4697 -0.1364
    5CHTO   H25 2102   7.505   2.601   2.452 -0.8092 -1.4537 -0.5117
    5CHTO    N3 2103   7.565   2.550   2.266  0.0571 -0.1401  0.1732
    5CHTO   H12 2104   7.547   2.562   2.160 -1.8677  0.5199  0.5434
    5CHTO   H13 2105   7.574   2.448   2.301  0.9112 -0.0602  0.1760
    5CHTO   C15 2106   7.467   2.775   2.324 -0.0279  0.0188 -0.6074
    5CHTO   H28 2107   7.421   2.792   2.227  0.9753 -1.2856 -1.3310
    5CHTO   O10 2108   7.597   2.834   2.334  0.5150 -0.2121  0.5285
    5CHTO    H4 2109   7.640   2.832   2.417  2.4965  1.5695 -0.4224
    5CHTO    O5 2110   7.385   2.837   2.428 -0.5087  0.3885 -0.9306
    5CHTO   C10 2111   7.247   2.798   2.437 -0.5315  0.5092 -0.1042
    5CHTO   H23 2112   7.191   2.839   2.352  0.0469 -0.3441 -0.8970
    5CHTO   C17 2113   7.200   2.856   2.575  0.0758  0.2416  0.2861
    5CHTO   O12 2114   7.198   3.001   2.569 -0.5475  0.0414  0.0585
    5CHTO    H6 2115   7.284   3.036   2.582  0.0404 -1.3411 -0.1509
    6CHTO  H203 2116   6.065   4.537   0.356 -0.0940 -2.9404 -0.2595
    6CHTO   O82 2117   5.982   4.528   0.398 -0.3602 -0.3891 -0.1352
    6CHTO  C123 2118   5.930   4.659   0.440 -0.3341  0.0433  0.4753
    6CHTO  H227 2119   5.961   4.735   0.367  2.5298 -1.4124  0.0855
    6CHTO   O77 2120   5.783   4.647   0.437 -0.6430 -0.3470 -0.5389
    6CHTO  C118 2121   5.730   4.776   0.455  1.4016 -0.2687  0.3622
    6CHTO  H222 2122   5.779   4.850   0.391  0.1264  1.5247  1.4039
    6CHTO  C125 2123   5.574   4.767   0.406 -0.6084  0.6307 -0.3511
    6CHTO   O84 2124   5.496   4.653   0.456 -0.2097 -0.2518  0.3028
    6CHTO  H205 2125   5.546   4.577   0.433 -1.2751 -0.6845 -0.6065
    6CHTO  C114 2126   5.735   4.810   0.606 -0.2673  0.1899  0.6384
    6CHTO  H218 2127   5.688   4.731   0.663  2.5755 -2.2590 -0.3197
    6CHTO  C116 2128   5.888   4.822   0.641  1.0826  0.5367 -0.4557
    6CHTO  H220 2129   5.934   4.915   0.602  2.1440 -0.2036 -0.9853
    6CHTO   O79 2130   5.885   4.819   0.786  0.1751 -0.4038 -0.2150
    6CHTO  H201 2131   5.968   4.847   0.820  0.3430 -1.3762  0.2012
    6CHTO  C120 2132   5.972   4.699   0.587  0.4649 -0.0957  0.2203
    6CHTO  H224 2133   5.939   4.614   0.651 -0.8564  1.1843  1.2615
    6CHTO   N21 2134   6.119   4.704   0.605 -0.1199  0.6763 -0.5050
    6CHTO  H211 2135   6.147   4.761   0.693  1.8064 -2.1694  0.7996
    6CHTO  H212 2136   6.174   4.738   0.518  0.4203  1.5451  0.1604
    6CHTO   O75 2137   5.671   4.942   0.621 -0.4400  0.1724 -0.0012
    6CHTO  C112 2138   5.594   4.947   0.775 -0.0739  0.3094  0.2210
    6CHTO  H216 2139   5.639   4.871   0.840 -2.8846 -0.8839  0.8562
    6CHTO   O73 2140   5.454   4.918   0.750  0.3488  0.1846  0.1664
    6CHTO  C113 2141   5.391   4.894   0.873 -0.0182  0.5250  0.7345
    6CHTO  H217 2142   5.439   4.809   0.926  2.2047  1.3983  0.1798
    6CHTO  C124 2143   5.254   4.849   0.825  0.1379 -0.8905 -0.3435
    6CHTO   O83 2144   5.180   4.790   0.931 -0.0642 -0.2842 -0.4563
    6CHTO  H204 2145   5.174   4.848   1.005 -1.2416 -1.5010  0.4429
    6CHTO  C109 2146   5.380   5.030   0.953 -0.2347  0.1472  0.4365
    6CHTO  H213 2147   5.312   5.092   0.893 -1.7501 -1.5352  0.3654
    6CHTO  C110 2148   5.524   5.091   0.973 -0.0918  0.4084  0.6845
    6CHTO  H214 2149   5.573   5.036   1.053 -1.2954 -1.1801  0.3540
    6CHTO   O78 2150   5.507   5.220   1.031 -0.2645  0.1093  0.1273
    6CHTO  H200 2151   5.466   5.209   1.115 -1.1061 -0.7609 -0.3852
    6CHTO  C111 2152   5.605   5.089   0.838  0.6039 -0.5445  0.4153
    6CHTO  H215 2153   5.562   5.164   0.770  1.5708 -0.3277  0.0303
    6CHTO   N19 2154   5.749   5.125   0.853  0.0228  0.1204  0.0596
    6CHTO  H207 2155   5.752   5.230   0.877  0.9828  1.0319 -3.8420
    6CHTO  H208 2156   5.787   5.075   0.941 -1.7916 -0.6512  0.4221
    6CHTO   O74 2157   5.315   5.010   1.087  0.2120 -0.0117  0.0565
    6CHTO  C115 2158   5.185   5.077   1.109 -0.2871  0.0888 -0.3890
    6CHTO  H219 2159   5.141   5.120   1.019 -0.2563  0.4325 -0.2422
    6CHTO   O76 2160   5.073   4.978   1.167 -0.1544 -0.6434  0.2201
    6CHTO  C122 2161   5.132   4.901   1.273 -0.2272 -0.3313  0.1999
    6CHTO  H226 2162   5.186   4.824   1.218  0.2808  0.7569 -0.8252
    6CHTO  C126 2163   5.017   4.834   1.350  0.3459 -0.4797  0.5426
    6CHTO   O85 2164   5.059   4.747   1.459  0.2233 -0.3526  0.0643
    6CHTO  H206 2165   5.078   4.786   1.542 -0.5356  1.0036 -0.3866
    6CHTO  C121 2166   5.228   4.987   1.374  0.6634  0.3603  0.2717
    6CHTO  H225 2167   5.208   4.954   1.479 -0.1232 -1.9738 -0.5783
    6CHTO   O81 2168   5.367   4.968   1.344 -0.2082  0.9482 -0.3968
    6CHTO  H202 2169   5.401   4.921   1.417 -0.3727  0.5520 -0.5723
    6CHTO  C119 2170   5.193   5.138   1.362 -0.2448  0.2934  0.2187
    6CHTO  H223 2171   5.092   5.137   1.401  0.1857 -0.3036  1.3510
    6CHTO  C117 2172   5.208   5.190   1.211 -0.0105 -0.3941  0.4225
    6CHTO  H221 2173   5.306   5.234   1.191  0.3828 -0.7198  1.5630
    6CHTO   N20 2174   5.110   5.305   1.191  0.3816 -0.1559  0.4254
    6CHTO  H209 2175   5.150   5.388   1.134  2.2652 -0.8013  0.7649
    6CHTO  H210 2176   5.016   5.265   1.156 -0.0189 -0.6844  2.0931
    6CHTO   O80 2177   5.273   5.247   1.469 -0.2281 -0.3265  0.0978
    6CHTO  C103 2178   5.214   5.279   1.606 -0.2119 -0.2310  0.3801
    6CHTO  H190 2179   5.261   5.370   1.644  1.2296 -0.2063 -1.4358
    6CHTO  C101 2180   5.056   5.279   1.620  0.0783 -0.0587 -0.6205
    6CHTO  H188 2181   5.012   5.187   1.582 -0.8621  0.4728 -0.8312
    6CHTO   O68 2182   5.009   5.400   1.530 -0.2524  0.2647 -0.4835
    6CHTO  H168 2183   4.938   5.369   1.477 -1.1320  3.7851 -1.5136
    6CHTO   C99 2184   5.023   5.292   1.778  0.3634 -0.7207 -0.0734
    6CHTO  H186 2185   5.061   5.384   1.826 -1.8903  0.5489 -0.6602
    6CHTO   N17 2186   4.875   5.284   1.803 -0.3346 -0.1127 -0.1768
    6CHTO  H174 2187   4.824   5.347   1.731 -1.5693 -1.1422 -0.2127
    6CHTO  H175 2188   4.841   5.182   1.790  0.3988 -0.2044 -1.5047
    6CHTO   C97 2189   5.096   5.172   1.844  0.6539 -0.5288 -0.2114
    6CHTO  H184 2190   5.057   5.075   1.811  0.5090 -0.2384 -0.8975
    6CHTO   O64 2191   5.236   5.182   1.827  0.1549  0.3222 -0.7161
    6CHTO  C104 2192   5.274   5.162   1.690  0.3212  0.0867 -0.4869
    6CHTO  H191 2193   5.225   5.071   1.655 -0.6021  0.4317 -0.1041
    6CHTO  C108 2194   5.424   5.140   1.663  0.6808 -0.8399  0.1159
    6CHTO   O71 2195   5.509   5.252   1.706  0.2902  0.5054 -0.2135
    6CHTO  H171 2196   5.559   5.224   1.780 -1.5739 -0.2607  0.7955
    6CHTO   O62 2197   5.082   5.171   1.984  0.1676  0.2171  0.1678
    6CHTO   C91 2198   5.082   5.038   2.048  0.2744 -0.0954  0.1203
    6CHTO  H178 2199   5.073   5.065   2.153 -0.9071 -0.8298  0.2112
    6CHTO   C92 2200   5.215   4.953   2.038  0.5751 -0.4079  0.1341
    6CHTO  H179 2201   5.250   4.958   1.934  0.1680 -0.3502 -0.0037
    6CHTO   O66 2202   5.309   5.034   2.103  0.0757  0.5733  0.2356
    6CHTO  H166 2203   5.390   4.988   2.115 -1.2456 -1.5386  1.3451
    6CHTO   C93 2204   5.213   4.806   2.097 -0.1015  0.0519  0.2292
    6CHTO  H180 2205   5.219   4.806   2.206  0.7337 -0.7182  0.1970
    6CHTO   N16 2206   5.332   4.728   2.053 -0.5214 -0.4378 -0.0893
    6CHTO  H172 2207   5.423   4.773   2.088 -0.9122 -0.0853  0.4857
    6CHTO  H173 2208   5.321   4.626   2.087  1.1248 -0.8146 -0.6561
    6CHTO   C94 2209   5.079   4.736   2.052 -0.0352  0.6551 -0.2868
    6CHTO  H181 2210   5.076   4.717   1.945  2.1584 -1.4580  0.0027
    6CHTO   O61 2211   4.965   4.822   2.093 -0.9135 -0.4860 -0.1414
    6CHTO   C95 2212   4.954   4.940   2.013 -0.3903 -0.8455  0.4302
    6CHTO  H182 2213   4.953   4.914   1.908 -0.3480 -3.1225  0.9585
    6CHTO  C106 2214   4.824   5.022   2.052  0.0986  0.3627  0.1906
    6CHTO   O69 2215   4.715   4.966   1.983  0.2156  0.4145 -0.1808
    6CHTO  H169 2216   4.636   4.974   2.032  0.2716 -0.5826  0.0818
    6CHTO   O63 2217   5.063   4.593   2.130 -0.4048 -0.4069  0.4337
    6CHTO   C96 2218   5.012   4.497   2.033 -0.0540 -0.7818 -0.7901
    6CHTO  H183 2219   5.032   4.523   1.930  0.1117 -1.1571 -0.8549
    6CHTO   C98 2220   4.864   4.459   2.045 -0.3192 -0.2095 -0.4379
    6CHTO  H185 2221   4.841   4.419   2.145  2.3685  2.9340  1.5476
    6CHTO   O67 2222   4.784   4.581   2.042 -0.7436  0.4801  0.6286
    6CHTO  H167 2223   4.799   4.644   2.110 -0.6526  1.0537  0.0754
    6CHTO  C102 2224   4.816   4.361   1.941  0.0119 -0.2845  0.5865
    6CHTO  H189 2225   4.815   4.424   1.851  0.2964  0.3732  1.0420
    6CHTO   N18 2226   4.678   4.305   1.955  0.1882 -0.1042  0.4287
    6CHTO  H176 2227   4.683   4.203   1.989 -0.3927 -0.4572 -0.5082
    6CHTO  H177 2228   4.625   4.372   2.021  1.1866  1.2919 -0.1563
    6CHTO  C105 2229   4.928   4.251   1.918  0.1316  0.1593  0.1102
    6CHTO  H192 2230   4.886   4.150   1.922 -2.5536  1.2069 -0.7370
    6CHTO   O65 2231   5.038   4.238   2.008 -0.0576 -0.3804 -0.0890
    6CHTO  C100 2232   5.094   4.364   2.060  0.1817 -0.1707 -0.1807
    6CHTO  H187 2233   5.105   4.353   2.169  1.1361 -1.8394 -0.4315
    6CHTO  C107 2234   5.227   4.372   1.994  0.2655  0.6430  0.0679
    6CHTO   O70 2235   5.305   4.265   2.050 -0.3836  0.0467 -0.0808
    6CHTO  H170 2236   5.372   4.253   1.985 -1.5050 -2.5347 -0.8079
    6CHTO   O57 2237   4.974   4.285   1.788  0.2515 -0.1222  0.1468
    6CHTO   C85 2238   4.928   4.218   1.671  0.6795 -0.5086  0.4845
    6CHTO  H157 2239   4.827   4.177   1.694  1.3937 -2.0132  1.0665
    6CHTO   C83 2240   5.018   4.095   1.645  0.3171 -0.1951  0.1365
    6CHTO  H155 2241   5.021   4.018   1.723  1.2256 -0.9490 -0.6383
    6CHTO   O56 2242   5.161   4.131   1.641 -0.0946 -0.2420 -0.2627
    6CHTO  H135 2243   5.207   4.117   1.721 -0.0346 -0.2833 -0.3051
    6CHTO   C81 2244   4.974   4.019   1.516 -0.2688 -0.1857 -0.9329
    6CHTO  H153 2245   4.874   3.979   1.535 -0.1174  0.9087  2.4735
    6CHTO   N14 2246   5.043   3.897   1.483 -0.0739 -0.2661  0.4041
    6CHTO  H141 2247   5.148   3.901   1.459  0.0276  0.6206  0.9954
    6CHTO  H142 2248   4.991   3.826   1.422  1.7409 -1.2546 -0.0455
    6CHTO   C79 2249   4.964   4.112   1.390  0.2571 -0.8086 -0.2133
    6CHTO  H151 2250   4.910   4.058   1.313 -2.1894 -2.4113  2.4901
    6CHTO   O52 2251   4.876   4.231   1.417 -0.6600  0.0857  0.3935
    6CHTO   C86 2252   4.924   4.299   1.537 -0.8749  0.0931  0.8239
    6CHTO  H158 2253   5.027   4.329   1.508 -1.5297  0.0483 -1.5872
    6CHTO   C90 2254   4.838   4.432   1.552  0.1770 -0.2059  0.2700
    6CHTO   O60 2255   4.894   4.543   1.484  0.1039  0.1033 -0.2923
    6CHTO  H138 2256   4.852   4.626   1.490 -0.3278 -0.0642 -0.9639
    6CHTO   O50 2257   5.084   4.168   1.340 -0.4290 -0.1418 -0.0326
    6CHTO   C73 2258   5.141   4.199   1.211 -0.1601  0.3449 -0.4752
    6CHTO  H145 2259   5.066   4.206   1.131 -1.0833 -1.5935  0.1990
    6CHTO   C74 2260   5.243   4.078   1.181  0.4891 -1.3367 -0.1900
    6CHTO  H146 2261   5.173   3.993   1.175 -1.7503  0.5115 -0.8213
    6CHTO   O54 2262   5.302   4.111   1.058  0.2026 -0.2895 -0.5115
    6CHTO  H133 2263   5.327   4.033   1.013 -0.5349  0.5308 -2.3960
    6CHTO   C75 2264   5.343   4.066   1.305  0.6263 -0.2552  0.0754
    6CHTO  H147 2265   5.281   4.031   1.389 -2.3138  2.5530 -0.8179
    6CHTO   N13 2266   5.449   3.963   1.286 -0.4429 -0.2434 -0.6070
    6CHTO  H139 2267   5.503   3.981   1.194 -1.0875  2.5139 -0.4847
    6CHTO  H140 2268   5.517   3.972   1.370 -0.3361  2.5888 -0.9653
    6CHTO   C76 2269   5.407   4.215   1.349  0.4219 -0.3508 -0.2938
    6CHTO  H148 2270   5.498   4.235   1.292 -0.7670  0.7783 -1.8504
    6CHTO   O49 2271   5.307   4.323   1.323 -0.1940 -0.1600 -0.0389
    6CHTO   C77 2272   5.210   4.336   1.222 -0.3519  0.1759 -0.2025
    6CHTO  H149 2273   5.258   4.364   1.128  1.5273  0.3638  0.7832
    6CHTO   C88 2274   5.107   4.448   1.253  0.0926 -0.0761  0.6612
    6CHTO   O58 2275   5.041   4.494   1.132  0.2681 -0.4795 -0.9250
    6CHTO  H136 2276   5.102   4.507   1.062  0.5430 -1.7158 -0.9224
    6CHTO   O51 2277   5.434   4.209   1.520 -0.3500  0.3407 -0.1511
    6CHTO   C78 2278   5.466   4.366   1.587  0.4259  0.3882 -0.4170
    6CHTO  H150 2279   5.496   4.350   1.693 -1.2232  0.3697  0.0566
    6CHTO   C80 2280   5.352   4.473   1.590  0.4231 -0.5950 -0.7366
    6CHTO  H152 2281   5.323   4.506   1.487 -0.0702  1.6489  0.0932
    6CHTO   O55 2282   5.238   4.411   1.661  0.7469  0.3034  0.5198
    6CHTO  H134 2283   5.160   4.462   1.655  0.8700  0.4632  0.2606
    6CHTO   C84 2284   5.402   4.600   1.670  0.4503  0.2156  0.5383
    6CHTO  H156 2285   5.422   4.567   1.772 -1.7800 -3.1352 -0.0638
    6CHTO   N15 2286   5.312   4.721   1.676  0.2415  0.2464 -0.3040
    6CHTO  H143 2287   5.336   4.788   1.755  1.4599  0.2681 -0.6833
    6CHTO  H144 2288   5.209   4.690   1.682  0.6663 -1.1655 -0.0794
    6CHTO   C87 2289   5.538   4.644   1.602  0.6278  0.0194  0.4614
    6CHTO  H159 2290   5.521   4.685   1.502  1.6070  3.2679  1.5342
    6CHTO   O53 2291   5.636   4.540   1.608  0.3913 -0.1243 -0.2861
    6CHTO   C82 2292   5.592   4.428   1.524  0.0003 -0.3976 -0.8356
    6CHTO  H154 2293   5.572   4.455   1.420 -2.4934  1.9765  0.1979
    6CHTO   C89 2294   5.704   4.318   1.529 -0.1742  0.8772  0.5756
    6CHTO   O59 2295   5.832   4.375   1.490 -0.8281  0.2143  0.2147
    6CHTO  H137 2296   5.837   4.396   1.398  1.2272  0.7727  0.4216
    6CHTO   O45 2297   5.606   4.762   1.691 -0.2286 -0.2151 -0.1568
    6CHTO   C67 2298   5.729   4.823   1.652 -0.5222  0.2885  0.5723
    6CHTO  H124 2299   5.814   4.755   1.660 -0.5747 -0.2528 -2.9612
    6CHTO   C65 2300   5.723   4.885   1.504 -0.2928  0.4805 -0.0495
    6CHTO  H122 2301   5.616   4.889   1.484 -0.4826 -3.5869 -0.1943
    6CHTO   O44 2302   5.787   4.792   1.418  0.1202  0.1724 -0.9984
    6CHTO  H102 2303   5.731   4.721   1.393  1.0838 -1.2238  0.6975
    6CHTO   C63 2304   5.784   5.031   1.499 -0.8222  0.0132 -0.1619
    6CHTO  H120 2305   5.712   5.097   1.548 -0.1383  0.4862  0.2094
    6CHTO   N11 2306   5.793   5.089   1.363 -0.5288 -0.9318  0.3757
    6CHTO  H108 2307   5.759   5.191   1.360  1.1183 -0.3990 -0.8785
    6CHTO  H109 2308   5.894   5.080   1.327 -0.0167  3.0818  0.5898
    6CHTO   C61 2309   5.911   5.049   1.591 -0.0988  0.2396 -0.4678
    6CHTO  H118 2310   5.924   5.157   1.604 -0.6384  0.2242  0.2129
    6CHTO   O40 2311   5.898   4.996   1.719 -0.1373  0.0594 -0.5758
    6CHTO   C68 2312   5.764   4.940   1.746  0.3517 -0.2751 -0.0661
    6CHTO  H125 2313   5.685   5.018   1.734 -2.4436 -2.5253  3.0663
    6CHTO   C72 2314   5.765   4.899   1.897 -0.2220  0.6499 -0.0269
    6CHTO   O48 2315   5.796   5.016   1.973 -0.6431 -0.3743  0.1012
    6CHTO  H105 2316   5.873   5.065   1.953 -0.5705 -0.2396  0.6806
    6CHTO   O38 2317   6.023   4.982   1.528  0.4248  0.0659 -0.6941
    6CHTO   C55 2318   6.156   5.012   1.576 -0.2867  0.1493  0.3512
    6CHTO  H112 2319   6.147   5.026   1.684 -3.6656  1.5884 -0.0579
    6CHTO   C56 2320   6.216   5.144   1.504 -0.3720 -0.0708  0.3019
    6CHTO  H113 2321   6.218   5.113   1.398  1.5259  0.4348  0.1802
    6CHTO   O42 2322   6.129   5.255   1.522  0.8119  0.3581  0.5027
    6CHTO  H100 2323   6.038   5.236   1.533  1.3953 -1.2574  3.0252
    6CHTO   C57 2324   6.359   5.177   1.561  0.7799 -0.1523 -0.8719
    6CHTO  H114 2325   6.338   5.218   1.660 -0.3813 -1.0383 -0.7375
    6CHTO   N10 2326   6.425   5.285   1.486 -0.1407  0.3830 -0.1136
    6CHTO  H106 2327   6.532   5.280   1.499 -0.0426  0.1814 -0.9602
    6CHTO  H107 2328   6.401   5.297   1.382  1.5373 -1.0323 -0.6868
    6CHTO   C58 2329   6.444   5.043   1.571  0.3963  0.0001 -0.1694
    6CHTO  H115 2330   6.477   5.014   1.469  0.9343  0.3693 -0.1052
    6CHTO   O37 2331   6.380   4.933   1.632  0.0799  0.0183  0.1984
    6CHTO   C59 2332   6.258   4.896   1.573 -0.1354  0.0809  0.0391
    6CHTO  H116 2333   6.282   4.863   1.472  1.6973 -1.6168  1.0000
    6CHTO   C70 2334   6.218   4.780   1.660  0.3910  0.4296  0.3447
    6CHTO   O46 2335   6.077   4.749   1.659 -0.0733  0.4122  0.0074
    6CHTO  H103 2336   6.061   4.667   1.700  0.2140 -0.0272 -0.7485
    6CHTO   O39 2337   6.577   5.083   1.680 -0.2702  0.3028 -0.0751
    6CHTO   C60 2338   6.690   4.991   1.656 -0.0701 -0.5591  0.5366
    6CHTO  H117 2339   6.660   4.886   1.656  4.4004 -1.9234  2.4006
    6CHTO   C62 2340   6.780   5.021   1.528 -0.7894 -0.2725  0.0654
    6CHTO  H119 2341   6.720   4.986   1.441 -0.9317  0.2717 -0.0611
    6CHTO   O43 2342   6.807   5.161   1.520  0.2778  0.2559  0.4927
    6CHTO  H101 2343   6.896   5.170   1.493 -0.2221 -0.3623 -1.4525
    6CHTO   C66 2344   6.915   4.938   1.529 -0.0254 -0.5925  0.1856
    6CHTO  H123 2345   6.889   4.832   1.530  0.8127 -0.8020  1.6736
    6CHTO   N12 2346   6.997   4.961   1.405  0.7178  0.6631 -0.0622
    6CHTO  H110 2347   6.936   4.962   1.316 -1.2637  2.6513  1.2483
    6CHTO  H111 2348   7.081   4.893   1.404  0.0036 -0.2313  0.1801
    6CHTO   C69 2349   6.995   4.961   1.665  0.2322 -0.5432  0.1799
    6CHTO  H126 2350   7.015   5.071   1.667 -2.2763  0.0129 -1.9999
    6CHTO   O41 2351   6.917   4.925   1.786  0.5602 -0.2104  0.0101
    6CHTO   C64 2352   6.775   5.003   1.785 -0.3451  0.2588  0.0912
    6CHTO  H121 2353   6.802   5.109   1.800 -1.9357  0.5673  0.8479
    6CHTO   C71 2354   6.685   4.967   1.907  0.1072 -0.2831  0.2544
    6CHTO   O47 2355   6.758   4.991   2.025 -0.3150  0.4579 -0.4095
    6CHTO  H104 2356   6.774   5.083   2.031 -1.7599  0.7749 -1.0879
    6CHTO   O34 2357   7.135   4.872   1.663 -0.3281  0.2083 -0.1278
    6CHTO   C49 2358   7.279   4.917   1.700 -0.1622 -0.1377  0.4336
    6CHTO   H91 2359   7.352   4.873   1.632  2.0579  1.4513  1.7434
    6CHTO   C47 2360   7.306   4.871   1.848 -0.1364 -0.3135 -0.4736
    6CHTO   H89 2361   7.416   4.883   1.861 -0.0999  0.9487 -1.8297
    6CHTO   O33 2362   7.278   4.730   1.849 -0.7419 -0.0844  0.7214
    6CHTO   H70 2363   7.187   4.717   1.829 -0.8003 -0.3043  1.1084
    6CHTO   C45 2364   7.219   4.967   1.956  0.0594  0.2938  0.0210
    6CHTO   H87 2365   7.111   4.960   1.935  0.4385 -0.1657 -1.8129
    6CHTO    N8 2366   7.242   4.923   2.102  0.3241 -0.0270  0.4779
    6CHTO   H75 2367   7.311   4.842   2.121  0.1105 -0.2213  0.4179
    6CHTO   H76 2368   7.285   5.009   2.153  0.6063  0.7427 -1.0253
    6CHTO   C43 2369   7.243   5.118   1.932  0.5572  0.3620 -0.0329
    6CHTO   H85 2370   7.173   5.173   1.994  1.5282 -0.7264  2.0818
    6CHTO   O29 2371   7.220   5.146   1.794  0.3805 -0.6517  0.0041
    6CHTO   C50 2372   7.289   5.068   1.691  0.4484 -0.2157 -0.2236
    6CHTO   H92 2373   7.234   5.094   1.600  0.6692  0.1621 -0.2532
    6CHTO   C54 2374   7.438   5.114   1.662 -0.2064  0.2129 -0.3265
    6CHTO   O36 2375   7.432   5.245   1.604 -0.1330  0.3150  0.2455
    6CHTO   H72 2376   7.371   5.299   1.651 -1.5537  0.7584 -2.0283
    6CHTO   O27 2377   7.375   5.177   1.966  0.0935 -0.1301  0.7983
    6CHTO   C37 2378   7.434   5.301   2.012 -0.0778  0.7838  0.5537
    6CHTO   H79 2379   7.519   5.322   1.945 -2.2796  0.9934 -2.2961
    6CHTO   C38 2380   7.350   5.424   1.987 -0.3929  0.3348 -0.2297
    6CHTO   H80 2381   7.255   5.413   2.042 -0.0787  0.3692  0.3118
    6CHTO   O31 2382   7.334   5.435   1.844 -0.4289  0.1582  0.4448
    6CHTO   H68 2383   7.252   5.474   1.823 -1.0163 -1.0830  0.3998
    6CHTO   C39 2384   7.422   5.558   2.043 -0.2820 -0.3166 -0.0926
    6CHTO   H81 2385   7.506   5.573   1.975 -1.6093  1.1958 -1.4589
    6CHTO    N7 2386   7.345   5.682   2.015 -0.7890  0.0719  0.0194
    6CHTO   H73 2387   7.315   5.720   2.111  0.2660 -1.3240  0.9186
    6CHTO   H74 2388   7.391   5.761   1.958 -0.8892  0.4634  0.4759
    6CHTO   C40 2389   7.475   5.538   2.195 -0.1287 -0.4695  0.2040
    6CHTO   H82 2390   7.392   5.542   2.266  0.9324  1.2626  1.3770
    6CHTO   O26 2391   7.540   5.413   2.197  0.0326  0.1462 -0.1084
    6CHTO   C41 2392   7.485   5.286   2.158  0.4525  0.1569 -0.1599
    6CHTO   H83 2393   7.394   5.264   2.216  1.3559 -1.2679  0.7649
    6CHTO   C52 2394   7.592   5.186   2.179  1.1976 -0.1287 -0.5522
    6CHTO   O35 2395   7.636   5.168   2.331  0.1673  0.1678  0.7534
    6CHTO   H71 2396   7.563   5.181   2.389 -2.0179 -2.9892 -1.1601
    6CHTO   O28 2397   7.583   5.633   2.222 -0.2822 -0.0002 -0.1222
    6CHTO   C42 2398   7.619   5.672   2.351 -0.5735 -0.5745 -0.6068
    6CHTO   H84 2399   7.704   5.740   2.339 -0.7003 -0.0953  1.0261
    6CHTO   C44 2400   7.670   5.559   2.443 -0.5615  0.0160  0.4527
    6CHTO   H86 2401   7.596   5.481   2.459 -0.7983 -0.0384 -0.8598
    6CHTO   O32 2402   7.781   5.491   2.378 -0.5549  0.3123 -0.2483
    6CHTO   H69 2403   7.830   5.438   2.438  1.1076  1.6555 -0.3785
    6CHTO   C48 2404   7.712   5.612   2.586  0.1596 -0.0451  0.3147
    6CHTO   H90 2405   7.795   5.682   2.577 -0.4192  0.5967 -0.1096
    6CHTO    N9 2406   7.758   5.507   2.681  0.2160 -0.1513  0.0654
    6CHTO   H77 2407   7.856   5.468   2.660  1.3407  1.4335  2.0621
    6CHTO   H78 2408   7.681   5.433   2.689  0.8961 -1.0573 -1.5822
    6CHTO   C51 2409   7.586   5.688   2.641  0.1637 -0.6295  0.0451
    6CHTO   H93 2410   7.499   5.621   2.645 -2.7004  2.6929 -2.8445
    6CHTO   O30 2411   7.555   5.802   2.553  0.2817 -0.1841 -0.4948
    6CHTO   C46 2412   7.503   5.757   2.419 -0.7587 -0.1866  0.3367
    6CHTO   H88 2413   7.425   5.684   2.440  0.7591 -1.4048  2.0111
    6CHTO   C53 2414   7.449   5.877   2.331  0.0246 -0.4500  0.1824
    6CHTO   O72 2415   7.555   5.970   2.315  0.0004 -0.0277 -0.4221
    6CHTO  H199 2416   7.546   6.050   2.267  0.5796  0.5295  0.4003
    6CHTO   O22 2417   7.620   5.750   2.763 -0.1071 -0.1918 -0.4225
    6CHTO   C31 2418   7.527   5.813   2.849  0.8316 -0.5010  0.5267
    6CHTO   H59 2419   7.580   5.823   2.946  0.8820 -0.6881  0.5188
    6CHTO   C29 2420   7.491   5.956   2.807 -0.1095 -0.1609 -0.2554
    6CHTO   H57 2421   7.447   5.955   2.706 -1.0750  0.5583  0.1485
    6CHTO   O21 2422   7.614   6.027   2.785  0.5353 -0.1632  0.0492
    6CHTO   H37 2423   7.589   6.115   2.766  0.9714 -0.4819 -2.2534
    6CHTO   C27 2424   7.389   6.022   2.907  0.2381  0.3139 -0.1818
    6CHTO   H55 2425   7.433   6.016   3.007  2.3154  0.3976 -1.0653
    6CHTO    N5 2426   7.346   6.162   2.878 -0.0982  0.0797  0.2681
    6CHTO   H43 2427   7.428   6.232   2.870  0.8656 -1.1868 -1.0153
    6CHTO   H44 2428   7.290   6.156   2.786  2.5973  1.0431 -1.4856
    6CHTO   C25 2429   7.263   5.928   2.906 -0.3446 -0.2439  0.2861
    6CHTO   H53 2430   7.229   5.908   2.803 -0.3276 -0.8268  0.3926
    6CHTO   O17 2431   7.305   5.797   2.962 -0.2546  0.7170 -0.0289
    6CHTO   C32 2432   7.399   5.730   2.876  0.0471  0.1537  0.6406
    6CHTO   H60 2433   7.343   5.712   2.785  1.9229 -0.3752 -0.4376
    6CHTO   C36 2434   7.434   5.602   2.961  0.4515 -0.0827  0.1629
    6CHTO   O25 2435   7.465   5.611   3.102 -0.2171  0.0966 -0.1075
    6CHTO   H40 2436   7.521   5.542   3.133 -0.1424  0.0200 -0.4216
    6CHTO   O15 2437   7.142   5.986   3.015 -0.0665 -1.1261 -0.3838
    6CHTO   C19 2438   7.018   6.062   3.023 -0.7995  0.5246  0.0697
    6CHTO   H47 2439   6.995   6.042   3.129  2.1015 -1.0672  0.4762
    6CHTO   C20 2440   7.022   6.214   2.999 -0.7129 -0.3664  0.6987
    6CHTO   H48 2441   7.048   6.239   2.895 -0.8601  3.5471  1.5384
    6CHTO   O19 2442   7.123   6.262   3.084 -0.3752  0.1138  0.1841
    6CHTO   H35 2443   7.094   6.316   3.155 -0.7567  0.6493 -0.3781
    6CHTO   C21 2444   6.885   6.279   3.025  0.3899 -0.3919  0.4457
    6CHTO   H49 2445   6.861   6.267   3.131  2.6535 -0.8145  0.9352
    6CHTO    N4 2446   6.882   6.427   2.996  0.1841  0.0203  0.4167
    6CHTO   H41 2447   6.788   6.472   3.026  1.3389  2.9531 -0.1877
    6CHTO   H42 2448   6.902   6.453   2.893 -0.2803  2.9586  1.0114
    6CHTO   C22 2449   6.776   6.201   2.940  0.6109  0.4576 -0.0899
    6CHTO   H50 2450   6.793   6.234   2.838 -1.5601  0.1378 -0.5706
    6CHTO   O14 2451   6.777   6.055   2.960 -0.3245 -0.5675 -0.5364
    6CHTO   C23 2452   6.905   5.995   2.929  0.5422 -0.0149  0.2031
    6CHTO   H51 2453   6.930   6.012   2.823  1.8470  1.2075  0.6867
    6CHTO   C34 2454   6.882   5.844   2.945  0.5172 -0.2524 -0.6668
    6CHTO   O23 2455   6.991   5.765   2.894  0.3087 -0.1498  0.0218
    6CHTO   H38 2456   7.077   5.801   2.905  0.8049 -1.6484  1.2776
    6CHTO   O16 2457   6.643   6.241   2.977  0.1025 -0.0269 -0.0131
    6CHTO   C24 2458   6.541   6.254   2.862  0.2539 -1.1919  0.7401
    6CHTO   H52 2459   6.572   6.193   2.777  1.3065 -2.4401  1.9880
    6CHTO   C26 2460   6.541   6.400   2.815 -0.3098 -0.1614 -0.1931
    6CHTO   H54 2461   6.523   6.461   2.906  1.6638 -0.2409  0.2838
    6CHTO   O20 2462   6.666   6.423   2.750 -0.1962  0.3866 -0.3395
    6CHTO   H36 2463   6.672   6.501   2.699 -1.3236  0.8571  0.2511
    6CHTO   C30 2464   6.423   6.422   2.713 -0.0055 -0.4732 -0.0525
    6CHTO   H58 2465   6.444   6.365   2.621  0.3517  1.1294 -0.9879
    6CHTO    N6 2466   6.415   6.565   2.674 -0.4862  0.0781 -0.1816
    6CHTO   H45 2467   6.475   6.632   2.735 -1.2736 -0.6533  1.4406
    6CHTO   H46 2468   6.451   6.575   2.573 -0.8050 -0.5006 -0.3497
    6CHTO   C33 2469   6.290   6.361   2.764 -0.6266  0.0457  0.1403
    6CHTO   H61 2470   6.258   6.428   2.845  0.2624  0.6254  0.0226
    6CHTO   O18 2471   6.310   6.232   2.813 -0.3806 -0.8870 -0.0822
    6CHTO   C28 2472   6.405   6.200   2.913 -0.0983 -0.2975 -0.5393
    6CHTO   H56 2473   6.376   6.254   3.003 -2.3368  1.5650 -2.3066
    6CHTO   C35 2474   6.410   6.040   2.916 -0.0779 -0.2506 -0.0856
    6CHTO   O24 2475   6.487   5.993   3.033  0.3820  0.1396  0.1518
    6CHTO   H39 2476   6.509   5.908   2.999  1.1476  0.7004 -0.7712
    6CHTO    O9 2477   6.183   6.365   2.670  0.3243  0.1720 -0.3422
    6CHTO   C13 2478   6.036   6.442   2.709 -0.6914  0.2509 -0.0554
    6CHTO   H26 2479   6.057   6.539   2.759 -1.3701  1.0773 -1.3445
    6CHTO   C11 2480   5.950   6.347   2.797 -0.1611  0.2264 -0.2968
    6CHTO   H24 2481   6.010   6.329   2.887  1.8891 -2.2846 -2.1102
    6CHTO    O8 2482   5.929   6.216   2.733  0.0352 -0.2762 -1.1839
    6CHTO    H3 2483   6.008   6.165   2.735  1.8240  2.3472  2.8019
    6CHTO    C9 2484   5.823   6.425   2.826 -0.5694  0.5916  0.1874
    6CHTO   H22 2485   5.851   6.527   2.857 -2.0208  0.9739  0.2832
    6CHTO    N2 2486   5.749   6.364   2.938  0.7421 -0.3206  0.0397
    6CHTO   H10 2487   5.816   6.356   3.022  0.2146 -0.3125  0.4648
    6CHTO   H11 2488   5.661   6.425   2.954  1.1940  0.7116 -1.2295
    6CHTO    C7 2489   5.734   6.435   2.697 -0.1665 -0.4065 -0.7425
    6CHTO   H20 2490   5.651   6.500   2.730 -0.1778  0.1693 -1.8672
    6CHTO    O4 2491   5.812   6.499   2.597  0.5378  0.4050  0.7053
    6CHTO   C14 2492   5.954   6.488   2.583  0.8407 -0.4226  0.8459
    6CHTO   H27 2493   5.988   6.589   2.551  0.8524 -1.6607 -3.3066
    6CHTO   C18 2494   5.968   6.394   2.461 -0.1506 -0.1610 -0.2702
    6CHTO   O13 2495   5.942   6.461   2.338  0.1455 -0.1793  0.4197
    6CHTO    H7 2496   5.969   6.417   2.260  0.9125  2.1685 -0.6812
    6CHTO    O2 2497   5.670   6.299   2.629  0.0218 -0.6651  0.2059
    6CHTO    C1 2498   5.539   6.312   2.572  0.3572  0.0416  0.0401
    6CHTO   H14 2499   5.528   6.221   2.509 -0.6542  1.3587 -1.7368
    6CHTO    C2 2500   5.514   6.447   2.479  0.0237  0.0149 -0.0400
    6CHTO   H15 2501   5.552   6.536   2.531  0.4150 -1.3132  1.9961
    6CHTO    O6 2502   5.602   6.431   2.366  0.1403 -0.1090  0.2408
    6CHTO    H1 2503   5.575   6.346   2.335 -0.7411  0.0885  0.4510
    6CHTO    C3 2504   5.358   6.457   2.436 -0.1154 -0.1190 -0.5568
    6CHTO   H16 2505   5.326   6.377   2.367 -1.0740 -0.4808  0.2890
    6CHTO    N1 2506   5.327   6.586   2.353  0.6264  0.7769  0.2331
    6CHTO    H8 2507   5.242   6.639   2.393 -0.0299 -0.8086  0.9789
    6CHTO    H9 2508   5.416   6.648   2.347  0.4133  0.9469 -1.2728
    6CHTO    C4 2509   5.268   6.436   2.558  0.3101 -0.6538  0.4345
    6CHTO   H17 2510   5.278   6.518   2.629  0.6751 -1.9905  1.9509
    6CHTO    O1 2511   5.294   6.312   2.623 -0.3802  0.4107 -0.0350
    6CHTO    C5 2512   5.424   6.295   2.679  0.1862  0.0243 -0.0815
    6CHTO   H18 2513   5.437   6.363   2.763  1.2378  0.4403 -0.5746
    6CHTO   C16 2514   5.444   6.152   2.732  0.2347 -0.0674  0.5144
    6CHTO   O11 2515   5.547   6.142   2.831 -0.0993  0.5360  0.7341
    6CHTO    H5 2516   5.631   6.149   2.789 -1.1577 -1.6200 -1.8303
    6CHTO    O3 2517   5.129   6.409   2.519 -0.2460  0.4620  0.1052
    6CHTO    C6 2518   5.041   6.453   2.629 -0.0354  0.5574  0.2989
    6CHTO   H19 2519   5.094   6.460   2.724  0.9582 -1.6629 -0.0441
    6CHTO    C8 2520   4.973   6.592   2.607  0.0886 -0.6524  0.4822
    6CHTO   H21 2521   4.909   6.580   2.520  1.3209 -0.1651 -0.4939
    6CHTO    O7 2522   5.075   6.686   2.581  0.3069  0.0587 -1.1027
    6CHTO    H2 2523   5.059   6.735   2.503 -1.7087  2.0081  0.4466
    6CHTO   C12 2524   4.872   6.626   2.726  0.1306 -0.1939 -0.0623
    6CHTO   H25 2525   4.928   6.632   2.821 -0.7613  0.5993  0.4228
    6CHTO    N3 2526   4.796   6.756   2.702  0.3995 -0.5878 -0.2155
    6CHTO   H12 2527   4.827   6.815   2.617 -1.0785 -1.3011 -1.2813
    6CHTO   H13 2528   4.688   6.754   2.702  0.3573  0.5461 -1.0996
    6CHTO   C15 2529   4.767   6.510   2.731 -0.5050  0.0555  0.5722
    6CHTO   H28 2530   4.706   6.511   2.641 -0.4649  1.5144  0.5538
    6CHTO   O10 2531   4.689   6.512   2.857  0.4368 -0.4295  0.0359
    6CHTO    H4 2532   4.607   6.557   2.848  0.1398 -1.1850 -1.1518
    6CHTO    O5 2533   4.836   6.385   2.744 -0.0343  0.0960 -0.2077
    6CHTO   C10 2534   4.933   6.348   2.647  0.3437  0.0399  0.3628
    6CHTO   H23 2535   4.885   6.334   2.551  1.1818 -1.0875  0.0873
    6CHTO   C17 2536   4.983   6.208   2.694 -0.2174 -0.1915 -0.0395
    6CHTO   O12 2537   4.870   6.121   2.695 -0.1134  0.4020  0.0183
    6CHTO    H6 2538   4.898   6.045   2.742 -0.5677  2.2226  3.4276
    7CHTO  H203 2539   4.688   2.259   2.537  2.4156  0.7793  1.6938
    7CHTO   O82 2540   4.751   2.268   2.469  0.2141 -0.1684 -0.5451
    7CHTO  C123 2541   4.864   2.328   2.523 -0.2338  0.9363 -0.5753
    7CHTO  H227 2542   4.829   2.427   2.558 -0.0605  0.7492  0.1434
    7CHTO   O77 2543   4.905   2.252   2.635 -0.7241 -0.0773 -0.5785
    7CHTO  C118 2544   5.009   2.309   2.713  0.0198  0.3295  0.1667
    7CHTO  H222 2545   4.989   2.413   2.743  0.4303 -0.2281  2.5256
    7CHTO  C125 2546   5.018   2.225   2.842 -0.0078 -0.0359 -0.0498
    7CHTO   O84 2547   5.027   2.084   2.834  0.1512 -0.0577  0.3773
    7CHTO  H205 2548   4.993   2.049   2.914 -0.1875 -0.1519  0.1894
    7CHTO  C114 2549   5.140   2.307   2.632  0.2363  0.0416  0.4919
    7CHTO  H218 2550   5.176   2.206   2.614 -3.5678 -1.0253 -1.5932
    7CHTO  C116 2551   5.120   2.384   2.494  0.4648  0.3898 -0.3137
    7CHTO  H220 2552   5.129   2.493   2.509 -0.6961  0.5423 -0.6874
    7CHTO   O79 2553   5.238   2.361   2.417 -0.0526 -0.4470  0.1071
    7CHTO  H201 2554   5.224   2.401   2.334  2.6869  0.8468  0.2029
    7CHTO  C120 2555   4.986   2.333   2.420 -1.2140  0.2416 -0.2365
    7CHTO  H224 2556   5.013   2.233   2.379 -2.2452  0.6529 -1.9883
    7CHTO   N21 2557   4.967   2.413   2.296  0.1179  0.1298 -0.1588
    7CHTO  H211 2558   4.862   2.430   2.275 -0.4609 -0.7275  1.9158
    7CHTO  H212 2559   5.019   2.375   2.209 -0.4492 -3.9142  1.1664
    7CHTO   O75 2560   5.238   2.359   2.725 -0.4819 -0.3967 -0.5110
    7CHTO  C112 2561   5.411   2.303   2.696 -0.2352 -0.3300 -0.1328
    7CHTO  H216 2562   5.411   2.265   2.593 -1.1533 -2.4185  0.6091
    7CHTO   O73 2563   5.442   2.199   2.783 -0.3194  0.8714  0.2351
    7CHTO  C113 2564   5.573   2.146   2.779  0.2658  0.1085 -0.5645
    7CHTO  H217 2565   5.589   2.099   2.680 -0.5219  1.0488 -1.1441
    7CHTO  C124 2566   5.567   2.032   2.882  0.4625  0.3007 -0.6660
    7CHTO   O83 2567   5.676   1.942   2.868 -0.1038 -0.0581 -0.2558
    7CHTO  H204 2568   5.651   1.859   2.902 -0.4327 -0.2535 -0.9523
    7CHTO  C109 2569   5.685   2.246   2.795 -0.2116  0.2264  0.5343
    7CHTO  H213 2570   5.701   2.273   2.900  1.1822 -1.4614  0.7772
    7CHTO  C110 2571   5.659   2.379   2.710 -0.7110  0.6111 -0.2979
    7CHTO  H214 2572   5.691   2.344   2.612  0.5325 -0.2310  0.3845
    7CHTO   O78 2573   5.748   2.484   2.750  0.5148  0.8899 -0.0003
    7CHTO  H200 2574   5.835   2.474   2.717  0.2498 -0.7197 -0.2635
    7CHTO  C111 2575   5.508   2.425   2.717 -0.0133 -0.0552 -0.4765
    7CHTO  H215 2576   5.486   2.474   2.813  0.1900  2.2299 -1.5745
    7CHTO   N19 2577   5.479   2.525   2.607 -0.5096  0.3470 -0.6790
    7CHTO  H207 2578   5.523   2.621   2.631 -0.1578  0.6076 -2.3363
    7CHTO  H208 2579   5.524   2.496   2.513 -2.4193  0.4372 -1.6307
    7CHTO   O74 2580   5.811   2.194   2.754 -0.2920 -0.6497  0.3779
    7CHTO  C115 2581   5.931   2.221   2.864  0.2477  0.5770 -0.6413
    7CHTO  H219 2582   5.919   2.316   2.916 -2.3747 -0.5819  0.9666
    7CHTO   O76 2583   5.920   2.127   2.979  0.2891  0.0727  0.4870
    7CHTO  C122 2584   6.013   2.129   3.084  0.1617  0.8737 -0.0812
    7CHTO  H226 2585   6.020   2.041   3.148  3.6028  2.0947  1.3189
    7CHTO  C126 2586   5.976   2.244   3.180 -0.3895  0.4071  0.3010
    7CHTO   O85 2587   5.854   2.220   3.243  0.1904  0.4731 -0.6243
    7CHTO  H206 2588   5.854   2.135   3.283  2.0108  0.4978 -0.4986
    7CHTO  C121 2589   6.159   2.148   3.027  0.3361 -0.0938 -0.5948
    7CHTO  H225 2590   6.193   2.253   3.032  1.1940 -0.4210  0.8847
    7CHTO   O81 2591   6.252   2.075   3.116 -0.3579 -0.6674  0.2077
    7CHTO  H202 2592   6.338   2.068   3.080 -1.3043 -2.5028 -1.8128
    7CHTO  C119 2593   6.164   2.107   2.877 -0.2837  0.0769 -0.2679
    7CHTO  H223 2594   6.266   2.114   2.838  0.1403  2.3790  1.1267
    7CHTO  C117 2595   6.075   2.209   2.785  0.0900  1.6051 -0.4652
    7CHTO  H221 2596   6.057   2.171   2.685 -2.3364 -0.8002  0.8004
    7CHTO   N20 2597   6.137   2.340   2.764 -0.2396  0.4797 -0.2901
    7CHTO  H209 2598   6.163   2.339   2.659  0.5411 -0.7451 -0.1008
    7CHTO  H210 2599   6.073   2.421   2.795  0.0308  1.6701 -2.6904
    7CHTO   O80 2600   6.140   1.975   2.856  0.7929 -0.1505 -0.4906
    7CHTO  C103 2601   6.144   1.916   2.722 -0.5332 -0.5876 -0.0220
    7CHTO  H190 2602   6.069   1.968   2.663 -1.0533 -0.5085  0.7072
    7CHTO  C101 2603   6.281   1.901   2.651  0.0821 -0.2149  0.3887
    7CHTO  H188 2604   6.353   1.858   2.721  0.6425  1.2167  0.7207
    7CHTO   O68 2605   6.338   2.040   2.624  0.7936  0.2898  0.8253
    7CHTO  H168 2606   6.372   2.067   2.708  0.5661  1.1775  0.6247
    7CHTO   C99 2607   6.265   1.814   2.524 -0.1218 -0.1051 -0.2846
    7CHTO  H186 2608   6.188   1.860   2.459 -1.9032 -2.5755  0.0080
    7CHTO   N17 2609   6.396   1.816   2.440  0.5109  0.4418  1.2521
    7CHTO  H174 2610   6.404   1.913   2.394  1.1174 -0.1336  0.1388
    7CHTO  H175 2611   6.378   1.734   2.372 -1.0947  0.2568  1.8660
    7CHTO   C97 2612   6.211   1.675   2.558 -0.0107  0.4193  0.5904
    7CHTO  H184 2613   6.284   1.623   2.622  1.5680  2.1935  0.2963
    7CHTO   O64 2614   6.085   1.694   2.628 -0.7694 -0.2827  0.4272
    7CHTO  C104 2615   6.092   1.764   2.752  0.0674  0.3431 -0.3109
    7CHTO  H191 2616   6.154   1.715   2.827  1.7953 -0.0894 -1.9816
    7CHTO  C108 2617   5.946   1.772   2.809  0.0492  0.0728 -0.2607
    7CHTO   O71 2618   5.880   1.641   2.809  0.0710  0.1259 -0.1457
    7CHTO  H171 2619   5.790   1.664   2.820  0.0241  0.2303 -0.7160
    7CHTO   O62 2620   6.170   1.592   2.441  0.5712 -0.3140  0.2830
    7CHTO   C91 2621   6.186   1.454   2.456 -0.5986 -0.7157  0.1715
    7CHTO  H178 2622   6.292   1.438   2.437 -0.0461 -1.2816  3.4927
    7CHTO   C92 2623   6.109   1.389   2.340  0.0770 -0.5808  0.3612
    7CHTO  H179 2624   6.146   1.440   2.251  0.4989  0.3313  1.0487
    7CHTO   O66 2625   6.154   1.249   2.319 -0.8115 -0.2376 -0.5183
    7CHTO  H166 2626   6.085   1.198   2.281 -0.6339 -1.6962  1.0746
    7CHTO   C93 2627   5.952   1.381   2.356 -0.3899 -0.1343 -0.3739
    7CHTO  H180 2628   5.914   1.288   2.309 -1.8714  0.5616 -0.6006
    7CHTO   N16 2629   5.884   1.494   2.289 -0.3958 -0.4315 -0.1869
    7CHTO  H172 2630   5.933   1.518   2.196  0.8398 -4.8205 -0.7854
    7CHTO  H173 2631   5.787   1.450   2.274  0.0936 -1.1085 -1.3575
    7CHTO   C94 2632   5.917   1.374   2.513  0.0622  0.3584  0.0708
    7CHTO  H181 2633   5.914   1.472   2.559 -0.4513  0.5633 -0.3993
    7CHTO   O61 2634   6.020   1.301   2.581 -0.3269 -0.4356 -0.0503
    7CHTO   C95 2635   6.143   1.380   2.591 -0.4345  0.1579 -0.1697
    7CHTO  H182 2636   6.135   1.451   2.673  1.6068 -0.1472  0.3358
    7CHTO  C106 2637   6.250   1.291   2.647 -0.1990  0.5305 -0.4192
    7CHTO   O69 2638   6.221   1.239   2.779  0.0858 -0.8094 -0.5343
    7CHTO  H169 2639   6.189   1.152   2.767  0.1044 -0.5562 -2.4991
    7CHTO   O63 2640   5.778   1.306   2.532  0.2637 -0.0572  0.1014
    7CHTO   C96 2641   5.705   1.334   2.657 -0.6061 -0.0768  0.5195
    7CHTO  H183 2642   5.686   1.441   2.657 -1.7658 -0.2758 -2.0624
    7CHTO   C98 2643   5.781   1.301   2.789  0.0769  0.1596  0.4478
    7CHTO  H185 2644   5.880   1.351   2.790 -0.3198  0.9794 -0.1833
    7CHTO   O67 2645   5.705   1.377   2.890 -0.6712 -0.0491  0.0989
    7CHTO  H167 2646   5.750   1.383   2.972 -1.3610  1.7949  0.3885
    7CHTO  C102 2647   5.779   1.146   2.828 -0.3619  0.7144  0.3696
    7CHTO  H189 2648   5.801   1.142   2.935 -0.9472 -0.7076  0.4533
    7CHTO   N18 2649   5.889   1.067   2.765  0.1859 -0.3176  0.2867
    7CHTO  H176 2650   5.862   0.965   2.743  0.0122  0.0265 -1.1512
    7CHTO  H177 2651   5.987   1.073   2.810  0.0873  1.1131  0.3464
    7CHTO  C105 2652   5.635   1.089   2.799 -0.4307 -0.0561  0.5508
    7CHTO  H192 2653   5.648   1.011   2.724  1.0329 -0.6591  1.3966
    7CHTO   O65 2654   5.537   1.189   2.767 -0.5716 -0.7694 -0.0331
    7CHTO  C100 2655   5.575   1.251   2.644 -0.8153  0.1965  0.8362
    7CHTO  H187 2656   5.596   1.175   2.567  1.1658  0.8173  0.7617
    7CHTO  C107 2657   5.453   1.330   2.597  0.4892 -0.9576 -0.2740
    7CHTO   O70 2658   5.462   1.359   2.460  0.1269  0.0385 -0.0001
    7CHTO  H170 2659   5.394   1.416   2.430 -0.2434 -0.7419 -0.6793
    7CHTO   O57 2660   5.605   1.013   2.937  0.1649 -0.1400  0.1011
    7CHTO   C85 2661   5.624   0.867   2.925  0.0465  0.7447  0.3191
    7CHTO  H157 2662   5.696   0.844   2.844  0.0780  0.6304  0.3787
    7CHTO   C83 2663   5.492   0.793   2.890  0.2813  0.9156  0.4733
    7CHTO  H155 2664   5.471   0.821   2.787 -0.8436 -0.3781  0.3362
    7CHTO   O56 2665   5.384   0.844   2.972 -0.5970  0.1273  0.2882
    7CHTO  H135 2666   5.332   0.770   2.996  0.6150 -0.6487  0.5944
    7CHTO   C81 2667   5.510   0.637   2.887  0.2839  0.3986  0.1978
    7CHTO  H153 2668   5.575   0.612   2.804 -0.6026  0.1501 -0.4296
    7CHTO   N14 2669   5.386   0.568   2.847  0.1450 -0.5476  0.4703
    7CHTO  H141 2670   5.411   0.469   2.814  1.9630  0.2405 -0.6056
    7CHTO  H142 2671   5.347   0.618   2.761  0.3589  0.5165  0.9894
    7CHTO   C79 2672   5.574   0.593   3.021  0.2589  0.9057 -0.2219
    7CHTO  H151 2673   5.602   0.489   3.006 -0.8598  0.8665 -2.2016
    7CHTO   O52 2674   5.688   0.667   3.063 -0.0032 -0.6165  0.5394
    7CHTO   C86 2675   5.670   0.808   3.065  0.0832 -0.2387 -0.2732
    7CHTO  H158 2676   5.598   0.817   3.149  0.7972 -2.2993  0.5844
    7CHTO   C90 2677   5.790   0.897   3.094  0.6057 -0.1608 -0.6269
    7CHTO   O60 2678   5.790   0.934   3.233 -0.2988  0.2915 -0.6639
    7CHTO  H138 2679   5.708   0.974   3.255  0.5369  1.7750 -0.1883
    7CHTO   O50 2680   5.478   0.589   3.133 -0.3363  0.1502  1.1188
    7CHTO   C73 2681   5.465   0.484   3.232 -0.2981 -0.7354 -0.0122
    7CHTO  H145 2682   5.562   0.435   3.243  0.1985 -0.2332 -1.8870
    7CHTO   C74 2683   5.360   0.374   3.189 -0.6435  0.0361  0.7216
    7CHTO  H146 2684   5.400   0.344   3.091  0.3999  2.7258  0.2732
    7CHTO   O54 2685   5.365   0.258   3.271 -0.1862  0.3595  0.1944
    7CHTO  H133 2686   5.359   0.273   3.363 -1.3331  3.0087 -0.2646
    7CHTO   C75 2687   5.216   0.438   3.179  0.0214  0.7659  0.5195
    7CHTO  H147 2688   5.222   0.509   3.096 -1.1031  0.3114  0.0434
    7CHTO   N13 2689   5.109   0.339   3.140  0.2101  0.1160  0.3503
    7CHTO  H139 2690   5.112   0.254   3.207  1.2812 -0.3213 -0.2411
    7CHTO  H140 2691   5.128   0.313   3.037  1.4380 -0.2467  0.6571
    7CHTO   C76 2692   5.190   0.513   3.320  0.1902  0.1691  0.1437
    7CHTO  H148 2693   5.187   0.442   3.403 -1.7728 -0.7064 -0.6525
    7CHTO   O49 2694   5.295   0.615   3.352  0.1800 -0.3072  0.0283
    7CHTO   C77 2695   5.422   0.549   3.368 -0.0506  0.3514 -0.2172
    7CHTO  H149 2696   5.420   0.474   3.448  1.1860  0.1327 -0.3765
    7CHTO   C88 2697   5.525   0.649   3.418 -0.4264  0.4598 -0.0257
    7CHTO   O58 2698   5.483   0.696   3.525 -0.4660  0.0223 -0.0339
    7CHTO  H136 2699   5.460   0.786   3.512 -1.1003  0.2207  2.2107
    7CHTO   O51 2700   5.058   0.593   3.317  0.3148 -0.1540 -1.1821
    7CHTO   C78 2701   4.975   0.588   3.460 -0.1437  0.4537 -0.2081
    7CHTO  H150 2702   5.022   0.522   3.535  1.4129  1.7978  0.0243
    7CHTO   C80 2703   4.840   0.532   3.435 -0.1421  0.5759  0.2142
    7CHTO  H152 2704   4.783   0.608   3.379  1.9446  1.8165 -0.2622
    7CHTO   O55 2705   4.851   0.417   3.353 -0.4828  0.0930  0.5600
    7CHTO  H134 2706   4.773   0.397   3.305  0.4381 -1.0513 -0.4934
    7CHTO   C84 2707   4.765   0.496   3.575 -0.6641  0.1988  0.0982
    7CHTO  H156 2708   4.822   0.421   3.629 -1.4924 -0.1076  0.5614
    7CHTO   N15 2709   4.626   0.430   3.571 -0.4970  0.1099 -0.0804
    7CHTO  H143 2710   4.597   0.430   3.468  2.4544  0.4522 -0.9760
    7CHTO  H144 2711   4.632   0.332   3.613  1.1549 -0.0803 -0.7250
    7CHTO   C87 2712   4.762   0.628   3.659 -0.2888 -0.2444  0.3434
    7CHTO  H159 2713   4.688   0.703   3.633 -0.8570 -0.5211  1.1435
    7CHTO   O53 2714   4.908   0.696   3.667  0.0305  0.3565 -0.3114
    7CHTO   C82 2715   4.957   0.721   3.538 -0.4107  0.1575  0.1590
    7CHTO  H154 2716   4.888   0.787   3.485 -1.6507  0.2247  1.7983
    7CHTO   C89 2717   5.089   0.796   3.548  0.3455  0.1202 -0.6604
    7CHTO   O59 2718   5.183   0.754   3.647 -0.0386 -0.3493 -0.0488
    7CHTO  H137 2719   5.255   0.813   3.663  0.2712 -0.8450  0.3935
    7CHTO   O45 2720   4.735   0.590   3.797  0.3122  0.4725  0.5447
    7CHTO   C67 2721   4.781   0.653   3.914  0.1107  0.4731  0.5536
    7CHTO  H124 2722   4.875   0.705   3.896 -0.4983  1.8031  1.1506
    7CHTO   C65 2723   4.676   0.756   3.962  0.4757  0.4490  0.3149
    7CHTO  H122 2724   4.577   0.713   3.944 -0.2985  1.6629  1.5815
    7CHTO   O44 2725   4.687   0.872   3.876 -0.1695  0.6948 -0.2521
    7CHTO  H102 2726   4.650   0.859   3.791 -2.2428 -0.1401  0.7528
    7CHTO   C63 2727   4.681   0.764   4.118 -0.0913  0.5746 -0.0175
    7CHTO  H120 2728   4.625   0.680   4.160 -2.4614  0.9877 -2.2273
    7CHTO   N11 2729   4.593   0.874   4.178  0.0861 -0.3283  0.2535
    7CHTO  H108 2730   4.656   0.934   4.240  0.8909 -1.3572  0.4527
    7CHTO  H109 2731   4.515   0.828   4.235 -0.2264 -0.6837 -0.4502
    7CHTO   C61 2732   4.830   0.757   4.161 -1.1532 -0.3233 -0.6119
    7CHTO  H118 2733   4.843   0.779   4.268  1.3635 -0.1306 -0.9433
    7CHTO   O40 2734   4.881   0.616   4.142  0.3158  1.2684  1.2856
    7CHTO   C68 2735   4.814   0.547   4.028 -0.1455 -0.4479 -0.3580
    7CHTO  H125 2736   4.716   0.510   4.066 -1.2601  1.1388 -1.6175
    7CHTO   C72 2737   4.904   0.422   4.000  0.0560  0.3292 -0.6134
    7CHTO   O48 2738   4.902   0.350   4.124  0.3244  0.6206  0.7653
    7CHTO  H105 2739   4.871   0.263   4.110  2.5920 -0.2014  0.6456
    7CHTO   O38 2740   4.923   0.843   4.085 -0.0791 -0.4382  1.3749
    7CHTO   C55 2741   5.037   0.910   4.147 -0.0164  0.4449 -0.5193
    7CHTO  H112 2742   5.059   0.865   4.245 -0.9346 -2.1550 -1.4613
    7CHTO   C56 2743   5.011   1.072   4.158 -0.8696  0.0356 -0.1596
    7CHTO  H113 2744   4.986   1.095   4.054 -0.9644 -0.3351 -0.2197
    7CHTO   O42 2745   4.892   1.094   4.240 -0.2202  0.3826 -0.2969
    7CHTO  H100 2746   4.828   1.027   4.223  2.1236 -1.3117 -2.7174
    7CHTO   C57 2747   5.148   1.148   4.209  0.1705  0.9711 -0.3047
    7CHTO  H114 2748   5.185   1.122   4.308 -2.4259  0.7070  0.6342
    7CHTO   N10 2749   5.128   1.292   4.210  0.2310 -0.0490  0.0903
    7CHTO  H106 2750   5.224   1.343   4.211  0.7403 -1.0167  0.9320
    7CHTO  H107 2751   5.072   1.316   4.299  0.0016 -1.2642  0.2763
    7CHTO   C58 2752   5.255   1.105   4.103 -0.5311  0.4249 -0.5947
    7CHTO  H115 2753   5.219   1.139   4.003 -3.4733  0.0380  0.2897
    7CHTO   O37 2754   5.275   0.964   4.114 -0.2952  0.7580  0.4298
    7CHTO   C59 2755   5.166   0.888   4.057 -0.5726 -0.0558 -0.5730
    7CHTO  H116 2756   5.148   0.928   3.957 -1.1089  0.2510 -0.3546
    7CHTO   C70 2757   5.212   0.738   4.054  0.7212 -0.1980 -0.7915
    7CHTO   O46 2758   5.117   0.635   4.020 -0.0559 -0.3321 -0.2163
    7CHTO  H103 2759   5.159   0.552   4.008 -0.3443 -0.6078  0.6400
    7CHTO   O39 2760   5.389   1.158   4.139  0.0370  0.0759 -0.1050
    7CHTO   C60 2761   5.487   1.138   4.034 -0.2163 -0.3772 -0.1265
    7CHTO  H117 2762   5.530   1.038   4.031 -0.3430 -0.4041 -1.1147
    7CHTO   C62 2763   5.445   1.159   3.887  0.4614 -0.4389  0.2432
    7CHTO  H119 2764   5.359   1.088   3.881  0.8477 -0.9275  0.3889
    7CHTO   O43 2765   5.391   1.291   3.852  0.1833  0.3564 -0.3369
    7CHTO  H101 2766   5.453   1.357   3.876  0.4070  0.2523 -0.6281
    7CHTO   C66 2767   5.565   1.113   3.795  0.2862 -0.1788  0.3242
    7CHTO  H123 2768   5.612   1.025   3.839 -0.3955  0.7091  2.9531
    7CHTO   N12 2769   5.529   1.086   3.656 -0.5402 -0.0391  0.0713
    7CHTO  H110 2770   5.564   1.157   3.582 -1.4968 -1.2208 -1.5572
    7CHTO  H111 2771   5.559   0.985   3.631  0.4169 -0.1726  1.7028
    7CHTO   C69 2772   5.675   1.217   3.807  0.0790 -0.0568 -0.2509
    7CHTO  H126 2773   5.643   1.321   3.784 -2.9663 -1.0069 -0.5778
    7CHTO   O41 2774   5.724   1.205   3.958  0.1263  0.2599 -0.0602
    7CHTO   C64 2775   5.613   1.229   4.064 -1.5411  0.0482 -0.1277
    7CHTO  H121 2776   5.590   1.338   4.068  2.0537  0.8759  0.7267
    7CHTO   C71 2777   5.664   1.189   4.208  0.4332  0.1193 -0.0035
    7CHTO   O47 2778   5.795   1.236   4.229 -0.3439  0.1004 -0.1699
    7CHTO  H104 2779   5.794   1.328   4.210  1.1421  0.7603  2.6250
    7CHTO   O34 2780   5.802   1.194   3.708  0.2124 -0.3950 -0.1520
    7CHTO   C49 2781   5.944   1.146   3.739 -0.6200 -0.1357 -0.2635
    7CHTO   H91 2782   5.978   1.208   3.821 -1.8883  0.3586 -0.0977
    7CHTO   C47 2783   6.026   1.178   3.610 -0.1783 -0.1245  0.4460
    7CHTO   H89 2784   6.133   1.173   3.639  0.0776  1.7621 -0.0668
    7CHTO   O33 2785   5.994   1.309   3.573  0.2513 -0.2445  0.0261
    7CHTO   H70 2786   6.042   1.338   3.498  0.0363 -0.8674 -0.3515
    7CHTO   C45 2787   6.002   1.081   3.481  0.4935  0.4426 -0.3686
    7CHTO   H87 2788   5.900   1.098   3.444 -0.5910 -0.2757  2.1821
    7CHTO    N8 2789   6.096   1.109   3.368  0.7774 -0.1805  0.2094
    7CHTO   H75 2790   6.060   1.161   3.280 -0.9786  1.4600  1.8493
    7CHTO   H76 2791   6.175   1.171   3.407  2.6269 -1.6605 -1.0500
    7CHTO   C43 2792   6.013   0.926   3.526  0.0119 -0.0034  0.0749
    7CHTO   H85 2793   5.981   0.865   3.441  1.5136 -1.1415  0.3032
    7CHTO   O29 2794   5.933   0.903   3.644  0.0860 -0.0793  0.6206
    7CHTO   C50 2795   5.947   0.990   3.765 -0.1681  0.2200  0.7460
    7CHTO   H92 2796   5.863   0.962   3.830 -1.1432  0.9466 -0.1773
    7CHTO   C54 2797   6.072   0.954   3.852 -0.3604  0.0125  0.1136
    7CHTO   O36 2798   6.056   1.009   3.983  0.1840 -0.6613 -0.1237
    7CHTO   H72 2799   6.111   0.967   4.046  1.7059 -0.3875 -1.2477
    7CHTO   O27 2800   6.148   0.877   3.558 -0.2723 -0.4370 -0.0555
    7CHTO   C37 2801   6.236   0.770   3.604  0.4974 -0.0061 -0.0826
    7CHTO   H79 2802   6.248   0.779   3.713  3.6331  1.5018 -0.5180
    7CHTO   C38 2803   6.186   0.628   3.571  1.1845 -0.2532  0.9606
    7CHTO   H80 2804   6.155   0.622   3.466  1.9064 -1.7667  0.8179
    7CHTO   O31 2805   6.068   0.596   3.647 -0.4761  0.3281  0.0075
    7CHTO   H68 2806   6.060   0.503   3.637 -1.1858  0.5195 -1.2862
    7CHTO   C39 2807   6.293   0.514   3.589  0.3827  0.0110  0.1956
    7CHTO   H81 2808   6.314   0.506   3.695  1.5749 -0.2558 -0.0458
    7CHTO    N7 2809   6.246   0.384   3.526  0.2791  0.3000  0.5365
    7CHTO   H73 2810   6.156   0.341   3.568  0.0325 -1.1523 -1.3774
    7CHTO   H74 2811   6.321   0.306   3.528  0.7743  0.6822 -1.6963
    7CHTO   C40 2812   6.428   0.560   3.518  0.2017 -0.0200 -0.0926
    7CHTO   H82 2813   6.418   0.556   3.409 -0.7662 -2.5975  0.0481
    7CHTO   O26 2814   6.463   0.689   3.564 -0.4440 -1.1008 -0.3521
    7CHTO   C41 2815   6.369   0.800   3.541  0.0125 -0.3404  0.7518
    7CHTO   H83 2816   6.353   0.813   3.433  1.8684 -1.5420  0.2991
    7CHTO   C52 2817   6.417   0.932   3.587 -0.1033  0.0552  0.8383
    7CHTO   O35 2818   6.527   0.960   3.520  0.7170 -0.4110  0.1948
    7CHTO   H71 2819   6.578   1.019   3.572  0.5350  1.2742 -1.4762
    7CHTO   O28 2820   6.535   0.469   3.551  0.0355 -0.6904 -0.0813
    7CHTO   C42 2821   6.656   0.462   3.476  0.2179 -0.4590 -0.0353
    7CHTO   H84 2822   6.723   0.418   3.550  0.3380 -1.0145 -0.4626
    7CHTO   C44 2823   6.719   0.600   3.430  0.6151  0.0471 -0.1944
    7CHTO   H86 2824   6.651   0.653   3.363  0.0573 -0.5085 -0.0674
    7CHTO   O32 2825   6.730   0.694   3.543 -0.1448  0.6756  0.6411
    7CHTO   H69 2826   6.712   0.783   3.522 -0.4649  0.7152  1.0728
    7CHTO   C48 2827   6.853   0.582   3.350  0.6974 -0.0494 -0.1840
    7CHTO   H90 2828   6.932   0.583   3.425  0.2459 -1.8962  0.3367
    7CHTO    N9 2829   6.880   0.711   3.265 -0.0071  0.2571  0.2941
    7CHTO   H77 2830   6.805   0.709   3.187 -1.1536 -0.9364  1.3928
    7CHTO   H78 2831   6.976   0.721   3.217  0.9678  1.2700  2.3614
    7CHTO   C51 2832   6.845   0.456   3.250 -0.7305  0.1332 -0.2464
    7CHTO   H93 2833   6.775   0.484   3.171  0.4524  1.3490 -0.8977
    7CHTO   O30 2834   6.804   0.339   3.314 -0.6747  0.0551  0.4391
    7CHTO   C46 2835   6.655   0.361   3.363 -1.0460  0.4313 -0.3376
    7CHTO   H88 2836   6.590   0.403   3.285 -0.0721  1.9670 -0.3548
    7CHTO   C53 2837   6.596   0.226   3.411 -0.5712 -0.3559 -0.3819
    7CHTO   O72 2838   6.618   0.123   3.312  0.3070  0.1371 -0.0476
    7CHTO  H199 2839   6.540   0.121   3.260  0.8150  2.4483 -0.9728
    7CHTO   O22 2840   6.973   0.428   3.191 -0.4052  0.5336  0.1921
    7CHTO   C31 2841   7.002   0.417   3.050 -0.1514  0.4688 -0.7012
    7CHTO   H59 2842   7.110   0.395   3.040  0.1399  1.5341 -0.0522
    7CHTO   C29 2843   6.923   0.295   2.992  0.2832 -0.0133  0.7408
    7CHTO   H57 2844   6.817   0.301   3.020  0.2546  0.4554  0.5259
    7CHTO   O21 2845   6.983   0.174   3.054 -0.8942  0.3422  0.3433
    7CHTO   H37 2846   7.041   0.127   2.998 -1.7610 -0.2546 -0.0572
    7CHTO   C27 2847   6.927   0.290   2.829  0.4325  0.1595 -0.0836
    7CHTO   H55 2848   7.029   0.291   2.790  0.5412 -1.3280  0.1371
    7CHTO    N5 2849   6.858   0.179   2.770  0.5460 -0.1331 -0.5056
    7CHTO   H43 2850   6.854   0.185   2.662  2.1933  1.4291 -0.5016
    7CHTO   H44 2851   6.767   0.153   2.821 -0.1462 -1.1439 -2.2145
    7CHTO   C25 2852   6.889   0.429   2.776 -0.3800 -0.0482 -0.7537
    7CHTO   H53 2853   6.792   0.463   2.816 -0.5577 -0.0902 -1.1449
    7CHTO   O17 2854   6.984   0.527   2.826  0.1846  1.0363  0.3432
    7CHTO   C32 2855   6.982   0.549   2.971  0.1276 -0.5300 -0.4356
    7CHTO   H60 2856   6.885   0.592   2.996 -1.6237 -3.2782 -2.2595
    7CHTO   C36 2857   7.104   0.646   3.002 -0.1566 -0.4751  0.5421
    7CHTO   O25 2858   7.082   0.767   2.935 -0.3142 -0.5354 -0.0451
    7CHTO   H40 2859   6.993   0.795   2.941  0.4840  1.9927  0.8243
    7CHTO   O15 2860   6.902   0.441   2.619 -0.9842  0.6284  0.1691
    7CHTO   C19 2861   6.883   0.546   2.529 -0.4409  0.2241 -0.8816
    7CHTO   H47 2862   6.922   0.488   2.443 -0.6504 -0.0430 -0.7942
    7CHTO   C20 2863   6.734   0.582   2.507  0.1442  0.1677  0.2773
    7CHTO   H48 2864   6.681   0.606   2.601 -2.0301  3.2942 -1.6069
    7CHTO   O19 2865   6.679   0.464   2.455 -0.0620  0.0758 -0.3728
    7CHTO   H35 2866   6.586   0.471   2.446 -0.1021  1.3306  0.9069
    7CHTO   C21 2867   6.718   0.703   2.405 -0.2855  0.3661 -0.5775
    7CHTO   H49 2868   6.758   0.671   2.308 -1.4492  1.4292 -1.4269
    7CHTO    N4 2869   6.576   0.748   2.389 -0.3075 -0.2006 -0.5946
    7CHTO   H41 2870   6.514   0.662   2.367 -0.7198  0.1295 -0.7212
    7CHTO   H42 2871   6.558   0.821   2.311 -1.1914 -1.4524 -1.5896
    7CHTO   C22 2872   6.809   0.822   2.448  0.2610  0.4336 -0.0413
    7CHTO   H50 2873   6.761   0.860   2.538  0.9197  0.8564  0.1372
    7CHTO   O14 2874   6.948   0.785   2.465  0.6306  0.4934 -0.0686
    7CHTO   C23 2875   6.974   0.675   2.549 -0.4656 -0.6686 -0.0313
    7CHTO   H51 2876   6.966   0.715   2.651  2.4972 -0.8184  0.3139
    7CHTO   C34 2877   7.125   0.632   2.538 -0.7586  0.3584 -0.4681
    7CHTO   O23 2878   7.217   0.736   2.557 -0.3648 -0.1019  0.7476
    7CHTO   H38 2879   7.177   0.809   2.601 -0.0799 -0.3918  1.4994
    7CHTO   O16 2880   6.811   0.923   2.347  0.0441  0.3941  0.1798
    7CHTO   C24 2881   6.829   1.085   2.416 -0.4435 -0.1650  0.6135
    7CHTO   H52 2882   6.842   1.081   2.525 -1.9384 -0.7638  0.7839
    7CHTO   C26 2883   6.694   1.160   2.390  0.6916  0.3314  0.2927
    7CHTO   H54 2884   6.668   1.148   2.283 -0.5658  0.1748  0.6141
    7CHTO   O20 2885   6.591   1.084   2.464 -0.0907 -0.3901 -0.2110
    7CHTO   H36 2886   6.572   1.124   2.546  2.3962 -1.1704  0.8024
    7CHTO   C30 2887   6.708   1.307   2.442 -0.2723 -0.4587  0.8659
    7CHTO   H58 2888   6.712   1.314   2.552 -1.9596  1.4663  0.8348
    7CHTO    N6 2889   6.582   1.384   2.407 -0.4598  0.0291  0.0308
    7CHTO   H45 2890   6.541   1.365   2.309 -1.4191  0.1457  0.4028
    7CHTO   H46 2891   6.507   1.369   2.483 -0.9742  2.8414  0.1238
    7CHTO   C33 2892   6.834   1.375   2.377  0.4688  0.6058 -0.0098
    7CHTO   H61 2893   6.820   1.376   2.268  0.9610  1.0636 -0.0754
    7CHTO   O18 2894   6.949   1.296   2.414  0.3714  0.3146 -0.0107
    7CHTO   C28 2895   6.957   1.161   2.358  0.9139 -0.0393  0.0571
    7CHTO   H56 2896   6.954   1.168   2.250  0.9957  2.0238  0.1724
    7CHTO   C35 2897   7.085   1.087   2.408  0.3473  0.4911 -0.3107
    7CHTO   O24 2898   7.201   1.112   2.325  0.4274 -0.1033 -0.5364
    7CHTO   H39 2899   7.248   1.187   2.357  1.0558 -0.8676  0.3213
    7CHTO    O9 2900   6.858   1.517   2.402  0.5917 -0.1043 -0.0182
    7CHTO   C13 2901   6.978   1.600   2.343 -0.2607  0.1389 -0.7905
    7CHTO   H26 2902   7.000   1.573   2.237 -2.2568 -2.5451 -0.5637
    7CHTO   C11 2903   7.108   1.567   2.442  0.1205  0.0830  0.5160
    7CHTO   H24 2904   7.149   1.466   2.426  1.2999  0.6932 -0.4112
    7CHTO    O8 2905   7.080   1.584   2.580  0.3369  0.5014  0.2788
    7CHTO    H3 2906   7.028   1.511   2.606 -1.3750  1.5556 -0.1206
    7CHTO    C9 2907   7.229   1.659   2.394  0.2673  0.0255 -0.1613
    7CHTO   H22 2908   7.233   1.643   2.285 -1.0913  0.2450 -0.2448
    7CHTO    N2 2909   7.362   1.616   2.445  0.1298 -0.3165 -0.2522
    7CHTO   H10 2910   7.364   1.511   2.470  1.0992  0.4161  3.0258
    7CHTO   H11 2911   7.446   1.635   2.380 -1.5669 -1.1190 -2.7594
    7CHTO    C7 2912   7.184   1.811   2.409 -0.5105 -0.2974  0.5328
    7CHTO   H20 2913   7.264   1.867   2.357  0.7462 -2.7491 -0.2615
    7CHTO    O4 2914   7.063   1.844   2.342  0.0674 -0.5961  0.1684
    7CHTO   C14 2915   6.950   1.757   2.343  0.3137  0.0400  0.0645
    7CHTO   H27 2916   6.909   1.783   2.244  1.8062 -1.4548 -0.9718
    7CHTO   C18 2917   6.852   1.796   2.450 -0.6807 -0.3529  1.1087
    7CHTO   O13 2918   6.808   1.925   2.430 -0.4167  0.2335  0.2739
    7CHTO    H7 2919   6.720   1.914   2.399 -0.8652 -0.4016  1.7337
    7CHTO    O2 2920   7.167   1.860   2.579 -0.0589 -0.2448  0.3227
    7CHTO    C1 2921   7.151   2.000   2.615  0.0265  0.2040 -0.3131
    7CHTO   H14 2922   7.069   2.055   2.564 -0.4923 -0.8100 -0.5753
    7CHTO    C2 2923   7.288   2.077   2.579  0.1573 -0.8630  0.0981
    7CHTO   H15 2924   7.362   2.006   2.618  0.5778 -0.5425 -0.1156
    7CHTO    O6 2925   7.306   2.091   2.441 -0.1654 -0.0844  0.6021
    7CHTO    H1 2926   7.315   2.007   2.399  0.6435  0.2101  0.1677
    7CHTO    C3 2927   7.299   2.219   2.667  0.1441  0.1071  0.3507
    7CHTO   H16 2928   7.242   2.301   2.620  3.1238  1.3507 -1.2438
    7CHTO    N1 2929   7.441   2.264   2.673 -0.4810  0.2451  0.2025
    7CHTO    H8 2930   7.480   2.297   2.577  0.3627  0.0081  0.4564
    7CHTO    H9 2931   7.500   2.177   2.698 -0.3139  0.1910 -0.3650
    7CHTO    C4 2932   7.245   2.209   2.817  0.5909 -0.9588  0.5159
    7CHTO   H17 2933   7.318   2.161   2.883  0.4031  0.1897  1.5861
    7CHTO    O1 2934   7.116   2.141   2.820 -0.2632  0.1113 -0.1592
    7CHTO    C5 2935   7.112   2.003   2.771  0.4138 -0.6430 -0.1044
    7CHTO   H18 2936   7.178   1.932   2.822  0.5275 -1.7997 -1.7874
    7CHTO   C16 2937   6.972   1.954   2.792 -0.0668 -0.0966  0.3451
    7CHTO   O11 2938   6.925   1.972   2.927 -0.0677 -0.4894 -0.1797
    7CHTO    H5 2939   6.835   1.947   2.926  0.3037 -1.9249  0.8167
    7CHTO    O3 2940   7.210   2.333   2.879  0.5521  0.1489  0.1282
    7CHTO    C6 2941   7.294   2.394   2.982  0.5218 -0.8085  0.8562
    7CHTO   H19 2942   7.390   2.342   2.984 -0.0606 -2.0129 -1.1181
    7CHTO    C8 2943   7.327   2.547   2.950 -0.5824 -0.4778 -0.1404
    7CHTO   H21 2944   7.230   2.597   2.943 -1.3626 -1.7442  1.3637
    7CHTO    O7 2945   7.390   2.541   2.826  0.4910 -0.1070 -0.4487
    7CHTO    H2 2946   7.340   2.487   2.768  1.8014 -1.1077 -0.6824
    7CHTO   C12 2947   7.413   2.612   3.063  0.0788 -0.6821  0.4491
    7CHTO   H25 2948   7.517   2.575   3.062  0.2321 -0.2989  1.6104
    7CHTO    N3 2949   7.452   2.753   3.033  0.0771  0.2203  0.1472
    7CHTO   H12 2950   7.532   2.798   3.089  1.3299 -0.9103 -0.7315
    7CHTO   H13 2951   7.378   2.831   3.018  0.6002  0.2531 -2.5715
    7CHTO   C15 2952   7.349   2.585   3.204 -0.3503 -0.3648 -0.1600
    7CHTO   H28 2953   7.266   2.653   3.220  0.3326  0.3443  0.3684
    7CHTO   O10 2954   7.454   2.606   3.316  0.1232  0.3487 -0.1982
    7CHTO    H4 2955   7.488   2.693   3.323 -0.4137  0.5577 -0.2092
    7CHTO    O5 2956   7.326   2.445   3.218 -0.0704  0.0375 -0.0543
    7CHTO   C10 2957   7.238   2.391   3.121  0.2374 -0.2609 -0.3868
    7CHTO   H23 2958   7.153   2.459   3.123 -0.7049 -1.4258 -0.2827
    7CHTO   C17 2959   7.200   2.254   3.183 -0.0652  1.1265 -0.5156
    7CHTO   O12 2960   7.093   2.199   3.107 -0.2575  0.1464 -0.1426
    7CHTO    H6 2961   7.071   2.122   3.155 -2.9236  0.7446 -0.2989
    8CHTO  H203 2962   7.213   8.395   2.206 -0.6259  2.4059  1.1788
    8CHTO   O82 2963   7.136   8.344   2.221  0.6925 -0.0124  0.0165
    8CHTO  C123 2964   7.031   8.399   2.129 -0.6576  0.5812  0.2854
    8CHTO  H227 2965   7.086   8.446   2.046  0.1245 -0.7855  0.0047
    8CHTO   O77 2966   6.951   8.285   2.085 -0.4657  0.1823  0.0362
    8CHTO  C118 2967   6.845   8.321   1.988  0.3304 -0.3403  0.2766
    8CHTO  H222 2968   6.893   8.380   1.909  0.0902 -0.9742 -0.3446
    8CHTO  C125 2969   6.796   8.182   1.927 -0.4018  0.0368 -0.1326
    8CHTO   O84 2970   6.907   8.112   1.863 -0.0080 -0.6046 -0.3292
    8CHTO  H205 2971   6.984   8.096   1.913  0.3495  2.5062  0.1963
    8CHTO  C114 2972   6.746   8.411   2.065  0.3717  0.8125 -0.2438
    8CHTO  H218 2973   6.700   8.349   2.143  1.0663 -0.6000 -0.9383
    8CHTO  C116 2974   6.807   8.531   2.138 -0.1703 -0.3236 -0.0349
    8CHTO  H220 2975   6.817   8.614   2.065 -0.9445 -1.9852 -2.0697
    8CHTO   O79 2976   6.712   8.578   2.235  0.1067  0.0636 -0.0166
    8CHTO  H201 2977   6.730   8.668   2.255  0.5615  0.2592 -1.3023
    8CHTO  C120 2978   6.941   8.495   2.206  0.3717  0.0614 -0.2327
    8CHTO  H224 2979   6.910   8.445   2.300  0.6126 -0.9885 -0.7070
    8CHTO   N21 2980   7.010   8.618   2.248 -0.8888  0.2897  0.0784
    8CHTO  H211 2981   7.102   8.596   2.301 -0.0614  0.2602 -1.3509
    8CHTO  H212 2982   6.951   8.681   2.312  0.5219  1.7677 -0.0418
    8CHTO   O75 2983   6.640   8.442   1.968 -0.0945  0.2957 -0.3237
    8CHTO  C112 2984   6.522   8.539   2.001 -0.0207 -0.3943 -0.3400
    8CHTO  H216 2985   6.566   8.625   2.054 -0.0238 -1.4701  1.4291
    8CHTO   O73 2986   6.429   8.469   2.083 -0.0029  0.2059 -0.3507
    8CHTO  C113 2987   6.314   8.553   2.109  0.1424 -0.2110 -0.4650
    8CHTO  H217 2988   6.346   8.652   2.148  1.3210 -0.3072 -1.1838
    8CHTO  C124 2989   6.235   8.478   2.216  0.1054  0.1705  0.0065
    8CHTO   O83 2990   6.201   8.341   2.187 -0.0163  0.0890  0.2985
    8CHTO  H204 2991   6.212   8.284   2.261 -2.1438 -0.8856 -0.1035
    8CHTO  C109 2992   6.235   8.589   1.981 -0.1468  0.4260  0.2509
    8CHTO  H213 2993   6.205   8.494   1.935 -1.0047 -0.2343  2.1116
    8CHTO  C110 2994   6.319   8.663   1.882 -0.1442  0.0300 -0.5292
    8CHTO  H214 2995   6.340   8.766   1.911  1.5535  0.0504 -1.7843
    8CHTO   O78 2996   6.243   8.684   1.762 -0.6800 -0.2689  0.5384
    8CHTO  H200 2997   6.192   8.609   1.739  0.1824 -1.4618  2.4256
    8CHTO  C111 2998   6.455   8.590   1.863  0.6156  0.1284  0.4080
    8CHTO  H215 2999   6.440   8.495   1.809  1.6888  0.6933 -0.8947
    8CHTO   N19 3000   6.557   8.666   1.791  0.5180 -0.3045  0.4369
    8CHTO  H207 3001   6.570   8.763   1.838 -0.4907 -0.4544  1.0298
    8CHTO  H208 3002   6.523   8.687   1.691 -0.1344  1.0675  0.9408
    8CHTO   O74 3003   6.114   8.660   2.020  1.0094  0.3504  0.6240
    8CHTO  C115 3004   5.984   8.591   1.971 -0.2806 -0.3706 -0.5010
    8CHTO  H219 3005   6.000   8.488   1.938  1.0225 -0.9171  1.7175
    8CHTO   O76 3006   5.884   8.579   2.088  0.0926  0.0461 -0.6709
    8CHTO  C122 3007   5.869   8.706   2.159 -0.0287 -0.1019  0.4605
    8CHTO  H226 3008   5.965   8.740   2.199 -0.4037  0.2732  1.0416
    8CHTO  C126 3009   5.774   8.686   2.286 -0.0936 -0.3375 -0.0067
    8CHTO   O85 3010   5.645   8.656   2.238 -0.0273  0.4596 -0.3474
    8CHTO  H206 3011   5.591   8.732   2.231 -1.2782 -0.1664  2.0303
    8CHTO  C121 3012   5.807   8.809   2.062  0.2165  0.0570 -0.4564
    8CHTO  H225 3013   5.706   8.767   2.043 -0.0627 -0.7949  2.6347
    8CHTO   O81 3014   5.801   8.936   2.126  0.4343 -0.4602  0.0001
    8CHTO  H202 3015   5.744   8.998   2.085 -0.4567  0.1314  2.1034
    8CHTO  C119 3016   5.883   8.825   1.924 -0.8265  0.3722  0.2168
    8CHTO  H223 3017   5.815   8.884   1.863 -1.6715  0.7398  1.4970
    8CHTO  C117 3018   5.915   8.678   1.857 -0.0738 -0.7459 -0.2163
    8CHTO  H221 3019   5.981   8.687   1.771  0.2919 -1.3271 -0.0046
    8CHTO   N20 3020   5.799   8.612   1.798 -0.2789 -0.3551  0.2566
    8CHTO  H209 3021   5.811   8.505   1.785  0.0868 -0.5656  2.1543
    8CHTO  H210 3022   5.784   8.652   1.699  1.6959  1.5130  0.6714
    8CHTO   O80 3023   6.012   8.912   1.919 -0.0290 -0.3411 -0.7354
    8CHTO  C103 3024   6.000   9.055   1.898  0.0803  0.0967  0.2205
    8CHTO  H190 3025   5.896   9.086   1.913 -0.0498  0.3667 -1.1498
    8CHTO  C101 3026   6.097   9.147   1.981 -0.3395  0.7021 -0.6025
    8CHTO  H188 3027   6.198   9.109   1.972 -0.4620 -0.3513  2.0662
    8CHTO   O68 3028   6.048   9.134   2.128 -0.1444 -0.0914 -0.3433
    8CHTO  H168 3029   6.108   9.180   2.183 -0.0044  0.8481 -1.2697
    8CHTO   C99 3030   6.102   9.301   1.928  0.1912  0.5210 -0.2794
    8CHTO  H186 3031   5.999   9.342   1.936  0.1087 -0.0236  1.7245
    8CHTO   N17 3032   6.193   9.393   1.999 -0.7055 -0.3673 -0.1863
    8CHTO  H174 3033   6.294   9.369   1.972 -1.0468 -1.4472 -0.5498
    8CHTO  H175 3034   6.160   9.491   1.971  0.6915 -0.0697 -0.8155
    8CHTO   C97 3035   6.135   9.305   1.774 -0.2602 -0.3791  0.1214
    8CHTO  H184 3036   6.238   9.270   1.757  0.6173  2.2478 -0.2697
    8CHTO   O64 3037   6.039   9.218   1.716  0.2382  0.3173  0.4024
    8CHTO  C104 3038   6.038   9.078   1.750  0.1867 -0.6147  0.9401
    8CHTO  H191 3039   6.137   9.033   1.736 -0.2650 -1.6228  0.8961
    8CHTO  C108 3040   5.945   9.018   1.649 -0.1903  0.6190  0.1695
    8CHTO   O71 3041   5.813   9.067   1.660  0.2116  0.2020  0.0520
    8CHTO  H171 3042   5.800   9.157   1.637 -0.1146 -0.0017 -0.5747
    8CHTO   O62 3043   6.109   9.435   1.713 -0.0458  0.3982  0.0819
    8CHTO   C91 3044   6.209   9.474   1.614 -0.2195 -0.5946 -0.1198
    8CHTO  H178 3045   6.296   9.410   1.621  0.3992  0.4504  2.2809
    8CHTO   C92 3046   6.274   9.602   1.661 -0.0858  0.4987  0.5836
    8CHTO  H179 3047   6.193   9.671   1.688 -0.7098  0.6897 -1.6807
    8CHTO   O66 3048   6.345   9.595   1.785 -0.7097  0.3537  0.6049
    8CHTO  H166 3049   6.364   9.683   1.810  0.9526  0.7807 -1.9179
    8CHTO   C93 3050   6.371   9.661   1.548 -0.6426 -0.6384 -0.0116
    8CHTO  H180 3051   6.448   9.583   1.533 -0.7491 -0.8752  0.6745
    8CHTO   N16 3052   6.442   9.787   1.587  0.0275 -0.0348 -0.4768
    8CHTO  H172 3053   6.371   9.868   1.585 -1.4494 -1.2932  0.1790
    8CHTO  H173 3054   6.487   9.778   1.684  1.0078  1.5336 -0.7697
    8CHTO   C94 3055   6.289   9.676   1.410  0.2200  0.1621  0.5006
    8CHTO  H181 3056   6.211   9.751   1.420 -0.5024 -0.7433  1.8265
    8CHTO   O61 3057   6.229   9.553   1.371 -0.2685 -0.4254  0.3495
    8CHTO   C95 3058   6.141   9.494   1.471 -0.2999  0.2141  0.7289
    8CHTO  H182 3059   6.050   9.552   1.483 -0.4328 -0.4592  3.1394
    8CHTO  C106 3060   6.102   9.349   1.424 -0.3491  0.2275 -0.6329
    8CHTO   O69 3061   6.025   9.358   1.309 -0.0814  0.0132  0.6698
    8CHTO  H169 3062   5.938   9.388   1.328 -0.0161  0.3797  0.4051
    8CHTO   O63 3063   6.388   9.725   1.287  0.6871 -0.2512 -0.1745
    8CHTO   C96 3064   6.310   9.787   1.148 -0.2324  0.0385  0.1324
    8CHTO  H183 3065   6.212   9.739   1.142  0.6209 -1.6762 -0.5155
    8CHTO   C98 3066   6.380   9.763   1.016 -0.4491  0.6217  0.3281
    8CHTO  H185 3067   6.483   9.801   1.008 -0.2830 -0.0909 -1.0596
    8CHTO   O67 3068   6.394   9.619   1.005 -0.0376 -0.2569 -0.1872
    8CHTO  H167 3069   6.415   9.591   0.918  0.1148  1.3632 -0.6713
    8CHTO  C102 3070   6.289   9.824   0.902  0.1304 -0.2760 -0.2391
    8CHTO  H189 3071   6.197   9.765   0.907 -0.2896  0.3061 -0.8699
    8CHTO   N18 3072   6.328   9.814   0.758  0.4301 -0.0016 -0.3473
    8CHTO  H176 3073   6.371   9.905   0.718  0.9456  0.1671  0.5885
    8CHTO  H177 3074   6.243   9.788   0.696  0.8949 -0.2704 -0.8782
    8CHTO  C105 3075   6.262   9.977   0.933  0.2442  0.0004 -0.3349
    8CHTO  H192 3076   6.304  10.047   0.860  1.2305  1.1464  1.3075
    8CHTO   O65 3077   6.313  10.013   1.059  0.0929 -0.5670 -0.3944
    8CHTO  C100 3078   6.284   9.935   1.178  0.0932 -0.1822 -0.1507
    8CHTO  H187 3079   6.350   9.974   1.257 -2.7178  0.6231  1.8818
    8CHTO  C107 3080   6.137   9.952   1.225 -0.0781 -0.7315 -0.2782
    8CHTO   O70 3081   6.106  10.088   1.278  0.6604 -0.0369 -0.0746
    8CHTO  H170 3082   6.120  10.143   1.203  0.2200 -2.2782 -1.8500
    8CHTO   O57 3083   6.107   9.991   0.910  0.0096 -0.0545  0.4974
    8CHTO   C85 3084   6.052  10.102   0.845 -0.5864  0.1360  0.9037
    8CHTO  H157 3085   6.136  10.164   0.807 -0.2765  0.5658  2.2649
    8CHTO   C83 3086   5.974  10.191   0.953  0.1797  1.0114 -1.0302
    8CHTO  H155 3087   6.038  10.221   1.036 -2.5690  0.2616  1.4434
    8CHTO   O56 3088   5.876  10.110   1.024  0.3766 -0.0266 -0.0365
    8CHTO  H135 3089   5.808  10.163   1.060  0.6677  0.3766 -0.0689
    8CHTO   C81 3090   5.917  10.317   0.888 -0.4343 -0.6427  0.1856
    8CHTO  H153 3091   6.001  10.375   0.849  0.5525 -0.9263  1.8549
    8CHTO   N14 3092   5.856  10.411   0.984 -0.2946  0.2523  0.1788
    8CHTO  H141 3093   5.913  10.482   1.041  0.3264  0.0404 -0.1848
    8CHTO  H142 3094   5.791  10.356   1.048 -0.9401  1.2943  0.4361
    8CHTO   C79 3095   5.818  10.272   0.772  0.6917 -0.0454  0.3341
    8CHTO  H151 3096   5.780  10.360   0.720  0.7015  0.0112  0.4208
    8CHTO   O52 3097   5.886  10.181   0.676 -0.2441  0.6659 -0.0171
    8CHTO   C86 3098   5.958  10.060   0.730 -0.0015 -0.5292  0.6661
    8CHTO  H158 3099   5.880   9.989   0.763 -0.5580 -0.1810  0.0977
    8CHTO   C90 3100   6.028   9.990   0.608  0.5670 -0.4435  0.2228
    8CHTO   O60 3101   5.951   9.948   0.492 -0.3784 -0.2605  0.3409
    8CHTO  H138 3102   6.008   9.901   0.434  0.3259 -0.4524  1.1617
    8CHTO   O50 3103   5.702  10.204   0.819  0.1328 -0.6276 -0.1685
    8CHTO   C73 3104   5.563  10.180   0.791 -0.5893  0.6244  0.0758
    8CHTO  H145 3105   5.549  10.182   0.682  0.5525 -0.4664 -0.1075
    8CHTO   C74 3106   5.466  10.289   0.842 -0.5358 -0.6004 -0.0255
    8CHTO  H146 3107   5.490  10.389   0.802  1.6835 -0.5376  1.3929
    8CHTO   O54 3108   5.336  10.254   0.797  0.6953 -0.0349 -0.9536
    8CHTO  H133 3109   5.327  10.221   0.710  1.5272  1.2121 -1.5263
    8CHTO   C75 3110   5.475  10.289   1.004 -0.1118  1.2132  0.1298
    8CHTO  H147 3111   5.573  10.331   1.031  1.7235 -2.4282 -0.5644
    8CHTO   N13 3112   5.375  10.383   1.066 -0.0942 -0.2786  0.2238
    8CHTO  H139 3113   5.411  10.479   1.035  1.7255 -1.4533 -1.3854
    8CHTO  H140 3114   5.274  10.362   1.033 -0.2478 -1.9816  1.6696
    8CHTO   C76 3115   5.481  10.141   1.063 -1.3036  0.2891  0.1233
    8CHTO  H148 3116   5.381  10.099   1.073 -0.1916 -2.5556 -0.2988
    8CHTO   O49 3117   5.561  10.043   0.986 -0.5333  0.4478 -0.1476
    8CHTO   C77 3118   5.528  10.043   0.844 -0.5445  0.4086 -0.1971
    8CHTO  H149 3119   5.421  10.027   0.832 -0.2500 -0.0685 -2.3076
    8CHTO   C88 3120   5.599   9.943   0.768  0.1953  0.0141  0.3701
    8CHTO   O58 3121   5.560   9.908   0.642 -0.0742  0.1440 -0.4710
    8CHTO  H136 3122   5.541   9.986   0.594 -3.2884 -1.1227 -1.4269
    8CHTO   O51 3123   5.572  10.143   1.214 -0.3914 -0.5616  0.1681
    8CHTO   C78 3124   5.520  10.015   1.304  0.0016  0.1190  0.2415
    8CHTO  H150 3125   5.491   9.928   1.240  2.5981 -1.5615  1.2894
    8CHTO   C80 3126   5.405  10.061   1.398 -0.2631  0.8348 -0.3828
    8CHTO  H152 3127   5.442  10.150   1.453 -0.5041  1.1743 -0.7638
    8CHTO   O55 3128   5.295  10.102   1.313 -0.3011 -0.1185 -0.3646
    8CHTO  H134 3129   5.269  10.033   1.255 -0.5826  0.6567 -1.1721
    8CHTO   C84 3130   5.366   9.948   1.508  0.1462 -0.1340  0.4193
    8CHTO  H156 3131   5.300   9.878   1.457 -1.5956 -0.0616  2.5266
    8CHTO   N15 3132   5.286  10.009   1.622 -0.0913  0.3400 -0.1536
    8CHTO  H143 3133   5.353  10.081   1.665  0.0876 -0.4754  0.9418
    8CHTO  H144 3134   5.198  10.053   1.582  0.3005  0.9350 -0.3763
    8CHTO   C87 3135   5.491   9.872   1.562  0.3885 -0.0351 -0.3330
    8CHTO  H159 3136   5.538   9.938   1.635 -3.9800  3.2518 -0.3160
    8CHTO   O53 3137   5.582   9.843   1.451 -0.0888 -0.3668  0.2065
    8CHTO   C82 3138   5.632   9.965   1.391 -0.0836  0.3640 -0.4041
    8CHTO  H154 3139   5.670  10.037   1.464 -0.6906 -1.6980  1.9877
    8CHTO   C89 3140   5.749   9.924   1.297 -0.1222  0.3309 -0.0981
    8CHTO   O59 3141   5.842   9.848   1.380  0.1571 -0.0399  0.5368
    8CHTO  H137 3142   5.891   9.795   1.320 -0.2969  1.2719 -1.0369
    8CHTO   O45 3143   5.458   9.744   1.623 -0.3594  0.4706 -0.1219
    8CHTO   C67 3144   5.555   9.688   1.714 -0.0605 -0.5652  0.4215
    8CHTO  H124 3145   5.546   9.579   1.708  1.8662 -0.8154  1.6752
    8CHTO   C65 3146   5.706   9.728   1.707 -0.2630  0.1654 -0.1298
    8CHTO  H122 3147   5.701   9.831   1.671 -1.5963 -0.5655 -2.0928
    8CHTO   O44 3148   5.758   9.647   1.608  0.1016  0.3522 -0.2162
    8CHTO  H102 3149   5.825   9.692   1.561  0.8060 -1.7721 -1.3250
    8CHTO   C63 3150   5.782   9.726   1.850 -0.1219 -0.2164 -0.1251
    8CHTO  H120 3151   5.750   9.816   1.901 -1.0482 -0.9386  0.5757
    8CHTO   N11 3152   5.934   9.742   1.842 -0.1881 -0.2404 -0.4294
    8CHTO  H108 3153   5.983   9.698   1.926 -0.7564 -0.7025 -0.3340
    8CHTO  H109 3154   5.966   9.833   1.796 -1.3200  0.4689  0.1551
    8CHTO   C61 3155   5.727   9.617   1.942 -0.1309  0.3024  0.2180
    8CHTO  H118 3156   5.767   9.646   2.040  2.6262 -1.4986 -0.3113
    8CHTO   O40 3157   5.580   9.631   1.958 -0.4298 -0.3743 -0.1294
    8CHTO   C68 3158   5.507   9.724   1.865  0.2541  0.3888 -0.4390
    8CHTO  H125 3159   5.525   9.828   1.898  1.2817  0.4690 -1.2354
    8CHTO   C72 3160   5.359   9.684   1.881  0.4129  0.4219  0.6701
    8CHTO   O48 3161   5.304   9.757   1.993  0.2412  0.0499 -1.0843
    8CHTO  H105 3162   5.211   9.755   1.975 -0.1326  2.8489  0.4320
    8CHTO   O38 3163   5.759   9.484   1.901 -0.0352  0.1282  0.6146
    8CHTO   C55 3164   5.701   9.360   1.946  0.3723 -0.0682 -0.1259
    8CHTO  H112 3165   5.777   9.281   1.947 -0.1790 -0.6148 -0.9460
    8CHTO   C56 3166   5.575   9.321   1.848 -0.0041 -0.1232  0.2967
    8CHTO  H113 3167   5.526   9.415   1.816 -0.3630  0.1255  1.5677
    8CHTO   O42 3168   5.628   9.255   1.733  0.4709 -0.0818  0.0198
    8CHTO  H100 3169   5.684   9.185   1.760  3.1560  1.5458 -1.0298
    8CHTO   C57 3170   5.462   9.239   1.912  0.1713 -0.4066  0.4028
    8CHTO  H114 3171   5.501   9.137   1.911  1.1381 -0.0642 -2.9220
    8CHTO   N10 3172   5.333   9.234   1.843  0.0019  0.2130 -0.2331
    8CHTO  H106 3173   5.351   9.265   1.742  2.2380 -0.7623 -0.1510
    8CHTO  H107 3174   5.293   9.133   1.847  1.5396 -0.4532 -1.4171
    8CHTO   C58 3175   5.440   9.290   2.056 -0.0083  0.0987 -0.2066
    8CHTO  H115 3176   5.430   9.401   2.049 -1.7606 -0.1013 -1.3125
    8CHTO   O37 3177   5.566   9.267   2.129  0.2441 -0.1197 -0.3270
    8CHTO   C59 3178   5.664   9.370   2.101 -0.2734  0.2553  0.2142
    8CHTO  H116 3179   5.627   9.468   2.129 -2.7186 -1.0374  1.7095
    8CHTO   C70 3180   5.779   9.337   2.188 -0.1722  1.0504  0.3729
    8CHTO   O46 3181   5.874   9.444   2.200  0.2591 -0.0962 -0.4429
    8CHTO  H103 3182   5.946   9.425   2.257  0.5122  0.3946 -0.5995
    8CHTO   O39 3183   5.325   9.222   2.140  0.0617 -0.3928  0.3517
    8CHTO   C60 3184   5.207   9.309   2.160  0.1164  0.8237 -0.4697
    8CHTO  H117 3185   5.216   9.398   2.098  2.2903 -0.0100 -1.3983
    8CHTO   C62 3186   5.090   9.227   2.114 -0.2527  0.3142 -0.0082
    8CHTO  H119 3187   5.092   9.200   2.006  0.0242 -1.1756  0.3509
    8CHTO   O43 3188   5.087   9.103   2.192 -0.8110  0.3063  0.0332
    8CHTO  H101 3189   5.036   9.037   2.148 -0.4914  1.0594 -1.5170
    8CHTO   C66 3190   4.960   9.319   2.145 -0.5956  1.0264 -0.3866
    8CHTO  H123 3191   4.992   9.419   2.116  1.9447  0.6045  0.7995
    8CHTO   N12 3192   4.834   9.280   2.077 -0.0139 -0.9163  0.2873
    8CHTO  H110 3193   4.871   9.199   2.016  1.9557 -0.6323  1.0957
    8CHTO  H111 3194   4.769   9.236   2.151 -1.5961 -0.2878 -0.7021
    8CHTO   C69 3195   4.949   9.340   2.298  0.3539  0.4522 -0.3952
    8CHTO  H126 3196   4.939   9.247   2.358 -0.4264  1.0511  0.4219
    8CHTO   O41 3197   5.077   9.418   2.342  0.1509 -0.3311  0.2156
    8CHTO   C64 3198   5.199   9.350   2.310  0.3161 -0.3117 -0.3191
    8CHTO  H121 3199   5.199   9.257   2.371 -0.8912  0.0090  0.1840
    8CHTO   C71 3200   5.320   9.434   2.361  0.2555  0.1958 -0.2218
    8CHTO   O47 3201   5.344   9.553   2.275 -0.1670  0.1603 -0.1895
    8CHTO  H104 3202   5.431   9.542   2.243  0.2903 -0.3302  1.1800
    8CHTO   O34 3203   4.810   9.423   2.345 -0.3119 -0.5258  0.1099
    8CHTO   C49 3204   4.797   9.565   2.348  0.6363 -0.6288  0.3324
    8CHTO   H91 3205   4.845   9.600   2.439 -0.5340 -3.0777  1.9539
    8CHTO   C47 3206   4.647   9.595   2.352 -0.4848 -0.0936 -0.8748
    8CHTO   H89 3207   4.646   9.704   2.371  0.3257 -0.2983  0.4093
    8CHTO   O33 3208   4.582   9.528   2.457 -0.0605  0.1509  0.3443
    8CHTO   H70 3209   4.495   9.499   2.435  0.5915 -1.7776  0.2275
    8CHTO   C45 3210   4.577   9.563   2.215  0.1291 -0.7049 -0.4297
    8CHTO   H87 3211   4.605   9.463   2.178 -1.0019 -1.4703  0.7345
    8CHTO    N8 3212   4.431   9.570   2.217  0.3982 -0.0233  0.0664
    8CHTO   H75 3213   4.391   9.503   2.291  0.1170  1.9002  1.6892
    8CHTO   H76 3214   4.392   9.543   2.120 -0.3649 -0.2022  0.4184
    8CHTO   C43 3215   4.636   9.667   2.103  0.2591  0.2857 -0.5781
    8CHTO   H85 3216   4.590   9.636   2.009 -1.4860  0.3990  0.2186
    8CHTO   O29 3217   4.780   9.650   2.103  0.3392  0.2108 -0.0615
    8CHTO   C50 3218   4.850   9.656   2.227 -0.0906  0.1935  0.1161
    8CHTO   H92 3219   4.951   9.615   2.216 -0.0543  0.3590 -0.1607
    8CHTO   C54 3220   4.875   9.805   2.279  0.5486 -0.2729 -0.1499
    8CHTO   O36 3221   4.964   9.874   2.203 -0.3314 -0.3507 -0.6892
    8CHTO   H72 3222   4.930   9.959   2.187 -1.5153 -0.3309  1.6489
    8CHTO   O27 3223   4.597   9.803   2.124  0.0685 -0.0371 -0.6180
    8CHTO   C37 3224   4.541   9.894   2.033 -0.3268 -0.3084 -0.4133
    8CHTO   H79 3225   4.497   9.848   1.944 -1.7810  1.7596 -0.7775
    8CHTO   C38 3226   4.430   9.970   2.114 -0.4018 -0.0715  0.1612
    8CHTO   H80 3227   4.478  10.019   2.201 -0.0544 -0.6595  0.3061
    8CHTO   O31 3228   4.330   9.870   2.149  0.4431  0.0227  0.1982
    8CHTO   H68 3229   4.362   9.810   2.214  1.2451  0.4357  0.1968
    8CHTO   C39 3230   4.368  10.073   2.020  0.5178 -0.5212  0.0838
    8CHTO   H81 3231   4.322  10.018   1.937  0.3217  0.4150 -0.4314
    8CHTO    N7 3232   4.261  10.158   2.092  0.6236  0.1194  0.9780
    8CHTO   H73 3233   4.218  10.216   2.012  0.2722 -0.2621  0.8892
    8CHTO   H74 3234   4.302  10.228   2.163 -0.6664 -0.3965  2.2576
    8CHTO   C40 3235   4.477  10.176   1.955 -0.0021 -0.3826  0.0596
    8CHTO   H82 3236   4.504  10.249   2.031 -0.2232 -0.1607 -0.0757
    8CHTO   O26 3237   4.592  10.104   1.906  0.5492  0.2742 -0.3962
    8CHTO   C41 3238   4.650   9.991   1.981 -0.3496  0.0822  0.3269
    8CHTO   H83 3239   4.702  10.036   2.067  0.5493 -0.6581  0.1752
    8CHTO   C52 3240   4.748   9.907   1.888  0.5285 -0.1762  0.0453
    8CHTO   O35 3241   4.846   9.998   1.824 -0.0585 -0.5213  0.3393
    8CHTO   H71 3242   4.888  10.046   1.893  0.9041 -0.9468  0.0559
    8CHTO   O28 3243   4.423  10.255   1.851  0.5496 -0.7246 -0.3180
    8CHTO   C42 3244   4.434  10.225   1.703  0.2592  0.7632 -0.4303
    8CHTO   H84 3245   4.368  10.303   1.664 -1.4181 -0.8899 -0.9420
    8CHTO   C44 3246   4.380  10.086   1.656  0.3031 -0.4940 -0.4158
    8CHTO   H86 3247   4.435  10.011   1.713  0.5181 -2.3027 -2.9173
    8CHTO   O32 3248   4.240  10.069   1.688 -0.0754  0.0544  0.3217
    8CHTO   H69 3249   4.220  10.104   1.772 -2.4830  1.5145 -0.7952
    8CHTO   C48 3250   4.410  10.054   1.498  0.4360  0.0124  0.3405
    8CHTO   H90 3251   4.349  10.116   1.432  0.1990 -0.7878 -0.1959
    8CHTO    N9 3252   4.357   9.918   1.455  0.2941 -0.1411 -0.3538
    8CHTO   H77 3253   4.377   9.905   1.350  0.6949  0.4748 -0.3534
    8CHTO   H78 3254   4.387   9.837   1.520  1.9259  2.0484  1.7192
    8CHTO   C51 3255   4.560  10.070   1.466 -0.1801  0.2735  0.2381
    8CHTO   H93 3256   4.618  10.011   1.537 -2.2969 -0.4051  1.4215
    8CHTO   O30 3257   4.587  10.204   1.481 -0.9741  0.1733 -0.1408
    8CHTO   C46 3258   4.579  10.251   1.638  0.3254  1.0436 -0.3491
    8CHTO   H88 3259   4.654  10.194   1.694  1.1685  2.4649  0.0045
    8CHTO   C53 3260   4.610  10.400   1.662  0.1903  0.3821  0.0598
    8CHTO   O72 3261   4.751  10.410   1.646 -0.3669 -0.1056 -0.3059
    8CHTO  H199 3262   4.778  10.500   1.649 -1.2752  0.2573 -2.3015
    8CHTO   O22 3263   4.594  10.043   1.334  0.0432 -0.3471 -0.3928
    8CHTO   C31 3264   4.712  10.066   1.251 -0.9264 -1.5407  0.2200
    8CHTO   H59 3265   4.742  10.172   1.259  0.2064 -1.5803 -2.7103
    8CHTO   C29 3266   4.830   9.988   1.292 -0.5276  0.4985 -0.4618
    8CHTO   H57 3267   4.815   9.880   1.302 -0.3550  0.6236  1.4379
    8CHTO   O21 3268   4.869  10.026   1.426 -0.1104  0.3983  0.2252
    8CHTO   H37 3269   4.822  10.099   1.460 -1.7277 -1.0604  1.2157
    8CHTO   C27 3270   4.950  10.011   1.197 -0.5762 -1.0983  0.5571
    8CHTO   H55 3271   4.981  10.116   1.197  1.3297 -1.6337 -2.0406
    8CHTO    N5 3272   5.064   9.925   1.213  0.2388 -0.3442  0.2203
    8CHTO   H43 3273   5.067   9.850   1.136 -1.2968 -0.3346  0.1462
    8CHTO   H44 3274   5.152   9.985   1.229  1.6374 -1.6150 -2.3212
    8CHTO   C25 3275   4.899   9.995   1.053 -1.0067  0.4108 -0.1471
    8CHTO   H53 3276   4.870   9.892   1.027  1.8258 -0.5861  0.4249
    8CHTO   O17 3277   4.790  10.081   1.036 -0.0905  0.2809  0.5097
    8CHTO   C32 3278   4.674  10.041   1.104  0.3305 -0.4738 -0.4173
    8CHTO   H60 3279   4.647   9.938   1.083  0.5690 -0.2856 -1.7206
    8CHTO   C36 3280   4.561  10.134   1.058 -0.0100  0.0328  0.2314
    8CHTO   O25 3281   4.537  10.128   0.916 -0.4352 -0.2350  0.0997
    8CHTO   H40 3282   4.471  10.191   0.895  0.2833  0.4602 -0.1292
    8CHTO   O15 3283   5.003  10.030   0.937  0.0754 -0.3430 -0.0620
    8CHTO   C19 3284   4.991   9.959   0.811 -0.3705  0.0383  1.0482
    8CHTO   H47 3285   4.927   9.872   0.834 -1.8798  1.2298  1.3735
    8CHTO   C20 3286   4.932  10.051   0.695  0.3447  0.6742 -0.0399
    8CHTO   H48 3287   4.988  10.144   0.676 -0.3091  0.8222 -1.2783
    8CHTO   O19 3288   4.797  10.092   0.727 -0.6005  0.3530 -0.2047
    8CHTO   H35 3289   4.754  10.024   0.776 -1.2126  2.1713  1.8130
    8CHTO   C21 3290   4.935   9.981   0.554  0.3451  0.5018 -0.1783
    8CHTO   H49 3291   4.868   9.895   0.546  1.0997 -0.0836 -0.2854
    8CHTO    N4 3292   4.887  10.075   0.446 -0.7499 -0.1342  0.1582
    8CHTO   H41 3293   4.882  10.043   0.343 -0.8935 -0.1352  0.1656
    8CHTO   H42 3294   4.927  10.175   0.447 -0.7064 -0.1341 -0.9501
    8CHTO   C22 3295   5.076   9.931   0.524 -0.1421  0.7061  0.4607
    8CHTO   H50 3296   5.148  10.012   0.509  1.1067 -0.2116  1.3117
    8CHTO   O14 3297   5.114   9.843   0.627  0.2511 -0.1083 -0.2686
    8CHTO   C23 3298   5.124   9.907   0.751  0.3848  0.0776 -0.4840
    8CHTO   H51 3299   5.198   9.988   0.740  0.2629  0.5448  1.8943
    8CHTO   C34 3300   5.186   9.811   0.860  0.6474  0.8912 -0.0080
    8CHTO   O23 3301   5.311   9.747   0.816 -0.1066  0.0461  0.0761
    8CHTO   H38 3302   5.381   9.804   0.841  0.0631 -0.8983  1.8733
    8CHTO   O16 3303   5.072   9.845   0.410  0.4469 -0.2365  0.2507
    8CHTO   C24 3304   5.201   9.775   0.378 -0.2388 -0.1585  0.0578
    8CHTO   H52 3305   5.258   9.749   0.467 -3.0463 -2.5534  1.2685
    8CHTO   C26 3306   5.288   9.860   0.281  0.1586  0.2497 -0.7088
    8CHTO   H54 3307   5.233   9.886   0.188 -0.7769  0.1809 -0.1849
    8CHTO   O20 3308   5.313   9.987   0.349 -0.1016  0.6501  0.7548
    8CHTO   H36 3309   5.390   9.981   0.402  0.4021 -1.1255 -0.1317
    8CHTO   C30 3310   5.425   9.793   0.242  0.7604  0.2809  0.5516
    8CHTO   H58 3311   5.480   9.776   0.336  2.3481  0.3572 -0.3380
    8CHTO    N6 3312   5.513   9.867   0.147  0.3277 -0.0223 -0.1332
    8CHTO   H45 3313   5.495   9.841   0.043 -0.4496  0.1562 -0.0456
    8CHTO   H46 3314   5.617   9.848   0.169  0.4083  0.8476  0.2349
    8CHTO   C33 3315   5.388   9.649   0.192  0.3159 -0.6803  0.1483
    8CHTO   H61 3316   5.337   9.651   0.094 -0.3424 -0.6240  0.4863
    8CHTO   O18 3317   5.297   9.584   0.283 -0.1752  0.1468 -0.0460
    8CHTO   C28 3318   5.171   9.651   0.300  0.4923 -1.2584 -0.3863
    8CHTO   H56 3319   5.133   9.685   0.204  0.4257  1.1756  0.4824
    8CHTO   C35 3320   5.073   9.556   0.366 -0.2601  0.1487  0.4252
    8CHTO   O24 3321   5.011   9.469   0.278 -0.0071 -0.1235  0.4691
    8CHTO   H39 3322   5.038   9.383   0.305  0.5582  0.3863  1.5459
    8CHTO    O9 3323   5.504   9.569   0.171 -0.0118  0.0649 -0.2811
    8CHTO   C13 3324   5.468   9.394   0.149  0.5926  0.2837  0.3214
    8CHTO   H26 3325   5.369   9.367   0.107  0.6314  0.4442  0.1244
    8CHTO   C11 3326   5.483   9.329   0.295 -0.2728  0.7108  0.1072
    8CHTO   H24 3327   5.380   9.326   0.335  0.5775  1.1072  2.4129
    8CHTO    O8 3328   5.568   9.407   0.379  0.3054 -0.1780 -0.1312
    8CHTO    H3 3329   5.647   9.433   0.335  0.5676  0.7026  0.8452
    8CHTO    C9 3330   5.544   9.185   0.274 -0.5315  0.3783  0.0634
    8CHTO   H22 3331   5.476   9.137   0.202  1.5719 -0.7107 -1.2652
    8CHTO    N2 3332   5.535   9.088   0.390 -0.2820 -0.2489  0.4328
    8CHTO   H10 3333   5.451   9.111   0.455  1.1963  0.6239  2.0805
    8CHTO   H11 3334   5.536   8.983   0.363  1.2709  0.1330 -1.0111
    8CHTO    C7 3335   5.687   9.193   0.210  0.5387 -0.1234  0.0890
    8CHTO   H20 3336   5.700   9.094   0.162  0.7731 -0.8304  1.5855
    8CHTO    O4 3337   5.703   9.298   0.107 -0.1753  0.0028 -0.3342
    8CHTO   C14 3338   5.580   9.345   0.045 -0.0333 -0.2575  0.8107
    8CHTO   H27 3339   5.546   9.257  -0.013  0.6316 -0.0909  0.1655
    8CHTO   C18 3340   5.606   9.452  -0.060 -0.1091 -0.0554  0.2612
    8CHTO   O13 3341   5.709   9.389  -0.147  0.3306  0.2459  0.1889
    8CHTO    H7 3342   5.787   9.370  -0.099  0.0369  0.2640  0.6873
    8CHTO    O2 3343   5.799   9.217   0.321  0.0310 -0.0077 -0.2838
    8CHTO    C1 3344   5.932   9.166   0.306 -0.6585 -0.0661 -0.0292
    8CHTO   H14 3345   5.999   9.248   0.342 -0.3199 -0.4716  0.2667
    8CHTO    C2 3346   5.973   9.116   0.158  0.1749  0.1686 -0.0007
    8CHTO   H15 3347   5.888   9.063   0.112  0.6506 -0.5615 -0.0392
    8CHTO    O6 3348   5.995   9.230   0.076  0.0246 -0.4692  0.3832
    8CHTO    H1 3349   5.939   9.246   0.003 -1.8969 -0.4528  1.8454
    8CHTO    C3 3350   6.109   9.035   0.146  0.4263 -0.5545 -0.6716
    8CHTO   H16 3351   6.196   9.101   0.160 -1.0741  1.1840  0.7086
    8CHTO    N1 3352   6.115   8.961   0.016  0.3248 -0.8736  0.4925
    8CHTO    H8 3353   6.019   8.952  -0.033  1.0215  0.6441 -1.1882
    8CHTO    H9 3354   6.177   9.017  -0.052 -2.4459  0.6331 -0.8654
    8CHTO    C4 3355   6.127   8.930   0.271 -0.1083 -0.2811 -0.3006
    8CHTO   H17 3356   6.062   8.844   0.256  0.0762 -0.9905  2.5669
    8CHTO    O1 3357   6.092   9.000   0.398 -0.5632 -0.1530 -0.5112
    8CHTO    C5 3358   5.952   9.048   0.411  0.4324 -0.5533  0.1808
    8CHTO   H18 3359   5.899   8.959   0.378 -0.4388 -0.2827  0.8528
    8CHTO   C16 3360   5.920   9.076   0.553 -0.1218 -0.3828 -0.2796
    8CHTO   O11 3361   6.010   9.160   0.628  0.0771  0.4146 -0.4044
    8CHTO    H5 3362   6.020   9.109   0.706  0.2686 -1.8099 -1.8333
    8CHTO    O3 3363   6.267   8.895   0.288  0.0322  0.7746 -0.3297
    8CHTO    C6 3364   6.286   8.747   0.290 -0.2498 -0.7684 -0.4610
    8CHTO   H19 3365   6.208   8.687   0.241  2.4301 -2.4060 -2.8772
    8CHTO    C8 3366   6.426   8.726   0.213  0.4172  0.6972  0.9339
    8CHTO   H21 3367   6.501   8.789   0.259  1.4466  0.1317  0.0417
    8CHTO    O7 3368   6.401   8.764   0.078 -0.7119 -0.2474  0.2250
    8CHTO    H2 3369   6.372   8.853   0.075  0.8631  0.2873  0.3417
    8CHTO   C12 3370   6.469   8.571   0.231 -0.7016  0.4316  0.1770
    8CHTO   H25 3371   6.398   8.515   0.166 -0.5524 -1.2637  1.4514
    8CHTO    N3 3372   6.604   8.540   0.179 -0.0475  0.4180  0.0529
    8CHTO   H12 3373   6.621   8.583   0.082 -0.8910  0.1331 -0.2170
    8CHTO   H13 3374   6.636   8.441   0.208 -0.8923 -0.3684 -1.6515
    8CHTO   C15 3375   6.450   8.531   0.381 -0.0958 -0.0123  0.8245
    8CHTO   H28 3376   6.524   8.575   0.448  3.0290 -1.0332 -1.8267
    8CHTO   O10 3377   6.470   8.377   0.402 -0.1916  0.0483 -0.5575
    8CHTO    H4 3378   6.547   8.350   0.357 -0.0248 -1.2534  0.5048
    8CHTO    O5 3379   6.328   8.551   0.439 -0.8146 -0.3165  0.5822
    8CHTO   C10 3380   6.295   8.694   0.441 -0.0238 -0.9487  0.2516
    8CHTO   H23 3381   6.373   8.748   0.494 -2.5287  2.0325  1.0932
    8CHTO   C17 3382   6.165   8.710   0.516  0.1925 -0.3848  0.0664
    8CHTO   O12 3383   6.050   8.657   0.455  0.2155 -0.2216  0.1766
    8CHTO    H6 3384   5.997   8.610   0.516 -0.7983  0.9165  0.1876
    9CHTO  H203 3385   7.704   4.420   1.391 -0.9436 -0.3010  0.4434
    9CHTO   O82 3386   7.659   4.396   1.312  0.6585 -0.1297 -0.5538
    9CHTO  C123 3387   7.749   4.370   1.205 -0.5506  0.3728  0.3769
    9CHTO  H227 3388   7.697   4.341   1.113 -1.0607 -0.5448  0.9369
    9CHTO   O77 3389   7.815   4.501   1.186  0.4379 -0.4939 -0.5165
    9CHTO  C118 3390   7.902   4.500   1.073  0.0467 -0.4950  0.2800
    9CHTO  H222 3391   7.836   4.465   0.992 -0.4973 -0.9744  0.9232
    9CHTO  C125 3392   7.948   4.645   1.031 -0.3393  0.0562  0.2727
    9CHTO   O84 3393   8.036   4.712   1.123  0.1147 -0.1727 -0.9570
    9CHTO  H205 3394   8.095   4.767   1.075  0.4410 -0.8394 -1.3172
    9CHTO  C114 3395   8.018   4.395   1.091 -0.1919  0.1531  0.0994
    9CHTO  H218 3396   8.075   4.424   1.179  3.1435 -1.5907 -1.3833
    9CHTO  C116 3397   7.966   4.251   1.127  0.0829 -0.8321 -0.2926
    9CHTO  H220 3398   7.917   4.209   1.036 -0.5319  1.7262 -1.1758
    9CHTO   O79 3399   8.080   4.168   1.160  1.0700 -0.2007  0.1604
    9CHTO  H201 3400   8.101   4.162   1.251  1.6383 -1.7033 -0.0427
    9CHTO  C120 3401   7.857   4.259   1.243  0.6846  0.0963 -0.9988
    9CHTO  H224 3402   7.915   4.286   1.334  0.2832 -0.7354 -0.4917
    9CHTO   N21 3403   7.801   4.119   1.256  1.1751 -0.1969 -0.2902
    9CHTO  H211 3404   7.711   4.116   1.196 -0.5917  2.1692  2.0862
    9CHTO  H212 3405   7.777   4.100   1.360  1.4104  0.9769 -0.0131
    9CHTO   O75 3406   8.098   4.403   0.974  0.0990  0.4693  0.0068
    9CHTO  C112 3407   8.023   4.330   0.823 -0.0348  0.0930  0.3330
    9CHTO  H216 3408   7.918   4.360   0.817 -0.1605 -0.4250 -0.0174
    9CHTO   O73 3409   8.038   4.191   0.829 -0.2985  0.1470  0.1416
    9CHTO  C113 3410   7.967   4.125   0.720 -0.3572  0.1992  0.3756
    9CHTO  H217 3411   7.863   4.162   0.715 -0.3933 -0.0890 -1.3896
    9CHTO  C124 3412   7.960   3.976   0.758 -0.5792  0.4714 -0.1486
    9CHTO   O83 3413   7.880   3.964   0.877  0.0794  0.4034 -0.2026
    9CHTO  H204 3414   7.882   3.874   0.903 -0.9116  0.0266 -1.3743
    9CHTO  C109 3415   8.027   4.160   0.582  0.5012  0.1731 -0.3568
    9CHTO  H213 3416   8.130   4.121   0.584 -0.5667 -2.9145 -2.0154
    9CHTO  C110 3417   8.026   4.317   0.569 -0.4980  0.1703 -0.7484
    9CHTO  H214 3418   7.921   4.346   0.562  0.0336  2.7025  1.2238
    9CHTO   O78 3419   8.087   4.342   0.443 -0.0247  0.4654  0.1877
    9CHTO  H200 3420   8.047   4.420   0.409  1.1579  1.2955  0.6863
    9CHTO  C111 3421   8.095   4.392   0.690  0.1688 -0.0373  0.1853
    9CHTO  H215 3422   8.201   4.363   0.696  0.0625 -0.1925  1.6178
    9CHTO   N19 3423   8.096   4.539   0.693  0.3327 -0.4881  0.2531
    9CHTO  H207 3424   7.995   4.576   0.687  0.5324  0.2800  1.5711
    9CHTO  H208 3425   8.134   4.575   0.787  1.7783 -0.4435 -0.3393
    9CHTO   O74 3426   7.958   4.090   0.475 -0.4370 -0.1963  0.3351
    9CHTO  C115 3427   8.039   4.007   0.388  0.0694  0.0968  0.0129
    9CHTO  H219 3428   8.143   4.041   0.384  0.3385 -0.8323 -1.0712
    9CHTO   O76 3429   8.051   3.844   0.442 -0.3769  0.5441  0.4290
    9CHTO  C122 3430   7.927   3.779   0.423 -0.7038 -0.3976  0.1933
    9CHTO  H226 3431   7.860   3.826   0.495  0.0881 -0.5233  1.0150
    9CHTO  C126 3432   7.950   3.634   0.475  0.5811  0.2707 -0.0414
    9CHTO   O85 3433   7.974   3.618   0.612 -0.0277  0.4897  0.3122
    9CHTO  H206 3434   7.896   3.594   0.659  0.4315  2.9158  2.4215
    9CHTO  C121 3435   7.878   3.787   0.273 -0.7372  0.0217  0.2373
    9CHTO  H225 3436   7.962   3.744   0.214 -0.6601 -0.2191  0.5222
    9CHTO   O81 3437   7.764   3.705   0.258 -0.1028  0.0607 -0.1927
    9CHTO  H202 3438   7.699   3.723   0.323  0.9490  2.4443  0.2595
    9CHTO  C119 3439   7.857   3.934   0.225 -0.1046  0.0910  0.1678
    9CHTO  H223 3440   7.836   3.928   0.118 -1.6717  0.1070  0.4673
    9CHTO  C117 3441   7.990   4.020   0.239 -0.0427 -0.7985  0.8297
    9CHTO  H221 3442   7.977   4.128   0.224 -0.6062 -0.6568  2.2829
    9CHTO   N20 3443   8.098   3.980   0.141  0.5967 -0.0279 -0.0849
    9CHTO  H209 3444   8.055   3.989   0.043 -0.0399  0.9078  0.2740
    9CHTO  H210 3445   8.140   3.881   0.148  0.7516  0.1281  1.4279
    9CHTO   O80 3446   7.731   4.007   0.281  0.0852  0.5047  0.3073
    9CHTO  C103 3447   7.656   4.116   0.192 -0.8101  0.0476  1.3547
    9CHTO  H190 3448   7.565   4.146   0.244 -2.0699  0.4473 -0.9699
    9CHTO  C101 3449   7.738   4.244   0.146  0.2096 -0.7197  0.0226
    9CHTO  H188 3450   7.828   4.210   0.094  0.8250 -0.3961  0.8475
    9CHTO   O68 3451   7.790   4.338   0.274 -0.0687 -0.6450 -0.6272
    9CHTO  H168 3452   7.723   4.400   0.293 -0.9170 -1.8725  0.4832
    9CHTO   C99 3453   7.654   4.330   0.041 -0.0639 -0.3051 -0.2973
    9CHTO  H186 3454   7.561   4.365   0.090  1.1158  1.1006  0.9927
    9CHTO   N17 3455   7.730   4.450  -0.009 -0.2786  0.0105  0.0067
    9CHTO  H174 3456   7.678   4.541   0.016 -0.0059  0.4014 -0.8145
    9CHTO  H175 3457   7.826   4.445   0.040 -0.0989  0.4445 -0.2986
    9CHTO   C97 3458   7.609   4.234  -0.076 -0.1029 -0.3859 -0.9111
    9CHTO  H184 3459   7.696   4.191  -0.128  1.2616  0.8545  0.2775
    9CHTO   O64 3460   7.527   4.134  -0.012  0.3111 -0.4319 -0.0328
    9CHTO  C104 3461   7.610   4.042   0.060 -0.3684  0.4449 -0.1642
    9CHTO  H191 3462   7.699   4.011   0.005 -1.2672  0.4911 -1.6628
    9CHTO  C108 3463   7.531   3.921   0.098 -0.2024  0.0335  0.6019
    9CHTO   O71 3464   7.453   3.866  -0.017  0.0902 -0.0149  0.1141
    9CHTO  H171 3465   7.445   3.773  -0.007 -1.0916  0.1848  1.1154
    9CHTO   O62 3466   7.528   4.310  -0.163  0.0872 -0.1673 -0.4906
    9CHTO   C91 3467   7.513   4.265  -0.299  0.0532 -0.0077 -0.3689
    9CHTO  H178 3468   7.606   4.214  -0.327 -1.0216 -1.2026 -1.8799
    9CHTO   C92 3469   7.493   4.394  -0.384  0.2976 -0.2345 -0.8965
    9CHTO  H179 3470   7.574   4.466  -0.369  0.7719 -0.9851  0.2577
    9CHTO   O66 3471   7.495   4.342  -0.521 -0.2525 -0.2181 -0.1950
    9CHTO  H166 3472   7.419   4.343  -0.575 -0.4181 -0.6925  0.0268
    9CHTO   C93 3473   7.356   4.467  -0.356 -0.1995  0.1559 -0.8444
    9CHTO  H180 3474   7.319   4.525  -0.442  0.0056  1.8736  0.1978
    9CHTO   N16 3475   7.368   4.575  -0.254 -0.7426 -0.3689  0.7089
    9CHTO  H172 3476   7.326   4.543  -0.160 -1.6018 -1.0214  0.1083
    9CHTO  H173 3477   7.467   4.619  -0.250 -0.3751 -1.0213 -0.7726
    9CHTO   C94 3478   7.243   4.365  -0.306 -0.1382 -0.2381 -0.1219
    9CHTO  H181 3479   7.247   4.349  -0.198  0.0473  2.0221  0.2283
    9CHTO   O61 3480   7.272   4.239  -0.369 -0.2555 -0.2931  0.2531
    9CHTO   C95 3481   7.384   4.172  -0.314  0.4237 -0.1649 -0.6694
    9CHTO  H182 3482   7.358   4.132  -0.216  3.8916 -0.3520  0.2686
    9CHTO  C106 3483   7.426   4.046  -0.401 -0.0014  0.6496  0.2889
    9CHTO   O69 3484   7.487   3.932  -0.333 -0.3706 -0.7797  0.6560
    9CHTO  H169 3485   7.519   3.871  -0.396 -1.1462 -0.1616 -0.3556
    9CHTO   O63 3486   7.114   4.409  -0.343 -0.1707 -0.5389 -0.2789
    9CHTO   C96 3487   6.994   4.369  -0.245 -0.7529  0.0770  0.5202
    9CHTO  H183 3488   7.013   4.269  -0.205 -1.6804 -1.1516 -1.9682
    9CHTO   C98 3489   6.863   4.367  -0.337  0.0119 -0.6981  0.0404
    9CHTO  H185 3490   6.870   4.438  -0.421 -1.4322  1.5305  1.7479
    9CHTO   O67 3491   6.864   4.237  -0.398  0.7491 -0.1947  0.4923
    9CHTO  H167 3492   6.947   4.197  -0.413  1.5415  1.2757  0.9392
    9CHTO  C102 3493   6.724   4.399  -0.264  0.3980 -0.7916 -0.2446
    9CHTO  H189 3494   6.706   4.313  -0.197  1.6935 -1.7537 -1.1006
    9CHTO   N18 3495   6.606   4.402  -0.354  0.5548 -0.4502  0.1842
    9CHTO  H176 3496   6.612   4.485  -0.423 -0.2971 -0.1826  0.4224
    9CHTO  H177 3497   6.580   4.308  -0.400  2.5933 -0.9985  0.1068
    9CHTO  C105 3498   6.747   4.519  -0.165  0.8809  0.8740  0.1814
    9CHTO  H192 3499   6.766   4.613  -0.217  0.6232  0.9895  0.2959
    9CHTO   O65 3500   6.853   4.486  -0.074  0.7381 -0.4808 -0.0415
    9CHTO  C100 3501   6.984   4.471  -0.123  0.3861 -0.5448  0.0745
    9CHTO  H187 3502   7.008   4.570  -0.165  0.1169 -0.1087  0.9389
    9CHTO  C107 3503   7.073   4.447  -0.004  0.6123 -0.1873  0.8290
    9CHTO   O70 3504   7.072   4.541   0.105  0.5983 -0.8484  0.1733
    9CHTO  H170 3505   7.128   4.509   0.173  2.2246 -1.0071 -1.2045
    9CHTO   O57 3506   6.618   4.545  -0.081  0.0891 -0.0779 -0.3113
    9CHTO   C85 3507   6.588   4.679  -0.048  0.3150 -0.1237  0.0179
    9CHTO  H157 3508   6.601   4.741  -0.139  1.8845  0.6380  0.7309
    9CHTO   C83 3509   6.688   4.738   0.048  0.2199 -0.1754 -0.0283
    9CHTO  H155 3510   6.790   4.731   0.009  0.4945 -0.3697  0.7075
    9CHTO   O56 3511   6.697   4.652   0.169  0.1642 -0.2856  0.1392
    9CHTO  H135 3512   6.720   4.702   0.245 -1.0909  0.2360  0.1941
    9CHTO   C81 3513   6.646   4.889   0.067  0.0812  0.0719  0.1968
    9CHTO  H153 3514   6.648   4.940  -0.030  0.9076  3.1391  1.7578
    9CHTO   N14 3515   6.754   4.963   0.135 -0.1029  0.2827 -0.4232
    9CHTO  H141 3516   6.721   5.051   0.186 -0.6671  0.0188 -0.3346
    9CHTO  H142 3517   6.811   4.902   0.202  1.0065  1.9791  0.2130
    9CHTO   C79 3518   6.505   4.908   0.125  0.5574  0.3453 -0.0975
    9CHTO  H151 3519   6.481   5.014   0.118 -0.3303  0.1666  0.2553
    9CHTO   O52 3520   6.407   4.832   0.041 -0.3604 -0.2743  0.1637
    9CHTO   C86 3521   6.444   4.697   0.007  0.4546 -0.3989  0.3057
    9CHTO  H158 3522   6.426   4.652   0.107 -1.7569  0.2519  0.2347
    9CHTO   C90 3523   6.340   4.637  -0.093 -0.2800  0.6256  0.2492
    9CHTO   O60 3524   6.207   4.648  -0.035 -0.2719 -0.6244 -0.0961
    9CHTO  H138 3525   6.183   4.736  -0.055 -0.7492 -0.7594 -0.1108
    9CHTO   O50 3526   6.494   4.868   0.261  0.3974  1.0801  0.0567
    9CHTO   C73 3527   6.439   4.869   0.393  0.1443  0.0827  0.6998
    9CHTO  H145 3528   6.340   4.824   0.381 -0.2481  1.1509 -0.2048
    9CHTO   C74 3529   6.430   5.018   0.439 -0.5312  0.3589 -0.0318
    9CHTO  H146 3530   6.379   5.086   0.369  0.2456  1.1093  0.1210
    9CHTO   O54 3531   6.351   5.016   0.557 -0.4525  0.3672 -0.0155
    9CHTO  H133 3532   6.323   5.101   0.585 -1.1085  0.9336 -2.2876
    9CHTO   C75 3533   6.582   5.068   0.466 -0.5409 -0.5196  0.0492
    9CHTO  H147 3534   6.636   5.069   0.371 -2.9715 -0.4457 -1.3672
    9CHTO   N13 3535   6.600   5.201   0.524 -0.0512  0.0975 -0.3581
    9CHTO  H139 3536   6.544   5.280   0.478 -1.9735 -0.2195  1.3615
    9CHTO  H140 3537   6.557   5.200   0.623 -0.0533  2.3174 -0.3204
    9CHTO   C76 3538   6.676   4.962   0.554  0.4224  0.2309 -0.7363
    9CHTO  H148 3539   6.650   4.967   0.660 -0.3540 -0.9622 -0.8490
    9CHTO   O49 3540   6.657   4.823   0.509 -0.6298 -0.6796 -0.1038
    9CHTO   C77 3541   6.516   4.785   0.497  0.8777  0.3003  0.7609
    9CHTO  H149 3542   6.474   4.807   0.595  1.5839  0.0427  1.1279
    9CHTO   C88 3543   6.504   4.624   0.476  0.3972 -0.8221  1.1218
    9CHTO   O58 3544   6.555   4.557   0.583 -0.1025 -0.5102  0.3248
    9CHTO  H136 3545   6.496   4.488   0.603 -0.7482 -0.3534 -0.9731
    9CHTO   O51 3546   6.846   4.969   0.501 -0.6668 -0.3242  0.2983
    9CHTO   C78 3547   6.946   4.910   0.615 -0.3093  1.1458 -0.4788
    9CHTO  H150 3548   6.889   4.856   0.694  1.7339  0.4502  0.5651
    9CHTO   C80 3549   7.017   5.027   0.681 -0.4135 -0.7042  0.0100
    9CHTO  H152 3550   7.069   5.083   0.600 -0.6940 -2.2997 -1.3031
    9CHTO   O55 3551   6.911   5.102   0.739  0.7221 -0.7732  0.2603
    9CHTO  H134 3552   6.896   5.191   0.712 -2.5299 -1.0103  1.0579
    9CHTO   C84 3553   7.116   4.976   0.786  0.6622  0.8433  0.5441
    9CHTO  H156 3554   7.063   4.913   0.857  0.7446  0.0752 -0.0742
    9CHTO   N15 3555   7.180   5.089   0.862 -0.7389  0.0559 -0.5014
    9CHTO  H143 3556   7.245   5.155   0.808 -0.5774  0.2592 -0.0588
    9CHTO  H144 3557   7.224   5.067   0.957 -0.8382  2.2734  0.0803
    9CHTO   C87 3558   7.218   4.885   0.711  0.6086 -0.0278  0.1294
    9CHTO  H159 3559   7.285   4.942   0.646  0.8958  0.4991  0.8725
    9CHTO   O53 3560   7.142   4.769   0.634  0.4828 -0.3783 -0.5801
    9CHTO   C82 3561   7.049   4.823   0.544  0.4885  0.3759  0.3831
    9CHTO  H154 3562   7.103   4.885   0.473  1.1055 -1.8934 -1.1934
    9CHTO   C89 3563   6.990   4.700   0.468 -0.2456 -0.4951  0.4213
    9CHTO   O59 3564   6.935   4.741   0.343 -0.1563  0.0728 -0.1135
    9CHTO  H137 3565   6.896   4.663   0.307  1.4341 -0.9066  0.2309
    9CHTO   O45 3566   7.323   4.821   0.825 -0.2061 -0.7347  0.2266
    9CHTO   C67 3567   7.407   4.715   0.765  0.5161 -0.1924 -1.0487
    9CHTO  H124 3568   7.340   4.636   0.730  0.5578 -0.4092 -0.6423
    9CHTO   C65 3569   7.497   4.769   0.643  0.3187 -0.0448  0.7355
    9CHTO  H122 3570   7.514   4.875   0.661 -1.5140  0.5902 -1.1540
    9CHTO   O44 3571   7.424   4.756   0.517 -0.0500 -0.1309 -0.1844
    9CHTO  H102 3572   7.335   4.767   0.545 -0.0553  2.8950 -1.1279
    9CHTO   C63 3573   7.642   4.719   0.647  0.1530  0.3005  0.5444
    9CHTO  H120 3574   7.690   4.781   0.723 -1.1198  1.0644  0.7518
    9CHTO   N11 3575   7.726   4.763   0.526  0.3383  0.0010  0.0091
    9CHTO  H108 3576   7.737   4.870   0.530 -0.7556  0.1065  0.5646
    9CHTO  H109 3577   7.672   4.727   0.441  1.2619 -1.5712  0.0914
    9CHTO   C61 3578   7.661   4.577   0.701 -0.2990  0.4018  0.2966
    9CHTO  H118 3579   7.769   4.579   0.719 -0.3316  2.4748  0.3756
    9CHTO   O40 3580   7.595   4.561   0.828 -0.0988  0.8083 -0.3049
    9CHTO   C68 3581   7.493   4.653   0.882  0.4554 -0.4876 -0.0849
    9CHTO  H125 3582   7.538   4.747   0.921 -0.2453 -1.0848  2.2573
    9CHTO   C72 3583   7.423   4.587   1.004  0.4736 -0.3898  0.6795
    9CHTO   O48 3584   7.520   4.556   1.109  0.2155  0.0271  0.4401
    9CHTO  H105 3585   7.592   4.514   1.067 -0.1931 -1.4371  1.1605
    9CHTO   O38 3586   7.646   4.471   0.600  0.0639 -0.2617 -0.8028
    9CHTO   C55 3587   7.533   4.383   0.614  0.9044 -0.2343  0.5036
    9CHTO  H112 3588   7.447   4.437   0.657  0.2608 -1.6335  1.0012
    9CHTO   C56 3589   7.565   4.262   0.696  0.8501  0.0154  0.3388
    9CHTO  H113 3590   7.656   4.213   0.658  0.2710 -0.4782 -0.4180
    9CHTO   O42 3591   7.599   4.296   0.831  0.6233  0.8669  0.0716
    9CHTO  H100 3592   7.692   4.300   0.842  0.8091  0.2511 -1.1650
    9CHTO   C57 3593   7.443   4.164   0.701  1.0351  0.6592 -0.0172
    9CHTO  H114 3594   7.360   4.206   0.758  0.1656 -0.3884 -0.4898
    9CHTO   N10 3595   7.474   4.031   0.765  0.0286 -0.1574  0.4549
    9CHTO  H106 3596   7.454   4.024   0.871 -0.8119  0.1650  0.3237
    9CHTO  H107 3597   7.431   3.946   0.714  0.3776  0.8989 -1.6827
    9CHTO   C58 3598   7.385   4.138   0.555 -0.0329  0.2388 -0.0988
    9CHTO  H115 3599   7.452   4.071   0.498  2.1036  1.3615  1.0243
    9CHTO   O37 3600   7.359   4.263   0.489 -0.5248  0.2885  0.3961
    9CHTO   C59 3601   7.477   4.341   0.474  0.2605  0.1376  0.6164
    9CHTO  H116 3602   7.554   4.288   0.419  0.2976 -0.3850  1.1700
    9CHTO   C70 3603   7.437   4.461   0.387 -0.1137 -0.6126  0.1331
    9CHTO   O46 3604   7.386   4.417   0.261  0.7862  0.1601 -0.2918
    9CHTO  H103 3605   7.343   4.487   0.216  1.2097 -0.0036 -0.9594
    9CHTO   O39 3606   7.228   4.058   0.556 -0.5709  0.1790 -0.1888
    9CHTO   C60 3607   7.224   3.916   0.527 -0.3095  0.2260  0.4287
    9CHTO  H117 3608   7.326   3.880   0.514  0.0148  1.5968 -0.9428
    9CHTO   C62 3609   7.148   3.833   0.640  0.6019 -0.3951 -0.1022
    9CHTO  H119 3610   7.204   3.862   0.732  1.4566 -2.1645 -0.0448
    9CHTO   O43 3611   7.022   3.899   0.662 -0.9913  0.0761 -0.1448
    9CHTO  H101 3612   6.958   3.836   0.688  0.0645 -1.1182 -0.3835
    9CHTO   C66 3613   7.157   3.680   0.606 -0.3769 -0.4514 -0.3237
    9CHTO  H123 3614   7.261   3.654   0.590  0.1011 -0.4250  2.5313
    9CHTO   N12 3615   7.109   3.597   0.716 -0.1911  0.3373 -0.1666
    9CHTO  H110 3616   7.003   3.610   0.732 -0.6340 -2.0850 -0.9374
    9CHTO  H111 3617   7.144   3.495   0.708 -0.7078  0.1468  0.0053
    9CHTO   C69 3618   7.078   3.661   0.474  0.0924 -0.5198 -0.3383
    9CHTO  H126 3619   6.972   3.682   0.497  0.4484  1.3220 -0.3472
    9CHTO   O41 3620   7.135   3.757   0.359 -0.7064 -0.1264 -0.0767
    9CHTO   C64 3621   7.157   3.905   0.391  0.8674 -0.1569  0.0547
    9CHTO  H121 3622   7.056   3.951   0.397  1.5691  1.7725 -1.9376
    9CHTO   C71 3623   7.236   3.975   0.275 -0.6257 -0.6328 -0.3248
    9CHTO   O47 3624   7.191   3.944   0.145  0.3252 -0.3184 -0.4142
    9CHTO  H104 3625   7.255   3.987   0.092 -1.2124  1.8057 -0.5882
    9CHTO   O34 3626   7.094   3.496   0.427 -0.1600 -0.3041  0.4598
    9CHTO   C49 3627   7.162   3.431   0.293 -0.5763  0.8208  0.2313
    9CHTO   H91 3628   7.108   3.469   0.207  0.1640  0.8371 -0.2298
    9CHTO   C47 3629   7.149   3.277   0.299 -0.0670  0.0083  0.3137
    9CHTO   H89 3630   7.171   3.247   0.194 -1.1570 -0.5914  0.2544
    9CHTO   O33 3631   7.014   3.238   0.322 -0.3485 -0.0937  0.3569
    9CHTO   H70 3632   6.998   3.276   0.406 -2.2297  0.4986 -0.2317
    9CHTO   C45 3633   7.252   3.215   0.402  0.1685  0.2073 -0.4736
    9CHTO   H87 3634   7.194   3.192   0.493  2.4847  1.1571  1.2781
    9CHTO    N8 3635   7.301   3.087   0.348  0.0260  0.1907  0.1857
    9CHTO   H75 3636   7.388   3.082   0.284 -1.9768 -2.0547 -2.5055
    9CHTO   H76 3637   7.305   3.010   0.424 -0.8258 -0.3024 -0.2521
    9CHTO   C43 3638   7.364   3.325   0.445 -0.3976  0.1621  0.3575
    9CHTO   H85 3639   7.315   3.397   0.511  1.8877  0.5563  1.7015
    9CHTO   O29 3640   7.416   3.386   0.327  0.0000 -0.0375  0.3188
    9CHTO   C50 3641   7.311   3.466   0.277  0.1558 -0.4220 -0.4224
    9CHTO   H92 3642   7.323   3.562   0.329  0.0070 -0.8563  0.4257
    9CHTO   C54 3643   7.344   3.494   0.127  0.7705 -1.0376  0.0250
    9CHTO   O36 3644   7.251   3.577   0.053 -0.3075  0.6391  0.1645
    9CHTO   H72 3645   7.256   3.566  -0.040 -1.8465 -0.0317  0.1415
    9CHTO   O27 3646   7.477   3.282   0.529 -0.0782 -0.9308  0.1834
    9CHTO   C37 3647   7.531   3.329   0.655 -0.1203 -0.5948  0.6030
    9CHTO   H79 3648   7.625   3.281   0.685  1.4645  2.7909  1.3311
    9CHTO   C38 3649   7.563   3.483   0.645 -0.2277 -0.9981  0.0959
    9CHTO   H80 3650   7.475   3.539   0.608  1.1133  1.2158  0.2204
    9CHTO   O31 3651   7.660   3.499   0.542  0.0254  0.0883  0.0839
    9CHTO   H68 3652   7.616   3.504   0.460  0.2169  0.7095  0.0164
    9CHTO   C39 3653   7.604   3.538   0.788 -0.2638 -0.6023  0.3673
    9CHTO   H81 3654   7.694   3.482   0.814 -1.4512 -1.4148  2.8896
    9CHTO    N7 3655   7.630   3.687   0.785 -0.0551  0.2980 -0.0588
    9CHTO   H73 3656   7.558   3.733   0.719 -0.3883  0.6732  0.5676
    9CHTO   H74 3657   7.657   3.721   0.883 -0.2011  0.7919 -0.1894
    9CHTO   C40 3658   7.482   3.505   0.881  0.3517  0.1116  0.1957
    9CHTO   H82 3659   7.390   3.547   0.842  0.2570 -1.2132 -1.0537
    9CHTO   O26 3660   7.474   3.365   0.893  0.0434  0.0969  0.3760
    9CHTO   C41 3661   7.426   3.307   0.770 -0.8486  0.3990 -0.3963
    9CHTO   H83 3662   7.331   3.355   0.741  0.2383  1.7232 -1.8293
    9CHTO   C52 3663   7.403   3.156   0.797  0.3543  0.4074 -0.1905
    9CHTO   O35 3664   7.341   3.142   0.921  0.1576 -0.0884  0.0849
    9CHTO   H71 3665   7.395   3.085   0.973 -1.0627 -0.0764  1.3917
    9CHTO   O28 3666   7.510   3.528   1.019 -0.3141 -0.0057 -0.0483
    9CHTO   C42 3667   7.397   3.575   1.103 -0.4681 -0.5662 -0.2845
    9CHTO   H84 3668   7.434   3.555   1.204 -1.5912 -3.4708 -0.4171
    9CHTO   C44 3669   7.259   3.508   1.094  0.1317  0.8910  0.3598
    9CHTO   H86 3670   7.235   3.492   0.989  0.6658 -1.1382  0.5235
    9CHTO   O32 3671   7.285   3.380   1.162  0.0826 -0.2224  0.4983
    9CHTO   H69 3672   7.212   3.321   1.153  0.4414 -0.9378  2.1041
    9CHTO   C48 3673   7.141   3.591   1.169  0.2296  0.4981 -0.0051
    9CHTO   H90 3674   7.165   3.598   1.275 -0.1416 -1.0673  0.2003
    9CHTO    N9 3675   7.015   3.508   1.154 -0.4349 -0.0262 -0.6539
    9CHTO   H77 3676   7.003   3.464   1.056  0.3158 -2.3956  0.2684
    9CHTO   H78 3677   6.937   3.579   1.175 -1.3400 -1.6975  1.9243
    9CHTO   C51 3678   7.141   3.732   1.108  0.0777  0.6235  0.0670
    9CHTO   H93 3679   7.125   3.739   1.001 -3.9259  1.9582  0.6427
    9CHTO   O30 3680   7.261   3.792   1.152  0.0524  0.2768 -0.4383
    9CHTO   C46 3681   7.396   3.729   1.084  0.3290  0.1020  0.4269
    9CHTO   H88 3682   7.411   3.766   0.982 -1.2007  1.0486  0.5302
    9CHTO   C53 3683   7.521   3.786   1.161 -0.1680  0.5471 -0.7429
    9CHTO   O72 3684   7.517   3.928   1.149  0.0541  0.0236  0.3784
    9CHTO  H199 3685   7.599   3.965   1.175  0.1530 -0.1873  0.3698
    9CHTO   O22 3686   7.030   3.807   1.165 -0.0290 -0.1487 -0.1057
    9CHTO   C31 3687   6.995   3.936   1.118 -0.3606 -0.4496  0.3363
    9CHTO   H59 3688   6.922   3.976   1.192 -0.3918  1.0343 -0.4642
    9CHTO   C29 3689   7.106   4.040   1.100 -0.5815 -0.4833  0.0882
    9CHTO   H57 3690   7.176   3.993   1.029 -3.1027 -0.4287 -2.5075
    9CHTO   O21 3691   7.172   4.047   1.230 -0.2979  0.4371 -0.6809
    9CHTO   H37 3692   7.207   4.129   1.257 -3.1604  0.1485  4.5302
    9CHTO   C27 3693   7.058   4.183   1.048 -0.2012  0.0174  0.1191
    9CHTO   H55 3694   6.992   4.224   1.126 -0.0020 -0.8672  0.7610
    9CHTO    N5 3695   7.177   4.279   1.029  0.0406  0.2410 -0.0041
    9CHTO   H43 3696   7.253   4.289   1.105  0.5386  0.1369 -0.4819
    9CHTO   H44 3697   7.141   4.378   1.004  1.1572  1.0206  1.4055
    9CHTO   C25 3698   6.972   4.159   0.922 -0.5554 -0.0498 -0.2866
    9CHTO   H53 3699   7.044   4.115   0.851  0.3570 -0.8991  1.1322
    9CHTO   O17 3700   6.864   4.067   0.957  0.5308  0.0578 -0.0455
    9CHTO   C32 3701   6.911   3.936   0.986 -0.0854 -0.0048  0.3150
    9CHTO   H60 3702   6.979   3.903   0.908 -0.7883  2.3615 -1.3734
    9CHTO   C36 3703   6.785   3.852   0.993 -0.5867  0.8503  0.0149
    9CHTO   O25 3704   6.811   3.713   1.022 -0.1480 -1.0045 -0.5064
    9CHTO   H40 3705   6.903   3.697   1.009 -0.1276  0.0657 -1.7862
    9CHTO   O15 3706   6.915   4.285   0.846  0.7933  0.0599  0.1668
    9CHTO   C19 3707   6.875   4.308   0.706 -0.5939 -0.2192  0.5102
    9CHTO   H47 3708   6.849   4.414   0.700 -3.8259 -0.9665  0.4700
    9CHTO   C20 3709   6.986   4.281   0.602 -0.0651 -0.1475 -0.5816
    9CHTO   H48 3710   7.015   4.174   0.600  0.0510 -0.0992 -1.7499
    9CHTO   O19 3711   7.101   4.357   0.645  0.1861  0.1803  0.0390
    9CHTO   H35 3712   7.082   4.449   0.643 -0.2825  0.2070  3.0801
    9CHTO   C21 3713   6.948   4.321   0.457 -0.9241 -0.5845 -0.4120
    9CHTO   H49 3714   6.923   4.427   0.457  0.9276 -0.1260 -2.1260
    9CHTO    N4 3715   7.049   4.291   0.354  0.6271 -0.0355 -0.7027
    9CHTO   H41 3716   7.008   4.298   0.254 -0.1291  0.2000 -0.3805
    9CHTO   H42 3717   7.086   4.190   0.368 -1.1575 -0.3857  1.8639
    9CHTO   C22 3718   6.812   4.254   0.426  0.6649 -0.2339  0.0703
    9CHTO   H50 3719   6.834   4.148   0.414 -0.9012 -0.4805 -0.8427
    9CHTO   O14 3720   6.715   4.278   0.529  0.0544 -0.0656  0.2846
    9CHTO   C23 3721   6.752   4.229   0.660  0.3169  0.3926 -0.0481
    9CHTO   H51 3722   6.769   4.120   0.659 -0.8722  0.2119 -1.1256
    9CHTO   C34 3723   6.632   4.268   0.752 -0.2360  0.9962 -0.4486
    9CHTO   O23 3724   6.652   4.227   0.886  0.7590 -0.3407 -0.1212
    9CHTO   H38 3725   6.729   4.267   0.920  0.3502  1.0810 -0.8420
    9CHTO   O16 3726   6.760   4.313   0.306 -0.4075 -0.2625  0.2607
    9CHTO   C24 3727   6.685   4.204   0.229 -0.1936 -0.2592  0.0784
    9CHTO   H52 3728   6.652   4.125   0.296  0.8060  1.6805  2.9758
    9CHTO   C26 3729   6.768   4.139   0.112  0.1900  0.4146 -0.5642
    9CHTO   H54 3730   6.804   4.219   0.043  1.9834  1.5975  1.6771
    9CHTO   O20 3731   6.881   4.070   0.171 -0.2889 -0.0546 -0.0442
    9CHTO   H36 3732   6.942   4.130   0.210 -1.9168  1.5136  0.1514
    9CHTO   C30 3733   6.676   4.039   0.035 -0.0099  0.1199 -0.3557
    9CHTO   H58 3734   6.639   3.961   0.103 -2.5157  0.3761 -1.3752
    9CHTO    N6 3735   6.746   3.962  -0.069  0.5184  0.5756  0.1047
    9CHTO   H45 3736   6.740   3.856  -0.048 -1.2519  0.6857  0.2424
    9CHTO   H46 3737   6.697   3.985  -0.162  1.4042  1.5398 -0.1392
    9CHTO   C33 3738   6.549   4.105  -0.016  0.2501  0.2379 -0.3042
    9CHTO   H61 3739   6.567   4.177  -0.097 -0.9021  1.2902  0.3589
    9CHTO   O18 3740   6.490   4.171   0.092  0.1147 -0.0149  0.4009
    9CHTO   C28 3741   6.560   4.270   0.167  0.5311  0.4500 -0.6170
    9CHTO   H56 3742   6.596   4.346   0.098  0.1944  0.4650 -0.7763
    9CHTO   C35 3743   6.462   4.317   0.283  0.5474  0.3675 -0.1047
    9CHTO   O24 3744   6.361   4.403   0.226  0.2057  1.2970  0.0397
    9CHTO   H39 3745   6.303   4.421   0.297  0.3614 -1.7442  1.0057
    9CHTO    O9 3746   6.461   4.005  -0.072  0.0263  0.4527  0.0205
    9CHTO   C13 3747   6.335   4.058  -0.156  0.3058  0.7825 -0.4715
    9CHTO   H26 3748   6.369   4.100  -0.253  1.2115 -0.0699 -0.5296
    9CHTO   C11 3749   6.247   4.159  -0.065  0.7213  0.2380 -0.1563
    9CHTO   H24 3750   6.304   4.247  -0.032 -0.9995  1.2293  0.2539
    9CHTO    O8 3751   6.226   4.089   0.061 -0.3746  0.4288 -0.1241
    9CHTO    H3 3752   6.214   3.996   0.056  0.0784  0.3368  0.4255
    9CHTO    C9 3753   6.113   4.196  -0.138 -0.3789  0.0090  0.0593
    9CHTO   H22 3754   6.147   4.228  -0.237 -0.8656 -0.2741 -0.2011
    9CHTO    N2 3755   6.035   4.304  -0.075 -0.2206 -0.5542 -0.4745
    9CHTO   H10 3756   6.039   4.391  -0.138 -1.7617  1.4998  2.1597
    9CHTO   H11 3757   6.070   4.321   0.026 -1.0290 -2.0028  0.0622
    9CHTO    C7 3758   6.026   4.070  -0.165  0.2519 -0.0346  0.2967
    9CHTO   H20 3759   5.938   4.103  -0.224 -0.1303 -0.1086  0.8178
    9CHTO    O4 3760   6.102   3.972  -0.240 -0.2300  0.3706  0.3583
    9CHTO   C14 3761   6.237   3.936  -0.201 -0.4458  0.2389 -0.3839
    9CHTO   H27 3762   6.278   3.896  -0.296 -2.0566  0.6553 -1.2758
    9CHTO   C18 3763   6.227   3.817  -0.102  0.0640 -0.7293  0.5431
    9CHTO   O13 3764   6.150   3.710  -0.145  0.4212  0.3229 -0.6180
    9CHTO    H7 3765   6.060   3.731  -0.161  0.2186 -0.8091 -1.0505
    9CHTO    O2 3766   5.975   3.988  -0.023  0.1052  0.5840 -0.8229
    9CHTO    C1 3767   5.835   3.965   0.008  0.1841  0.1535  0.1991
    9CHTO   H14 3768   5.827   3.871   0.067 -1.2682 -0.5107 -1.0242
    9CHTO    C2 3769   5.740   3.952  -0.115 -0.8161  0.2907 -0.5197
    9CHTO   H15 3770   5.743   4.049  -0.168  1.6706  1.1087  1.0666
    9CHTO    O6 3771   5.788   3.854  -0.203  0.1555  0.2694  0.3842
    9CHTO    H1 3772   5.862   3.888  -0.249 -0.4694 -0.4647 -1.1833
    9CHTO    C3 3773   5.592   3.920  -0.071  0.4276 -0.5843  0.2846
    9CHTO   H16 3774   5.590   3.827  -0.014  1.6767 -1.1807 -0.6122
    9CHTO    N1 3775   5.493   3.906  -0.184  0.2217 -0.0813  0.4207
    9CHTO    H8 3776   5.514   3.984  -0.256 -0.8813 -0.4503 -0.3183
    9CHTO    H9 3777   5.503   3.813  -0.238 -0.1813 -0.5320  1.1212
    9CHTO    C4 3778   5.538   4.034   0.024 -0.6385  0.1268 -0.5257
    9CHTO   H17 3779   5.533   4.129  -0.029 -0.4706  0.3412 -0.1576
    9CHTO    O1 3780   5.636   4.048   0.127  0.0548  0.2866 -0.1825
    9CHTO    C5 3781   5.782   4.072   0.094  0.0571 -0.4754 -0.4275
    9CHTO   H18 3782   5.783   4.167   0.041  1.2154 -0.1194  0.2119
    9CHTO   C16 3783   5.863   4.086   0.229 -0.1316  0.1385 -0.0492
    9CHTO   O11 3784   5.830   4.202   0.304 -0.5997 -0.3213  0.4476
    9CHTO    H5 3785   5.897   4.213   0.369  0.3625 -0.1151 -0.5549
    9CHTO    O3 3786   5.410   4.007   0.090 -0.0459  0.0358 -0.2819
    9CHTO    C6 3787   5.317   4.111   0.121  0.5297 -0.1870  0.1257
    9CHTO   H19 3788   5.331   4.195   0.053 -0.4600 -0.8128 -0.8756
    9CHTO    C8 3789   5.173   4.058   0.091  0.5270  0.4847 -0.0781
    9CHTO   H21 3790   5.150   3.966   0.145 -0.4324  1.0346  0.4712
    9CHTO    O7 3791   5.175   4.028  -0.051 -0.1857 -0.2071 -0.2285
    9CHTO    H2 3792   5.193   4.107  -0.098 -1.0966 -0.0159 -0.2715
    9CHTO   C12 3793   5.067   4.167   0.129 -0.0169 -0.3746  0.0925
    9CHTO   H25 3794   5.094   4.257   0.069 -0.6663  0.6534  1.3192
    9CHTO    N3 3795   4.921   4.134   0.089 -0.4155  0.3771 -0.7613
    9CHTO   H12 3796   4.905   4.153  -0.016  1.9553  0.7635 -1.0989
    9CHTO   H13 3797   4.853   4.191   0.150 -0.6163 -0.5258 -0.1292
    9CHTO   C15 3798   5.082   4.200   0.279  0.0613 -0.0056  0.0794
    9CHTO   H28 3799   5.068   4.114   0.344  1.4193 -0.8188 -0.6760
    9CHTO   O10 3800   5.005   4.314   0.335  0.3496  0.3551 -0.3899
    9CHTO    H4 3801   5.026   4.396   0.295 -0.0642 -0.2549 -1.8640
    9CHTO    O5 3802   5.218   4.254   0.297 -0.0682  0.2464 -0.3020
    9CHTO   C10 3803   5.326   4.164   0.270 -0.0687  0.9244 -0.6414
    9CHTO   H23 3804   5.320   4.074   0.332 -1.0057  1.3414 -0.1290
    9CHTO   C17 3805   5.460   4.220   0.307  0.8867  0.4575  0.4118
    9CHTO   O12 3806   5.483   4.354   0.264 -0.0522 -0.1847 -0.2326
    9CHTO    H6 3807   5.530   4.398   0.332  0.1128 -0.3897 -0.2150
   10CHTO  H203 3808   4.453   6.671   2.668  0.6385 -0.0484 -0.2770
   10CHTO   O82 3809   4.451   6.672   2.761  0.1946  0.1031 -0.2852
   10CHTO  C123 3810   4.335   6.733   2.797  0.4083 -0.8880 -0.5813
   10CHTO  H227 3811   4.267   6.726   2.711  3.0877  1.1187 -2.9787
   10CHTO   O77 3812   4.291   6.662   2.912  0.0033 -0.3577  0.2635
   10CHTO  C118 3813   4.155   6.684   2.944  0.0806 -0.8302  0.1468
   10CHTO  H222 3814   4.097   6.661   2.854 -1.8579 -0.3680  1.2567
   10CHTO  C125 3815   4.116   6.580   3.060 -0.2790  0.2753 -0.0125
   10CHTO   O84 3816   4.172   6.626   3.183  0.1262 -0.2835 -0.2283
   10CHTO  H205 3817   4.264   6.639   3.170 -0.2321  2.8673 -0.1791
   10CHTO  C114 3818   4.139   6.828   2.986  0.0991 -1.0626 -0.3473
   10CHTO  H218 3819   4.197   6.854   3.074 -0.2672  1.3604 -0.7706
   10CHTO  C116 3820   4.204   6.931   2.887 -0.3140 -0.4539  0.8061
   10CHTO  H220 3821   4.132   6.939   2.803  0.3465  0.2577  0.3106
   10CHTO   O79 3822   4.208   7.055   2.960 -0.1790  0.0077  0.6211
   10CHTO  H201 3823   4.266   7.055   3.035  1.0412  3.1623 -0.2319
   10CHTO  C120 3824   4.358   6.880   2.837  0.5634 -0.2192  0.4183
   10CHTO  H224 3825   4.422   6.886   2.928  1.1879 -2.3240  0.1341
   10CHTO   N21 3826   4.413   6.975   2.735  0.0491 -0.1454  0.5689
   10CHTO  H211 3827   4.370   6.942   2.642  1.0840 -2.9997  1.0587
   10CHTO  H212 3828   4.521   6.971   2.731  0.0814  0.5402  0.5565
   10CHTO   O75 3829   3.997   6.845   2.997  0.3863  0.0055  0.0848
   10CHTO  C112 3830   3.934   6.940   3.115 -0.2661  0.5934  0.3213
   10CHTO  H216 3831   4.023   6.997   3.147  0.4054  0.2391 -0.8417
   10CHTO   O73 3832   3.890   6.854   3.219  0.3781  0.2878 -0.6139
   10CHTO  C113 3833   3.834   6.922   3.337  0.0199  0.4801  0.4157
   10CHTO  H217 3834   3.908   7.000   3.364  1.8601 -0.2292 -2.3181
   10CHTO  C124 3835   3.814   6.826   3.458 -0.2824  0.3019  0.2416
   10CHTO   O83 3836   3.786   6.882   3.582  0.0313 -0.3825  0.4856
   10CHTO  H204 3837   3.706   6.844   3.612  0.0857 -0.0246  1.0902
   10CHTO  C109 3838   3.704   6.998   3.299  0.0445 -0.1801 -0.2738
   10CHTO  H213 3839   3.627   6.925   3.271  0.7699 -0.5230 -1.4264
   10CHTO  C110 3840   3.737   7.097   3.180  0.6681  0.6971 -0.8052
   10CHTO  H214 3841   3.791   7.183   3.220  0.2079  0.4687  0.3318
   10CHTO   O78 3842   3.609   7.154   3.137  1.1368  0.4769 -0.5812
   10CHTO  H200 3843   3.621   7.195   3.053  1.3423  0.1393 -0.7182
   10CHTO  C111 3844   3.811   7.032   3.061 -0.1676  0.0082 -0.8186
   10CHTO  H215 3845   3.741   6.968   3.007  0.7127 -1.6382 -0.0569
   10CHTO   N19 3846   3.870   7.132   2.966  0.3023  0.1049  0.1382
   10CHTO  H207 3847   3.940   7.197   3.014  0.0491  1.1236 -0.8473
   10CHTO  H208 3848   3.919   7.076   2.887  2.3358 -0.3486  1.7029
   10CHTO   O74 3849   3.664   7.080   3.406 -0.0021  0.3498 -0.0778
   10CHTO  C115 3850   3.517   7.145   3.419 -0.2411 -0.0836  0.6088
   10CHTO  H219 3851   3.498   7.224   3.346 -2.6543 -1.7177 -0.6209
   10CHTO   O76 3852   3.411   7.042   3.381 -0.4349 -0.2385  0.3868
   10CHTO  C122 3853   3.401   6.935   3.470  0.2079 -0.1674  0.3746
   10CHTO  H226 3854   3.497   6.884   3.460  0.1359 -0.2179 -0.0562
   10CHTO  C126 3855   3.298   6.828   3.422  0.4306  0.0381 -0.4289
   10CHTO   O85 3856   3.355   6.766   3.308  0.2691  0.3895  0.3991
   10CHTO  H206 3857   3.329   6.676   3.300  0.0291  0.6595 -2.1719
   10CHTO  C121 3858   3.373   6.974   3.619 -0.1119  0.3226  0.2631
   10CHTO  H225 3859   3.275   6.935   3.655  0.0300  0.4856  0.8405
   10CHTO   O81 3860   3.470   6.898   3.693  0.3213 -0.6062  0.3812
   10CHTO  H202 3861   3.555   6.937   3.683  0.1265 -0.4341 -0.6142
   10CHTO  C119 3862   3.383   7.126   3.642 -0.4168  0.6188  0.2357
   10CHTO  H223 3863   3.290   7.172   3.608 -0.8910  0.3500  1.1571
   10CHTO  C117 3864   3.507   7.192   3.573 -0.4354 -0.8698  0.8107
   10CHTO  H221 3865   3.607   7.171   3.611  0.3610  1.7811  0.3043
   10CHTO   N20 3866   3.504   7.345   3.578  0.3884 -0.2347 -0.3005
   10CHTO  H209 3867   3.554   7.371   3.670  0.6565  0.0646 -0.5335
   10CHTO  H210 3868   3.398   7.365   3.586  0.8641  1.4687  2.4689
   10CHTO   O80 3869   3.387   7.164   3.794 -0.1059 -0.3188  0.2072
   10CHTO  C103 3870   3.252   7.189   3.874  0.6542 -0.1478 -0.5479
   10CHTO  H190 3871   3.186   7.246   3.808  0.0978 -0.3154 -0.1407
   10CHTO  C101 3872   3.178   7.072   3.945  0.3564  0.1661  0.3796
   10CHTO  H188 3873   3.260   7.015   3.989  0.6328  1.5703  1.6999
   10CHTO   O68 3874   3.100   6.974   3.842 -0.3841 -0.0882 -0.2182
   10CHTO  H168 3875   3.035   7.020   3.793 -1.5841 -1.1922  0.3283
   10CHTO   C99 3876   3.060   7.120   4.051 -0.2873 -0.1977 -0.9178
   10CHTO  H186 3877   2.983   7.171   3.990 -0.0572  0.4179 -0.7113
   10CHTO   N17 3878   2.994   7.004   4.127  0.6488  0.3916  0.3859
   10CHTO  H174 3879   3.064   6.951   4.189  1.6239 -1.7642 -2.4384
   10CHTO  H175 3880   2.906   7.034   4.183  1.0389 -0.4078  1.4213
   10CHTO   C97 3881   3.123   7.230   4.146  0.2132  0.4212  0.3622
   10CHTO  H184 3882   3.186   7.181   4.222  2.0216 -1.4882 -2.2882
   10CHTO   O64 3883   3.196   7.328   4.075 -0.0915 -0.1819  0.4028
   10CHTO  C104 3884   3.304   7.292   3.987  0.3628 -0.4681 -0.2089
   10CHTO  H191 3885   3.385   7.242   4.041 -1.8617  0.0165  3.7130
   10CHTO  C108 3886   3.366   7.419   3.928  0.0703 -0.1230  0.3625
   10CHTO   O71 3887   3.393   7.522   4.024 -0.2931  0.1967  0.1432
   10CHTO  H171 3888   3.324   7.516   4.087 -1.2183 -2.0817 -0.9975
   10CHTO   O62 3889   3.019   7.310   4.197  0.4053  0.0455  0.2562
   10CHTO   C91 3890   3.016   7.320   4.342  0.4640  0.0109  0.7910
   10CHTO  H178 3891   3.063   7.229   4.379 -0.8482 -1.5378 -1.2355
   10CHTO   C92 3892   2.858   7.319   4.372  0.4003 -0.4948 -0.6420
   10CHTO  H179 3893   2.813   7.378   4.291 -0.5900  0.1381  0.3466
   10CHTO   O66 3894   2.807   7.190   4.344 -0.0948  0.6404 -0.1277
   10CHTO  H166 3895   2.720   7.186   4.379 -0.2682  0.0812 -0.6049
   10CHTO   C93 3896   2.813   7.360   4.526  0.4692  0.0073  0.2546
   10CHTO  H180 3897   2.830   7.276   4.595  0.6168  0.4473  0.7587
   10CHTO   N16 3898   2.666   7.384   4.529  0.1440  0.4898 -0.2604
   10CHTO  H172 3899   2.605   7.297   4.513  0.0917  0.7752 -1.6733
   10CHTO  H173 3900   2.642   7.412   4.631  0.5572  1.1922 -0.3473
   10CHTO   C94 3901   2.899   7.480   4.581 -0.5412  0.2388 -0.8802
   10CHTO  H181 3902   2.883   7.573   4.527 -0.7548  0.6930 -0.0460
   10CHTO   O61 3903   3.041   7.468   4.557  0.2362 -0.0817 -0.3351
   10CHTO   C95 3904   3.081   7.450   4.415 -0.3459  0.1069 -0.3140
   10CHTO  H182 3905   3.046   7.535   4.356  1.1041  0.0423 -1.2786
   10CHTO  C106 3906   3.235   7.446   4.408 -0.5181 -0.8742 -0.0703
   10CHTO   O69 3907   3.308   7.545   4.339 -0.0524 -0.5575  0.3464
   10CHTO  H169 3908   3.275   7.543   4.252  0.1258  2.1538  0.1708
   10CHTO   O63 3909   2.882   7.498   4.742 -0.2053 -0.3203  0.1897
   10CHTO   C96 3910   2.945   7.382   4.826  0.0986 -1.1902 -0.2311
   10CHTO  H183 3911   3.002   7.315   4.761  0.0224 -2.4222  0.9661
   10CHTO   C98 3912   2.825   7.310   4.897 -0.0079 -0.3500 -0.9208
   10CHTO  H185 3913   2.748   7.382   4.927 -0.5870 -1.5110  0.4324
   10CHTO   O67 3914   2.764   7.225   4.795  0.1727  0.5314  0.8938
   10CHTO  H167 3915   2.767   7.260   4.708 -2.7660  0.8531  0.8750
   10CHTO  C102 3916   2.882   7.217   5.009  0.3902 -0.8732  0.2311
   10CHTO  H189 3917   2.945   7.145   4.956  0.6360  0.3063 -1.0947
   10CHTO   N18 3918   2.784   7.125   5.078 -0.3712  0.3032  0.1317
   10CHTO  H176 3919   2.745   7.058   5.002  0.6934  0.0717 -0.2177
   10CHTO  H177 3920   2.704   7.192   5.106  1.5206  1.8819  1.8613
   10CHTO  C105 3921   2.960   7.300   5.109 -0.5656  0.2127 -0.1561
   10CHTO  H192 3922   2.896   7.379   5.149  0.9052  1.7093 -0.6829
   10CHTO   O65 3923   3.072   7.364   5.043  0.6131 -0.1099  0.2149
   10CHTO  C100 3924   3.044   7.454   4.931  0.6454  0.5042  0.3639
   10CHTO  H187 3925   2.985   7.538   4.970 -0.3354 -0.0011 -0.0037
   10CHTO  C107 3926   3.166   7.513   4.857 -0.3176  0.4023 -0.1291
   10CHTO   O70 3927   3.239   7.606   4.937  0.5219 -0.3177 -0.0333
   10CHTO  H170 3928   3.239   7.693   4.902  0.6222 -0.5492 -0.6248
   10CHTO   O57 3929   3.027   7.197   5.244  0.5145  0.3711  0.5111
   10CHTO   C85 3930   2.955   7.194   5.370  0.7530 -0.1625  0.2115
   10CHTO  H157 3931   2.849   7.211   5.345  1.5557  1.5633 -2.2124
   10CHTO   C83 3932   2.993   7.319   5.465  0.2264 -0.7542 -0.5322
   10CHTO  H155 3933   2.977   7.413   5.411  1.5648 -1.8036 -2.8104
   10CHTO   O56 3934   3.133   7.316   5.480 -0.1524 -0.7029 -0.1393
   10CHTO  H135 3935   3.171   7.237   5.515 -1.0398 -0.2383  1.9355
   10CHTO   C81 3936   2.908   7.315   5.595  0.1183  0.4481  0.0455
   10CHTO  H153 3937   2.803   7.314   5.568  0.7522  0.7406 -2.5484
   10CHTO   N14 3938   2.919   7.433   5.684  0.5592 -0.4263 -0.1110
   10CHTO  H141 3939   2.985   7.404   5.763  0.6925  1.2337  0.4028
   10CHTO  H142 3940   2.824   7.468   5.718  0.8084 -0.1773  0.3295
   10CHTO   C79 3941   2.941   7.175   5.675  0.1286 -1.3716 -0.2427
   10CHTO  H151 3942   2.874   7.171   5.760  1.3222 -0.1508  0.7808
   10CHTO   O52 3943   2.907   7.064   5.586  0.0777  0.1659 -0.7841
   10CHTO   C86 3944   2.977   7.061   5.454  1.0011  0.1971  0.4411
   10CHTO  H158 3945   3.087   7.047   5.467  1.1019  0.3730 -0.2167
   10CHTO   C90 3946   2.925   6.928   5.383 -0.3462 -0.5399 -0.3148
   10CHTO   O60 3947   3.018   6.881   5.288  0.0294 -0.3708  0.4352
   10CHTO  H138 3948   3.000   6.929   5.209 -1.8679 -0.8213  0.5665
   10CHTO   O50 3949   3.080   7.163   5.726  0.1985 -0.2976 -0.1850
   10CHTO   C73 3950   3.135   7.101   5.843  0.3947 -0.0579  0.3141
   10CHTO  H145 3951   3.109   6.995   5.857 -0.5906  0.1368 -0.0507
   10CHTO   C74 3952   3.102   7.180   5.975  0.0803 -0.0164 -0.2955
   10CHTO  H146 3953   2.992   7.185   5.981  0.1365  1.4312 -0.2971
   10CHTO   O54 3954   3.151   7.099   6.085  0.4499  0.1322 -0.0722
   10CHTO  H133 3955   3.235   7.060   6.069  0.5434 -0.1939  1.2013
   10CHTO   C75 3956   3.157   7.319   5.962  0.2430 -0.4536  0.8118
   10CHTO  H147 3957   3.099   7.369   5.883 -2.7576 -0.8708  2.6695
   10CHTO   N13 3958   3.138   7.409   6.079 -0.4171  0.2616  0.2724
   10CHTO  H139 3959   3.195   7.362   6.158  1.9871 -1.3518 -2.3461
   10CHTO  H140 3960   3.035   7.409   6.112 -0.7482 -3.8775 -0.5397
   10CHTO   C76 3961   3.316   7.322   5.923  0.4860 -0.0572  0.0699
   10CHTO  H148 3962   3.358   7.269   6.008  0.5965  0.8008  0.5635
   10CHTO   O49 3963   3.341   7.242   5.805 -0.4340 -0.8403  0.0914
   10CHTO   C77 3964   3.298   7.106   5.829  0.4176  0.1356  0.3133
   10CHTO  H149 3965   3.340   7.065   5.920 -0.5022  1.3193  1.2806
   10CHTO   C88 3966   3.348   7.013   5.716  0.1468  0.5467  0.0847
   10CHTO   O58 3967   3.307   6.870   5.757 -0.1811 -0.6618 -0.0865
   10CHTO  H136 3968   3.231   6.849   5.706 -0.7989 -1.9723  1.3147
   10CHTO   O51 3969   3.362   7.471   5.891 -0.4413  0.1780 -0.0594
   10CHTO   C78 3970   3.511   7.470   5.866 -0.0822  0.2154 -0.7533
   10CHTO  H150 3971   3.564   7.373   5.853  0.0810  0.0585  0.9681
   10CHTO   C80 3972   3.583   7.538   5.987 -0.1726 -0.6173 -0.0587
   10CHTO  H152 3973   3.550   7.643   5.999 -0.2810 -0.7486  0.8167
   10CHTO   O55 3974   3.541   7.467   6.108 -0.1732 -0.0380 -0.0260
   10CHTO  H134 3975   3.609   7.462   6.173 -0.5014 -1.5860  0.2298
   10CHTO   C84 3976   3.741   7.532   5.966  0.7204  0.2378 -0.2260
   10CHTO  H156 3977   3.776   7.430   5.948  0.5778 -0.1954  1.7788
   10CHTO   N15 3978   3.825   7.580   6.083  0.2613  0.0142 -0.1763
   10CHTO  H143 3979   3.829   7.686   6.072 -1.6422 -0.1083 -2.3214
   10CHTO  H144 3980   3.924   7.541   6.070  0.3980 -0.7381  2.7660
   10CHTO   C87 3981   3.773   7.613   5.839  0.0972  0.2993 -0.3086
   10CHTO  H159 3982   3.756   7.718   5.862 -0.4588  0.0447  0.4766
   10CHTO   O53 3983   3.695   7.545   5.723  0.7019  0.2937  0.4291
   10CHTO   C82 3984   3.543   7.550   5.740 -0.0228 -0.2712 -0.0280
   10CHTO  H154 3985   3.509   7.653   5.746 -2.0103 -0.7977 -1.5586
   10CHTO   C89 3986   3.478   7.485   5.617 -0.6822 -0.6243  1.0656
   10CHTO   O59 3987   3.350   7.553   5.591 -0.4418 -0.0043 -0.1031
   10CHTO  H137 3988   3.356   7.632   5.542  0.7873  0.1801  0.3151
   10CHTO   O45 3989   3.926   7.589   5.793 -0.0138  0.6239  0.1550
   10CHTO   C67 3990   3.977   7.647   5.672 -0.3842  0.3091  0.0062
   10CHTO  H124 3991   3.956   7.588   5.583 -1.2267  0.5230  0.0603
   10CHTO   C65 3992   3.931   7.792   5.659  0.1471  0.5819 -0.1174
   10CHTO  H122 3993   3.823   7.793   5.674  0.0261 -0.1948 -0.9080
   10CHTO   O44 3994   3.957   7.840   5.527 -0.7680  0.0317  0.1158
   10CHTO  H102 3995   3.888   7.856   5.465  0.0487  0.3861 -0.7265
   10CHTO   C63 3996   3.991   7.878   5.777 -0.0218 -0.3633  0.3013
   10CHTO  H120 3997   3.959   7.838   5.872  0.4782 -1.5835 -0.0318
   10CHTO   N11 3998   3.932   8.014   5.782 -0.5635  0.5337 -0.7776
   10CHTO  H108 3999   3.952   8.052   5.684 -3.9218  0.2631 -1.6294
   10CHTO  H109 4000   3.967   8.068   5.867  0.7483 -0.2951 -0.7797
   10CHTO   C61 4001   4.149   7.869   5.773 -0.4423  0.5920 -0.8973
   10CHTO  H118 4002   4.181   7.917   5.866 -4.7175  0.0265  1.0075
   10CHTO   O40 4003   4.207   7.736   5.771  0.1425  0.1863  0.0579
   10CHTO   C68 4004   4.138   7.636   5.693  0.3612  0.4622  0.2914
   10CHTO  H125 4005   4.154   7.545   5.754  0.4611  1.0118  1.0980
   10CHTO   C72 4006   4.217   7.614   5.556  0.1155 -0.5054  0.1743
   10CHTO   O48 4007   4.163   7.527   5.453  0.0075 -0.1812  0.2054
   10CHTO  H105 4008   4.194   7.441   5.472 -1.6333 -1.0168 -0.6961
   10CHTO   O38 4009   4.204   7.934   5.657 -0.4680 -0.0215 -0.4802
   10CHTO   C55 4010   4.331   7.993   5.650  0.4850  0.0328 -0.0868
   10CHTO  H112 4011   4.406   7.916   5.629  2.1202  1.3386  0.8868
   10CHTO   C56 4012   4.368   8.077   5.782 -0.4821  0.6292  0.2147
   10CHTO  H113 4013   4.275   8.131   5.809 -0.9292 -0.2446  0.4463
   10CHTO   O42 4014   4.401   7.988   5.890 -0.3228  0.3397  0.2643
   10CHTO  H100 4015   4.328   7.966   5.945 -0.2709  0.3633  0.3433
   10CHTO   C57 4016   4.494   8.174   5.759  1.0143  0.0781  0.5094
   10CHTO  H114 4017   4.572   8.101   5.740  1.2343  0.3594  0.3248
   10CHTO   N10 4018   4.522   8.259   5.869 -0.3481  0.4559  0.2819
   10CHTO  H106 4019   4.465   8.348   5.845  0.6134  0.6220 -1.5400
   10CHTO  H107 4020   4.627   8.283   5.872 -0.3004  0.1634  1.0110
   10CHTO   C58 4021   4.461   8.254   5.630  0.2393 -0.3316 -0.7509
   10CHTO  H115 4022   4.362   8.302   5.632 -0.1469 -1.1499 -0.1156
   10CHTO   O37 4023   4.460   8.160   5.517  0.1944 -0.3817 -1.2128
   10CHTO   C59 4024   4.339   8.087   5.521  0.4407  0.7458  1.0693
   10CHTO  H116 4025   4.250   8.149   5.515 -0.4379 -0.5479  0.5251
   10CHTO   C70 4026   4.339   7.994   5.400  0.2227 -0.4210 -0.0146
   10CHTO   O46 4027   4.342   8.068   5.272  0.3055  0.0515  0.3168
   10CHTO  H103 4028   4.335   8.015   5.195 -1.9073 -0.0209  0.5358
   10CHTO   O39 4029   4.577   8.360   5.593  0.0312 -0.1650  0.2166
   10CHTO   C60 4030   4.520   8.490   5.580 -0.5540 -0.3681 -0.5843
   10CHTO  H117 4031   4.411   8.496   5.588 -0.7122 -2.4767 -0.9966
   10CHTO   C62 4032   4.594   8.578   5.677 -0.0122  0.6068  0.0887
   10CHTO  H119 4033   4.560   8.543   5.777  1.0416  0.0397  0.2571
   10CHTO   O43 4034   4.736   8.550   5.669  0.6694 -0.0295  0.0424
   10CHTO  H101 4035   4.764   8.518   5.753  1.0298  3.3970  1.3196
   10CHTO   C66 4036   4.554   8.733   5.670  0.3562  0.6443  0.4666
   10CHTO  H123 4037   4.448   8.743   5.692  0.0985  0.4019 -0.6764
   10CHTO   N12 4038   4.619   8.826   5.764 -0.0036 -0.4662  0.1760
   10CHTO  H110 4039   4.725   8.831   5.742 -0.0583 -0.9509 -0.2140
   10CHTO  H111 4040   4.571   8.918   5.793  1.0076  0.0825  0.1401
   10CHTO   C69 4041   4.567   8.791   5.526  0.1937 -0.3740 -0.4414
   10CHTO  H126 4042   4.674   8.792   5.496  0.3585 -1.2183  0.0914
   10CHTO   O41 4043   4.496   8.684   5.416  0.1918 -0.4208  0.2005
   10CHTO   C64 4044   4.557   8.546   5.437  0.4890 -0.6623  0.6297
   10CHTO  H121 4045   4.667   8.547   5.422  0.4704  0.0639  0.5290
   10CHTO   C71 4046   4.499   8.454   5.327 -0.3519 -0.6120 -0.0492
   10CHTO   O47 4047   4.525   8.488   5.194 -0.5947  0.2560 -0.1834
   10CHTO  H104 4048   4.482   8.425   5.139 -0.2641  0.6215 -0.8618
   10CHTO   O34 4049   4.500   8.939   5.509  0.6047  0.4019 -0.2184
   10CHTO   C49 4050   4.380   9.004   5.500 -0.2035  0.2268  0.3883
   10CHTO   H91 4051   4.406   9.105   5.531 -0.8301  0.7275 -0.7055
   10CHTO   C47 4052   4.266   8.944   5.592  0.4264  1.0136 -0.1712
   10CHTO   H89 4053   4.302   8.966   5.695  3.5368 -0.4158 -0.8762
   10CHTO   O33 4054   4.267   8.799   5.579 -0.4290  0.1593  0.4075
   10CHTO   H70 4055   4.225   8.747   5.646 -0.9842 -1.1395 -0.9108
   10CHTO   C45 4056   4.117   8.998   5.556 -0.3351  0.4006  0.1938
   10CHTO   H87 4057   4.070   8.923   5.491 -1.2528 -0.7552  2.1734
   10CHTO    N8 4058   4.044   8.999   5.684 -0.3427 -0.3812 -0.1293
   10CHTO   H75 4059   3.939   8.985   5.662 -0.2783 -1.6251  0.2641
   10CHTO   H76 4060   4.063   9.099   5.720  1.7900  0.2045 -2.7289
   10CHTO   C43 4061   4.115   9.123   5.453  0.2976  0.3979 -0.3329
   10CHTO   H85 4062   4.012   9.143   5.425 -0.2448 -1.4941  0.2001
   10CHTO   O29 4063   4.196   9.085   5.336  0.0928  0.0452 -0.9343
   10CHTO   C50 4064   4.316   9.006   5.355  0.0825 -0.7976 -0.4470
   10CHTO   H92 4065   4.295   8.898   5.347  0.3877 -0.9969  1.3363
   10CHTO   C54 4066   4.422   9.026   5.243  0.5790 -0.4632  0.0287
   10CHTO   O36 4067   4.388   8.955   5.118  0.7893  0.1399 -0.7449
   10CHTO   H72 4068   4.302   8.984   5.094 -0.8601 -1.8893  2.3838
   10CHTO   O27 4069   4.170   9.241   5.515 -0.4547  0.3325 -0.0729
   10CHTO   C37 4070   4.180   9.370   5.446 -0.8807 -0.0798 -0.3988
   10CHTO   H79 4071   4.251   9.369   5.362 -0.3643  0.0212  0.0335
   10CHTO   C38 4072   4.039   9.422   5.393 -0.6953 -0.7704 -0.4350
   10CHTO   H80 4073   3.956   9.419   5.466 -0.5118  1.1252 -0.1142
   10CHTO   O31 4074   4.012   9.334   5.286 -0.2899 -0.3662  0.0102
   10CHTO   H68 4075   3.935   9.283   5.303  1.3507 -2.1257  2.6019
   10CHTO   C39 4076   4.054   9.567   5.331 -0.4390 -0.5468 -0.5310
   10CHTO   H81 4077   4.123   9.559   5.247 -1.5648 -1.4828 -1.3800
   10CHTO    N7 4078   3.932   9.627   5.279  0.0174 -0.0646 -0.1039
   10CHTO   H73 4079   3.953   9.693   5.196  0.2566  1.5719  1.2244
   10CHTO   H74 4080   3.878   9.678   5.358 -0.7342  0.1936 -0.7846
   10CHTO   C40 4081   4.137   9.661   5.430  0.5218  0.1770  0.3217
   10CHTO   H82 4082   4.072   9.702   5.507  0.0502 -0.0993  0.0716
   10CHTO   O26 4083   4.256   9.600   5.480 -0.2638  0.4461  0.4621
   10CHTO   C41 4084   4.234   9.474   5.547 -0.3502 -0.0296  0.7229
   10CHTO   H83 4085   4.162   9.487   5.629 -0.8614 -0.4264  0.3362
   10CHTO   C52 4086   4.370   9.445   5.618 -1.0385 -0.0453  0.6529
   10CHTO   O35 4087   4.420   9.554   5.707  0.1591  0.0284  0.2974
   10CHTO   H71 4088   4.402   9.633   5.659  2.0878  0.5933  0.4336
   10CHTO   O28 4089   4.209   9.765   5.355 -0.4704 -0.2761 -0.4618
   10CHTO   C42 4090   4.236   9.895   5.412  0.0717 -0.2253 -0.0162
   10CHTO   H84 4091   4.222   9.878   5.519  4.5728 -0.6815  0.6009
   10CHTO   C44 4092   4.139  10.008   5.365 -0.7963  0.0092  0.0208
   10CHTO   H86 4093   4.129  10.013   5.256 -0.5081  2.5036  0.0970
   10CHTO   O32 4094   4.014   9.973   5.428  0.3832 -0.4894 -0.0159
   10CHTO   H69 4095   3.980   9.891   5.400  0.9322 -0.7835  0.1754
   10CHTO   C48 4096   4.193  10.145   5.417 -0.1272 -0.5359 -1.1812
   10CHTO   H90 4097   4.182  10.146   5.525  0.9661 -2.3736 -1.0368
   10CHTO    N9 4098   4.112  10.263   5.371 -0.1366 -0.2374  0.6710
   10CHTO   H77 4099   4.186  10.336   5.341  1.6905 -2.1612  0.3645
   10CHTO   H78 4100   4.039  10.262   5.291  1.1540 -1.3810 -0.5350
   10CHTO   C51 4101   4.344  10.163   5.374 -0.6246 -0.2714 -0.1246
   10CHTO   H93 4102   4.361  10.161   5.266 -1.9805 -1.7340 -0.3402
   10CHTO   O30 4103   4.420  10.065   5.436  0.4067 -0.3583  0.5395
   10CHTO   C46 4104   4.391   9.935   5.392 -0.1136 -0.3809  1.0205
   10CHTO   H88 4105   4.416   9.929   5.286 -0.7314  1.9662  0.7123
   10CHTO   C53 4106   4.486   9.843   5.470  0.0032 -0.1292  0.0625
   10CHTO   O72 4107   4.626   9.860   5.432  0.0494 -0.1625  0.1881
   10CHTO  H199 4108   4.682   9.789   5.459  1.2450  0.2669 -1.0925
   10CHTO   O22 4109   4.411  10.280   5.429  0.2836  0.4630  0.0026
   10CHTO   C31 4110   4.524  10.343   5.360 -0.0056 -0.4895 -0.2060
   10CHTO   H59 4111   4.562  10.415   5.436 -1.2321 -0.0265 -0.0108
   10CHTO   C29 4112   4.638  10.248   5.316  0.0679  0.0616 -0.0176
   10CHTO   H57 4113   4.597  10.159   5.266 -0.2691 -1.3079  2.6635
   10CHTO   O21 4114   4.700  10.198   5.439  0.4801  0.0559 -0.7446
   10CHTO   H37 4115   4.790  10.169   5.438  0.7844  0.8888  0.6434
   10CHTO   C27 4116   4.749  10.316   5.221 -0.0775  0.0281 -0.0506
   10CHTO   H55 4117   4.816  10.374   5.286  0.9269 -0.5467 -0.5584
   10CHTO    N5 4118   4.831  10.213   5.154 -0.2440 -0.2664  0.0071
   10CHTO   H43 4119   4.761  10.141   5.113  1.2028 -1.9464  0.4468
   10CHTO   H44 4120   4.887  10.267   5.080 -0.7822 -1.0621 -1.0011
   10CHTO   C25 4121   4.682  10.417   5.119 -0.5675  0.1536 -0.0712
   10CHTO   H53 4122   4.634  10.359   5.040 -1.3874  0.4846  0.1812
   10CHTO   O17 4123   4.587  10.504   5.184 -0.8579 -0.3131 -0.6884
   10CHTO   C32 4124   4.476  10.435   5.239  0.6697  0.0811  0.3001
   10CHTO   H60 4125   4.434  10.377   5.156 -1.0212  0.7814  0.6645
   10CHTO   C36 4126   4.367  10.530   5.293 -0.5270 -0.4796 -0.0144
   10CHTO   O25 4127   4.299  10.610   5.201 -0.2724 -0.8108  0.0083
   10CHTO   H40 4128   4.223  10.634   5.250  0.2237 -1.6340  1.1943
   10CHTO   O15 4129   4.794  10.493   5.039  0.2474 -0.1884  0.4486
   10CHTO   C19 4130   4.822  10.549   4.908  0.2742  0.0452  0.0050
   10CHTO   H47 4131   4.755  10.498   4.837 -1.1445  0.2507  1.1589
   10CHTO   C20 4132   4.800  10.703   4.900  0.3297  0.6490  0.8038
   10CHTO   H48 4133   4.860  10.757   4.976  1.3761 -0.5215  0.8214
   10CHTO   O19 4134   4.661  10.720   4.948 -0.3633 -0.3753  0.0882
   10CHTO   H35 4135   4.669  10.706   5.040  1.2680  1.6834  0.2982
   10CHTO   C21 4136   4.822  10.756   4.756  0.4893 -0.0948 -0.5872
   10CHTO   H49 4137   4.760  10.702   4.683  2.7847 -1.6134 -1.4826
   10CHTO    N4 4138   4.796  10.902   4.735  0.7021 -0.6283 -0.6047
   10CHTO   H41 4139   4.869  10.950   4.671  2.0921 -1.3228  0.4418
   10CHTO   H42 4140   4.791  10.953   4.830 -1.0993 -1.2651 -0.3420
   10CHTO   C22 4141   4.968  10.727   4.716  0.4249  0.4912  0.0057
   10CHTO   H50 4142   5.035  10.776   4.787  0.5857  0.5522 -0.1883
   10CHTO   O14 4143   4.984  10.578   4.723  0.5923  0.0877  0.1223
   10CHTO   C23 4144   4.967  10.526   4.858 -0.2226 -0.1248 -1.2221
   10CHTO   H51 4145   5.042  10.566   4.927 -2.3446  0.3552  0.8548
   10CHTO   C34 4146   4.986  10.369   4.844 -0.2821 -0.9054  0.1847
   10CHTO   O23 4147   5.111  10.325   4.792  0.0186  0.5296  0.0834
   10CHTO   H38 4148   5.172  10.385   4.828 -2.4762  1.4532  2.9226
   10CHTO   O16 4149   4.997  10.759   4.581  0.4668  0.2991 -0.9056
   10CHTO   C24 4150   5.171  10.768   4.559 -0.5088  0.5943  0.0883
   10CHTO   H52 4151   5.222  10.726   4.646 -0.9234 -1.0507 -0.4538
   10CHTO   C26 4152   5.207  10.924   4.542 -0.0913  0.0450 -0.2318
   10CHTO   H54 4153   5.151  10.960   4.454 -1.0036  1.0149  0.7338
   10CHTO   O20 4154   5.167  10.998   4.662  0.4323  0.2293  0.0314
   10CHTO   H36 4155   5.211  10.961   4.736 -1.1689  0.7777  1.2889
   10CHTO   C30 4156   5.359  10.941   4.517  0.8189  0.4921  0.4150
   10CHTO   H58 4157   5.416  10.912   4.606  0.6129 -1.1246  0.0283
   10CHTO    N6 4158   5.388  11.084   4.492 -0.4036 -0.4268 -0.1665
   10CHTO   H45 4159   5.495  11.091   4.504 -0.3070 -1.5424 -0.3605
   10CHTO   H46 4160   5.366  11.103   4.388  0.2112 -2.2741 -0.6593
   10CHTO   C33 4161   5.415  10.841   4.410  0.1998  0.1135  0.0017
   10CHTO   H61 4162   5.374  10.868   4.312 -0.6652  0.3248  0.4144
   10CHTO   O18 4163   5.365  10.705   4.433  0.6085  0.6028  0.2412
   10CHTO   C28 4164   5.223  10.686   4.440 -0.2824  0.1068  0.7121
   10CHTO   H56 4165   5.181  10.729   4.348 -1.8563  0.7221  1.6820
   10CHTO   C35 4166   5.183  10.536   4.451  0.8154  0.2535  0.8132
   10CHTO   O24 4167   5.219  10.449   4.345  0.2751 -0.2812 -0.6279
   10CHTO   H39 4168   5.181  10.482   4.265 -0.0717  1.0827  0.0877
   10CHTO    O9 4169   5.557  10.843   4.394 -0.1158 -0.0464 -0.0303
   10CHTO   C13 4170   5.620  10.754   4.299  0.4736 -0.3082  0.0547
   10CHTO   H26 4171   5.564  10.754   4.203 -0.1939  1.4797  0.4076
   10CHTO   C11 4172   5.632  10.607   4.366 -0.2496 -0.6209  0.2590
   10CHTO   H24 4173   5.533  10.561   4.379 -0.8754  0.9402  1.2473
   10CHTO    O8 4174   5.698  10.634   4.493  0.5030  0.4686  0.1140
   10CHTO    H3 4175   5.720  10.554   4.537  1.2592  0.1981 -0.7621
   10CHTO    C9 4176   5.704  10.512   4.270  0.0205 -0.0800  0.1688
   10CHTO   H22 4177   5.633  10.500   4.187  0.6091 -1.8071 -0.0888
   10CHTO    N2 4178   5.712  10.373   4.321  1.0478 -0.3556  0.3913
   10CHTO   H10 4179   5.646  10.306   4.267  1.8359 -0.6016 -0.2760
   10CHTO   H11 4180   5.694  10.365   4.427 -0.7083 -2.4385 -0.0309
   10CHTO    C7 4181   5.840  10.583   4.225 -0.4200  0.4372  0.7714
   10CHTO   H20 4182   5.876  10.523   4.138  0.5854  2.1800 -0.0504
   10CHTO    O4 4183   5.821  10.721   4.171 -0.0152  0.4533  0.1344
   10CHTO   C14 4184   5.751  10.813   4.255  0.2069 -0.2000  0.0986
   10CHTO   H27 4185   5.727  10.891   4.180  1.2924  0.2071  0.1582
   10CHTO   C18 4186   5.833  10.889   4.359 -0.6162  0.1037  0.1523
   10CHTO   O13 4187   5.961  10.923   4.315 -0.6514 -0.5054 -0.5267
   10CHTO    H7 4188   5.944  11.000   4.264 -0.0719 -0.3814 -0.5448
   10CHTO    O2 4189   5.968  10.590   4.340 -0.3084  0.0907  0.1952
   10CHTO    C1 4190   6.099  10.564   4.294  0.6567  0.4569  0.0964
   10CHTO   H14 4191   6.171  10.618   4.359 -2.4895  4.6325  0.2866
   10CHTO    C2 4192   6.134  10.608   4.141  0.0688 -0.5052  0.1490
   10CHTO   H15 4193   6.068  10.560   4.067  0.5092  1.3056 -1.4490
   10CHTO    O6 4194   6.117  10.747   4.136  0.0497  0.2789  0.4286
   10CHTO    H1 4195   6.025  10.766   4.126 -0.1909 -1.6868 -1.4258
   10CHTO    C3 4196   6.286  10.565   4.111 -0.0255  0.0711  0.5430
   10CHTO   H16 4197   6.350  10.626   4.176 -0.2281  0.0601  0.7539
   10CHTO    N1 4198   6.333  10.604   3.972  0.5910  0.1355  0.0130
   10CHTO    H8 4199   6.440  10.603   3.962  0.5244 -0.2299 -0.7005
   10CHTO    H9 4200   6.280  10.545   3.899  2.1406 -0.8001 -0.3673
   10CHTO    C4 4201   6.315  10.419   4.139 -0.3526 -0.5475 -0.6030
   10CHTO   H17 4202   6.285  10.352   4.059 -0.0381 -2.0375  0.4900
   10CHTO    O1 4203   6.262  10.375   4.264  0.2766  0.4984 -0.0040
   10CHTO    C5 4204   6.130  10.413   4.310 -0.2218 -0.5600 -0.3307
   10CHTO   H18 4205   6.059  10.353   4.253  0.1759 -1.4512  0.1071
   10CHTO   C16 4206   6.119  10.374   4.462 -0.1602  0.4478  0.4576
   10CHTO   O11 4207   6.218  10.429   4.547 -0.2546 -0.4689 -0.3407
   10CHTO    H5 4208   6.270  10.358   4.579  0.6651  1.0347  1.6364
   10CHTO    O3 4209   6.460  10.388   4.153  0.2124  0.0043 -0.1473
   10CHTO    C6 4210   6.492  10.251   4.106  0.1296  0.1021  0.3004
   10CHTO   H19 4211   6.405  10.185   4.099  0.8963 -0.7629 -1.6586
   10CHTO    C8 4212   6.545  10.260   3.956  0.3295 -0.3366 -0.8670
   10CHTO   H21 4213   6.597  10.355   3.941  1.0397 -0.2071  2.1560
   10CHTO    O7 4214   6.424  10.269   3.879  0.7808  0.6417  0.1954
   10CHTO    H2 4215   6.425  10.326   3.804 -0.1220  0.0686 -0.2572
   10CHTO   C12 4216   6.629  10.126   3.924 -0.1966 -0.6783 -0.0008
   10CHTO   H25 4217   6.549  10.054   3.896 -0.3253 -0.4308 -0.2714
   10CHTO    N3 4218   6.717  10.151   3.809  0.3501 -0.5528  0.5184
   10CHTO   H12 4219   6.779  10.239   3.822  0.2043 -0.4104  0.2597
   10CHTO   H13 4220   6.659  10.154   3.718 -1.4660 -0.7435  1.6577
   10CHTO   C15 4221   6.711  10.070   4.047  0.2007 -1.3050  0.1252
   10CHTO   H28 4222   6.798  10.132   4.065  0.6433 -1.9665  0.2974
   10CHTO   O10 4223   6.759   9.934   4.027  0.2262 -0.2065  0.5757
   10CHTO    H4 4224   6.851   9.941   4.006 -0.0715 -0.2837 -0.7975
   10CHTO    O5 4225   6.627  10.053   4.159 -0.1243 -0.2904  0.3257
   10CHTO   C10 4226   6.592  10.182   4.212 -0.0463  0.7710  0.3199
   10CHTO   H23 4227   6.682  10.236   4.241  0.4030  1.3945 -2.1528
   10CHTO   C17 4228   6.524  10.151   4.346  0.2162 -0.0845  0.2397
   10CHTO   O12 4229   6.479  10.268   4.416 -0.1543 -0.7544 -0.9510
   10CHTO    H6 4230   6.417  10.251   4.484 -0.1650 -1.0135 -1.0227
   11CHTO  H203 4231   6.423   4.743   0.983  0.5596 -0.2101  0.5040
   11CHTO   O82 4232   6.426   4.804   1.055  0.2145 -0.3475  0.6372
   11CHTO  C123 4233   6.443   4.937   1.013  0.2525  0.3528  0.3341
   11CHTO  H227 4234   6.485   4.941   0.911  0.1263 -0.6778  0.2298
   11CHTO   O77 4235   6.303   4.984   1.001 -0.1138  0.0233 -0.1859
   11CHTO  C118 4236   6.299   5.121   0.971  0.1445  0.5987 -0.1495
   11CHTO  H222 4237   6.355   5.141   0.879  1.0756  3.5111  0.9863
   11CHTO  C125 4238   6.148   5.154   0.949  0.6837 -0.0507  0.6612
   11CHTO   O84 4239   6.072   5.130   1.070 -0.2630 -0.0031 -0.2046
   11CHTO  H205 4240   5.995   5.176   1.044 -0.9273 -0.1117  1.5410
   11CHTO  C114 4241   6.369   5.209   1.073 -0.6555 -0.0038  0.0732
   11CHTO  H218 4242   6.325   5.185   1.170 -0.7815  0.6725  0.1851
   11CHTO  C116 4243   6.520   5.171   1.088  0.2985 -0.4291  0.1639
   11CHTO  H220 4244   6.567   5.187   0.989  0.5448 -2.9765 -0.1654
   11CHTO   O79 4245   6.579   5.261   1.184 -0.5478 -0.0149  0.1043
   11CHTO  H201 4246   6.664   5.231   1.210 -0.2489 -0.1496 -0.9849
   11CHTO  C120 4247   6.524   5.020   1.119  0.1675  0.1821  0.0883
   11CHTO  H224 4248   6.469   4.998   1.213 -1.7988  0.7454 -0.9198
   11CHTO   N21 4249   6.668   4.972   1.131  0.1891 -0.0843 -0.0112
   11CHTO  H211 4250   6.726   4.990   1.220 -0.6852 -1.2603  0.8073
   11CHTO  H212 4251   6.673   4.867   1.105  1.0037 -0.0405 -0.0380
   11CHTO   O75 4252   6.356   5.339   1.019  0.1797  0.2884 -0.1147
   11CHTO  C112 4253   6.332   5.450   1.132  0.4130  0.2151 -0.0016
   11CHTO  H216 4254   6.408   5.441   1.211  1.1108 -0.5295 -0.7538
   11CHTO   O73 4255   6.204   5.428   1.185  0.0150 -0.0280  0.5319
   11CHTO  C113 4256   6.150   5.536   1.263  0.1295  0.6339 -1.0621
   11CHTO  H217 4257   6.219   5.540   1.349 -1.7815  1.4292  0.4621
   11CHTO  C124 4258   6.008   5.499   1.303 -0.0365  0.3932 -0.4498
   11CHTO   O83 4259   5.916   5.441   1.211 -0.2725 -0.4256 -0.1722
   11CHTO  H204 4260   5.900   5.506   1.145  1.8317  0.4169  0.1038
   11CHTO  C109 4261   6.159   5.673   1.181  0.3582  0.5381 -0.0064
   11CHTO  H213 4262   6.113   5.654   1.083  0.9525  0.4295 -0.2634
   11CHTO  C110 4263   6.303   5.708   1.152 -0.3558  0.2122 -0.0517
   11CHTO  H214 4264   6.363   5.723   1.241 -2.2393 -1.9691  1.6770
   11CHTO   O78 4265   6.297   5.838   1.086  0.1276  0.1616  0.2725
   11CHTO  H200 4266   6.347   5.846   1.007  1.0920  1.0639  0.9600
   11CHTO  C111 4267   6.356   5.590   1.066  0.5842 -0.6260 -0.2460
   11CHTO  H215 4268   6.305   5.590   0.969 -1.2465 -1.1925  0.7026
   11CHTO   N19 4269   6.503   5.600   1.037 -0.1684 -0.1756 -0.3239
   11CHTO  H207 4270   6.560   5.510   1.058  1.1010  1.1133  1.9879
   11CHTO  H208 4271   6.515   5.620   0.932  1.2593  2.9106  0.3817
   11CHTO   O74 4272   6.083   5.779   1.253  0.2974 -0.4932  0.0902
   11CHTO  C115 4273   6.013   5.877   1.149 -0.3465 -0.3727 -0.2881
   11CHTO  H219 4274   6.077   5.904   1.065 -0.9815 -0.8803 -0.9428
   11CHTO   O76 4275   5.893   5.805   1.074 -0.0609 -0.2145  0.1796
   11CHTO  C122 4276   5.781   5.773   1.158 -0.6109 -0.2984  0.4442
   11CHTO  H226 4277   5.803   5.680   1.210 -0.1370 -0.8574 -0.7384
   11CHTO  C126 4278   5.668   5.738   1.064 -0.0794  0.4245  0.4869
   11CHTO   O85 4279   5.693   5.619   0.987 -0.0308  0.0493  0.1248
   11CHTO  H206 4280   5.626   5.592   0.926 -1.8764 -2.2434  3.0376
   11CHTO  C121 4281   5.746   5.889   1.257 -0.6315  0.4441  0.2254
   11CHTO  H225 4282   5.636   5.905   1.247 -0.6432  0.5504  0.5189
   11CHTO   O81 4283   5.792   5.853   1.386  0.0678  0.0189 -0.9088
   11CHTO  H202 4284   5.749   5.779   1.425  0.2729 -0.0585 -0.8292
   11CHTO  C119 4285   5.818   6.025   1.226  0.1009  0.5997  0.3624
   11CHTO  H223 4286   5.783   6.039   1.124 -1.8267 -0.7291  0.8011
   11CHTO  C117 4287   5.975   6.013   1.223  0.0885  0.1479  0.2784
   11CHTO  H221 4288   6.012   6.002   1.325  0.9916 -0.2550 -0.0850
   11CHTO   N20 4289   6.037   6.138   1.164 -0.1944 -0.2007  0.0947
   11CHTO  H209 4290   6.137   6.113   1.135  0.4618  0.5259  1.6889
   11CHTO  H210 4291   6.034   6.226   1.227 -1.9674  0.1432 -0.4260
   11CHTO   O80 4292   5.752   6.157   1.306 -0.3613  0.2827 -0.0585
   11CHTO  C103 4293   5.778   6.176   1.457  0.2656 -0.1994  0.2520
   11CHTO  H190 4294   5.800   6.081   1.505 -1.1447 -0.0952  1.1443
   11CHTO  C101 4295   5.889   6.286   1.492 -0.7082 -0.2318  0.1141
   11CHTO  H188 4296   5.861   6.376   1.436 -0.4136  0.0655  0.4408
   11CHTO   O68 4297   6.042   6.239   1.463 -0.1268  0.2024 -0.3636
   11CHTO  H168 4298   6.043   6.212   1.373 -1.0335 -0.0044 -0.3157
   11CHTO   C99 4299   5.887   6.317   1.646  0.2165 -1.2430  0.0552
   11CHTO  H186 4300   5.901   6.227   1.709 -0.4547 -1.5912 -0.2832
   11CHTO   N17 4301   5.989   6.418   1.694  0.0369  0.5394  0.8155
   11CHTO  H174 4302   5.981   6.512   1.641 -3.3789  0.7739  1.6201
   11CHTO  H175 4303   6.086   6.371   1.698  0.3471  1.2811  2.5282
   11CHTO   C97 4304   5.739   6.366   1.680 -0.0697 -0.1294 -0.8798
   11CHTO  H184 4305   5.724   6.453   1.615 -0.3812 -0.0067 -0.6474
   11CHTO   O64 4306   5.645   6.257   1.656  0.0227 -0.3008 -0.4217
   11CHTO  C104 4307   5.638   6.230   1.515 -1.0385  0.1527 -0.2436
   11CHTO  H191 4308   5.611   6.323   1.465  0.5523  0.3428 -0.7819
   11CHTO  C108 4309   5.516   6.136   1.495 -0.0915 -0.0330  0.7162
   11CHTO   O71 4310   5.539   6.000   1.518  0.0315 -0.0278  0.4588
   11CHTO  H171 4311   5.613   5.970   1.469  1.3200  2.3252  0.8867
   11CHTO   O62 4312   5.717   6.401   1.817 -0.1753  0.2103  0.0986
   11CHTO   C91 4313   5.618   6.508   1.831  0.9161 -0.2997 -0.4712
   11CHTO  H178 4314   5.548   6.496   1.748 -0.5215 -0.5905  0.7682
   11CHTO   C92 4315   5.681   6.656   1.828 -0.1222 -0.3112 -0.2271
   11CHTO  H179 4316   5.754   6.672   1.747 -0.1992  0.0896 -0.2205
   11CHTO   O66 4317   5.582   6.752   1.804 -0.3843 -0.1674 -0.0064
   11CHTO  H166 4318   5.553   6.757   1.715 -2.4779 -3.2679  0.3958
   11CHTO   C93 4319   5.754   6.697   1.962 -0.0575 -0.2522 -0.5716
   11CHTO  H180 4320   5.762   6.807   1.965 -2.3710 -0.0651  1.3904
   11CHTO   N16 4321   5.891   6.639   1.974 -0.0535  0.2196 -0.3213
   11CHTO  H172 4322   5.936   6.662   2.069 -0.9785 -1.3623  0.5151
   11CHTO  H173 4323   5.958   6.677   1.898  0.3316  0.3779  0.0947
   11CHTO   C94 4324   5.664   6.660   2.078 -0.6196 -1.0452  0.0876
   11CHTO  H181 4325   5.714   6.597   2.152 -0.0784  0.1198  0.7367
   11CHTO   O61 4326   5.533   6.599   2.048 -0.0856 -0.2028 -0.1242
   11CHTO   C95 4327   5.531   6.489   1.962 -0.7976  0.1258  0.8207
   11CHTO  H182 4328   5.580   6.409   2.018 -0.2170  0.6381  1.0384
   11CHTO  C106 4329   5.386   6.440   1.934  0.4842 -0.0593  0.4028
   11CHTO   O69 4330   5.379   6.321   1.843  0.0522 -0.4198  0.1142
   11CHTO  H169 4331   5.410   6.330   1.755 -1.4532  0.8499 -0.2963
   11CHTO   O63 4332   5.630   6.789   2.148 -0.2381 -0.3462 -0.3368
   11CHTO   C96 4333   5.746   6.846   2.233  0.1814 -0.4394  0.4425
   11CHTO  H183 4334   5.835   6.822   2.176 -0.0186 -1.2129  0.4565
   11CHTO   C98 4335   5.774   6.784   2.374  0.0931 -0.7954 -0.4484
   11CHTO  H185 4336   5.734   6.681   2.378 -1.1755 -0.2123  2.2399
   11CHTO   O67 4337   5.915   6.773   2.388  0.3777 -0.3238 -0.3248
   11CHTO  H167 4338   5.935   6.692   2.431 -1.3993 -0.7584 -0.2867
   11CHTO  C102 4339   5.730   6.870   2.489 -0.0743 -0.3511  0.3512
   11CHTO  H189 4340   5.786   6.835   2.577  0.1137 -0.9350  0.0016
   11CHTO   N18 4341   5.583   6.856   2.527  0.5257 -0.1383  0.9944
   11CHTO  H176 4342   5.522   6.876   2.441 -0.8260 -1.7722  1.5317
   11CHTO  H177 4343   5.551   6.914   2.613  2.6501  0.2346  1.5624
   11CHTO  C105 4344   5.776   7.023   2.477 -0.8852 -0.0151  0.6142
   11CHTO  H192 4345   5.696   7.087   2.513 -1.2170  1.2086 -2.1797
   11CHTO   O65 4346   5.803   7.068   2.341 -0.2233 -0.3454 -0.1537
   11CHTO  C100 4347   5.728   7.010   2.239 -0.0309 -0.8206  0.0254
   11CHTO  H187 4348   5.621   7.030   2.258  0.8659  2.4380  1.8894
   11CHTO  C107 4349   5.765   7.074   2.105  0.0304  0.6143  0.5390
   11CHTO   O70 4350   5.662   7.055   2.009  0.3583  0.2538  0.3406
   11CHTO  H170 4351   5.701   7.093   1.933  1.2568 -3.8707 -1.4071
   11CHTO   O57 4352   5.899   7.037   2.551 -0.2835 -0.1481  0.5246
   11CHTO   C85 4353   5.921   7.153   2.636 -0.5113  1.0090 -0.0978
   11CHTO  H157 4354   5.824   7.171   2.686  0.3697 -2.6296  3.1493
   11CHTO   C83 4355   5.967   7.278   2.556  0.3883 -0.2004  0.1849
   11CHTO  H155 4356   5.894   7.301   2.477 -0.7051 -0.4317  1.1129
   11CHTO   O56 4357   6.093   7.261   2.489 -0.4155  0.2780  0.7236
   11CHTO  H135 4358   6.121   7.342   2.451 -1.6785 -0.5325 -2.0967
   11CHTO   C81 4359   5.976   7.398   2.658  0.3800 -0.4354  0.0481
   11CHTO  H153 4360   5.880   7.419   2.706  0.4223  0.5417 -0.2862
   11CHTO   N14 4361   6.009   7.523   2.591  0.4203 -0.6052 -0.0829
   11CHTO  H141 4362   6.116   7.529   2.585  0.3005 -0.0068 -1.9353
   11CHTO  H142 4363   5.964   7.609   2.635  2.8979  1.2780 -1.1228
   11CHTO   C79 4364   6.076   7.364   2.771 -0.5475  1.0544 -0.0830
   11CHTO  H151 4365   6.075   7.442   2.847  3.9377  0.9282  0.2545
   11CHTO   O52 4366   6.044   7.240   2.840  0.3051 -0.3407  0.1283
   11CHTO   C86 4367   6.036   7.126   2.744 -0.0037 -0.2191  0.3731
   11CHTO  H158 4368   6.139   7.120   2.704 -0.4424  1.2048 -1.0305
   11CHTO   C90 4369   6.013   6.993   2.825  0.2690 -0.7104  0.1340
   11CHTO   O60 4370   6.142   6.942   2.874 -0.2977 -0.2785 -0.2236
   11CHTO  H138 4371   6.166   6.983   2.954 -1.4496  0.1043 -0.0691
   11CHTO   O50 4372   6.216   7.361   2.737  0.0224 -0.2018 -0.0416
   11CHTO   C73 4373   6.351   7.362   2.787 -0.3831 -0.2426 -0.0497
   11CHTO  H145 4374   6.358   7.297   2.876 -0.1253  0.1984  0.2514
   11CHTO   C74 4375   6.400   7.505   2.823  0.5476  0.2585 -0.4085
   11CHTO  H146 4376   6.327   7.550   2.892  1.4233 -0.1721  0.8179
   11CHTO   O54 4377   6.534   7.491   2.888  0.0673 -0.5829  0.1582
   11CHTO  H133 4378   6.592   7.440   2.835  1.6798  2.8346 -1.5467
   11CHTO   C75 4379   6.413   7.592   2.684 -0.3718 -0.1185 -1.0138
   11CHTO  H147 4380   6.310   7.596   2.644  0.0923 -1.8775 -2.4104
   11CHTO   N13 4381   6.448   7.736   2.710 -0.5020 -0.1333  0.2812
   11CHTO  H139 4382   6.365   7.773   2.770 -1.3770 -0.8082 -0.5014
   11CHTO  H140 4383   6.537   7.746   2.770  1.4016 -1.2666 -2.2923
   11CHTO   C76 4384   6.509   7.525   2.572  0.0550  0.0056 -0.3285
   11CHTO  H148 4385   6.607   7.538   2.617 -0.4706  1.8238  0.3545
   11CHTO   O49 4386   6.458   7.381   2.560 -0.1031  0.5819  0.0927
   11CHTO   C77 4387   6.443   7.299   2.675 -0.3103 -0.3343 -0.2803
   11CHTO  H149 4388   6.545   7.284   2.711 -0.3791 -0.3737 -0.1030
   11CHTO   C88 4389   6.389   7.164   2.631  0.6712  0.3554  0.5404
   11CHTO   O58 4390   6.365   7.065   2.752  0.1719 -0.2524  0.5826
   11CHTO  H136 4391   6.287   7.015   2.738 -1.3447  1.8433  1.3138
   11CHTO   O51 4392   6.507   7.576   2.430  0.3005 -0.8428 -0.5870
   11CHTO   C78 4393   6.634   7.571   2.361  0.4914 -0.2195 -0.2526
   11CHTO  H150 4394   6.707   7.514   2.420  1.1956 -0.3155 -1.2042
   11CHTO   C80 4395   6.684   7.718   2.351  0.0033 -0.8047  0.1229
   11CHTO  H152 4396   6.603   7.782   2.311 -0.7363 -0.1503  2.5765
   11CHTO   O55 4397   6.702   7.768   2.489 -0.1383 -0.2233  0.4795
   11CHTO  H134 4398   6.766   7.716   2.533  0.8103  0.6676  0.1735
   11CHTO   C84 4399   6.810   7.738   2.264  0.6713 -0.0347  0.2383
   11CHTO  H156 4400   6.881   7.678   2.320 -2.0969 -1.6294  2.1684
   11CHTO   N15 4401   6.855   7.884   2.258  0.3597  0.1665  0.2130
   11CHTO  H143 4402   6.783   7.961   2.243 -2.7195 -1.1499  6.4312
   11CHTO  H144 4403   6.929   7.921   2.326 -1.1402  0.0622  1.9389
   11CHTO   C87 4404   6.779   7.671   2.125  0.6614  0.1790 -0.1569
   11CHTO  H159 4405   6.693   7.723   2.083  0.2168 -0.1417  0.3510
   11CHTO   O53 4406   6.742   7.508   2.148  0.4778 -0.5010  0.6023
   11CHTO   C82 4407   6.625   7.501   2.226  0.0394 -0.9501  0.0614
   11CHTO  H154 4408   6.544   7.550   2.171 -1.7313 -1.4602  2.1343
   11CHTO   C89 4409   6.581   7.354   2.243  0.0035 -0.1526 -0.2390
   11CHTO   O59 4410   6.438   7.349   2.269 -0.2575  0.5904 -0.6841
   11CHTO  H137 4411   6.406   7.263   2.251 -0.2894  0.6343 -0.8326
   11CHTO   O45 4412   6.911   7.683   2.021  0.0772  0.7340  0.2383
   11CHTO   C67 4413   6.886   7.629   1.887  0.7805  0.0386 -0.5204
   11CHTO  H124 4414   6.794   7.572   1.892  0.0568  1.3673  2.3447
   11CHTO   C65 4415   6.873   7.743   1.783  0.1510 -0.5573 -0.7280
   11CHTO  H122 4416   6.938   7.822   1.821  0.4786 -0.9829 -0.3977
   11CHTO   O44 4417   6.736   7.774   1.791  0.0822  0.1788  0.3769
   11CHTO  H102 4418   6.688   7.706   1.748  0.2202  1.3488 -1.6945
   11CHTO   C63 4419   6.929   7.701   1.636  0.6131 -0.2842 -0.4007
   11CHTO  H120 4420   7.035   7.725   1.628  0.6480 -0.8804 -1.9616
   11CHTO   N11 4421   6.875   7.790   1.526 -1.0423 -0.0867  0.0866
   11CHTO  H108 4422   6.917   7.764   1.431 -2.7838  0.1209 -0.7675
   11CHTO  H109 4423   6.888   7.893   1.551 -0.9453  0.1323 -0.8147
   11CHTO   C61 4424   6.906   7.550   1.610 -0.1602 -0.0794  0.1349
   11CHTO  H118 4425   6.961   7.529   1.517  3.6902  0.0954  2.2538
   11CHTO   O40 4426   6.962   7.476   1.710  0.2837 -0.3070  0.8505
   11CHTO   C68 4427   6.994   7.530   1.843 -0.2277 -0.1704 -0.7483
   11CHTO  H125 4428   7.094   7.579   1.844 -0.9573  1.3451 -0.2486
   11CHTO   C72 4429   7.000   7.408   1.947  0.6978 -0.4066  0.6036
   11CHTO   O48 4430   7.103   7.308   1.927  0.0541 -0.0662  0.5471
   11CHTO  H105 4431   7.127   7.277   2.012  0.2290 -0.0492  0.5033
   11CHTO   O38 4432   6.767   7.508   1.612  0.1909 -0.0391 -0.1646
   11CHTO   C55 4433   6.736   7.380   1.554 -0.2884 -0.5957 -0.5078
   11CHTO  H112 4434   6.816   7.309   1.579 -0.3453 -1.1939 -1.9669
   11CHTO   C56 4435   6.712   7.387   1.398  0.4324  0.1130 -0.8747
   11CHTO  H113 4436   6.636   7.466   1.387 -0.3695 -0.6978 -1.2150
   11CHTO   O42 4437   6.837   7.418   1.340 -0.0252  0.0794 -0.1005
   11CHTO  H100 4438   6.859   7.370   1.263  1.1074 -1.8670  1.3851
   11CHTO   C57 4439   6.641   7.256   1.343  0.3178  0.0650  0.3891
   11CHTO  H114 4440   6.720   7.180   1.343  0.1646 -0.1009  0.9668
   11CHTO   N10 4441   6.598   7.262   1.202 -0.1577  0.3527 -0.3738
   11CHTO  H106 4442   6.512   7.200   1.179 -0.1070  0.5621 -1.1688
   11CHTO  H107 4443   6.568   7.361   1.170 -1.8056  0.2458  0.8107
   11CHTO   C58 4444   6.528   7.212   1.440 -0.0332 -0.5460 -0.2492
   11CHTO  H115 4445   6.440   7.277   1.422  0.6941  0.1914 -1.1783
   11CHTO   O37 4446   6.558   7.204   1.582  0.2478  0.6739  0.6934
   11CHTO   C59 4447   6.606   7.328   1.634  0.2600  0.0158  0.4070
   11CHTO  H116 4448   6.536   7.409   1.612  0.2344  0.4128  1.9016
   11CHTO   C70 4449   6.640   7.320   1.784  0.7656 -0.3049  0.4665
   11CHTO   O46 4450   6.546   7.242   1.861 -0.5390 -0.0618  0.2963
   11CHTO  H103 4451   6.593   7.168   1.896 -0.6306  0.6109  1.8903
   11CHTO   O39 4452   6.492   7.072   1.409 -0.3741 -0.5646  0.3400
   11CHTO   C60 4453   6.344   7.044   1.410  0.0904 -0.1458 -0.6739
   11CHTO  H117 4454   6.292   7.081   1.498  1.6269 -1.5412  0.8448
   11CHTO   C62 4455   6.277   7.105   1.290  0.1066  0.4098  0.1275
   11CHTO  H119 4456   6.292   7.215   1.301 -0.3633  0.4553  0.3177
   11CHTO   O43 4457   6.337   7.056   1.171  0.8080  0.7315 -0.7703
   11CHTO  H101 4458   6.387   6.979   1.189  1.0043  1.3113  1.3438
   11CHTO   C66 4459   6.119   7.062   1.287  0.3237 -0.0650  1.0547
   11CHTO  H123 4460   6.070   7.088   1.381 -1.4110  2.1411 -0.4059
   11CHTO   N12 4461   6.050   7.133   1.176  0.6172  0.0074  0.5936
   11CHTO  H110 4462   5.951   7.101   1.146  1.3845 -0.3765 -1.6482
   11CHTO  H111 4463   6.035   7.232   1.214 -1.3438  0.3438 -0.9870
   11CHTO   C69 4464   6.108   6.908   1.285 -0.5675  0.7420  0.3429
   11CHTO  H126 4465   6.164   6.876   1.194 -0.9143  2.9129 -0.6729
   11CHTO   O41 4466   6.182   6.860   1.418  0.4900 -0.0489  0.4860
   11CHTO   C64 4467   6.323   6.891   1.416 -0.9694 -0.3604  0.9542
   11CHTO  H121 4468   6.370   6.834   1.333  1.2763  1.1609  1.1535
   11CHTO   C71 4469   6.382   6.834   1.549 -0.3290 -0.1330 -0.5601
   11CHTO   O47 4470   6.519   6.813   1.552 -0.9281  0.1399 -0.0208
   11CHTO  H104 4471   6.547   6.735   1.595 -2.0652  0.4880  1.4371
   11CHTO   O34 4472   5.960   6.858   1.283  0.4239  0.2288  0.0251
   11CHTO   C49 4473   5.841   6.894   1.366 -0.1807 -0.6302  0.6208
   11CHTO   H91 4474   5.867   6.950   1.456 -1.8674  0.9077  0.1765
   11CHTO   C47 4475   5.787   6.754   1.402 -0.2714  0.4358 -0.7534
   11CHTO   H89 4476   5.696   6.773   1.462 -0.7779 -1.8297 -0.7506
   11CHTO   O33 4477   5.886   6.687   1.489 -0.2990  0.3434 -0.3146
   11CHTO   H70 4478   5.857   6.600   1.509 -0.8377  1.1559  2.8497
   11CHTO   C45 4479   5.734   6.674   1.273  0.6974 -0.7636  0.7689
   11CHTO   H87 4480   5.811   6.682   1.195  0.2541  1.5550  0.5460
   11CHTO    N8 4481   5.706   6.533   1.309  0.5902 -0.3897  0.3251
   11CHTO   H75 4482   5.627   6.512   1.380 -0.5196 -0.3375 -0.8624
   11CHTO   H76 4483   5.682   6.481   1.217  0.5173  0.6065 -0.2243
   11CHTO   C43 4484   5.614   6.759   1.212 -0.6208  0.7179 -0.7036
   11CHTO   H85 4485   5.588   6.709   1.119 -3.4195 -1.4539  1.1750
   11CHTO   O29 4486   5.655   6.891   1.189 -0.2780 -0.8050 -0.0651
   11CHTO   C50 4487   5.729   6.967   1.285 -0.1531 -0.4245 -0.0250
   11CHTO   H92 4488   5.777   7.057   1.243  2.1600 -1.3990  0.4335
   11CHTO   C54 4489   5.620   7.039   1.374 -0.0665 -0.2292  0.2565
   11CHTO   O36 4490   5.660   7.154   1.447 -0.3326 -0.0387  0.5042
   11CHTO   H72 4491   5.699   7.119   1.525 -0.9648 -0.7925  0.4927
   11CHTO   O27 4492   5.498   6.758   1.295  0.1316  0.2332 -0.1959
   11CHTO   C37 4493   5.354   6.754   1.304 -0.6033  0.0835 -0.3510
   11CHTO   H79 4494   5.310   6.815   1.384 -0.6276 -0.1744 -0.1676
   11CHTO   C38 4495   5.300   6.814   1.164  0.2693 -0.2808  0.5593
   11CHTO   H80 4496   5.327   6.744   1.084  1.1419 -1.6839  2.0567
   11CHTO   O31 4497   5.361   6.943   1.143  0.1841  0.1046  0.3659
   11CHTO   H68 4498   5.454   6.932   1.138  0.1061 -0.2957 -0.2919
   11CHTO   C39 4499   5.135   6.819   1.180 -0.2807 -0.2753 -0.0352
   11CHTO   H81 4500   5.103   6.877   1.267 -0.3440 -0.8629  0.3386
   11CHTO    N7 4501   5.070   6.889   1.064 -0.5112  0.2477 -0.0398
   11CHTO   H73 4502   4.996   6.830   1.013  0.0821 -1.0176  0.5372
   11CHTO   H74 4503   5.028   6.980   1.103 -1.4344 -0.3407  0.3706
   11CHTO   C40 4504   5.092   6.664   1.206 -0.1538 -0.2729  0.5814
   11CHTO   H82 4505   5.125   6.601   1.124  1.5039  0.2688  0.7984
   11CHTO   O26 4506   5.145   6.620   1.329 -0.2872  0.8506 -0.3471
   11CHTO   C41 4507   5.290   6.611   1.326  0.0827  0.1488 -0.4283
   11CHTO   H83 4508   5.319   6.551   1.239 -0.7286  0.3070 -0.8122
   11CHTO   C52 4509   5.324   6.527   1.451  0.1673 -0.2406 -0.0587
   11CHTO   O35 4510   5.311   6.381   1.442  0.1083  0.5970  0.3049
   11CHTO   H71 4511   5.248   6.344   1.500 -0.0585 -0.7340 -0.6983
   11CHTO   O28 4512   4.951   6.659   1.230  0.1729 -0.0804  0.0490
   11CHTO   C42 4513   4.866   6.549   1.198 -0.4021 -0.3451 -0.0491
   11CHTO   H84 4514   4.932   6.498   1.128  0.7020  0.7997  0.1342
   11CHTO   C44 4515   4.741   6.586   1.123  0.3970 -0.1450  0.0310
   11CHTO   H86 4516   4.691   6.671   1.169 -1.0338 -0.8885 -0.1089
   11CHTO   O32 4517   4.791   6.651   1.005 -0.2179  0.4642  0.0836
   11CHTO   H69 4518   4.741   6.635   0.927  1.8058 -0.3795 -1.0625
   11CHTO   C48 4519   4.646   6.458   1.093  0.3560 -0.0985 -0.5289
   11CHTO   H90 4520   4.701   6.398   1.021 -1.5256  0.3245 -2.3454
   11CHTO    N9 4521   4.516   6.495   1.025 -0.1257 -0.1832  0.7498
   11CHTO   H77 4522   4.494   6.451   0.928 -0.9541  2.8349 -0.5079
   11CHTO   H78 4523   4.499   6.601   1.024  1.2921  0.0437 -1.2719
   11CHTO   C51 4524   4.619   6.384   1.229  0.0660 -0.2443 -0.0497
   11CHTO   H93 4525   4.579   6.454   1.302  3.9525 -0.7723  2.7122
   11CHTO   O30 4526   4.748   6.332   1.268  0.0525 -0.0374  0.0010
   11CHTO   C46 4527   4.834   6.453   1.321  0.0043 -0.1031 -0.4461
   11CHTO   H88 4528   4.787   6.502   1.406  3.5573 -1.9298  2.8053
   11CHTO   C53 4529   4.961   6.380   1.369  0.3861  0.4572  0.0291
   11CHTO   O72 4530   5.018   6.289   1.271  0.3126 -0.1301  0.1872
   11CHTO  H199 4531   5.110   6.306   1.264  0.5950 -1.8153 -0.2891
   11CHTO   O22 4532   4.533   6.271   1.221  0.2306  0.5664 -1.2602
   11CHTO   C31 4533   4.509   6.181   1.333 -0.0538 -0.4922 -0.1276
   11CHTO   H59 4534   4.587   6.205   1.408 -1.5571  0.7367  1.1003
   11CHTO   C29 4535   4.369   6.197   1.400  0.1151 -0.0789 -0.5638
   11CHTO   H57 4536   4.299   6.173   1.318  1.1037  0.3255 -1.5408
   11CHTO   O21 4537   4.335   6.337   1.440  0.1945  0.6110 -0.0118
   11CHTO   H37 4538   4.243   6.348   1.429  0.3495  1.3856 -0.5173
   11CHTO   C27 4539   4.338   6.097   1.514  0.5925 -0.4020  0.8525
   11CHTO   H55 4540   4.410   6.115   1.595  1.4031  1.5531 -0.2860
   11CHTO    N5 4541   4.198   6.097   1.573 -0.5866  0.1419 -0.6991
   11CHTO   H43 4542   4.144   6.190   1.573  0.4281  0.7909  2.2451
   11CHTO   H44 4543   4.127   6.022   1.541 -2.3584  2.0453 -1.3524
   11CHTO   C25 4544   4.391   5.950   1.478 -0.5211 -0.1286  0.5506
   11CHTO   H53 4545   4.328   5.911   1.396  0.6726  2.9208 -1.9000
   11CHTO   O17 4546   4.528   5.957   1.425  0.2494  0.5811  0.1631
   11CHTO   C32 4547   4.535   6.027   1.298  0.0832 -0.1166  0.1025
   11CHTO   H60 4548   4.454   5.993   1.233  1.5979 -2.6433 -0.5225
   11CHTO   C36 4549   4.674   6.009   1.237  0.5035  0.2202 -0.6584
   11CHTO   O25 4550   4.685   6.045   1.100 -0.5871  0.5197  0.0392
   11CHTO   H40 4551   4.687   5.982   1.030  0.1945  0.1766  0.3801
   11CHTO   O15 4552   4.379   5.839   1.599  0.0267  0.1183 -0.0618
   11CHTO   C19 4553   4.312   5.707   1.617 -0.4805 -0.1981  0.3841
   11CHTO   H47 4554   4.354   5.683   1.716 -0.4939  0.1813  0.4848
   11CHTO   C20 4555   4.156   5.724   1.636  0.9633 -0.0858  0.1306
   11CHTO   H48 4556   4.108   5.770   1.548  1.3259 -1.6716 -0.9092
   11CHTO   O19 4557   4.123   5.806   1.753  0.4761  0.3171  0.2669
   11CHTO   H35 4558   4.165   5.888   1.734  0.7206  0.4496  1.3467
   11CHTO   C21 4559   4.084   5.581   1.645  0.1092  0.7844 -0.0731
   11CHTO   H49 4560   4.114   5.536   1.740  0.1110 -1.2011 -0.9979
   11CHTO    N4 4561   3.936   5.601   1.651 -0.3551  1.1304 -0.3312
   11CHTO   H41 4562   3.899   5.512   1.602  0.8597  0.0158  0.7469
   11CHTO   H42 4563   3.905   5.604   1.754 -0.1343  2.4463 -0.2911
   11CHTO   C22 4564   4.131   5.489   1.521  0.3421 -0.2088 -0.4093
   11CHTO   H50 4565   4.108   5.532   1.423  1.5526 -0.4133 -0.7871
   11CHTO   O14 4566   4.273   5.476   1.523  0.4953  0.7584 -0.0573
   11CHTO   C23 4567   4.352   5.596   1.512 -0.3024  0.5255 -0.1152
   11CHTO   H51 4568   4.340   5.634   1.410 -0.2326  1.3137  0.1662
   11CHTO   C34 4569   4.497   5.551   1.519  0.1591  0.1602  0.1786
   11CHTO   O23 4570   4.584   5.640   1.454 -0.1490  0.0650  0.2487
   11CHTO   H38 4571   4.669   5.610   1.482 -0.3990 -1.6676 -0.7461
   11CHTO   O16 4572   4.070   5.362   1.530 -0.1593 -0.0067  0.0754
   11CHTO   C24 4573   4.029   5.296   1.387  0.1105  0.3330 -0.7761
   11CHTO   H52 4574   4.068   5.352   1.302  1.6226  0.5992  0.0692
   11CHTO   C26 4575   3.878   5.280   1.367 -0.4684 -0.3184 -0.5633
   11CHTO   H54 4576   3.837   5.228   1.456 -1.5705 -2.3518 -2.2042
   11CHTO   O20 4577   3.818   5.410   1.373 -0.7855  0.0925  0.0458
   11CHTO   H36 4578   3.863   5.469   1.315 -0.2084 -0.0965  0.2910
   11CHTO   C30 4579   3.843   5.208   1.234  0.2674 -0.0828  0.1462
   11CHTO   H58 4580   3.852   5.279   1.150 -1.9290  1.0846  0.8520
   11CHTO    N6 4581   3.693   5.163   1.237 -0.0069 -0.3088 -0.7278
   11CHTO   H45 4582   3.693   5.059   1.266 -3.0687 -0.3420 -0.5882
   11CHTO   H46 4583   3.661   5.169   1.134 -0.2077 -1.3196 -0.7335
   11CHTO   C33 4584   3.938   5.087   1.205  0.3837  0.3649 -0.3904
   11CHTO   H61 4585   3.911   5.003   1.271  1.8610 -0.2367 -0.5196
   11CHTO   O18 4586   4.076   5.123   1.232 -0.0096 -0.2307 -0.1436
   11CHTO   C28 4587   4.091   5.158   1.375  1.1420  0.3253  0.6575
   11CHTO   H56 4588   4.046   5.087   1.444 -0.4096  0.6595  0.0121
   11CHTO   C35 4589   4.241   5.162   1.409 -0.6591 -0.2656  0.5658
   11CHTO   O24 4590   4.258   5.150   1.551 -0.4232  0.2171 -0.1705
   11CHTO   H39 4591   4.349   5.155   1.574 -0.3804 -0.0735 -0.2847
   11CHTO    O9 4592   3.920   5.033   1.073 -0.2433 -0.5828  0.4829
   11CHTO   C13 4593   3.981   5.147   0.949  0.1163 -0.3029 -0.0728
   11CHTO   H26 4594   4.005   5.243   0.999  0.6557  0.1839 -1.2491
   11CHTO   C11 4595   3.881   5.169   0.825  0.2328  0.1969  0.2634
   11CHTO   H24 4596   3.788   5.211   0.865 -1.1084 -0.7564 -1.7478
   11CHTO    O8 4597   3.833   5.042   0.781  0.1227  0.5189 -0.3244
   11CHTO    H3 4598   3.775   5.063   0.710 -2.5917 -1.5641  1.1931
   11CHTO    C9 4599   3.941   5.272   0.720  0.1003 -0.0770 -0.9410
   11CHTO   H22 4600   3.920   5.371   0.764  1.5917 -0.9881  1.9563
   11CHTO    N2 4601   3.875   5.277   0.593  0.8252  0.6685 -0.7185
   11CHTO   H10 4602   3.776   5.320   0.585  0.2705 -0.5925 -0.7831
   11CHTO   H11 4603   3.937   5.314   0.513  0.2611  0.8616 -1.0751
   11CHTO    C7 4604   4.102   5.271   0.729 -0.0612  0.2982 -0.8297
   11CHTO   H20 4605   4.118   5.343   0.812 -1.8697  0.6850 -0.7945
   11CHTO    O4 4606   4.149   5.138   0.760 -0.7399 -0.1209 -0.5069
   11CHTO   C14 4607   4.124   5.084   0.892 -0.5106 -0.0044  0.2840
   11CHTO   H27 4608   4.207   5.113   0.959 -0.9306  1.7345  0.0773
   11CHTO   C18 4609   4.119   4.930   0.887 -0.0664 -0.2088 -0.1363
   11CHTO   O13 4610   4.239   4.860   0.866 -0.1698  0.0817 -0.0664
   11CHTO    H7 4611   4.230   4.800   0.794  0.9064  1.0891 -1.0672
   11CHTO    O2 4612   4.189   5.316   0.599 -0.2013  0.1866  0.3650
   11CHTO    C1 4613   4.302   5.405   0.623 -0.0437 -0.0530 -0.0301
   11CHTO   H14 4614   4.346   5.388   0.724 -0.1187  0.3407  0.0690
   11CHTO    C2 4615   4.266   5.558   0.615  0.0762 -0.6161  0.4914
   11CHTO   H15 4616   4.201   5.573   0.527  0.5552  0.1572  0.2685
   11CHTO    O6 4617   4.203   5.600   0.738 -0.2320 -0.2018 -0.1869
   11CHTO    H1 4618   4.113   5.577   0.747  0.1431 -1.1191  1.2503
   11CHTO    C3 4619   4.393   5.653   0.594 -0.5999 -0.0710 -0.2496
   11CHTO   H16 4620   4.450   5.652   0.687  0.2829  0.9775 -0.7723
   11CHTO    N1 4621   4.367   5.798   0.572 -0.7574  1.0336 -0.6677
   11CHTO    H8 4622   4.295   5.829   0.646  0.7792 -0.6922  1.6223
   11CHTO    H9 4623   4.456   5.856   0.592 -0.4199  0.0180  0.8229
   11CHTO    C4 4624   4.488   5.590   0.486  0.0689 -0.1925  0.0735
   11CHTO   H17 4625   4.438   5.598   0.390 -1.8583  0.4432  1.1034
   11CHTO    O1 4626   4.525   5.455   0.517  0.0198  0.7375 -0.0927
   11CHTO    C5 4627   4.415   5.358   0.521  0.2790 -0.7105  0.3240
   11CHTO   H18 4628   4.356   5.341   0.431  0.3066  2.3708 -0.3237
   11CHTO   C16 4629   4.478   5.225   0.574 -0.2754  0.1022 -0.1471
   11CHTO   O11 4630   4.585   5.174   0.489 -0.1438 -0.6017  0.2974
   11CHTO    H5 4631   4.664   5.164   0.539  0.3252  2.6580  0.3682
   11CHTO    O3 4632   4.613   5.664   0.473  0.4914  0.1517  0.0328
   11CHTO    C6 4633   4.687   5.663   0.349 -0.4230  0.7902 -0.3101
   11CHTO   H19 4634   4.665   5.575   0.288  1.0615 -0.2023  0.5521
   11CHTO    C8 4635   4.666   5.798   0.269 -0.1124  0.0760  0.1622
   11CHTO   H21 4636   4.688   5.880   0.339 -1.2200 -0.1650  0.7990
   11CHTO    O7 4637   4.527   5.805   0.226 -0.0795 -0.0438  0.1318
   11CHTO    H2 4638   4.522   5.829   0.135 -2.1705 -0.5511  0.0898
   11CHTO   C12 4639   4.769   5.804   0.143  0.5054 -0.5017 -0.3605
   11CHTO   H25 4640   4.747   5.720   0.073  0.7470 -0.9177  0.0537
   11CHTO    N3 4641   4.745   5.933   0.071 -0.2156 -0.2016 -0.3235
   11CHTO   H12 4642   4.826   5.954   0.003 -1.7091  1.1442 -1.7555
   11CHTO   H13 4643   4.731   6.014   0.141  1.4743  0.3736 -0.6238
   11CHTO   C15 4644   4.910   5.783   0.201  0.2790 -0.2361 -0.3056
   11CHTO   H28 4645   4.935   5.862   0.272  1.5628  0.8794 -1.9641
   11CHTO   O10 4646   5.021   5.778   0.083 -0.1795 -0.9887  0.1495
   11CHTO    H4 4647   5.020   5.861   0.039  2.1040 -1.8497 -1.6276
   11CHTO    O5 4648   4.916   5.657   0.265  0.4741 -0.1040  0.5858
   11CHTO   C10 4649   4.837   5.648   0.382 -0.2394 -0.0578 -0.1864
   11CHTO   H23 4650   4.858   5.731   0.450 -1.5099  0.7942 -0.8175
   11CHTO   C17 4651   4.856   5.514   0.454 -0.1172  0.1309  0.2271
   11CHTO   O12 4652   4.980   5.514   0.517 -0.0678 -0.1229  0.1262
   11CHTO    H6 4653   4.962   5.512   0.609 -1.0664  0.4783 -0.0454
   12CHTO  H203 4654   5.043   1.796   2.804 -2.0863 -0.0196  1.7239
   12CHTO   O82 4655   5.118   1.808   2.860 -0.6417 -0.2000 -0.1293
   12CHTO  C123 4656   5.146   1.686   2.925 -0.4837  0.6837  0.2310
   12CHTO  H227 4657   5.221   1.704   3.005  0.1525 -1.3671  0.1089
   12CHTO   O77 4658   5.015   1.636   2.981  0.3382 -0.4892 -0.3187
   12CHTO  C118 4659   5.009   1.522   3.063  0.5225 -0.0396  0.3701
   12CHTO  H222 4660   5.051   1.549   3.161 -1.1458 -0.6438  1.2821
   12CHTO  C125 4661   4.863   1.500   3.077  0.0382  0.0601  0.1883
   12CHTO   O84 4662   4.772   1.609   3.092  0.0146  0.2673 -0.2247
   12CHTO  H205 4663   4.804   1.667   3.157 -1.4386  0.7774  0.0543
   12CHTO  C114 4664   5.081   1.402   3.000  0.9021 -0.0346 -0.5535
   12CHTO  H218 4665   5.018   1.359   2.922 -1.4490  3.0376 -0.4591
   12CHTO  C116 4666   5.215   1.441   2.929 -0.3925  0.4349 -0.2879
   12CHTO  H220 4667   5.287   1.447   3.013 -1.2656  2.0128  0.3833
   12CHTO   O79 4668   5.256   1.322   2.859  0.4299 -0.5293 -0.2793
   12CHTO  H201 4669   5.285   1.258   2.922 -0.9299 -2.2658 -1.3682
   12CHTO  C120 4670   5.200   1.572   2.838 -0.0944 -0.3227 -0.2601
   12CHTO  H224 4671   5.126   1.538   2.762 -0.4172 -1.6417  0.6177
   12CHTO   N21 4672   5.324   1.607   2.764 -0.6799 -0.3923  0.7086
   12CHTO  H211 4673   5.375   1.516   2.737  1.5616  1.4738 -1.5075
   12CHTO  H212 4674   5.297   1.668   2.680  4.5665  0.5729 -0.4143
   12CHTO   O75 4675   5.093   1.293   3.097 -0.0168 -0.4091 -0.2692
   12CHTO  C112 4676   5.014   1.151   3.055 -0.7642  0.1480  0.0561
   12CHTO  H216 4677   5.062   1.120   2.961  2.1454  0.2765  1.4352
   12CHTO   O73 4678   4.873   1.184   3.040  0.1075 -0.7513  0.1658
   12CHTO  C113 4679   4.810   1.093   2.957 -0.4189  0.0520  0.1598
   12CHTO  H217 4680   4.872   1.070   2.868 -1.0333 -0.3614 -0.1663
   12CHTO  C124 4681   4.670   1.153   2.926 -0.2949  0.4023 -0.0258
   12CHTO   O83 4682   4.668   1.278   2.858  0.4147 -0.5846 -1.1397
   12CHTO  H204 4683   4.583   1.311   2.882  0.4554 -2.2799  1.6276
   12CHTO  C109 4684   4.794   0.967   3.036  0.0816 -0.0747  0.4312
   12CHTO  H213 4685   4.723   0.986   3.117 -2.7406 -1.3754 -1.6318
   12CHTO  C110 4686   4.932   0.917   3.092 -0.5435  0.1672 -0.1553
   12CHTO  H214 4687   4.999   0.868   3.022 -0.5190  1.6160 -1.1764
   12CHTO   O78 4688   4.901   0.817   3.185 -0.1919  0.4201 -0.1180
   12CHTO  H200 4689   4.903   0.732   3.146  1.9379  0.1037  0.6209
   12CHTO  C111 4690   5.018   1.034   3.152 -0.8053 -0.0908 -0.2298
   12CHTO  H215 4691   4.978   1.069   3.248 -2.2516 -1.0694 -0.4685
   12CHTO   N19 4692   5.162   0.988   3.177  0.1617 -0.1118  0.2438
   12CHTO  H207 4693   5.201   0.947   3.085  3.1467  3.7440 -0.3469
   12CHTO  H208 4694   5.230   1.064   3.214 -1.2054  1.2688 -0.0177
   12CHTO   O74 4695   4.739   0.868   2.944 -0.5040 -0.4404 -0.5690
   12CHTO  C115 4696   4.598   0.818   3.011  0.1926  0.3512 -0.4397
   12CHTO  H219 4697   4.590   0.847   3.115  2.2293  0.8011 -0.3943
   12CHTO   O76 4698   4.473   0.889   2.944 -0.4989 -0.1849  0.5015
   12CHTO  C122 4699   4.477   0.862   2.800  0.1871 -0.3139 -0.5181
   12CHTO  H226 4700   4.559   0.924   2.765  0.9308 -1.2135 -0.4014
   12CHTO  C126 4701   4.332   0.916   2.731 -0.4305  0.0939 -0.7451
   12CHTO   O85 4702   4.315   0.890   2.593  1.0997  0.1335 -0.5478
   12CHTO  H206 4703   4.327   0.972   2.550 -2.0804  0.4133 -0.9906
   12CHTO  C121 4704   4.491   0.706   2.769  0.0779  0.2085 -1.4185
   12CHTO  H225 4705   4.411   0.668   2.702 -1.7748  0.8318  0.4160
   12CHTO   O81 4706   4.614   0.695   2.694 -0.7112  0.4412 -0.2113
   12CHTO  H202 4707   4.617   0.749   2.617  1.2156  1.2963  0.4208
   12CHTO  C119 4708   4.484   0.614   2.897 -1.0963  0.6309 -0.5712
   12CHTO  H223 4709   4.382   0.622   2.934 -1.1817 -0.0626 -0.6352
   12CHTO  C117 4710   4.594   0.662   3.006  1.2730  0.9268 -0.6304
   12CHTO  H221 4711   4.696   0.629   2.987  1.5791 -0.1243  2.6499
   12CHTO   N20 4712   4.564   0.597   3.137  0.0912 -0.4939 -0.3747
   12CHTO  H209 4713   4.645   0.527   3.152 -0.7029 -1.4444 -0.4382
   12CHTO  H210 4714   4.477   0.534   3.137 -0.2531 -0.0226  0.8824
   12CHTO   O80 4715   4.488   0.448   2.868 -0.1311 -0.1129  0.4409
   12CHTO  C103 4716   4.407   0.369   2.934  1.1834 -0.2075 -0.0264
   12CHTO  H190 4717   4.386   0.414   3.031  2.5239 -1.1959  0.7433
   12CHTO  C101 4718   4.265   0.315   2.876 -0.2859  0.3664  0.6499
   12CHTO  H188 4719   4.278   0.270   2.778 -1.3741  2.0629 -0.3159
   12CHTO   O68 4720   4.174   0.438   2.865  0.3655  0.0296  0.3845
   12CHTO  H168 4721   4.206   0.519   2.830 -1.6296  1.0251  0.8048
   12CHTO   C99 4722   4.187   0.216   2.970 -0.2025  0.3074 -0.1826
   12CHTO  H186 4723   4.168   0.270   3.065  3.0040  0.8405  0.2064
   12CHTO   N17 4724   4.056   0.155   2.930  0.6462  0.1991 -0.0333
   12CHTO  H174 4725   4.067   0.077   2.855  1.7746  1.2307 -0.9695
   12CHTO  H175 4726   4.012   0.114   3.019 -2.1995  0.9033 -1.0554
   12CHTO   C97 4727   4.281   0.105   3.017  0.1456 -0.2834  0.2953
   12CHTO  H184 4728   4.293   0.036   2.932  0.7735 -0.1042  0.2314
   12CHTO   O64 4729   4.411   0.157   3.056  0.6663  0.1955  0.1350
   12CHTO  C104 4730   4.485   0.232   2.962 -0.6500  0.6301  0.7691
   12CHTO  H191 4731   4.500   0.176   2.869 -1.5477 -0.5841  1.3314
   12CHTO  C108 4732   4.623   0.248   3.024 -0.1523  0.0751  0.5822
   12CHTO   O71 4733   4.714   0.311   2.945 -0.1499  0.3593 -0.2440
   12CHTO  H171 4734   4.794   0.301   2.993 -0.9521 -0.0194  1.0324
   12CHTO   O62 4735   4.247   0.037   3.132 -0.0699  0.4857 -0.2432
   12CHTO   C91 4736   4.311  -0.089   3.171  0.2040  0.7630  0.0429
   12CHTO  H178 4737   4.404  -0.098   3.115  0.0016  0.9099 -0.3154
   12CHTO   C92 4738   4.228  -0.212   3.130 -0.0319  0.1955 -0.7402
   12CHTO  H179 4739   4.127  -0.196   3.169  0.1613  1.2815 -0.6677
   12CHTO   O66 4740   4.223  -0.215   2.983  0.2289  0.0910  0.1658
   12CHTO  H166 4741   4.189  -0.132   2.956  1.9224  0.6519 -0.2712
   12CHTO   C93 4742   4.280  -0.350   3.197 -0.3283  0.2566  0.4512
   12CHTO  H180 4743   4.370  -0.383   3.142 -1.0944 -0.1031 -0.5902
   12CHTO   N16 4744   4.187  -0.464   3.173  0.6413 -0.0126  0.0290
   12CHTO  H172 4745   4.110  -0.460   3.248  0.7258 -2.5106  0.2940
   12CHTO  H173 4746   4.232  -0.561   3.154  0.7950  0.2718 -1.1160
   12CHTO   C94 4747   4.317  -0.324   3.346  0.5283 -0.2293 -0.0632
   12CHTO  H181 4748   4.229  -0.305   3.407  0.0841  0.2261 -0.8494
   12CHTO   O61 4749   4.405  -0.205   3.361  0.7083 -0.1601  0.2920
   12CHTO   C95 4750   4.329  -0.094   3.323  0.0546 -0.2633  0.3813
   12CHTO  H182 4751   4.234  -0.094   3.376  0.5158  1.5232  1.2631
   12CHTO  C106 4752   4.391   0.031   3.385 -0.2065  0.1815 -0.1287
   12CHTO   O69 4753   4.526   0.055   3.333  0.0740 -0.0951 -0.0449
   12CHTO  H169 4754   4.548  -0.005   3.264 -2.7098 -1.1345 -0.0980
   12CHTO   O63 4755   4.398  -0.452   3.406 -0.4018 -0.4079  0.5105
   12CHTO   C96 4756   4.474  -0.431   3.547  0.4427  0.4029 -0.2547
   12CHTO  H183 4757   4.433  -0.345   3.600  3.3033  0.1555  2.5019
   12CHTO   C98 4758   4.628  -0.396   3.551 -0.0139  0.2949  0.3274
   12CHTO  H185 4759   4.681  -0.474   3.493 -3.6162  0.2283 -3.0995
   12CHTO   O67 4760   4.648  -0.283   3.463 -0.1617  0.0808 -0.0818
   12CHTO  H167 4761   4.736  -0.274   3.432 -0.1415 -1.7159 -0.6396
   12CHTO  C102 4762   4.691  -0.386   3.701  0.9532  0.4324  0.3581
   12CHTO  H189 4763   4.663  -0.288   3.742 -2.3125  0.5873 -2.0498
   12CHTO   N18 4764   4.841  -0.379   3.701 -0.3539 -0.5724  0.1301
   12CHTO  H176 4765   4.878  -0.406   3.799 -0.8137 -0.2383  0.4004
   12CHTO  H177 4766   4.885  -0.286   3.670  0.4198 -1.1293 -0.4594
   12CHTO  C105 4767   4.633  -0.499   3.791  0.0508 -0.3607 -0.3303
   12CHTO  H192 4768   4.686  -0.592   3.774 -2.9400 -2.2128  0.1589
   12CHTO   O65 4769   4.496  -0.524   3.770  0.6756 -0.0803 -0.2620
   12CHTO  C100 4770   4.452  -0.560   3.640  0.7225  0.6880 -0.0815
   12CHTO  H187 4771   4.515  -0.640   3.600  2.0191  1.9313 -0.5826
   12CHTO  C107 4772   4.296  -0.583   3.642 -0.2860  0.2441  0.6655
   12CHTO   O70 4773   4.251  -0.714   3.681 -0.8604  0.0578  0.5440
   12CHTO  H170 4774   4.267  -0.736   3.770  0.1419  3.0638  1.1573
   12CHTO   O57 4775   4.636  -0.440   3.929  0.0917 -0.2715  0.0018
   12CHTO   C85 4776   4.583  -0.479   4.051  0.8384 -0.2476  0.4413
   12CHTO  H157 4777   4.473  -0.462   4.052  0.9135  0.2633  1.7170
   12CHTO   C83 4778   4.641  -0.372   4.152 -0.1779  0.0428 -0.1233
   12CHTO  H155 4779   4.607  -0.273   4.123  0.4394 -0.4123 -2.4957
   12CHTO   O56 4780   4.780  -0.355   4.132  0.4113 -0.0569 -0.1553
   12CHTO  H135 4781   4.802  -0.268   4.161  2.4093 -1.0083  1.2163
   12CHTO   C81 4782   4.609  -0.410   4.302  0.0548  0.0934 -0.7699
   12CHTO  H153 4783   4.500  -0.414   4.307  0.0773  1.1785  1.2042
   12CHTO   N14 4784   4.651  -0.300   4.394  0.3402  0.0410  0.5949
   12CHTO  H141 4785   4.669  -0.220   4.325  1.6972 -1.4309 -0.7919
   12CHTO  H142 4786   4.572  -0.270   4.460  1.8066 -0.2784  2.5304
   12CHTO   C79 4787   4.671  -0.557   4.330  0.2062  0.5158 -0.3298
   12CHTO  H151 4788   4.649  -0.584   4.433 -0.2255  0.1107 -0.5261
   12CHTO   O52 4789   4.603  -0.652   4.234  0.3223  0.4072 -0.7470
   12CHTO   C86 4790   4.624  -0.630   4.098 -0.6516  0.2120 -0.0976
   12CHTO  H158 4791   4.732  -0.648   4.080 -0.3891  1.1472  0.5114
   12CHTO   C90 4792   4.546  -0.744   4.026 -0.1911 -0.3161  0.0160
   12CHTO   O60 4793   4.409  -0.704   4.019  0.5495 -0.3360  0.8031
   12CHTO  H138 4794   4.399  -0.651   3.942  1.6523 -0.1841  0.7525
   12CHTO   O50 4795   4.813  -0.560   4.301  0.0451 -0.1790  0.3316
   12CHTO   C73 4796   4.893  -0.634   4.395  1.2076  0.5767  0.4045
   12CHTO  H145 4797   4.831  -0.710   4.443  0.7765 -0.4838 -1.8083
   12CHTO   C74 4798   4.941  -0.538   4.512 -0.3401 -0.1142  0.7740
   12CHTO  H146 4799   4.848  -0.489   4.544  0.5514  2.7409 -0.8524
   12CHTO   O54 4800   4.991  -0.612   4.629  0.2367 -0.3475  0.0722
   12CHTO  H133 4801   5.054  -0.674   4.598  0.3936  0.6909 -1.7739
   12CHTO   C75 4802   5.043  -0.438   4.447 -0.0348 -0.0417  0.5472
   12CHTO  H147 4803   4.998  -0.385   4.362  2.5313  1.3242  0.0024
   12CHTO   N13 4804   5.086  -0.327   4.539 -0.1083 -0.4007 -0.4636
   12CHTO  H139 4805   5.013  -0.323   4.619 -2.2434  0.3489 -2.4115
   12CHTO  H140 4806   5.189  -0.335   4.569 -0.0200 -0.0883 -0.6843
   12CHTO   C76 4807   5.166  -0.520   4.390  0.4825 -0.4291  0.2582
   12CHTO  H148 4808   5.201  -0.588   4.468  1.5945  0.5395  0.6127
   12CHTO   O49 4809   5.105  -0.606   4.287 -0.2717  0.5484  0.3118
   12CHTO   C77 4810   5.009  -0.709   4.322  0.1130  0.2673 -0.0688
   12CHTO  H149 4811   5.057  -0.775   4.394  0.2189  2.1275  1.6171
   12CHTO   C88 4812   4.971  -0.796   4.195  0.3427 -0.8445 -0.0034
   12CHTO   O58 4813   4.857  -0.846   4.215  0.1140 -0.3553 -0.0214
   12CHTO  H136 4814   4.863  -0.935   4.185  0.0272 -1.4147  2.9272
   12CHTO   O51 4815   5.280  -0.420   4.323  0.5656  0.0217  0.3633
   12CHTO   C78 4816   5.378  -0.523   4.214  0.3103 -0.3023 -0.2603
   12CHTO  H150 4817   5.317  -0.609   4.178  0.3612 -0.9153  1.0903
   12CHTO   C80 4818   5.494  -0.583   4.296  0.0644 -0.0612 -0.0205
   12CHTO  H152 4819   5.558  -0.504   4.341  0.7495 -0.5258 -0.1695
   12CHTO   O55 4820   5.434  -0.662   4.405 -0.0686 -0.1729  0.1982
   12CHTO  H134 4821   5.465  -0.623   4.484 -1.0139  0.0883  0.4430
   12CHTO   C84 4822   5.585  -0.674   4.195 -0.3439  0.4772  0.5631
   12CHTO  H156 4823   5.532  -0.749   4.136 -0.0205 -0.0408  0.9335
   12CHTO   N15 4824   5.695  -0.735   4.273 -0.0989  0.3896  0.9269
   12CHTO  H143 4825   5.727  -0.664   4.346 -1.2692 -0.6305  2.4690
   12CHTO  H144 4826   5.656  -0.819   4.327  0.7682  0.2062  1.2713
   12CHTO   C87 4827   5.643  -0.581   4.084  0.2583 -0.2865 -0.8824
   12CHTO  H159 4828   5.703  -0.494   4.113 -0.0976  0.1745 -1.5204
   12CHTO   O53 4829   5.517  -0.522   4.005 -0.0527 -0.0371  0.3363
   12CHTO   C82 4830   5.424  -0.441   4.093 -0.0659 -0.5117  0.3824
   12CHTO  H154 4831   5.481  -0.351   4.118 -0.0446 -0.4283  0.0434
   12CHTO   C89 4832   5.296  -0.395   4.018  0.0609  0.3470  0.5864
   12CHTO   O59 4833   5.219  -0.495   3.954 -0.1707 -0.0358  0.6863
   12CHTO  H137 4834   5.214  -0.579   3.995 -1.6236  0.1511  0.9193
   12CHTO   O45 4835   5.734  -0.656   3.980 -0.0984 -0.2037  0.0073
   12CHTO   C67 4836   5.775  -0.606   3.853  0.2530 -0.3256 -0.1234
   12CHTO  H124 4837   5.877  -0.635   3.828  0.0860 -1.2760  0.3035
   12CHTO   C65 4838   5.677  -0.657   3.746 -0.5874  0.1057  0.6631
   12CHTO  H122 4839   5.594  -0.700   3.803  0.6295 -1.9524  0.9462
   12CHTO   O44 4840   5.747  -0.761   3.670 -0.0579 -0.0509 -0.1900
   12CHTO  H102 4841   5.699  -0.840   3.650 -1.4361  0.4661  0.9756
   12CHTO   C63 4842   5.614  -0.539   3.659  0.4015  0.8280  0.3351
   12CHTO  H120 4843   5.549  -0.477   3.722 -0.2354  0.2499  0.2527
   12CHTO   N11 4844   5.501  -0.579   3.566 -0.2677  0.1074  0.0511
   12CHTO  H108 4845   5.471  -0.490   3.515  1.7594 -0.3533 -2.0709
   12CHTO  H109 4846   5.535  -0.656   3.500  1.4492  1.3257 -0.5238
   12CHTO   C61 4847   5.726  -0.450   3.614 -0.2722 -0.3998  0.1963
   12CHTO  H118 4848   5.676  -0.362   3.571  0.9615  0.9289  1.4123
   12CHTO   O40 4849   5.812  -0.401   3.719  0.1969 -0.2900 -0.7928
   12CHTO   C68 4850   5.785  -0.446   3.853 -0.3599 -0.2726  0.3170
   12CHTO  H125 4851   5.695  -0.397   3.897  0.7195  1.5367  0.5532
   12CHTO   C72 4852   5.902  -0.393   3.935  0.3603  0.3128  0.3835
   12CHTO   O48 4853   5.926  -0.254   3.917  0.3794 -0.4461  0.3320
   12CHTO  H105 4854   5.969  -0.236   3.836  1.1855 -2.2916  0.3251
   12CHTO   O38 4855   5.813  -0.515   3.516 -0.3539 -0.1384 -0.2238
   12CHTO   C55 4856   5.896  -0.430   3.438 -0.2047  0.5366 -0.2824
   12CHTO  H112 4857   5.913  -0.333   3.487  0.3833  0.7127 -0.8328
   12CHTO   C56 4858   5.841  -0.413   3.296  0.5346 -0.2266 -0.2935
   12CHTO  H113 4859   5.818  -0.515   3.261 -0.5964 -0.7389  1.8906
   12CHTO   O42 4860   5.721  -0.336   3.312  0.5322  0.5475 -0.1391
   12CHTO  H100 4861   5.740  -0.248   3.338  0.3146  0.3411  0.7144
   12CHTO   C57 4862   5.942  -0.344   3.197  0.8496  0.2606  0.1050
   12CHTO  H114 4863   5.955  -0.241   3.229 -1.1466  1.5233 -2.9889
   12CHTO   N10 4864   5.899  -0.347   3.051  0.2845 -0.0056 -0.2053
   12CHTO  H106 4865   5.836  -0.434   3.039 -0.3108  0.2295  1.0552
   12CHTO  H107 4866   5.846  -0.258   3.021  0.6006 -0.4722 -2.1756
   12CHTO   C58 4867   6.077  -0.419   3.209 -0.0823  0.0337  0.4283
   12CHTO  H115 4868   6.066  -0.522   3.169 -1.2468  0.0979  0.5634
   12CHTO   O37 4869   6.120  -0.416   3.350  0.8246 -0.0977  0.5704
   12CHTO   C59 4870   6.036  -0.498   3.437  0.4876 -0.0276  0.5190
   12CHTO  H116 4871   6.026  -0.602   3.406  3.8594  0.0774 -1.0832
   12CHTO   C70 4872   6.093  -0.498   3.577 -0.4520  0.0420 -0.4018
   12CHTO   O46 4873   6.213  -0.586   3.576  0.4732  0.1692  1.0920
   12CHTO  H103 4874   6.280  -0.564   3.637  1.1427  0.8748  0.1139
   12CHTO   O39 4875   6.192  -0.334   3.132 -0.1030  0.1637  0.0873
   12CHTO   C60 4876   6.307  -0.412   3.121 -0.0322  0.1807  0.2530
   12CHTO  H117 4877   6.327  -0.470   3.210  0.3852 -0.1229 -0.0357
   12CHTO   C62 4878   6.289  -0.512   3.008 -0.3891 -0.4744  0.7589
   12CHTO  H119 4879   6.192  -0.565   3.014  0.3896 -1.9154  0.7727
   12CHTO   O43 4880   6.297  -0.455   2.876  0.0189  0.0842 -0.5391
   12CHTO  H101 4881   6.231  -0.388   2.873 -1.2787 -1.2013 -1.5687
   12CHTO   C66 4882   6.415  -0.613   3.030  0.0476 -0.3222 -1.1019
   12CHTO  H123 4883   6.409  -0.653   3.131 -0.4185  4.6632  0.9765
   12CHTO   N12 4884   6.416  -0.737   2.946 -0.1840  0.0862 -0.0298
   12CHTO  H110 4885   6.508  -0.793   2.952 -0.6756 -0.7373  0.0261
   12CHTO  H111 4886   6.329  -0.795   2.973  0.1985  0.1116  1.2906
   12CHTO   C69 4887   6.550  -0.539   3.026 -0.0904  0.1321 -0.2656
   12CHTO  H126 4888   6.584  -0.513   2.923 -0.8500  1.7478 -0.1108
   12CHTO   O41 4889   6.551  -0.389   3.109  0.1354 -0.5368  0.4073
   12CHTO   C64 4890   6.436  -0.314   3.106  0.0644 -0.3460 -0.7496
   12CHTO  H121 4891   6.435  -0.258   3.010  1.6171  0.8057 -0.1268
   12CHTO   C71 4892   6.440  -0.207   3.222  0.6555  0.3105 -0.0162
   12CHTO   O47 4893   6.324  -0.124   3.217 -0.1390 -0.0383 -1.2905
   12CHTO  H104 4894   6.306  -0.090   3.303 -0.8332 -1.2606 -0.9422
   12CHTO   O34 4895   6.660  -0.631   3.086  0.0182 -0.3031  0.4745
   12CHTO   C49 4896   6.711  -0.637   3.236 -0.2652 -0.4019  0.4450
   12CHTO   H91 4897   6.795  -0.568   3.248 -0.1231 -0.1820 -1.6916
   12CHTO   C47 4898   6.761  -0.782   3.250  0.6098  0.3697 -0.0758
   12CHTO   H89 4899   6.814  -0.792   3.347 -0.7016 -1.2648  0.4820
   12CHTO   O33 4900   6.862  -0.822   3.152 -0.2728  0.7321  0.0950
   12CHTO   H70 4901   6.812  -0.826   3.072 -0.9145 -0.3251  0.5390
   12CHTO   C45 4902   6.627  -0.880   3.253 -0.4046  0.2843 -0.0087
   12CHTO   H87 4903   6.574  -0.877   3.156  0.3157  1.8696 -0.3684
   12CHTO    N8 4904   6.664  -1.023   3.277  0.9372 -0.4215 -0.4052
   12CHTO   H75 4905   6.764  -1.035   3.239  1.3576  2.2376 -0.1826
   12CHTO   H76 4906   6.675  -1.034   3.383  0.1534 -1.1638 -0.3908
   12CHTO   C43 4907   6.516  -0.827   3.359 -0.6632 -0.1224 -0.0288
   12CHTO   H85 4908   6.422  -0.883   3.353  0.4969 -2.1173 -0.2528
   12CHTO   O29 4909   6.489  -0.686   3.343 -0.1133  1.0264  0.0995
   12CHTO   C50 4910   6.603  -0.598   3.337  0.2258 -0.0518 -1.3970
   12CHTO   H92 4911   6.565  -0.498   3.311  1.8545  1.4094  1.5218
   12CHTO   C54 4912   6.663  -0.552   3.473  0.0103  0.1506 -0.4563
   12CHTO   O36 4913   6.777  -0.471   3.464  0.5921 -0.2338  0.4030
   12CHTO   H72 4914   6.813  -0.427   3.539  4.5307 -1.6118 -0.5193
   12CHTO   O27 4915   6.555  -0.858   3.493  0.5101  0.1419 -0.4125
   12CHTO   C37 4916   6.505  -0.912   3.617 -0.4529 -0.9292 -0.0856
   12CHTO   H79 4917   6.587  -0.927   3.689 -0.1388  1.0950  0.0301
   12CHTO   C38 4918   6.432  -0.800   3.681  0.0008  0.1213  0.3500
   12CHTO   H80 4919   6.371  -0.749   3.604 -0.4263 -0.9581 -0.0417
   12CHTO   O31 4920   6.534  -0.715   3.727  0.3491 -0.0638 -0.5095
   12CHTO   H68 4921   6.592  -0.675   3.666 -0.7016  0.0972 -1.4074
   12CHTO   C39 4922   6.350  -0.843   3.815 -0.2283 -0.1187  0.2179
   12CHTO   H81 4923   6.426  -0.877   3.885 -0.7149  3.6763  2.7830
   12CHTO    N7 4924   6.269  -0.728   3.877 -0.7101 -0.2708 -0.1343
   12CHTO   H73 4925   6.178  -0.712   3.821 -1.1821 -2.5455 -0.0503
   12CHTO   H74 4926   6.260  -0.750   3.982  2.1089 -0.3902  0.1268
   12CHTO   C40 4927   6.257  -0.964   3.771 -0.3318  0.1920  0.4969
   12CHTO   H82 4928   6.187  -0.935   3.693  1.6845  1.4773 -0.8867
   12CHTO   O26 4929   6.345  -1.075   3.726  0.7898 -0.6783 -0.6757
   12CHTO   C41 4930   6.425  -1.039   3.603  0.0012  1.5490 -0.6870
   12CHTO   H83 4931   6.349  -1.028   3.525 -1.1592  1.6249  0.4440
   12CHTO   C52 4932   6.525  -1.153   3.576  0.5893 -0.0015 -0.0223
   12CHTO   O35 4933   6.458  -1.303   3.576 -0.3658  0.0558 -0.0501
   12CHTO   H71 4934   6.412  -1.305   3.658  2.4795  1.9755  1.6864
   12CHTO   O28 4935   6.202  -1.027   3.890 -0.0816  0.2690 -0.0862
   12CHTO   C42 4936   6.079  -1.101   3.884 -0.4927 -0.7858  0.1113
   12CHTO   H84 4937   6.087  -1.157   3.978  1.4363 -0.1099  0.3881
   12CHTO   C44 4938   6.065  -1.205   3.772  0.2291  0.1840 -0.2334
   12CHTO   H86 4939   6.065  -1.156   3.675 -0.2789 -0.7998 -0.7318
   12CHTO   O32 4940   6.176  -1.293   3.796 -0.5157 -0.1082 -0.0151
   12CHTO   H69 4941   6.259  -1.254   3.775 -0.6316  0.2500  0.1771
   12CHTO   C48 4942   5.922  -1.275   3.780 -0.4690  0.1880  0.0558
   12CHTO   H90 4943   5.919  -1.316   3.881  0.1421 -1.7479 -0.6741
   12CHTO    N9 4944   5.914  -1.391   3.690  0.4264 -0.5807 -0.5442
   12CHTO   H77 4945   5.991  -1.464   3.710 -0.2834 -0.8935  1.0852
   12CHTO   H78 4946   5.816  -1.434   3.702 -0.2621  1.6139  2.3855
   12CHTO   C51 4947   5.816  -1.169   3.770 -0.7340  0.8111  0.7173
   12CHTO   H93 4948   5.833  -1.113   3.678  0.2072  0.3996  0.6414
   12CHTO   O30 4949   5.820  -1.084   3.882 -0.0802  0.5299  0.2171
   12CHTO   C46 4950   5.959  -1.006   3.892  0.1634 -0.5750  0.3992
   12CHTO   H88 4951   5.957  -0.939   3.806 -0.2170 -2.3491 -1.0050
   12CHTO   C53 4952   5.944  -0.927   4.026  0.5180 -0.5898 -0.5187
   12CHTO   O72 4953   5.894  -1.000   4.139 -0.3733 -0.0012  0.4259
   12CHTO  H199 4954   5.890  -0.954   4.221  0.5361  0.6732  0.1012
   12CHTO   O22 4955   5.683  -1.226   3.777  0.4227 -0.6900  0.0392
   12CHTO   C31 4956   5.553  -1.157   3.746 -0.8962  1.0472 -0.1607
   12CHTO   H59 4957   5.472  -1.228   3.775  0.5856 -0.3185  0.6879
   12CHTO   C29 4958   5.532  -1.025   3.822 -0.8552  0.4690 -0.1881
   12CHTO   H57 4959   5.602  -0.948   3.786  1.6219 -1.3149  0.6372
   12CHTO   O21 4960   5.565  -1.046   3.958 -0.7106 -0.2996 -0.4349
   12CHTO   H37 4961   5.603  -0.970   3.997  0.2321 -2.1592  2.4481
   12CHTO   C27 4962   5.380  -0.987   3.802 -0.5182 -0.2862 -0.3356
   12CHTO   H55 4963   5.319  -1.072   3.837 -0.4768  0.6814  2.1734
   12CHTO    N5 4964   5.345  -0.865   3.877  0.8780 -0.3677  0.2894
   12CHTO   H43 4965   5.413  -0.784   3.854  2.2284 -1.4871  0.2962
   12CHTO   H44 4966   5.241  -0.847   3.856  1.2332 -1.1465 -2.2409
   12CHTO   C25 4967   5.361  -0.961   3.651 -0.5855 -0.1900 -0.3171
   12CHTO   H53 4968   5.432  -0.881   3.626 -0.2967  0.4458  2.4213
   12CHTO   O17 4969   5.396  -1.071   3.569 -0.5166 -0.8233  0.2214
   12CHTO   C32 4970   5.529  -1.121   3.591  0.9110  0.0280 -0.1145
   12CHTO   H60 4971   5.598  -1.042   3.560 -0.0797  0.3154 -1.6659
   12CHTO   C36 4972   5.541  -1.236   3.491  0.3619 -0.3580 -0.0454
   12CHTO   O25 4973   5.464  -1.352   3.531  0.2867  0.1115  0.2425
   12CHTO   H40 4974   5.505  -1.396   3.603  0.3541 -0.3978 -0.1039
   12CHTO   O15 4975   5.211  -0.932   3.628 -0.3499 -0.0582 -0.3695
   12CHTO   C19 4976   5.107  -0.862   3.557 -0.4741 -0.5210  0.6982
   12CHTO   H47 4977   5.117  -0.753   3.571 -1.2680 -0.4541  0.7726
   12CHTO   C20 4978   5.091  -0.905   3.414 -0.0350  0.6975 -0.1933
   12CHTO   H48 4979   5.062  -1.011   3.406  1.3293  0.4414 -2.1166
   12CHTO   O19 4980   5.221  -0.877   3.357  0.4095  0.1520 -0.6091
   12CHTO   H35 4981   5.215  -0.793   3.315  2.6585  0.9723  0.6140
   12CHTO   C21 4982   4.968  -0.842   3.336 -0.5533  0.5100  0.1571
   12CHTO   H49 4983   4.976  -0.734   3.330 -2.1126  0.5692 -1.1321
   12CHTO    N4 4984   4.968  -0.890   3.196 -0.2068  0.6704  0.6122
   12CHTO   H41 4985   5.042  -0.963   3.167 -1.1320 -0.6417  1.4916
   12CHTO   H42 4986   4.971  -0.809   3.126  0.8931  0.4155  0.3531
   12CHTO   C22 4987   4.842  -0.866   3.422  0.3702 -0.8841 -0.2052
   12CHTO   H50 4988   4.813  -0.971   3.421 -0.5096 -0.6382 -1.5259
   12CHTO   O14 4989   4.864  -0.821   3.561 -0.1162  0.7815 -0.7396
   12CHTO   C23 4990   4.971  -0.891   3.622  0.6026  0.5892 -0.0502
   12CHTO   H51 4991   4.946  -0.998   3.616 -0.9171  0.9939 -1.1741
   12CHTO   C34 4992   4.975  -0.856   3.767 -0.0919 -0.1604  0.3346
   12CHTO   O23 4993   4.847  -0.891   3.825 -0.0584 -0.3576 -0.2606
   12CHTO   H38 4994   4.853  -0.874   3.918  3.2582 -0.5780 -0.3813
   12CHTO   O16 4995   4.732  -0.780   3.381  0.3909  0.0303 -0.4491
   12CHTO   C24 4996   4.595  -0.874   3.334  0.5309 -0.0668  0.4366
   12CHTO   H52 4997   4.620  -0.980   3.322  1.5802  0.1735  0.5060
   12CHTO   C26 4998   4.536  -0.811   3.200  0.1486  0.2718 -0.2553
   12CHTO   H54 4999   4.501  -0.710   3.230 -0.1981  0.0555  0.0905
   12CHTO   O20 5000   4.634  -0.815   3.093  0.0985 -0.1647  0.2725
   12CHTO   H36 5001   4.612  -0.754   3.025  2.9642  0.3725 -0.2542
   12CHTO   C30 5002   4.408  -0.886   3.160  1.2613  0.6003 -0.1044
   12CHTO   H58 5003   4.439  -0.989   3.140 -1.6633 -0.2437 -0.5384
   12CHTO    N6 5004   4.341  -0.835   3.037  0.1033  0.6148  0.5021
   12CHTO   H45 5005   4.344  -0.727   3.044  0.5210  0.6472 -0.1557
   12CHTO   H46 5006   4.401  -0.866   2.953  0.4588  2.5257  0.0272
   12CHTO   C33 5007   4.310  -0.903   3.281  0.0594  0.3623  0.5894
   12CHTO   H61 5008   4.261  -0.807   3.301 -2.7754 -0.7806 -0.6651
   12CHTO   O18 5009   4.387  -0.944   3.395  0.3967  0.6039 -0.0523
   12CHTO   C28 5010   4.494  -0.865   3.442  0.3911 -0.6568  0.0119
   12CHTO   H56 5011   4.473  -0.761   3.467  1.7729 -0.4175  0.2554
   12CHTO   C35 5012   4.543  -0.934   3.574 -0.1277 -0.3513  0.1464
   12CHTO   O24 5013   4.448  -0.944   3.681 -0.1286 -0.2581 -0.3881
   12CHTO   H39 5014   4.410  -1.029   3.672  2.0504 -1.2341 -0.5611
   12CHTO    O9 5015   4.208  -1.001   3.245 -0.6036  0.6687  0.7675
   12CHTO   C13 5016   4.251  -1.157   3.238  0.4967  0.3722 -0.1819
   12CHTO   H26 5017   4.361  -1.159   3.222  0.4548  0.1612 -0.4656
   12CHTO   C11 5018   4.177  -1.229   3.121  0.1217 -0.4054  0.8517
   12CHTO   H24 5019   4.222  -1.177   3.035  0.0715 -0.9871  0.4734
   12CHTO    O8 5020   4.033  -1.215   3.123 -0.0980 -0.5633 -0.4780
   12CHTO    H3 5021   4.009  -1.147   3.182 -0.7013  0.7570 -2.1920
   12CHTO    C9 5022   4.234  -1.376   3.122 -0.3142 -0.5803  0.5311
   12CHTO   H22 5023   4.343  -1.359   3.129 -0.6230  1.5724  0.5630
   12CHTO    N2 5024   4.209  -1.446   2.990  1.3094  0.6088  0.0388
   12CHTO   H10 5025   4.257  -1.403   2.903  0.7397 -0.7246 -0.9477
   12CHTO   H11 5026   4.229  -1.551   3.007 -0.8578  0.3162  0.9511
   12CHTO    C7 5027   4.182  -1.450   3.244  0.5887  0.4980  0.4565
   12CHTO   H20 5028   4.250  -1.537   3.251 -0.2140 -0.1417  0.3507
   12CHTO    O4 5029   4.184  -1.360   3.355  0.7914 -0.6360  0.5748
   12CHTO   C14 5030   4.208  -1.221   3.377  0.0543 -0.4952 -0.1221
   12CHTO   H27 5031   4.292  -1.215   3.450 -0.9428 -0.2758  1.0347
   12CHTO   C18 5032   4.079  -1.166   3.452  0.4664 -0.4298  0.5627
   12CHTO   O13 5033   4.058  -1.214   3.584  0.3050 -0.0127 -0.1887
   12CHTO    H7 5034   4.008  -1.151   3.632 -1.8841 -1.7965 -0.0349
   12CHTO    O2 5035   4.039  -1.505   3.227  0.5772 -0.0969 -0.3048
   12CHTO    C1 5036   4.002  -1.599   3.323 -0.0755  0.2600 -0.4850
   12CHTO   H14 5037   4.065  -1.592   3.414 -0.4429  2.1947 -0.3572
   12CHTO    C2 5038   4.025  -1.747   3.256 -0.1083  0.1416  0.5299
   12CHTO   H15 5039   3.956  -1.753   3.171 -1.1495  1.7771  1.2130
   12CHTO    O6 5040   4.165  -1.759   3.224  0.1234 -0.1679  0.2736
   12CHTO    H1 5041   4.177  -1.842   3.183 -3.2284 -1.1178  1.0201
   12CHTO    C3 5042   3.975  -1.856   3.357  0.3057 -0.2206 -0.4862
   12CHTO   H16 5043   4.033  -1.855   3.450 -0.1594 -2.7700 -0.1251
   12CHTO    N1 5044   3.983  -1.997   3.291  1.0224  0.0788  0.5900
   12CHTO    H8 5045   3.934  -2.072   3.351 -1.4459  0.6225 -0.6857
   12CHTO    H9 5046   3.942  -1.992   3.191 -1.8190  0.4973  1.7262
   12CHTO    C4 5047   3.829  -1.826   3.395 -0.4408 -0.0362 -0.4093
   12CHTO   H17 5048   3.766  -1.836   3.306 -2.2648  0.9902  0.7329
   12CHTO    O1 5049   3.828  -1.693   3.456 -0.4764  0.3276  0.1545
   12CHTO    C5 5050   3.854  -1.585   3.360 -0.4424 -0.0632 -0.0374
   12CHTO   H18 5051   3.778  -1.594   3.283 -0.5601  1.0412 -0.0682
   12CHTO   C16 5052   3.833  -1.447   3.432  0.2552 -0.4658 -0.5138
   12CHTO   O11 5053   3.702  -1.428   3.474  1.0993  0.0677 -0.0148
   12CHTO    H5 5054   3.670  -1.346   3.443  0.1537  0.4614  1.9343
   12CHTO    O3 5055   3.783  -1.918   3.503  0.4852 -0.0216 -0.0938
   12CHTO    C6 5056   3.638  -1.927   3.514 -0.2467  0.1411  0.3042
   12CHTO   H19 5057   3.581  -1.843   3.474 -0.6634  0.2482  1.1157
   12CHTO    C8 5058   3.606  -2.062   3.433 -0.0757 -0.3277  0.2153
   12CHTO   H21 5059   3.674  -2.139   3.469  0.7060  1.3763  2.5225
   12CHTO    O7 5060   3.637  -2.044   3.298  0.0385 -0.1758  0.4034
   12CHTO    H2 5061   3.697  -2.110   3.268 -0.8845 -1.3830  1.1640
   12CHTO   C12 5062   3.461  -2.107   3.456 -0.0851 -0.3450  0.4910
   12CHTO   H25 5063   3.403  -2.040   3.389  1.9904  2.2622  1.2453
   12CHTO    N3 5064   3.440  -2.246   3.407  0.3541 -0.7307 -0.2667
   12CHTO   H12 5065   3.342  -2.260   3.364 -0.2305  0.4498  0.6672
   12CHTO   H13 5066   3.464  -2.314   3.488  0.0408 -1.0263 -0.4225
   12CHTO   C15 5067   3.408  -2.082   3.608  0.6662  0.2304  0.1293
   12CHTO   H28 5068   3.427  -2.165   3.676 -3.0759 -0.9438 -0.1478
   12CHTO   O10 5069   3.264  -2.056   3.599 -0.3898  0.6270  0.8192
   12CHTO    H4 5070   3.208  -2.131   3.600  0.0304  0.3087  0.5716
   12CHTO    O5 5071   3.447  -1.958   3.669 -0.2339 -0.5323  0.6342
   12CHTO   C10 5072   3.594  -1.943   3.660 -0.5017  0.0410 -0.0173
   12CHTO   H23 5073   3.642  -2.027   3.711  1.5376  1.6785  0.8323
   12CHTO   C17 5074   3.623  -1.813   3.743  0.3308  0.0269 -0.3440
   12CHTO   O12 5075   3.589  -1.827   3.883 -0.1951 -0.3924  0.3501
   12CHTO    H6 5076   3.569  -1.742   3.916  1.5384  0.5208 -0.8752
   13CHTO  H203 5077   7.133   4.053   1.790  0.2741 -0.2780 -0.4974
   13CHTO   O82 5078   7.058   4.108   1.801  0.0871 -0.6586  0.1987
   13CHTO  C123 5079   7.098   4.229   1.871  0.3003  0.3286  0.0499
   13CHTO  H227 5080   7.195   4.268   1.835  0.6155  0.6006  1.1624
   13CHTO   O77 5081   6.995   4.315   1.826  0.3811  0.3206  0.1458
   13CHTO  C118 5082   7.001   4.450   1.881 -0.0150  0.3949 -0.6492
   13CHTO  H222 5083   7.099   4.497   1.864  0.6031 -0.4202  0.5861
   13CHTO  C125 5084   6.884   4.537   1.810 -0.1626  0.1447  0.4202
   13CHTO   O84 5085   6.937   4.592   1.687 -0.4865 -0.1142 -0.0799
   13CHTO  H205 5086   6.905   4.535   1.619 -0.6632 -2.1375  1.6494
   13CHTO  C114 5087   6.970   4.438   2.032 -0.0605  0.5410  0.1798
   13CHTO  H218 5088   6.875   4.384   2.041  0.3077 -0.1660 -0.1284
   13CHTO  C116 5089   7.084   4.356   2.094 -0.3786  0.0515 -0.5324
   13CHTO  H220 5090   7.178   4.414   2.083  0.2047 -0.5695  1.0530
   13CHTO   O79 5091   7.074   4.345   2.240 -0.5539 -0.5905  0.4971
   13CHTO  H201 5092   6.991   4.375   2.273  0.0692  0.7306  0.8788
   13CHTO  C120 5093   7.086   4.211   2.029  0.3368 -0.1072  1.0801
   13CHTO  H224 5094   6.983   4.174   2.046 -0.5141  1.4233 -0.6039
   13CHTO   N21 5095   7.193   4.120   2.079 -0.1940 -0.0622  0.3477
   13CHTO  H211 5096   7.203   4.030   2.020 -0.4846  0.7771 -1.0253
   13CHTO  H212 5097   7.286   4.174   2.092  0.1739 -0.5796 -0.1328
   13CHTO   O75 5098   6.974   4.575   2.079  0.2759 -0.0073 -0.3655
   13CHTO  C112 5099   6.840   4.604   2.172  0.2723 -0.1013 -0.1168
   13CHTO  H216 5100   6.825   4.518   2.238 -0.2157 -0.5433 -0.8010
   13CHTO   O73 5101   6.731   4.625   2.091  0.0230  0.7961 -0.1839
   13CHTO  C113 5102   6.608   4.635   2.159  0.4445 -0.0227  0.6295
   13CHTO  H217 5103   6.589   4.544   2.219 -1.3478 -0.3297 -0.3683
   13CHTO  C124 5104   6.497   4.647   2.051  0.1146  0.3881 -0.9294
   13CHTO   O83 5105   6.479   4.520   1.992  0.3509  0.3272  0.4147
   13CHTO  H204 5106   6.450   4.535   1.903 -0.3356  0.4188  0.6482
   13CHTO  C109 5107   6.611   4.767   2.249 -0.2617 -0.0934 -0.7020
   13CHTO  H213 5108   6.622   4.853   2.181  1.9837  0.6528  0.5557
   13CHTO  C110 5109   6.740   4.756   2.344 -0.3396  0.2191 -0.3069
   13CHTO  H214 5110   6.717   4.687   2.425 -1.5166  0.7456 -0.1721
   13CHTO   O78 5111   6.754   4.881   2.409 -0.2375  0.6714 -0.7954
   13CHTO  H200 5112   6.841   4.912   2.421  0.3269 -1.1865 -0.0593
   13CHTO  C111 5113   6.868   4.726   2.264  0.7805  1.1202 -0.0856
   13CHTO  H215 5114   6.889   4.810   2.196  0.1791  0.9108 -0.5328
   13CHTO   N19 5115   6.987   4.713   2.349  0.7475 -0.3691 -0.0058
   13CHTO  H207 5116   7.017   4.803   2.400 -1.0367 -0.2169  0.8348
   13CHTO  H208 5117   7.064   4.667   2.289  0.3180 -0.7099 -0.3054
   13CHTO   O74 5118   6.498   4.785   2.334 -0.4828  0.0932 -0.7637
   13CHTO  C115 5119   6.452   4.928   2.339 -0.0553 -0.5029 -0.4339
   13CHTO  H219 5120   6.530   4.997   2.370  1.5960 -1.7943 -1.6023
   13CHTO   O76 5121   6.408   4.984   2.202  0.0161 -0.4173 -0.2188
   13CHTO  C122 5122   6.279   4.938   2.158  0.3308  0.3965 -0.8870
   13CHTO  H226 5123   6.268   4.830   2.163  0.1260  0.2925 -2.8982
   13CHTO  C126 5124   6.262   4.967   2.008 -0.0913  0.1023  0.5648
   13CHTO   O85 5125   6.287   5.101   1.971 -0.0649  0.9858  0.1421
   13CHTO  H206 5126   6.372   5.107   1.931 -0.5624 -1.1031 -1.2926
   13CHTO  C121 5127   6.162   5.012   2.247 -0.3417  0.1923  0.4583
   13CHTO  H225 5128   6.121   5.106   2.205  0.6065  1.3670  2.0953
   13CHTO   O81 5129   6.045   4.929   2.261  0.0539  0.2008  0.4320
   13CHTO  H202 5130   5.988   4.925   2.187 -1.5378 -1.1501  1.6991
   13CHTO  C119 5131   6.220   5.039   2.391  0.1559 -0.4067 -0.7133
   13CHTO  H223 5132   6.266   5.137   2.397  1.1729 -0.8485 -1.2945
   13CHTO  C117 5133   6.330   4.934   2.441  0.5883 -0.5696  0.5656
   13CHTO  H221 5134   6.299   4.830   2.446 -2.2268  0.2009  0.2021
   13CHTO   N20 5135   6.375   4.968   2.577  0.1867  0.2857  0.1701
   13CHTO  H209 5136   6.441   4.891   2.614 -2.1235 -0.6586  2.5559
   13CHTO  H210 5137   6.284   4.974   2.635  0.5131 -0.4524  0.7608
   13CHTO   O80 5138   6.100   5.053   2.489  0.2943 -0.2821 -0.7244
   13CHTO  C103 5139   6.023   5.195   2.495 -0.3896 -0.3345 -0.0805
   13CHTO  H190 5140   5.992   5.217   2.597  2.2927 -0.1604  0.7290
   13CHTO  C101 5141   6.077   5.332   2.429  0.2045  0.2150  0.6691
   13CHTO  H188 5142   6.106   5.312   2.326 -2.4222 -1.5640  0.2264
   13CHTO   O68 5143   6.199   5.370   2.508  0.3383  0.6990  0.0040
   13CHTO  H168 5144   6.171   5.399   2.592 -1.3020 -2.2537  0.5673
   13CHTO   C99 5145   5.961   5.438   2.428  0.2370  0.6032 -0.1125
   13CHTO  H186 5146   5.942   5.454   2.536  0.8158 -0.3822  0.1411
   13CHTO   N17 5147   5.993   5.566   2.367  0.1593  0.2849 -0.0175
   13CHTO  H174 5148   6.069   5.613   2.427  0.0218 -0.0959  0.4652
   13CHTO  H175 5149   5.907   5.631   2.356  1.6871  2.2936 -0.2160
   13CHTO   C97 5150   5.835   5.374   2.362 -0.0024  0.2256  0.9804
   13CHTO  H184 5151   5.847   5.360   2.254  0.9421 -1.0932  1.2467
   13CHTO   O64 5152   5.794   5.248   2.430  0.1082 -0.3884  0.0237
   13CHTO  C104 5153   5.895   5.148   2.413 -0.0525  0.0129 -0.0704
   13CHTO  H191 5154   5.924   5.131   2.310  0.0344  1.3149 -0.2692
   13CHTO  C108 5155   5.834   5.014   2.464 -0.0360 -1.0183 -0.3909
   13CHTO   O71 5156   5.718   4.980   2.381  0.0135  0.1951  0.3693
   13CHTO  H171 5157   5.746   4.937   2.302  0.4682  1.2049 -0.0249
   13CHTO   O62 5158   5.713   5.458   2.379 -0.6430 -0.5927  0.0877
   13CHTO   C91 5159   5.587   5.395   2.338 -0.3979 -0.3111  0.2289
   13CHTO  H178 5160   5.606   5.289   2.324  0.0586 -0.2117  0.1208
   13CHTO   C92 5161   5.541   5.458   2.204 -0.5440  0.2539  0.0748
   13CHTO  H179 5162   5.529   5.566   2.221  1.0173  0.3474  0.7071
   13CHTO   O66 5163   5.649   5.444   2.111 -0.4049 -0.3282  0.0751
   13CHTO  H166 5164   5.624   5.495   2.036  1.2677  1.6061  0.7837
   13CHTO   C93 5165   5.417   5.390   2.146  0.1163  0.3136 -0.3553
   13CHTO  H180 5166   5.441   5.284   2.129  2.1904  0.9343 -1.4686
   13CHTO   N16 5167   5.375   5.426   2.011  0.1478  0.2003  0.7160
   13CHTO  H172 5168   5.297   5.357   1.984  1.2216 -0.3574 -1.0218
   13CHTO  H173 5169   5.458   5.413   1.943 -1.3056 -0.2304 -1.0145
   13CHTO   C94 5170   5.306   5.394   2.260  0.4060 -0.0505  0.4779
   13CHTO  H181 5171   5.265   5.494   2.277 -0.0435 -0.3459  1.1650
   13CHTO   O61 5172   5.354   5.348   2.390  0.4550 -0.7405 -0.2482
   13CHTO   C95 5173   5.470   5.422   2.435 -0.0507  0.8006 -0.0026
   13CHTO  H182 5174   5.451   5.529   2.436 -0.6527  0.7535 -2.7770
   13CHTO  C106 5175   5.507   5.377   2.578  0.5484 -0.3524  0.4244
   13CHTO   O69 5176   5.540   5.235   2.589  0.4638  0.0969 -0.1708
   13CHTO  H169 5177   5.461   5.190   2.611  0.7523  0.5057  1.8173
   13CHTO   O63 5178   5.189   5.299   2.212 -0.2908  0.3043 -0.0834
   13CHTO   C96 5179   5.040   5.348   2.253  0.1167  0.5013 -0.4231
   13CHTO  H183 5180   4.970   5.279   2.207  0.6871 -1.2849  1.3268
   13CHTO   C98 5181   5.007   5.493   2.208  0.0622  0.5573 -0.3564
   13CHTO  H185 5182   5.066   5.569   2.261  2.0191  0.1293 -1.9055
   13CHTO   O67 5183   5.041   5.508   2.068  0.5822 -0.0170  0.0878
   13CHTO  H167 5184   5.017   5.586   2.022  1.0375 -0.2935 -0.6248
   13CHTO  C102 5185   4.846   5.519   2.231 -0.6027  0.8954  0.2292
   13CHTO  H189 5186   4.790   5.445   2.172  0.6151 -1.0442  1.4301
   13CHTO   N18 5187   4.796   5.653   2.189 -0.5230 -0.0501  0.4425
   13CHTO  H176 5188   4.737   5.699   2.266 -0.0401  1.6583 -0.1936
   13CHTO  H177 5189   4.879   5.721   2.176 -1.4360  1.0575  0.2897
   13CHTO  C105 5190   4.823   5.491   2.382 -0.5461  0.3038  0.9181
   13CHTO  H192 5191   4.876   5.568   2.440 -1.4163  1.2361  0.4888
   13CHTO   O65 5192   4.863   5.364   2.424  0.4899 -0.0028 -0.5336
   13CHTO  C100 5193   5.005   5.343   2.410 -0.1063  0.7192  0.5813
   13CHTO  H187 5194   5.059   5.425   2.460  1.0121  0.1357  0.3378
   13CHTO  C107 5195   5.029   5.203   2.468  0.5866  0.0078  0.0373
   13CHTO   O70 5196   4.965   5.100   2.389  0.3327 -0.1138 -0.2626
   13CHTO  H170 5197   5.024   5.076   2.320 -0.4684 -0.5285 -0.8015
   13CHTO   O57 5198   4.646   5.509   2.406  0.4516  0.1573 -0.1739
   13CHTO   C85 5199   4.547   5.426   2.343 -0.6512 -0.0209  0.0690
   13CHTO  H157 5200   4.592   5.374   2.256  0.3873  1.0852 -0.0629
   13CHTO   C83 5201   4.439   5.531   2.298  0.7258  0.2400  0.0338
   13CHTO  H155 5202   4.489   5.607   2.237  3.1146 -0.5666  0.9210
   13CHTO   O56 5203   4.393   5.605   2.416  0.1216  0.4061  0.0737
   13CHTO  H135 5204   4.453   5.639   2.479 -1.3300  0.7217  1.3383
   13CHTO   C81 5205   4.322   5.461   2.219  0.1061  0.1254  0.5022
   13CHTO  H153 5206   4.365   5.411   2.133  1.8283 -0.7199  1.8147
   13CHTO   N14 5207   4.225   5.555   2.158 -0.0026 -0.0472  0.3349
   13CHTO  H141 5208   4.244   5.557   2.052 -0.4330 -0.7101  0.2451
   13CHTO  H142 5209   4.244   5.653   2.196  0.8194 -0.2665  0.4886
   13CHTO   C79 5210   4.263   5.341   2.306  0.6754 -0.1262 -0.7894
   13CHTO  H151 5211   4.201   5.280   2.240  0.1706  0.1062 -0.5317
   13CHTO   O52 5212   4.366   5.259   2.360  0.2353  0.2034 -0.0312
   13CHTO   C86 5213   4.469   5.326   2.435 -0.3546  0.7263 -0.0327
   13CHTO  H158 5214   4.417   5.373   2.521 -0.0975 -4.6558  3.3402
   13CHTO   C90 5215   4.562   5.224   2.504 -0.0412 -0.2015 -0.2024
   13CHTO   O60 5216   4.614   5.113   2.425 -0.9232 -0.3766 -0.6826
   13CHTO  H138 5217   4.680   5.154   2.372  0.1679  1.8715  2.3292
   13CHTO   O50 5218   4.170   5.387   2.409 -0.2777 -0.1026  0.4249
   13CHTO   C73 5219   4.038   5.351   2.450  0.3431 -0.0954  0.1757
   13CHTO  H145 5220   3.992   5.298   2.364  0.0487  1.0881 -0.4125
   13CHTO   C74 5221   3.945   5.475   2.480  0.2762  0.2199 -0.0494
   13CHTO  H146 5222   3.946   5.541   2.392 -1.2903 -0.6365 -0.7235
   13CHTO   O54 5223   3.806   5.427   2.501  0.4976 -0.1222 -0.0367
   13CHTO  H133 5224   3.756   5.487   2.553 -1.5470 -2.2275  0.5385
   13CHTO   C75 5225   3.996   5.550   2.610 -0.5019  0.3220  0.1096
   13CHTO  H147 5226   4.099   5.582   2.588 -1.0544  2.0720 -0.0274
   13CHTO   N13 5227   3.921   5.668   2.650 -0.3756  0.0145  0.0486
   13CHTO  H139 5228   3.826   5.629   2.683 -0.3562  0.5923  0.8115
   13CHTO  H140 5229   3.917   5.745   2.573  0.6504  2.4014  2.3027
   13CHTO   C76 5230   4.007   5.448   2.737  0.1238  0.8658  0.7924
   13CHTO  H148 5231   3.909   5.402   2.749  0.9188 -1.3262 -0.5806
   13CHTO   O49 5232   4.095   5.330   2.695 -0.0883  0.2701  0.0661
   13CHTO   C77 5233   4.037   5.265   2.580  0.4286  0.1105 -0.2562
   13CHTO  H149 5234   3.936   5.234   2.604 -0.6117  2.4427 -1.4735
   13CHTO   C88 5235   4.102   5.134   2.546  0.0670  0.4495  0.4593
   13CHTO   O58 5236   4.033   5.064   2.434  0.0990 -0.3798  0.3563
   13CHTO  H136 5237   3.940   5.076   2.424  0.4912  0.0615 -3.3100
   13CHTO   O51 5238   4.072   5.527   2.870 -0.4758 -0.5115 -1.1668
   13CHTO   C78 5239   4.244   5.549   2.886  0.3707 -1.1985  0.0031
   13CHTO  H150 5240   4.257   5.606   2.981  0.7286 -0.9560 -0.1927
   13CHTO   C80 5241   4.316   5.620   2.769  0.2387  0.3144 -0.3298
   13CHTO  H152 5242   4.301   5.553   2.682 -1.1896  0.6527 -0.3547
   13CHTO   O55 5243   4.248   5.747   2.746  0.9035  0.0368  0.1827
   13CHTO  H134 5244   4.248   5.778   2.658 -1.1585  3.8265  1.4010
   13CHTO   C84 5245   4.477   5.622   2.800 -0.0956 -0.5079 -0.1046
   13CHTO  H156 5246   4.496   5.676   2.893 -0.0565  0.9086 -0.9149
   13CHTO   N15 5247   4.556   5.681   2.685  0.6860 -0.6529 -0.5292
   13CHTO  H143 5248   4.525   5.782   2.671 -2.5791 -1.0818  2.6791
   13CHTO  H144 5249   4.537   5.619   2.600 -1.4961 -2.3583  1.1199
   13CHTO   C87 5250   4.518   5.477   2.830 -0.3453 -0.5058  0.4122
   13CHTO  H159 5251   4.488   5.431   2.735  2.8613 -2.1558  0.1227
   13CHTO   O53 5252   4.449   5.425   2.929 -0.2900 -0.5039 -0.0352
   13CHTO   C82 5253   4.311   5.407   2.904  0.2840  0.2694 -0.2866
   13CHTO  H154 5254   4.307   5.343   2.817 -1.3251  0.3045 -0.2498
   13CHTO   C89 5255   4.240   5.331   3.015 -0.5448  0.2176  0.2813
   13CHTO   O59 5256   4.289   5.194   3.010 -0.2763 -0.5156 -0.2811
   13CHTO  H137 5257   4.272   5.157   2.925 -0.1159 -0.4037 -0.3620
   13CHTO   O45 5258   4.671   5.458   2.867  0.6540 -0.1113  0.4881
   13CHTO   C67 5259   4.710   5.319   2.863  0.5290 -0.2419 -0.1479
   13CHTO  H124 5260   4.634   5.258   2.814 -0.5720 -0.0039  1.2200
   13CHTO   C65 5261   4.844   5.304   2.790  0.0596 -0.1397  0.1422
   13CHTO  H122 5262   4.840   5.360   2.697  0.5682 -0.6159 -0.1648
   13CHTO   O44 5263   4.867   5.172   2.764 -0.5993 -0.3637 -0.1949
   13CHTO  H102 5264   4.852   5.126   2.844 -1.1202  0.7165  0.3251
   13CHTO   C63 5265   4.952   5.372   2.877 -0.4048 -0.6123  0.5397
   13CHTO  H120 5266   4.923   5.476   2.891 -1.9473 -1.0732  0.8466
   13CHTO   N11 5267   5.071   5.404   2.791  0.1568  0.9071  0.3655
   13CHTO  H108 5268   5.142   5.469   2.837  0.6566 -0.7336  1.9713
   13CHTO  H109 5269   5.129   5.316   2.774 -0.7388  0.4764 -0.5677
   13CHTO   C61 5270   4.972   5.313   3.022 -0.2660  0.0972  0.4007
   13CHTO  H118 5271   5.027   5.389   3.079  1.5842  0.6415 -2.0054
   13CHTO   O40 5272   4.847   5.290   3.085  0.0684  0.4556  0.2781
   13CHTO   C68 5273   4.721   5.266   3.015  0.0323 -0.0620  0.3491
   13CHTO  H125 5274   4.645   5.325   3.070 -0.7218 -0.3217 -0.4139
   13CHTO   C72 5275   4.697   5.123   3.038  0.3573 -0.5539  0.0972
   13CHTO   O48 5276   4.569   5.079   2.997 -0.3604  0.6536 -0.2775
   13CHTO  H105 5277   4.505   5.096   3.064  1.2861  1.9902  1.0013
   13CHTO   O38 5278   5.047   5.189   3.016 -0.2542  0.3950  0.4038
   13CHTO   C55 5279   5.159   5.160   3.104 -0.1842 -0.0812 -0.0222
   13CHTO  H112 5280   5.183   5.053   3.106  0.0530 -0.0270  2.2787
   13CHTO   C56 5281   5.128   5.211   3.257  0.4489 -0.5288 -0.3291
   13CHTO  H113 5282   5.109   5.319   3.247  0.4896 -0.2575  2.3462
   13CHTO   O42 5283   5.008   5.150   3.303 -0.0775 -0.2734 -0.3453
   13CHTO  H100 5284   5.024   5.079   3.362  0.5918  0.5107  0.4327
   13CHTO   C57 5285   5.250   5.183   3.348 -0.2771  0.6095 -0.2154
   13CHTO  H114 5286   5.272   5.076   3.352 -0.6667  0.5092 -0.6304
   13CHTO   N10 5287   5.233   5.239   3.481  0.0983 -0.1141  0.9367
   13CHTO  H106 5288   5.330   5.254   3.524  0.6456 -1.0936  0.0577
   13CHTO  H107 5289   5.178   5.167   3.539  0.2758 -0.5281  0.5987
   13CHTO   C58 5290   5.369   5.248   3.275  0.0273 -0.1417 -1.2676
   13CHTO  H115 5291   5.343   5.355   3.262 -1.7177 -0.4124 -0.1941
   13CHTO   O37 5292   5.399   5.204   3.145  0.2223  0.4743 -0.2567
   13CHTO   C59 5293   5.290   5.227   3.048  0.1673  0.5418 -0.2359
   13CHTO  H116 5294   5.275   5.335   3.049  0.4381  0.5752  1.1315
   13CHTO   C70 5295   5.330   5.181   2.905  0.0923 -0.0135 -0.1608
   13CHTO   O46 5296   5.367   5.040   2.904 -0.5857  0.1524 -0.2722
   13CHTO  H103 5297   5.452   5.038   2.944 -0.1425 -0.2462 -1.2305
   13CHTO   O39 5298   5.503   5.241   3.365 -0.1656  0.1920  0.0464
   13CHTO   C60 5299   5.596   5.343   3.328  0.2946 -0.2054 -0.3438
   13CHTO  H117 5300   5.580   5.376   3.226  1.0091  1.2180 -0.0080
   13CHTO   C62 5301   5.579   5.464   3.425  0.7974  0.4017  0.5241
   13CHTO  H119 5302   5.475   5.498   3.405  0.6449 -0.6616 -0.5323
   13CHTO   O43 5303   5.593   5.412   3.567 -0.2354  0.0319  0.4141
   13CHTO  H101 5304   5.529   5.351   3.600 -0.4151 -1.1513 -2.0398
   13CHTO   C66 5305   5.681   5.581   3.390  0.3582  0.0125 -0.1365
   13CHTO  H123 5306   5.658   5.610   3.288 -0.0061 -2.0916 -0.6945
   13CHTO   N12 5307   5.659   5.698   3.476  0.4887  0.1914  0.1917
   13CHTO  H110 5308   5.685   5.690   3.581 -1.5547  0.7167  0.7534
   13CHTO  H111 5309   5.555   5.725   3.474  0.5172  0.6075  2.5394
   13CHTO   C69 5310   5.826   5.526   3.381  0.8934  0.3480 -0.7468
   13CHTO  H126 5311   5.875   5.502   3.477  0.1319 -0.7417 -0.6209
   13CHTO   O41 5312   5.841   5.408   3.285  0.4289  0.1081 -0.0034
   13CHTO   C64 5313   5.742   5.297   3.330  0.2007  0.1901 -0.2798
   13CHTO  H121 5314   5.777   5.256   3.427  3.0530  1.1670 -0.8345
   13CHTO   C71 5315   5.756   5.178   3.235  0.1128  0.3263 -0.1570
   13CHTO   O47 5316   5.881   5.105   3.261  0.3714 -0.2526  0.3629
   13CHTO  H104 5317   5.894   5.037   3.197 -0.5636 -1.2846  1.2563
   13CHTO   O34 5318   5.925   5.656   3.317 -0.1062  0.0644  0.2041
   13CHTO   C49 5319   6.087   5.655   3.347 -0.0535  0.4537  0.0131
   13CHTO   H91 5320   6.124   5.559   3.311  1.8216  1.2234 -0.1752
   13CHTO   C47 5321   6.122   5.684   3.496 -0.9970  0.0120  0.5949
   13CHTO   H89 5322   6.229   5.660   3.509 -0.4288  2.8274  1.3924
   13CHTO   O33 5323   6.052   5.604   3.585 -0.0426  0.5300  0.2345
   13CHTO   H70 5324   6.088   5.518   3.597 -0.7533  0.0679 -0.8691
   13CHTO   C45 5325   6.096   5.843   3.533  0.6023  0.1217 -0.1646
   13CHTO   H87 5326   5.994   5.856   3.573  1.4653 -0.6689  2.3178
   13CHTO    N8 5327   6.196   5.893   3.634 -0.5100  0.8192 -0.2673
   13CHTO   H75 5328   6.169   5.992   3.668 -0.9884  0.9084 -0.8910
   13CHTO   H76 5329   6.196   5.826   3.719  1.9101  1.3075  0.1434
   13CHTO   C43 5330   6.079   5.931   3.397  0.1428  0.4119 -0.2363
   13CHTO   H85 5331   5.977   5.911   3.363 -0.1555 -0.4908  1.1605
   13CHTO   O29 5332   6.179   5.889   3.306 -0.2707  0.1224  0.5706
   13CHTO   C50 5333   6.159   5.759   3.249  0.2474  0.7769 -0.2732
   13CHTO   H92 5334   6.109   5.755   3.151  1.4174  0.1887 -0.8572
   13CHTO   C54 5335   6.298   5.695   3.211 -0.3629 -0.7403  0.2192
   13CHTO   O36 5336   6.367   5.735   3.093 -0.2171 -0.0914  0.3308
   13CHTO   H72 5337   6.366   5.829   3.093  1.4078 -0.0444  1.1492
   13CHTO   O27 5338   6.081   6.075   3.414 -0.4982  0.0387  0.1601
   13CHTO   C37 5339   6.021   6.198   3.451  0.2353  0.1568 -0.2756
   13CHTO   H79 5340   5.917   6.180   3.420  0.0127  0.1920  0.4451
   13CHTO   C38 5341   6.039   6.235   3.598 -0.8299  0.7593 -0.3817
   13CHTO   H80 5342   6.147   6.243   3.616 -0.9615  2.6976 -0.3767
   13CHTO   O31 5343   5.988   6.138   3.688  0.3002  0.1830  0.0712
   13CHTO   H68 5344   5.901   6.114   3.664  0.9968 -1.1555 -1.2277
   13CHTO   C39 5345   5.983   6.376   3.635 -0.4951  0.3775  0.0965
   13CHTO   H81 5346   5.875   6.369   3.622 -0.5837  0.4776  0.7964
   13CHTO    N7 5347   6.004   6.425   3.773 -0.0764  0.0595  0.1031
   13CHTO   H73 5348   6.110   6.445   3.783  0.0269  0.8954 -2.2653
   13CHTO   H74 5349   5.949   6.514   3.797 -1.5448 -0.1153 -2.3629
   13CHTO   C40 5350   6.035   6.480   3.527 -0.6179 -0.8476  0.1167
   13CHTO   H82 5351   6.140   6.496   3.551 -0.4864  0.5841 -1.3341
   13CHTO   O26 5352   6.015   6.431   3.391  0.0969  0.0209 -0.1645
   13CHTO   C41 5353   6.083   6.303   3.361  0.0206 -0.2054 -0.5143
   13CHTO   H83 5354   6.192   6.307   3.378 -0.2802  2.4252  1.0351
   13CHTO   C52 5355   6.051   6.288   3.211 -0.0365  0.1153 -0.2302
   13CHTO   O35 5356   6.167   6.185   3.152 -0.1154  0.1647 -0.4921
   13CHTO   H71 5357   6.143   6.102   3.190  0.9418 -0.6570 -1.6048
   13CHTO   O28 5358   5.974   6.606   3.543 -0.4046 -0.2562  0.1420
   13CHTO   C42 5359   5.993   6.732   3.474 -0.1224 -0.0872  0.6141
   13CHTO   H84 5360   6.082   6.719   3.412 -1.5077  0.6744 -1.6035
   13CHTO   C44 5361   6.022   6.850   3.575 -0.2845 -0.2731  0.3786
   13CHTO   H86 5362   5.935   6.859   3.640 -1.4139 -0.9117 -1.0181
   13CHTO   O32 5363   6.132   6.806   3.661 -0.1802  0.1135 -0.1639
   13CHTO   H69 5364   6.106   6.734   3.715  1.7826 -0.6064 -0.1493
   13CHTO   C48 5365   6.047   6.993   3.506 -0.6832  0.3140  0.9322
   13CHTO   H90 5366   6.140   6.979   3.450 -1.4718 -2.2507  0.2119
   13CHTO    N9 5367   6.080   7.106   3.606  0.5377  0.5205  0.2218
   13CHTO   H77 5368   6.174   7.071   3.648 -0.0863  1.4820  2.4708
   13CHTO   H78 5369   6.103   7.195   3.549  1.3306  0.8855  1.0822
   13CHTO   C51 5370   5.924   7.008   3.407  0.5472  0.0058  0.1068
   13CHTO   H93 5371   5.837   7.017   3.473 -0.6174  0.7712 -1.4876
   13CHTO   O30 5372   5.913   6.893   3.316 -0.5881 -0.3413  0.0043
   13CHTO   C46 5373   5.878   6.772   3.377  0.0916 -0.3130 -0.7052
   13CHTO   H88 5374   5.789   6.788   3.438  0.2933 -1.5375 -0.0728
   13CHTO   C53 5375   5.845   6.669   3.269  0.4073  0.7914  0.4363
   13CHTO   O72 5376   5.716   6.698   3.211  0.6778 -0.3842  0.0945
   13CHTO  H199 5377   5.706   6.642   3.137  1.8887 -1.7166  0.9097
   13CHTO   O22 5378   5.935   7.129   3.329 -0.0685  0.0639  0.0627
   13CHTO   C31 5379   5.822   7.216   3.277 -0.1223 -0.9196 -0.1084
   13CHTO   H59 5380   5.874   7.291   3.214 -2.0349  1.8896  1.5614
   13CHTO   C29 5381   5.724   7.137   3.186  0.4291 -0.9020  0.0283
   13CHTO   H57 5382   5.699   7.037   3.226 -1.3679 -0.5221 -0.0941
   13CHTO   O21 5383   5.787   7.116   3.055 -0.0515  0.5341 -0.0214
   13CHTO   H37 5384   5.871   7.074   3.055 -0.1571  0.2993  1.0080
   13CHTO   C27 5385   5.589   7.216   3.162 -0.5084  0.0963  0.1888
   13CHTO   H55 5386   5.615   7.312   3.115 -1.4109  0.3385  0.1810
   13CHTO    N5 5387   5.492   7.142   3.080 -0.0085  0.2377 -0.6851
   13CHTO   H43 5388   5.496   7.043   3.125  2.6839  0.4978 -0.2611
   13CHTO   H44 5389   5.535   7.137   2.980  2.2513 -0.7274  0.2903
   13CHTO   C25 5390   5.544   7.253   3.305 -0.7403  0.8918  0.4044
   13CHTO   H53 5391   5.544   7.163   3.368 -2.6821  0.2392 -0.4814
   13CHTO   O17 5392   5.634   7.351   3.366  0.4823  0.2190 -0.3612
   13CHTO   C32 5393   5.758   7.294   3.398  0.4784  0.0113 -1.0970
   13CHTO   H60 5394   5.738   7.225   3.479  1.8757  0.1296 -0.6438
   13CHTO   C36 5395   5.854   7.394   3.457  0.3316 -0.6837  0.2276
   13CHTO   O25 5396   5.798   7.459   3.571 -0.1199  0.6419 -0.5983
   13CHTO   H40 5397   5.816   7.409   3.648 -2.3793  0.9787  0.1922
   13CHTO   O15 5398   5.391   7.326   3.304 -0.0328  0.2438 -0.4411
   13CHTO   C19 5399   5.289   7.416   3.262 -0.2935 -0.4719  0.1733
   13CHTO   H47 5400   5.260   7.466   3.355  0.3354 -1.9545  1.1745
   13CHTO   C20 5401   5.343   7.522   3.162  0.2348  0.1372 -0.1221
   13CHTO   H48 5402   5.385   7.478   3.070 -0.3065 -1.7832  0.5174
   13CHTO   O19 5403   5.448   7.600   3.230  0.4784  0.2939  0.0689
   13CHTO   H35 5404   5.526   7.594   3.178 -0.3511  0.3624 -1.2078
   13CHTO   C21 5405   5.238   7.630   3.112 -0.4716 -0.0562  0.3956
   13CHTO   H49 5406   5.209   7.693   3.196  1.7229 -1.4707  2.2858
   13CHTO    N4 5407   5.289   7.735   3.015  0.2489 -0.1953 -0.5384
   13CHTO   H41 5408   5.224   7.821   3.012  2.6728  1.6919 -0.8704
   13CHTO   H42 5409   5.386   7.763   3.054 -0.6680 -0.8375  2.3129
   13CHTO   C22 5410   5.112   7.556   3.067 -0.1546  0.5987 -0.0836
   13CHTO   H50 5411   5.126   7.505   2.972  2.5504  0.4792  0.3283
   13CHTO   O14 5412   5.071   7.465   3.175  0.7172 -0.1845  0.0313
   13CHTO   C23 5413   5.161   7.358   3.198  0.2499 -0.5995  0.2353
   13CHTO   H51 5414   5.179   7.311   3.100  4.3914  1.8303 -0.2514
   13CHTO   C34 5415   5.095   7.252   3.294 -0.4825  0.4201  0.4445
   13CHTO   O23 5416   5.182   7.142   3.328  0.1714 -0.0448 -0.3426
   13CHTO   H38 5417   5.181   7.081   3.257 -1.3166 -0.7907  0.2957
   13CHTO   O16 5418   5.000   7.647   3.070  0.0001  0.2837 -0.5628
   13CHTO   C24 5419   4.857   7.610   3.095  0.1813 -0.5284  0.4266
   13CHTO   H52 5420   4.848   7.510   3.138  1.6176 -0.3407  1.1932
   13CHTO   C26 5421   4.776   7.614   2.962 -0.4251  0.9241  0.3841
   13CHTO   H54 5422   4.784   7.716   2.919 -0.5294  2.1612  3.1991
   13CHTO   O20 5423   4.825   7.517   2.877 -0.2081 -0.4636  0.2921
   13CHTO   H36 5424   4.865   7.445   2.922 -0.1483 -0.0145  0.9505
   13CHTO   C30 5425   4.624   7.582   2.996  0.4187 -0.3044 -0.2605
   13CHTO   H58 5426   4.609   7.487   3.049  1.8734 -0.6803 -0.5102
   13CHTO    N6 5427   4.540   7.571   2.871  0.5889 -0.2158  0.0539
   13CHTO   H45 5428   4.595   7.508   2.803 -0.5763  0.2321 -1.3239
   13CHTO   H46 5429   4.448   7.524   2.902 -0.3139  1.2786 -0.3352
   13CHTO   C33 5430   4.568   7.688   3.100 -0.4786 -0.0176 -0.4103
   13CHTO   H61 5431   4.583   7.786   3.053  2.2279 -0.5706 -0.8037
   13CHTO   O18 5432   4.655   7.685   3.224 -0.3246 -0.8454  0.2399
   13CHTO   C28 5433   4.797   7.707   3.203  0.2214 -0.0005  0.4846
   13CHTO   H56 5434   4.811   7.811   3.171  1.0792  0.3110  1.8344
   13CHTO   C35 5435   4.869   7.681   3.340 -0.2711 -0.1097  0.6256
   13CHTO   O24 5436   4.997   7.729   3.354  0.0682  0.3577  0.0059
   13CHTO   H39 5437   5.055   7.719   3.281  1.4582 -1.1040  1.2567
   13CHTO    O9 5438   4.426   7.677   3.127  0.5176 -0.0368  0.1138
   13CHTO   C13 5439   4.396   7.559   3.232  0.1347 -0.3461 -0.1143
   13CHTO   H26 5440   4.479   7.485   3.237  0.0548 -0.3302  1.8895
   13CHTO   C11 5441   4.262   7.480   3.186  0.0766 -0.3539 -0.1639
   13CHTO   H24 5442   4.293   7.430   3.093 -2.5815 -2.9868  0.2979
   13CHTO    O8 5443   4.155   7.573   3.169  0.4430  0.0299  0.2681
   13CHTO    H3 5444   4.079   7.521   3.156  0.1573 -0.3464  3.1283
   13CHTO    C9 5445   4.231   7.376   3.296  0.2680  0.0431 -0.9810
   13CHTO   H22 5446   4.323   7.317   3.304  0.9213  1.2982  1.0809
   13CHTO    N2 5447   4.133   7.268   3.254 -0.9660  0.2303  0.3346
   13CHTO   H10 5448   4.160   7.185   3.318  0.5941  1.1603  0.9102
   13CHTO   H11 5449   4.035   7.311   3.263 -0.4397  2.2402 -2.8249
   13CHTO    C7 5450   4.198   7.450   3.434 -0.0024  0.0605  0.3674
   13CHTO   H20 5451   4.240   7.378   3.507  3.0448  3.1230  1.7347
   13CHTO    O4 5452   4.237   7.592   3.428  0.1542 -0.1707  0.6390
   13CHTO   C14 5453   4.360   7.630   3.376 -0.9958  0.3230 -0.2793
   13CHTO   H27 5454   4.435   7.601   3.452 -0.5017 -0.3194 -1.0036
   13CHTO   C18 5455   4.354   7.788   3.379  0.0845  0.2391  0.4633
   13CHTO   O13 5456   4.491   7.836   3.393  0.2073 -0.5124 -0.2550
   13CHTO    H7 5457   4.515   7.829   3.303 -1.4337 -2.5848 -0.5744
   13CHTO    O2 5458   4.022   7.436   3.473 -0.7802 -0.1706 -0.0825
   13CHTO    C1 5459   4.006   7.409   3.616 -0.2210  0.0867 -0.7715
   13CHTO   H14 5460   4.105   7.416   3.664 -1.1491  0.0437  1.1956
   13CHTO    C2 5461   3.943   7.271   3.657  0.6507  0.0162  0.1664
   13CHTO   H15 5462   3.846   7.268   3.607  1.0432 -0.0302 -0.5961
   13CHTO    O6 5463   4.030   7.173   3.603  0.0171 -0.3881  0.3053
   13CHTO    H1 5464   3.996   7.144   3.520 -0.9386 -0.5852  0.7607
   13CHTO    C3 5465   3.936   7.262   3.815 -0.5177 -0.2543  0.1984
   13CHTO   H16 5466   4.040   7.268   3.850 -0.1872 -3.1040 -0.1913
   13CHTO    N1 5467   3.872   7.131   3.861  0.3248 -0.4913 -0.3810
   13CHTO    H8 5468   3.932   7.043   3.843  0.8290 -0.2813  0.2718
   13CHTO    H9 5469   3.776   7.120   3.811 -0.2290  1.0518  0.2970
   13CHTO    C4 5470   3.863   7.390   3.880  0.6231  0.7831  0.1137
   13CHTO   H17 5471   3.756   7.384   3.861  0.2273  1.0503  2.0917
   13CHTO    O1 5472   3.925   7.511   3.820  0.4042  0.4229  0.7077
   13CHTO    C5 5473   3.914   7.519   3.679 -0.4198 -0.3611 -0.0555
   13CHTO   H18 5474   3.811   7.502   3.648 -0.2133  1.0827 -1.6598
   13CHTO   C16 5475   3.960   7.656   3.636 -0.7166 -0.4409 -0.4635
   13CHTO   O11 5476   3.857   7.749   3.671  0.1076  0.6591 -0.3395
   13CHTO    H5 5477   3.769   7.718   3.676  0.1592  0.7284  1.1347
   13CHTO    O3 5478   3.889   7.402   4.020 -0.2529 -0.1722  0.4209
   13CHTO    C6 5479   3.780   7.461   4.101 -0.1862 -0.0881  0.1878
   13CHTO   H19 5480   3.705   7.515   4.044  0.6352  0.5824 -0.2791
   13CHTO    C8 5481   3.710   7.342   4.184 -0.1330  0.0629 -0.2203
   13CHTO   H21 5482   3.790   7.290   4.235  0.0399  1.5381  1.0422
   13CHTO    O7 5483   3.638   7.258   4.090 -0.4135  0.8244  0.6536
   13CHTO    H2 5484   3.580   7.204   4.142  0.8951  0.0051  1.3051
   13CHTO   C12 5485   3.617   7.403   4.294 -0.6684 -0.4580 -0.4262
   13CHTO   H25 5486   3.536   7.456   4.240  0.9486  0.4792 -2.0100
   13CHTO    N3 5487   3.566   7.301   4.389 -0.0468 -0.0500 -0.5201
   13CHTO   H12 5488   3.505   7.231   4.334 -0.6342  0.5524 -0.6455
   13CHTO   H13 5489   3.513   7.343   4.473  2.9221  0.9068  0.9500
   13CHTO   C15 5490   3.696   7.509   4.367 -0.3306  0.4526  0.1973
   13CHTO   H28 5491   3.773   7.464   4.431 -0.3336 -0.2002 -0.2505
   13CHTO   O10 5492   3.617   7.595   4.470  0.2602  0.3387  0.4444
   13CHTO    H4 5493   3.677   7.653   4.512  0.6247  1.3664 -1.4355
   13CHTO    O5 5494   3.743   7.615   4.280 -0.5302 -0.0158  0.5343
   13CHTO   C10 5495   3.846   7.560   4.199 -0.3770 -0.3231 -1.0202
   13CHTO   H23 5496   3.921   7.503   4.254 -2.1015 -2.1022 -0.4654
   13CHTO   C17 5497   3.918   7.679   4.134 -0.1179  0.1481 -0.3506
   13CHTO   O12 5498   4.047   7.642   4.091 -0.1766  0.2923 -0.3262
   13CHTO    H6 5499   4.102   7.670   4.161 -1.8964  2.4636  0.2244
   14CHTO  H203 5500   6.003   4.482   0.095 -0.2975  0.1599  0.5325
   14CHTO   O82 5501   5.942   4.553   0.104 -0.2805  0.2362  0.0669
   14CHTO  C123 5502   5.890   4.613  -0.014 -0.0098 -0.1896  0.5495
   14CHTO  H227 5503   5.966   4.611  -0.093 -1.1072  0.4706 -0.5288
   14CHTO   O77 5504   5.789   4.522  -0.050 -0.1293  0.1905 -0.0557
   14CHTO  C118 5505   5.717   4.562  -0.172  0.3399 -0.0721  0.0240
   14CHTO  H222 5506   5.789   4.591  -0.250  2.8308 -1.1694  1.8643
   14CHTO  C125 5507   5.640   4.432  -0.223  0.0388 -0.0976  0.0450
   14CHTO   O84 5508   5.731   4.325  -0.257  0.2910  0.7762 -0.5504
   14CHTO  H205 5509   5.803   4.317  -0.199 -0.6875 -1.0646  0.4457
   14CHTO  C114 5510   5.629   4.686  -0.139  0.4611  0.0320  0.2120
   14CHTO  H218 5511   5.566   4.657  -0.055  0.4959  0.2304  0.3082
   14CHTO  C116 5512   5.715   4.807  -0.093  0.4873  0.6790  0.5452
   14CHTO  H220 5513   5.775   4.849  -0.176 -0.0410 -0.2108 -0.3067
   14CHTO   O79 5514   5.628   4.907  -0.036 -0.6288 -0.0067  0.3236
   14CHTO  H201 5515   5.679   4.976   0.002  0.3947 -0.4401 -0.2590
   14CHTO  C120 5516   5.823   4.757   0.018  0.9585 -0.0455 -0.1823
   14CHTO  H224 5517   5.774   4.754   0.118 -0.0828  1.8507 -0.6060
   14CHTO   N21 5518   5.923   4.864   0.034 -0.3175  0.1562 -0.4338
   14CHTO  H211 5519   6.009   4.860  -0.031 -0.0851 -1.2571 -0.0576
   14CHTO  H212 5520   5.964   4.860   0.134  2.1631  1.4820 -1.3617
   14CHTO   O75 5521   5.557   4.709  -0.261 -0.1905  0.0278 -0.2467
   14CHTO  C112 5522   5.418   4.756  -0.230 -0.7468 -0.2778  0.4148
   14CHTO  H216 5523   5.420   4.836  -0.155  1.2242 -0.0104  0.1158
   14CHTO   O73 5524   5.350   4.637  -0.177 -0.0523 -0.2886 -0.2942
   14CHTO  C113 5525   5.217   4.649  -0.149  0.1523  0.4039  0.1505
   14CHTO  H217 5526   5.198   4.720  -0.066 -0.7145  1.8828 -1.2980
   14CHTO  C124 5527   5.169   4.512  -0.096  0.4046 -0.1078  0.7404
   14CHTO   O83 5528   5.030   4.492  -0.057 -0.1502  0.4701 -0.8023
   14CHTO  H204 5529   5.041   4.456   0.029 -1.2111 -0.1628 -0.9306
   14CHTO  C109 5530   5.131   4.695  -0.272 -0.4670 -0.7381  0.7263
   14CHTO  H213 5531   5.149   4.618  -0.348  1.2286  0.6107 -0.2699
   14CHTO  C110 5532   5.187   4.827  -0.326 -0.3776 -0.3896  0.2462
   14CHTO  H214 5533   5.166   4.905  -0.253 -1.3996  0.6555 -1.1414
   14CHTO   O78 5534   5.109   4.861  -0.451 -0.4307 -0.6877 -0.2459
   14CHTO  H200 5535   5.137   4.807  -0.522 -0.2408 -0.4613 -0.3414
   14CHTO  C111 5536   5.340   4.804  -0.363 -0.2401 -0.3040 -0.2078
   14CHTO  H215 5537   5.349   4.732  -0.445  2.9204  0.5589 -0.6929
   14CHTO   N19 5538   5.412   4.925  -0.416  0.3046  0.1588 -0.5797
   14CHTO  H207 5539   5.427   5.008  -0.349  2.1755  0.2452 -1.0737
   14CHTO  H208 5540   5.497   4.902  -0.479  2.5992  2.0739  1.7141
   14CHTO   O74 5541   4.991   4.697  -0.236  0.2077  0.2905 -0.4131
   14CHTO  C115 5542   4.889   4.601  -0.328  0.4113  0.8610 -0.0589
   14CHTO  H219 5543   4.924   4.587  -0.430 -1.7118  0.4827 -0.7768
   14CHTO   O76 5544   4.883   4.462  -0.273 -0.3810  0.3481  0.6283
   14CHTO  C122 5545   4.778   4.377  -0.310 -0.1302  0.2377  0.3096
   14CHTO  H226 5546   4.768   4.296  -0.237 -1.2054 -0.8065 -0.9728
   14CHTO  C126 5547   4.817   4.305  -0.444 -0.4886 -0.7137  0.0742
   14CHTO   O85 5548   4.940   4.223  -0.431  0.0980 -0.0562 -0.4518
   14CHTO  H206 5549   5.021   4.270  -0.433 -1.0821  2.0223 -1.1099
   14CHTO  C121 5550   4.638   4.448  -0.308  0.4090 -0.2516 -0.5691
   14CHTO  H225 5551   4.556   4.387  -0.350  0.3841 -0.6924  0.1213
   14CHTO   O81 5552   4.599   4.478  -0.180 -0.1557  0.5040 -0.1495
   14CHTO  H202 5553   4.579   4.398  -0.136 -3.8733  1.2886 -0.2740
   14CHTO  C119 5554   4.645   4.578  -0.389  0.2990 -0.0555  0.2606
   14CHTO  H223 5555   4.681   4.544  -0.487 -3.3777  1.1477 -1.6033
   14CHTO  C117 5556   4.748   4.677  -0.330 -0.1103  0.4385  0.1501
   14CHTO  H221 5557   4.725   4.708  -0.228 -2.4491  2.0739 -0.8506
   14CHTO   N20 5558   4.763   4.803  -0.414  0.0232  0.5131 -0.2700
   14CHTO  H209 5559   4.848   4.858  -0.375  1.8809 -1.4837 -1.4312
   14CHTO  H210 5560   4.779   4.780  -0.518  1.5881  1.9586 -0.3793
   14CHTO   O80 5561   4.505   4.642  -0.431 -0.0523  0.1701  0.6578
   14CHTO  C103 5562   4.446   4.612  -0.562 -0.0037 -0.6713  0.1423
   14CHTO  H190 5563   4.515   4.624  -0.646 -2.3407 -0.5006 -1.8024
   14CHTO  C101 5564   4.378   4.477  -0.589 -0.2643 -0.2726  0.1806
   14CHTO  H188 5565   4.315   4.459  -0.502  1.2216 -0.4217  1.2405
   14CHTO   O68 5566   4.493   4.372  -0.594  0.2806 -0.1872 -0.2884
   14CHTO  H168 5567   4.535   4.376  -0.678  0.5881 -0.6249 -0.1563
   14CHTO   C99 5568   4.286   4.483  -0.722 -0.7553  0.1246  0.2462
   14CHTO  H186 5569   4.356   4.499  -0.806 -1.9798 -0.4134 -0.8841
   14CHTO   N17 5570   4.224   4.347  -0.727  0.3356 -0.1271  0.0438
   14CHTO  H174 5571   4.140   4.342  -0.660  0.6668 -0.4854  0.4358
   14CHTO  H175 5572   4.189   4.336  -0.829 -4.6658 -0.6138  1.6562
   14CHTO   C97 5573   4.193   4.607  -0.723 -0.1878 -0.1029 -0.2873
   14CHTO  H184 5574   4.118   4.585  -0.646 -0.4025 -0.3228 -0.5585
   14CHTO   O64 5575   4.263   4.722  -0.693  0.1206  0.9197  0.2939
   14CHTO  C104 5576   4.339   4.725  -0.571 -0.5235 -0.3327 -0.4788
   14CHTO  H191 5577   4.263   4.709  -0.494 -1.3996  0.7634 -1.0938
   14CHTO  C108 5578   4.389   4.871  -0.555  0.7158  0.1848  0.0207
   14CHTO   O71 5579   4.283   4.963  -0.565  0.0268  0.3984 -0.1887
   14CHTO  H171 5580   4.305   5.040  -0.515  0.3123  1.1807 -1.4928
   14CHTO   O62 5581   4.144   4.634  -0.852 -0.0367 -0.1099  0.0515
   14CHTO   C91 5582   4.000   4.654  -0.860 -0.0597  0.3922 -0.5485
   14CHTO  H178 5583   3.947   4.564  -0.829  0.4458  0.1932 -0.2585
   14CHTO   C92 5584   3.967   4.673  -1.011 -0.1904  0.1073 -0.4534
   14CHTO  H179 5585   4.021   4.596  -1.067  0.3282  0.8569 -0.9928
   14CHTO   O66 5586   3.821   4.654  -1.041  0.6638 -0.3814 -0.0714
   14CHTO  H166 5587   3.774   4.736  -1.047 -0.7975 -1.2345 -0.5011
   14CHTO   C93 5588   4.004   4.821  -1.061  0.1660  0.3233 -0.0296
   14CHTO  H180 5589   3.935   4.844  -1.144  2.7970  0.3162 -2.2733
   14CHTO   N16 5590   4.137   4.843  -1.121  0.2023  0.5785 -0.3904
   14CHTO  H172 5591   4.169   4.945  -1.112 -0.0896  0.4656  2.1580
   14CHTO  H173 5592   4.141   4.817  -1.226  1.1789  2.3237 -0.7986
   14CHTO   C94 5593   3.970   4.934  -0.948  0.3022 -0.3570 -1.5101
   14CHTO  H181 5594   4.059   4.965  -0.893 -0.5365 -3.3807  1.6953
   14CHTO   O61 5595   3.885   4.880  -0.849 -0.0926 -0.1651  0.1903
   14CHTO   C95 5596   3.930   4.768  -0.776  0.1952 -0.2819  0.0373
   14CHTO  H182 5597   3.999   4.809  -0.702  0.7691 -1.3363  0.1014
   14CHTO  C106 5598   3.808   4.708  -0.704  0.3737 -0.0894  0.2325
   14CHTO   O69 5599   3.690   4.686  -0.781 -0.2000  0.1294 -0.2472
   14CHTO  H169 5600   3.639   4.615  -0.746 -2.7089  2.6369  1.3703
   14CHTO   O63 5601   3.907   5.038  -1.001  0.3788  0.0588 -0.0261
   14CHTO   C96 5602   3.876   5.178  -0.908  0.2671  0.8370  0.0591
   14CHTO  H183 5603   3.900   5.152  -0.805  0.0609 -0.3671 -0.1961
   14CHTO   C98 5604   3.730   5.227  -0.912  0.4100  0.2950 -0.2051
   14CHTO  H185 5605   3.703   5.226  -1.018  3.6970 -0.0527 -1.0762
   14CHTO   O67 5606   3.638   5.131  -0.841  0.3252  0.4385  0.2906
   14CHTO  H167 5607   3.668   5.042  -0.832  1.4204  0.6681 -1.0397
   14CHTO  C102 5608   3.714   5.374  -0.842  0.0797 -0.3843 -0.4161
   14CHTO  H189 5609   3.704   5.353  -0.734  0.1820 -1.2172 -0.5686
   14CHTO   N18 5610   3.589   5.443  -0.882  0.0777  0.1228 -0.2079
   14CHTO  H176 5611   3.501   5.384  -0.858  0.1854 -0.5598 -1.4704
   14CHTO  H177 5612   3.592   5.479  -0.984  2.0662 -3.6772 -1.5677
   14CHTO  C105 5613   3.842   5.465  -0.857  0.5014  0.2181 -0.0440
   14CHTO  H192 5614   3.835   5.512  -0.955  1.9240 -0.9823 -0.7460
   14CHTO   O65 5615   3.966   5.394  -0.865 -0.1339 -0.4971  0.2198
   14CHTO  C100 5616   3.973   5.288  -0.957  0.1648 -0.0401 -0.2011
   14CHTO  H187 5617   3.942   5.317  -1.059 -1.4385  2.5471  0.9717
   14CHTO  C107 5618   4.127   5.241  -0.950 -0.7952  0.0615  0.4370
   14CHTO   O70 5619   4.221   5.343  -0.989  0.0076 -0.4255 -0.4899
   14CHTO  H170 5620   4.310   5.322  -0.968 -0.4132 -1.9286 -0.1816
   14CHTO   O57 5621   3.840   5.580  -0.738 -0.5205 -0.3333 -0.1796
   14CHTO   C85 5622   3.786   5.708  -0.767  0.3180  0.8918 -0.1284
   14CHTO  H157 5623   3.690   5.692  -0.820  1.1170 -0.2666 -1.2519
   14CHTO   C83 5624   3.876   5.779  -0.867  0.2594  0.2833  0.6078
   14CHTO  H155 5625   3.874   5.726  -0.963  1.7707 -0.9867  1.2649
   14CHTO   O56 5626   4.016   5.776  -0.827  0.1334 -0.9358  0.0543
   14CHTO  H135 5627   4.083   5.788  -0.892 -0.4169 -1.7479 -0.6808
   14CHTO   C81 5628   3.818   5.921  -0.887  0.6090 -0.3568 -0.1929
   14CHTO  H153 5629   3.715   5.912  -0.924  0.0671  0.7673  0.9785
   14CHTO   N14 5630   3.876   5.984  -1.003 -0.0583  0.8416  1.1819
   14CHTO  H141 5631   3.979   6.003  -0.982  0.2304  0.0378  0.5127
   14CHTO  H142 5632   3.825   6.076  -1.023 -0.6642  0.1703 -0.4853
   14CHTO   C79 5633   3.819   6.007  -0.755 -0.2223 -0.1350 -0.2864
   14CHTO  H151 5634   3.773   6.102  -0.781  1.5483 -0.0421 -3.2300
   14CHTO   O52 5635   3.729   5.931  -0.656  0.0100 -0.1445 -0.2286
   14CHTO   C86 5636   3.765   5.795  -0.632 -0.5510  0.2322 -0.0703
   14CHTO  H158 5637   3.860   5.802  -0.576 -1.5247 -1.3008  1.8281
   14CHTO   C90 5638   3.665   5.733  -0.533  0.0071 -0.1045  0.5720
   14CHTO   O60 5639   3.667   5.794  -0.404 -0.1262  0.4591  0.9438
   14CHTO  H138 5640   3.712   5.737  -0.344 -0.6644 -2.1649 -1.0757
   14CHTO   O50 5641   3.948   6.026  -0.688 -0.0261 -0.1541 -0.1383
   14CHTO   C73 5642   4.012   6.117  -0.597 -0.4003 -0.2164 -0.6433
   14CHTO  H145 5643   3.959   6.118  -0.501 -2.8629 -1.0227 -1.9354
   14CHTO   C74 5644   4.012   6.266  -0.643 -0.0490 -0.3198  0.1439
   14CHTO  H146 5645   3.908   6.302  -0.650  0.1360 -0.0372 -1.5203
   14CHTO   O54 5646   4.072   6.356  -0.549 -0.6899  0.0027  0.6896
   14CHTO  H133 5647   4.049   6.446  -0.562  0.4320  0.0602 -1.0396
   14CHTO   C75 5648   4.084   6.257  -0.786 -0.2157 -0.7534 -1.2020
   14CHTO  H147 5649   4.037   6.175  -0.842 -0.9648 -0.3094 -1.2317
   14CHTO   N13 5650   4.064   6.379  -0.867 -0.0615  0.3221 -0.4991
   14CHTO  H139 5651   4.158   6.432  -0.869  0.9155 -1.2393  1.4655
   14CHTO  H140 5652   4.019   6.356  -0.962 -1.9984  1.2424  0.1491
   14CHTO   C76 5653   4.230   6.194  -0.774  0.8118 -0.2038  0.4145
   14CHTO  H148 5654   4.302   6.272  -0.753 -1.2848  1.6112  1.0991
   14CHTO   O49 5655   4.237   6.081  -0.684 -0.0565  0.8507 -0.1458
   14CHTO   C77 5656   4.159   6.075  -0.571 -0.4637  0.3347 -0.8910
   14CHTO  H149 5657   4.206   6.143  -0.500  0.0353 -1.9470  1.0483
   14CHTO   C88 5658   4.166   5.932  -0.510  0.3255  0.0830 -0.7826
   14CHTO   O58 5659   4.295   5.889  -0.465  0.0933 -0.1917 -0.5966
   14CHTO  H136 5660   4.325   5.815  -0.515  0.6366  1.7148 -3.2445
   14CHTO   O51 5661   4.263   6.114  -0.917 -0.2883  0.9913 -0.1776
   14CHTO   C78 5662   4.431   6.115  -0.921  1.2023  0.0363  0.1087
   14CHTO  H150 5663   4.473   6.141  -0.822 -0.3986 -1.0613  1.1078
   14CHTO   C80 5664   4.464   6.231  -1.027 -0.2829  0.2210  0.6008
   14CHTO  H152 5665   4.387   6.226  -1.107  0.5223  2.1383 -0.3193
   14CHTO   O55 5666   4.442   6.362  -0.960  0.5154 -0.2309 -0.4396
   14CHTO  H134 5667   4.482   6.434  -1.004  1.3110  1.0281  2.2812
   14CHTO   C84 5668   4.611   6.229  -1.076 -0.1090  0.0696  0.0385
   14CHTO  H156 5669   4.666   6.262  -0.988  0.3288 -0.9173  0.1389
   14CHTO   N15 5670   4.642   6.324  -1.191  0.0418 -0.1158  0.3315
   14CHTO  H143 5671   4.704   6.268  -1.257 -0.4620  0.7026 -0.8548
   14CHTO  H144 5672   4.690   6.414  -1.161  0.3665  0.2118 -1.1373
   14CHTO   C87 5673   4.638   6.078  -1.116  0.2735 -0.3936 -0.0967
   14CHTO  H159 5674   4.566   6.046  -1.191 -0.0054 -0.4086  0.1759
   14CHTO   O53 5675   4.617   5.986  -0.996 -0.6153  0.4941  0.0586
   14CHTO   C82 5676   4.476   5.977  -0.964 -0.5704 -0.0421 -0.1273
   14CHTO  H154 5677   4.423   5.944  -1.053 -0.3516  1.9638 -1.0351
   14CHTO   C89 5678   4.451   5.874  -0.848 -0.0824  0.1516  0.1944
   14CHTO   O59 5679   4.470   5.741  -0.899  0.3098 -0.4165  0.8153
   14CHTO  H137 5680   4.391   5.701  -0.928  0.3665  0.3949 -0.5032
   14CHTO   O45 5681   4.775   6.063  -1.161 -0.3126 -0.3524  0.0039
   14CHTO   C67 5682   4.812   5.927  -1.203  0.1833 -0.1000  0.3697
   14CHTO  H124 5683   4.730   5.863  -1.235  1.8415 -1.9460 -0.2466
   14CHTO   C65 5684   4.914   5.948  -1.325 -0.2412  0.3188 -0.3895
   14CHTO  H122 5685   4.873   6.025  -1.391  0.7793 -0.4659 -1.9747
   14CHTO   O44 5686   4.924   5.829  -1.408  0.0472  0.4177  0.4042
   14CHTO  H102 5687   4.984   5.845  -1.478 -1.5621  1.0743 -0.8493
   14CHTO   C63 5688   5.049   6.013  -1.278  0.4070  0.0541 -0.5194
   14CHTO  H120 5689   5.022   6.107  -1.230  0.8752 -0.9337  1.7525
   14CHTO   N11 5690   5.144   6.052  -1.387 -0.6396  1.2105  0.7351
   14CHTO  H108 5691   5.164   5.971  -1.454  1.1867 -0.4357  3.2106
   14CHTO  H109 5692   5.236   6.086  -1.344  0.1700 -0.5031  0.4166
   14CHTO   C61 5693   5.112   5.927  -1.164 -0.0642  0.0813  0.3269
   14CHTO  H118 5694   5.189   5.996  -1.124 -1.9580  2.1857  0.4661
   14CHTO   O40 5695   5.018   5.914  -1.062 -0.5777  0.0223  0.0952
   14CHTO   C68 5696   4.883   5.857  -1.081 -0.1566  0.1624 -0.1297
   14CHTO  H125 5697   4.832   5.869  -0.983  1.0964  1.6055  0.3622
   14CHTO   C72 5698   4.886   5.704  -1.109 -0.4082 -0.0942  0.4432
   14CHTO   O48 5699   4.755   5.650  -1.115  0.3222 -0.4733 -0.1110
   14CHTO  H105 5700   4.738   5.588  -1.183 -0.0009 -0.1342 -0.3376
   14CHTO   O38 5701   5.163   5.794  -1.202 -0.2456 -0.1319 -0.6419
   14CHTO   C55 5702   5.309   5.770  -1.217 -0.3681  0.2361 -0.0872
   14CHTO  H112 5703   5.364   5.863  -1.238  1.6467 -0.7455  0.7033
   14CHTO   C56 5704   5.332   5.665  -1.334  0.7195 -0.6831  0.5386
   14CHTO  H113 5705   5.273   5.573  -1.317 -0.4264 -0.0125  0.2754
   14CHTO   O42 5706   5.290   5.730  -1.454 -0.3686 -0.0345  0.1522
   14CHTO  H100 5707   5.297   5.675  -1.530 -1.8813 -2.3472  1.6188
   14CHTO   C57 5708   5.488   5.640  -1.346  0.0006 -0.2299 -0.2185
   14CHTO  H114 5709   5.526   5.738  -1.372 -2.6300  1.2302  1.2667
   14CHTO   N10 5710   5.522   5.538  -1.451  0.5359 -0.1179  0.5026
   14CHTO  H106 5711   5.611   5.574  -1.502 -0.7750  2.1597 -0.2859
   14CHTO  H107 5712   5.442   5.518  -1.521  1.9141 -1.2960 -0.7553
   14CHTO   C58 5713   5.555   5.598  -1.210  0.0530  0.5191 -0.2794
   14CHTO  H115 5714   5.524   5.496  -1.179  0.9418 -0.0907 -1.3484
   14CHTO   O37 5715   5.511   5.694  -1.118 -0.0744 -0.1636 -0.3304
   14CHTO   C59 5716   5.373   5.726  -1.087 -0.5891 -0.3740  0.2588
   14CHTO  H116 5717   5.324   5.637  -1.047  0.3218 -1.1042 -0.2056
   14CHTO   C70 5718   5.372   5.828  -0.973 -0.6658 -0.4087  0.0195
   14CHTO   O46 5719   5.430   5.947  -1.013 -0.8939 -0.1376  0.3304
   14CHTO  H103 5720   5.376   5.998  -1.071  0.0010 -2.5296 -2.7665
   14CHTO   O39 5721   5.717   5.603  -1.228 -0.4815 -0.2217  0.2762
   14CHTO   C60 5722   5.797   5.604  -1.110 -0.6620  0.9055 -0.4907
   14CHTO  H117 5723   5.752   5.654  -1.024  1.0475  1.4816  0.0809
   14CHTO   C62 5724   5.831   5.463  -1.064 -0.1355 -0.0912  0.0359
   14CHTO  H119 5725   5.737   5.413  -1.030  0.2476 -0.7812  0.0900
   14CHTO   O43 5726   5.878   5.392  -1.181  0.2249 -0.1621  0.4800
   14CHTO  H101 5727   5.868   5.300  -1.163  1.5581 -0.0236  2.0781
   14CHTO   C66 5728   5.933   5.461  -0.937 -0.7192 -0.0746 -0.9299
   14CHTO  H123 5729   5.886   5.507  -0.850  0.4463 -2.4735  1.0333
   14CHTO   N12 5730   5.954   5.317  -0.898 -0.4398  0.2058  0.3281
   14CHTO  H110 5731   6.032   5.263  -0.950  2.1880  2.4005  1.8326
   14CHTO  H111 5732   5.871   5.255  -0.867  0.0233 -0.2865  0.6029
   14CHTO   C69 5733   6.063   5.533  -0.971  0.2129  0.1751  0.3396
   14CHTO  H126 5734   6.105   5.484  -1.061 -0.3514 -1.9669  1.2243
   14CHTO   O41 5735   6.033   5.676  -0.998  0.1474 -1.0047  0.2603
   14CHTO   C64 5736   5.934   5.687  -1.138 -0.1997  0.2098  0.4313
   14CHTO  H121 5737   5.990   5.640  -1.222  1.8266  2.2623  0.5706
   14CHTO   C71 5738   5.894   5.830  -1.182 -0.4206 -0.5540  0.1385
   14CHTO   O47 5739   5.795   5.888  -1.090 -0.5328  0.2440  0.1729
   14CHTO  H104 5740   5.811   5.979  -1.077  1.4166 -0.0249 -0.1840
   14CHTO   O34 5741   6.167   5.518  -0.868 -0.0250  0.3128 -0.3261
   14CHTO   C49 5742   6.306   5.506  -0.912 -0.4606  0.1492  0.6584
   14CHTO   H91 5743   6.309   5.428  -0.988  0.3015  0.7434  0.0782
   14CHTO   C47 5744   6.397   5.468  -0.796  0.0125 -0.4265 -0.1347
   14CHTO   H89 5745   6.498   5.448  -0.838 -0.1372  0.6440 -1.0398
   14CHTO   O33 5746   6.355   5.350  -0.725 -0.1490  0.4667 -0.4187
   14CHTO   H70 5747   6.380   5.271  -0.768 -2.3233 -0.6595  0.3220
   14CHTO   C45 5748   6.407   5.584  -0.688  0.4490  0.1942  0.5236
   14CHTO   H87 5749   6.326   5.579  -0.613  1.2681  0.2621  1.4197
   14CHTO    N8 5750   6.537   5.587  -0.609  0.3002 -0.4448  0.0519
   14CHTO   H75 5751   6.616   5.560  -0.678 -1.9191 -1.0222 -2.3490
   14CHTO   H76 5752   6.538   5.530  -0.518  1.9334 -2.1807 -1.0294
   14CHTO   C43 5753   6.381   5.726  -0.766 -0.4899  0.0261 -0.0312
   14CHTO   H85 5754   6.272   5.729  -0.774 -0.4970 -0.3539 -0.0838
   14CHTO   O29 5755   6.440   5.725  -0.895 -0.2377 -0.5709  0.1330
   14CHTO   C50 5756   6.367   5.635  -0.983 -0.4312 -0.1504  0.4950
   14CHTO   H92 5757   6.286   5.691  -1.032  1.2212  3.7057  1.9226
   14CHTO   C54 5758   6.445   5.585  -1.106 -0.0573  0.1247 -0.4853
   14CHTO   O36 5759   6.505   5.698  -1.173 -0.1913 -0.4758  0.1050
   14CHTO   H72 5760   6.496   5.676  -1.263 -1.6087  3.3763 -0.7917
   14CHTO   O27 5761   6.412   5.847  -0.696 -0.5629 -0.7355 -0.6069
   14CHTO   C37 5762   6.323   5.960  -0.667 -0.5202  0.9066  0.1097
   14CHTO   H79 5763   6.378   6.035  -0.609  1.5277  0.7758 -1.5889
   14CHTO   C38 5764   6.255   6.020  -0.797  0.2227 -0.0691 -0.0965
   14CHTO   H80 5765   6.226   5.935  -0.860  0.8285 -0.0851 -0.3599
   14CHTO   O31 5766   6.355   6.090  -0.867  0.3024 -0.0350  1.0786
   14CHTO   H68 5767   6.319   6.122  -0.947  0.1753 -0.7325  0.8567
   14CHTO   C39 5768   6.134   6.113  -0.772  0.1716  0.1733  0.3381
   14CHTO   H81 5769   6.163   6.204  -0.718 -0.8327  0.3173  0.6355
   14CHTO    N7 5770   6.059   6.152  -0.894 -0.4447  0.4383 -0.0410
   14CHTO   H73 5771   6.133   6.198  -0.958  0.0635  0.6554  0.6934
   14CHTO   H74 5772   6.031   6.061  -0.945  1.6497  0.2974 -1.0210
   14CHTO   C40 5773   6.044   6.031  -0.673  0.6028  0.0870  0.2773
   14CHTO   H82 5774   6.001   5.940  -0.715 -0.6188 -0.2458  2.2101
   14CHTO   O26 5775   6.114   6.006  -0.545  0.4057 -0.0037  0.3702
   14CHTO   C41 5776   6.218   5.898  -0.573  0.3573 -0.5335 -0.3077
   14CHTO   H83 5777   6.162   5.814  -0.617  2.7856 -1.4771 -1.6691
   14CHTO   C52 5778   6.282   5.840  -0.441  0.8269 -0.5688 -0.4125
   14CHTO   O35 5779   6.357   5.933  -0.368  0.0689 -0.1057  0.1934
   14CHTO   H71 5780   6.448   5.930  -0.392 -0.5372 -0.4975 -2.2089
   14CHTO   O28 5781   5.943   6.110  -0.621  0.0278 -0.6320 -0.1050
   14CHTO   C42 5782   5.813   6.074  -0.564 -0.6019 -0.1781 -0.1983
   14CHTO   H84 5783   5.790   6.162  -0.503 -0.8511 -1.6666  1.9042
   14CHTO   C44 5784   5.806   5.952  -0.465  0.1449 -0.4670  0.3913
   14CHTO   H86 5785   5.834   5.864  -0.523 -1.8748 -0.2799 -0.9125
   14CHTO   O32 5786   5.908   5.972  -0.365 -0.3251 -0.1666  0.1565
   14CHTO   H69 5787   5.975   5.909  -0.381 -0.9781 -0.7631 -0.2824
   14CHTO   C48 5788   5.663   5.923  -0.407  0.1620 -0.5727 -0.1820
   14CHTO   H90 5789   5.652   5.980  -0.315 -1.4565 -0.3795 -0.4838
   14CHTO    N9 5790   5.647   5.783  -0.349  0.1447  0.6003 -0.4283
   14CHTO   H77 5791   5.553   5.741  -0.382  1.3103 -1.2086 -1.4937
   14CHTO   H78 5792   5.648   5.792  -0.242 -1.0635  0.6736 -0.4131
   14CHTO   C51 5793   5.540   5.948  -0.507  0.7033  0.0837 -1.2246
   14CHTO   H93 5794   5.528   5.859  -0.569 -0.6244 -3.7051  4.0978
   14CHTO   O30 5795   5.559   6.065  -0.582 -0.5360  0.3776  0.4110
   14CHTO   C46 5796   5.695   6.062  -0.662  0.0708  0.1501  0.7463
   14CHTO   H88 5797   5.702   5.970  -0.719  0.5963  0.5845  0.0884
   14CHTO   C53 5798   5.686   6.176  -0.765  0.1233 -0.2055  0.0281
   14CHTO   O72 5799   5.587   6.163  -0.865 -0.1968 -0.6767 -0.1883
   14CHTO  H199 5800   5.630   6.135  -0.943  0.2455  0.8507 -0.5054
   14CHTO   O22 5801   5.421   5.991  -0.435  0.4586 -0.2072  0.1113
   14CHTO   C31 5802   5.293   5.938  -0.471 -0.3800 -0.2747 -0.0317
   14CHTO   H59 5803   5.314   5.863  -0.550  2.1038  1.0866 -0.7370
   14CHTO   C29 5804   5.222   5.873  -0.349  0.0622 -0.1309  0.2071
   14CHTO   H57 5805   5.210   5.947  -0.269  1.9139 -0.8713  1.2070
   14CHTO   O21 5806   5.316   5.780  -0.291 -0.3242 -0.2584 -0.1083
   14CHTO   H37 5807   5.387   5.755  -0.347  0.0829 -1.8008  1.0702
   14CHTO   C27 5808   5.078   5.821  -0.385  0.1558  0.2201  0.1188
   14CHTO   H55 5809   5.084   5.742  -0.462  0.5514 -0.3320  0.7174
   14CHTO    N5 5810   5.004   5.768  -0.264 -0.6059 -0.2650 -0.1407
   14CHTO   H43 5811   4.899   5.791  -0.272 -0.1762  2.3855  1.3686
   14CHTO   H44 5812   5.041   5.810  -0.172  0.9926  0.3357 -1.0383
   14CHTO   C25 5813   5.000   5.946  -0.450  0.4893 -0.4334  0.5158
   14CHTO   H53 5814   5.007   6.037  -0.389 -0.6178 -0.5157  0.7790
   14CHTO   O17 5815   5.076   5.996  -0.568  0.2894  0.2901 -0.4727
   14CHTO   C32 5816   5.203   6.046  -0.538 -0.1716 -0.2657  0.2017
   14CHTO   H60 5817   5.192   6.130  -0.469 -0.6509 -0.7168  0.6797
   14CHTO   C36 5818   5.253   6.103  -0.673  0.2352  0.3273 -0.1355
   14CHTO   O25 5819   5.165   6.199  -0.723 -0.0745  0.1400 -0.1957
   14CHTO   H40 5820   5.201   6.241  -0.798 -1.1012  0.2799 -0.6044
   14CHTO   O15 5821   4.851   5.915  -0.494  0.1943 -0.3501  0.1371
   14CHTO   C19 5822   4.747   6.001  -0.549 -0.0427  0.2504 -0.3181
   14CHTO   H47 5823   4.682   5.942  -0.616  0.0065 -0.3050  0.1209
   14CHTO   C20 5824   4.660   6.070  -0.439 -0.4204  0.1729 -0.1458
   14CHTO   H48 5825   4.723   6.113  -0.360  0.1639 -1.7289  0.4509
   14CHTO   O19 5826   4.583   5.967  -0.368  0.1887 -0.0442  0.4181
   14CHTO   H35 5827   4.537   5.916  -0.432  0.0333 -1.4154  1.5993
   14CHTO   C21 5828   4.557   6.182  -0.488  0.3383 -0.4385 -0.2873
   14CHTO   H49 5829   4.476   6.132  -0.541  1.3094 -1.4696 -0.8064
   14CHTO    N4 5830   4.484   6.259  -0.383 -0.0793  0.3556 -0.3326
   14CHTO   H41 5831   4.434   6.183  -0.326  1.4512 -1.4200 -1.3162
   14CHTO   H42 5832   4.414   6.332  -0.422 -0.6422 -0.2948 -0.5591
   14CHTO   C22 5833   4.634   6.274  -0.588  0.1393  0.0479  0.9898
   14CHTO   H50 5834   4.711   6.327  -0.532  0.5600  0.2183  0.2496
   14CHTO   O14 5835   4.697   6.191  -0.690  0.6419  0.8529 -0.3217
   14CHTO   C23 5836   4.800   6.106  -0.645  0.9211 -0.2651 -0.1889
   14CHTO   H51 5837   4.872   6.173  -0.596  0.3223  0.7047 -0.6160
   14CHTO   C34 5838   4.858   6.045  -0.771  0.1160  0.0626  0.3791
   14CHTO   O23 5839   4.914   6.154  -0.849 -0.0830  0.0907  0.2849
   14CHTO   H38 5840   4.972   6.124  -0.917 -0.3998 -0.1415  0.1149
   14CHTO   O16 5841   4.551   6.371  -0.659 -0.0231  0.5519 -0.2245
   14CHTO   C24 5842   4.634   6.530  -0.687 -0.1571 -0.7766 -0.0970
   14CHTO   H52 5843   4.603   6.577  -0.780 -0.9935  0.2724  0.6950
   14CHTO   C26 5844   4.788   6.521  -0.694  0.2695  0.8416 -1.0065
   14CHTO   H54 5845   4.828   6.485  -0.597 -2.1577  1.4395  0.2585
   14CHTO   O20 5846   4.832   6.432  -0.796 -0.0221  0.2879 -0.7967
   14CHTO   H36 5847   4.822   6.476  -0.878  0.4014  0.4714 -0.7536
   14CHTO   C30 5848   4.850   6.659  -0.714 -0.0953 -0.3480  0.1094
   14CHTO   H58 5849   4.824   6.702  -0.812  0.1370  0.4920  0.4138
   14CHTO    N6 5850   4.996   6.668  -0.706  0.5042  0.2994 -0.1115
   14CHTO   H45 5851   5.036   6.746  -0.769 -0.3644  1.7769  1.1308
   14CHTO   H46 5852   5.034   6.574  -0.743 -0.8112 -0.1554 -0.3374
   14CHTO   C33 5853   4.791   6.769  -0.612  0.0399  0.0627  0.0070
   14CHTO   H61 5854   4.833   6.759  -0.510 -0.3380  0.3655  0.1933
   14CHTO   O18 5855   4.650   6.750  -0.606  0.0044 -0.0131  0.5429
   14CHTO   C28 5856   4.596   6.621  -0.569 -0.0594 -0.2310 -0.2769
   14CHTO   H56 5857   4.644   6.589  -0.476 -0.7716 -0.9221 -0.1413
   14CHTO   C35 5858   4.438   6.622  -0.543  0.3964  0.5273 -0.3365
   14CHTO   O24 5859   4.394   6.697  -0.434 -0.0071 -0.3297 -0.5385
   14CHTO   H39 5860   4.382   6.652  -0.352 -0.9224  0.8856  0.0249
   14CHTO    O9 5861   4.826   6.904  -0.643 -0.7316  0.3241  0.3457
   14CHTO   C13 5862   4.804   7.006  -0.518  0.4487 -0.4342 -0.0037
   14CHTO   H26 5863   4.774   6.941  -0.433 -2.7378  3.3687  1.9463
   14CHTO   C11 5864   4.685   7.108  -0.552 -0.1969  0.1831  0.3534
   14CHTO   H24 5865   4.601   7.045  -0.584  1.3706 -1.2341 -1.1507
   14CHTO    O8 5866   4.727   7.198  -0.656  0.0330 -0.0727 -0.0103
   14CHTO    H3 5867   4.666   7.187  -0.726  0.1742 -0.1857 -0.1157
   14CHTO    C9 5868   4.658   7.182  -0.419 -0.6139  0.6490  0.2638
   14CHTO   H22 5869   4.638   7.105  -0.342  1.7634 -1.1910 -0.9090
   14CHTO    N2 5870   4.528   7.255  -0.425 -0.2205  0.3789 -0.3084
   14CHTO   H10 5871   4.547   7.360  -0.409 -0.1616  0.3720 -0.3383
   14CHTO   H11 5872   4.487   7.226  -0.521  1.3953 -0.3395 -0.7984
   14CHTO    C7 5873   4.783   7.268  -0.388  0.4980  0.5371 -0.5960
   14CHTO   H20 5874   4.751   7.317  -0.293  1.2229 -0.3544  0.1163
   14CHTO    O4 5875   4.906   7.189  -0.373  0.0132 -0.1209 -0.1177
   14CHTO   C14 5876   4.933   7.082  -0.466 -0.0654  0.3739 -0.5646
   14CHTO   H27 5877   4.984   7.001  -0.410 -0.4773  0.6650  0.2456
   14CHTO   C18 5878   5.025   7.129  -0.582 -0.0838  0.3652 -0.1522
   14CHTO   O13 5879   5.087   7.027  -0.663  0.0664  0.1861 -0.0209
   14CHTO    H7 5880   5.023   7.002  -0.727  0.1859  3.5254 -1.5231
   14CHTO    O2 5881   4.800   7.385  -0.489 -0.4192 -0.1164 -0.2369
   14CHTO    C1 5882   4.855   7.507  -0.450  0.6327 -0.1407  0.1453
   14CHTO   H14 5883   4.879   7.570  -0.538  0.3356 -0.6572 -0.3089
   14CHTO    C2 5884   4.991   7.489  -0.375 -1.1384 -0.4758 -0.2671
   14CHTO   H15 5885   4.975   7.441  -0.278 -0.8303  0.5210  0.2936
   14CHTO    O6 5886   5.084   7.417  -0.460  0.4948 -0.0903 -0.0335
   14CHTO    H1 5887   5.042   7.365  -0.526  0.3242  1.3201 -1.0633
   14CHTO    C3 5888   5.043   7.634  -0.344 -0.1616 -0.4799 -0.1961
   14CHTO   H16 5889   5.074   7.673  -0.442  0.8959  0.8364  0.6457
   14CHTO    N1 5890   5.172   7.631  -0.262 -0.0503 -0.7368 -0.5353
   14CHTO    H8 5891   5.156   7.597  -0.161  0.1253 -0.0750 -0.2793
   14CHTO    H9 5892   5.245   7.709  -0.276 -0.5063 -0.1372  0.3645
   14CHTO    C4 5893   4.926   7.734  -0.289  0.3999  0.2104  0.0695
   14CHTO   H17 5894   4.906   7.711  -0.184 -0.4178  1.2540  0.1519
   14CHTO    O1 5895   4.804   7.723  -0.355  0.4982  0.5865  0.5253
   14CHTO    C5 5896   4.754   7.585  -0.359 -0.6791  0.1021 -0.2174
   14CHTO   H18 5897   4.743   7.537  -0.262 -0.5725  0.4070 -0.0526
   14CHTO   C16 5898   4.614   7.596  -0.425 -0.0721 -0.2482 -0.5026
   14CHTO   O11 5899   4.524   7.673  -0.345 -0.1100 -0.2666 -0.2758
   14CHTO    H5 5900   4.448   7.686  -0.400 -1.1925 -2.3723  0.6420
   14CHTO    O3 5901   4.964   7.875  -0.304  0.1776  0.1169  0.0446
   14CHTO    C6 5902   4.908   7.963  -0.198  0.2090 -0.0459 -0.1988
   14CHTO   H19 5903   4.817   7.925  -0.151  0.9158 -1.5848 -0.0231
   14CHTO    C8 5904   5.010   7.982  -0.081  0.4645 -0.4802  0.7352
   14CHTO   H21 5905   5.095   8.041  -0.115 -0.3942  2.2629  3.0863
   14CHTO    O7 5906   5.045   7.857  -0.024  0.9193 -0.7171 -0.2544
   14CHTO    H2 5907   4.970   7.806  -0.002 -1.0231  2.1233 -0.0527
   14CHTO   C12 5908   4.953   8.081   0.025 -0.2172 -0.1953  0.1306
   14CHTO   H25 5909   4.860   8.032   0.063 -0.9015 -0.5235 -1.8933
   14CHTO    N3 5910   5.036   8.101   0.152 -0.2886 -0.3987 -0.0433
   14CHTO   H12 5911   5.064   8.203   0.173 -2.2622  0.3398 -0.9469
   14CHTO   H13 5912   4.991   8.069   0.245  0.4660  1.9046  1.1683
   14CHTO   C15 5913   4.917   8.221  -0.046 -0.1872  0.0348 -0.8445
   14CHTO   H28 5914   5.008   8.261  -0.091  0.1734  0.7514  0.5061
   14CHTO   O10 5915   4.837   8.322   0.047  0.3961 -0.1404  0.0648
   14CHTO    H4 5916   4.744   8.307   0.043  0.7245 -2.1397 -0.3994
   14CHTO    O5 5917   4.833   8.202  -0.158  0.4106  0.4997  0.3967
   14CHTO   C10 5918   4.867   8.102  -0.261  0.0862 -0.5695 -0.2316
   14CHTO   H23 5919   4.953   8.139  -0.317  0.0488  0.6507  0.5136
   14CHTO   C17 5920   4.742   8.097  -0.355  0.1168 -0.1887 -0.6941
   14CHTO   O12 5921   4.754   7.992  -0.448 -0.0448  0.5452  0.3337
   14CHTO    H6 5922   4.765   8.030  -0.533 -3.0319  1.7797  0.4624
   15CHTO  H203 5923   5.987   4.739   2.613  2.0197  1.3875  1.3350
   15CHTO   O82 5924   6.051   4.730   2.545 -0.0435  0.0573 -0.5225
   15CHTO  C123 5925   6.024   4.612   2.461  0.1854 -0.3024 -0.7647
   15CHTO  H227 5926   6.007   4.524   2.525 -0.3243 -0.5078 -1.1839
   15CHTO   O77 5927   5.898   4.653   2.392  0.4179  0.1034 -0.6568
   15CHTO  C118 5928   5.857   4.580   2.274 -0.3468 -0.1961 -0.5785
   15CHTO  H222 5929   5.826   4.476   2.291 -0.0153 -0.1421  0.3792
   15CHTO  C125 5930   5.740   4.651   2.229  0.3838 -0.2748 -0.4462
   15CHTO   O84 5931   5.633   4.647   2.326  1.1639 -0.4883 -0.3204
   15CHTO  H205 5932   5.652   4.701   2.400 -4.0816  0.0304  0.8060
   15CHTO  C114 5933   5.973   4.585   2.171 -0.1043 -0.1197 -0.1184
   15CHTO  H218 5934   6.009   4.687   2.161  1.4057 -0.7487 -1.4459
   15CHTO  C116 5935   6.100   4.516   2.227 -0.1287  0.2074  0.1326
   15CHTO  H220 5936   6.077   4.408   2.238  2.3747 -0.4853 -1.1345
   15CHTO   O79 5937   6.196   4.531   2.124 -0.1321 -0.0962  0.8283
   15CHTO  H201 5938   6.175   4.470   2.056  1.2335 -0.9257  1.1416
   15CHTO  C120 5939   6.147   4.592   2.356 -0.2540  0.3094 -0.3833
   15CHTO  H224 5940   6.177   4.692   2.321 -0.5409  0.0707 -1.3311
   15CHTO   N21 5941   6.257   4.526   2.426  0.3056  0.0752  0.5949
   15CHTO  H211 5942   6.249   4.419   2.419  2.4364 -0.0524 -0.1264
   15CHTO  H212 5943   6.351   4.571   2.400  0.1750  0.8631  1.4519
   15CHTO   O75 5944   5.916   4.554   2.041  0.9973  0.2579  0.1635
   15CHTO  C112 5945   5.944   4.401   1.986  0.3898 -0.4242  0.3572
   15CHTO  H216 5946   5.945   4.330   2.070 -1.9419 -0.9492 -0.0244
   15CHTO   O73 5947   6.068   4.401   1.911  0.2428  0.5087  0.0990
   15CHTO  C113 5948   6.109   4.267   1.867 -0.4575  0.0715 -0.3285
   15CHTO  H217 5949   6.144   4.210   1.956 -0.7182  3.4801  2.0706
   15CHTO  C124 5950   6.235   4.278   1.780  0.5557  0.6664 -0.2843
   15CHTO   O83 5951   6.215   4.369   1.666  0.0220  0.0418  0.0417
   15CHTO  H204 5952   6.290   4.425   1.659 -0.6608  1.2253  1.9957
   15CHTO  C109 5953   5.992   4.199   1.790 -0.0467 -0.7997 -0.3481
   15CHTO  H213 5954   5.971   4.256   1.698 -1.4945  2.1826  1.7390
   15CHTO  C110 5955   5.864   4.205   1.864  0.1825 -0.0025 -0.3108
   15CHTO  H214 5956   5.877   4.153   1.959  0.8147 -1.3815 -1.1418
   15CHTO   O78 5957   5.756   4.127   1.801  0.1982 -0.3646  0.1658
   15CHTO  H200 5958   5.791   4.050   1.759  0.8798 -0.8989  1.6930
   15CHTO  C111 5959   5.825   4.351   1.900 -0.4042 -0.1993 -0.2563
   15CHTO  H215 5960   5.825   4.414   1.810  0.2524  0.1438 -0.0237
   15CHTO   N19 5961   5.694   4.368   1.967  0.1724  0.0473  0.1545
   15CHTO  H207 5962   5.656   4.465   1.995 -0.6246 -0.4817  0.9140
   15CHTO  H208 5963   5.682   4.296   2.045  0.1267 -1.5582 -1.3055
   15CHTO   O74 5964   6.021   4.062   1.764 -0.0688 -0.1005  0.0063
   15CHTO  C115 5965   5.991   4.014   1.595 -0.4468  0.6100 -0.6981
   15CHTO  H219 5966   5.953   4.099   1.538  0.7452  1.0237 -0.8919
   15CHTO   O76 5967   6.127   3.986   1.515  0.6555 -0.2899  0.9299
   15CHTO  C122 5968   6.200   3.886   1.581  0.2574 -0.0899  0.2321
   15CHTO  H226 5969   6.238   3.924   1.675 -0.9723  1.0412  0.2869
   15CHTO  C126 5970   6.333   3.855   1.496 -0.5621 -0.3794 -0.2056
   15CHTO   O85 5971   6.322   3.784   1.370 -0.7273 -0.7596  0.3252
   15CHTO  H206 5972   6.409   3.765   1.341 -0.6983 -1.4351  0.8291
   15CHTO  C121 5973   6.112   3.753   1.602 -0.3971 -0.6354 -0.3790
   15CHTO  H225 5974   6.166   3.667   1.556  0.6647 -0.6475  0.8350
   15CHTO   O81 5975   6.115   3.725   1.743  0.0328 -0.1885  0.4901
   15CHTO  H202 5976   6.102   3.633   1.757  1.6458 -0.6647 -1.0034
   15CHTO  C119 5977   5.964   3.761   1.547 -0.1748 -0.3311 -0.2546
   15CHTO  H223 5978   5.965   3.761   1.438 -1.6856  1.9837 -0.3005
   15CHTO  C117 5979   5.891   3.893   1.594  0.4813 -1.3579  0.3286
   15CHTO  H221 5980   5.853   3.890   1.696 -2.6626 -0.2669 -0.7243
   15CHTO   N20 5981   5.767   3.912   1.507  0.1642  0.3345  0.2412
   15CHTO  H209 5982   5.679   3.906   1.570  0.2283  3.6926  0.7448
   15CHTO  H210 5983   5.771   3.845   1.423 -0.8000 -0.3002  0.6926
   15CHTO   O80 5984   5.886   3.625   1.576 -0.6155 -0.5004 -0.1463
   15CHTO  C103 5985   5.849   3.526   1.456  0.1471  0.1890  0.5564
   15CHTO  H190 5986   5.792   3.440   1.490 -0.8085  0.6945  0.2623
   15CHTO  C101 5987   5.753   3.586   1.344 -0.1787  0.6209 -0.1651
   15CHTO  H188 5988   5.798   3.675   1.299  0.8151 -1.0132 -2.4702
   15CHTO   O68 5989   5.618   3.629   1.401  0.7695 -0.1025 -0.0381
   15CHTO  H168 5990   5.576   3.692   1.347  0.9025 -0.1584 -0.2055
   15CHTO   C99 5991   5.725   3.471   1.236 -0.8347 -0.0607  0.3921
   15CHTO  H186 5992   5.658   3.393   1.280 -1.2121  0.2071  0.2912
   15CHTO   N17 5993   5.651   3.524   1.115 -0.6327 -0.4683  0.1861
   15CHTO  H174 5994   5.610   3.441   1.059 -2.6827  0.2160  0.6593
   15CHTO  H175 5995   5.573   3.592   1.144  1.1653  1.5027  0.5667
   15CHTO   C97 5996   5.859   3.397   1.196 -0.0638  0.3847 -0.5295
   15CHTO  H184 5997   5.913   3.461   1.125  0.2361  0.3110 -0.3701
   15CHTO   O64 5998   5.935   3.361   1.310 -0.1585  0.1887 -0.4120
   15CHTO  C104 5999   5.977   3.468   1.391 -0.2889  0.0320 -0.2438
   15CHTO  H191 6000   6.028   3.543   1.331 -0.6344 -1.3854 -2.3253
   15CHTO  C108 6001   6.075   3.412   1.494  0.4550  0.3335  0.1211
   15CHTO   O71 6002   6.018   3.301   1.568  0.5835 -0.0058  0.5140
   15CHTO  H171 6003   6.033   3.320   1.658  1.0677  1.9133  0.0400
   15CHTO   O62 6004   5.827   3.273   1.130  0.3110  0.5189  0.0861
   15CHTO   C91 6005   5.928   3.218   1.049  0.0875  0.9263  0.6261
   15CHTO  H178 6006   5.987   3.305   1.021  0.4706  0.3808 -0.2609
   15CHTO   C92 6007   5.867   3.155   0.919  0.0398  0.3304 -0.0579
   15CHTO  H179 6008   5.792   3.223   0.875 -0.8811  0.1547  1.2070
   15CHTO   O66 6009   5.968   3.146   0.814 -0.3026  0.1295  0.4240
   15CHTO  H166 6010   6.015   3.066   0.827  0.4771  0.5683  0.3425
   15CHTO   C93 6011   5.809   3.008   0.958 -0.1713 -0.1599  0.0825
   15CHTO  H180 6012   5.800   2.961   0.859 -0.1387 -2.2850  1.0725
   15CHTO   N16 6013   5.676   3.009   1.027 -0.2598  0.5318 -0.2059
   15CHTO  H172 6014   5.651   3.107   1.065 -2.3062  0.5015 -1.3888
   15CHTO  H173 6015   5.663   2.934   1.104 -0.8820 -0.8784 -1.6344
   15CHTO   C94 6016   5.917   2.929   1.037  0.0336  0.3663  0.2725
   15CHTO  H181 6017   5.890   2.919   1.142 -1.3166  3.0051  0.2106
   15CHTO   O61 6018   6.048   2.990   1.037  0.3389  0.4340  0.2426
   15CHTO   C95 6019   6.037   3.116   1.106 -0.7395 -0.1064  0.1648
   15CHTO  H182 6020   6.012   3.100   1.211  3.0719  1.4889  1.4039
   15CHTO  C106 6021   6.181   3.190   1.111  0.1170  0.2136  0.3373
   15CHTO   O69 6022   6.230   3.226   0.982  0.3107 -0.2301 -0.2783
   15CHTO  H169 6023   6.175   3.290   0.942  0.1293 -1.9247 -2.8397
   15CHTO   O63 6024   5.930   2.793   0.974  0.2663 -0.4554  0.4838
   15CHTO   C96 6025   6.004   2.682   1.063  0.4519 -0.4910  0.6329
   15CHTO  H183 6026   6.008   2.714   1.167 -2.0417 -0.3477  0.7221
   15CHTO   C98 6027   6.144   2.638   1.016  0.5152  0.1139  0.6002
   15CHTO  H185 6028   6.142   2.626   0.906  2.4636  2.5782  0.2378
   15CHTO   O67 6029   6.250   2.734   1.035 -0.8522  0.0728 -0.5975
   15CHTO  H167 6030   6.330   2.708   0.994 -0.9920 -0.0793 -0.7776
   15CHTO  C102 6031   6.193   2.499   1.077 -0.2368  0.0934  0.1901
   15CHTO  H189 6032   6.238   2.527   1.173  0.8890  2.0787 -0.8792
   15CHTO   N18 6033   6.305   2.439   0.999 -0.6071 -0.5097 -0.4556
   15CHTO  H176 6034   6.315   2.457   0.893  2.6218 -0.7552 -0.2427
   15CHTO  H177 6035   6.323   2.334   1.019  3.2153  0.4941  1.9002
   15CHTO  C105 6036   6.082   2.397   1.098  0.2002 -0.0998 -0.3078
   15CHTO  H192 6037   6.059   2.353   1.001 -0.9005 -0.8134  0.2585
   15CHTO   O65 6038   5.959   2.453   1.154  0.2132  0.1198 -0.3001
   15CHTO  C100 6039   5.904   2.560   1.076  0.1373  0.3031  0.1154
   15CHTO  H187 6040   5.886   2.516   0.976  1.4921  0.0921 -0.0458
   15CHTO  C107 6041   5.764   2.614   1.114  0.3475 -0.5152 -0.2023
   15CHTO   O70 6042   5.758   2.677   1.240  0.9966  0.6827 -0.0835
   15CHTO  H170 6043   5.668   2.679   1.264  0.2204  1.2422 -2.7736
   15CHTO   O57 6044   6.144   2.288   1.196 -0.4457  0.3771  0.0216
   15CHTO   C85 6045   6.063   2.193   1.277  0.1041  0.1122 -0.4142
   15CHTO  H157 6046   5.985   2.250   1.331  0.8137  1.6252 -0.9564
   15CHTO   C83 6047   6.150   2.128   1.395 -0.7483  0.3216  0.1552
   15CHTO  H155 6048   6.191   2.207   1.457  0.0359 -0.5415  0.7527
   15CHTO   O56 6049   6.278   2.073   1.347 -0.0380 -0.1872  0.2958
   15CHTO  H135 6050   6.343   2.132   1.380 -2.8711  3.2664 -0.0809
   15CHTO   C81 6051   6.058   2.035   1.482 -0.0436  0.5406  0.1741
   15CHTO  H153 6052   5.983   2.101   1.527  0.2393  2.3672 -1.9265
   15CHTO   N14 6053   6.131   1.981   1.601 -0.0272  0.3424 -0.3420
   15CHTO  H141 6054   6.066   1.982   1.685 -0.3094 -1.0211 -0.5302
   15CHTO  H142 6055   6.173   1.883   1.590 -0.1374  0.0465  1.6760
   15CHTO   C79 6056   5.974   1.933   1.399  0.3822 -0.4434  0.0350
   15CHTO  H151 6057   5.895   1.891   1.461  0.0360 -0.9475 -0.7399
   15CHTO   O52 6058   5.910   1.990   1.280  0.2607  0.2290 -0.1517
   15CHTO   C86 6059   6.000   2.072   1.203 -0.0036 -0.8185  0.0145
   15CHTO  H158 6060   6.077   1.999   1.169  0.6539  0.4335 -1.2439
   15CHTO   C90 6061   5.933   2.111   1.075  0.2966 -0.3523  0.0376
   15CHTO   O60 6062   5.800   2.163   1.084 -0.4526  0.6693  0.5949
   15CHTO  H138 6063   5.727   2.109   1.060  0.9766 -0.3080 -1.7547
   15CHTO   O50 6064   6.062   1.826   1.353 -0.2664  0.2933 -0.1282
   15CHTO   C73 6065   6.068   1.699   1.289  0.2285  0.2550 -0.2641
   15CHTO  H145 6066   5.986   1.691   1.215  0.8274  1.4355 -1.0755
   15CHTO   C74 6067   6.057   1.576   1.390 -0.3842 -0.2471  0.0526
   15CHTO  H146 6068   5.960   1.585   1.442 -0.0950  0.0643  0.5427
   15CHTO   O54 6069   6.052   1.448   1.326 -0.7102  0.1237  0.0399
   15CHTO  H133 6070   5.970   1.441   1.282  0.2490  1.9550 -2.1328
   15CHTO   C75 6071   6.177   1.581   1.488  1.0681 -0.0612  0.7707
   15CHTO  H147 6072   6.178   1.684   1.528 -2.6905 -0.1199  1.1391
   15CHTO   N13 6073   6.165   1.498   1.609  1.0459  0.3904  0.1545
   15CHTO  H139 6074   6.187   1.399   1.572 -1.6125  0.2892 -1.2949
   15CHTO  H140 6075   6.233   1.539   1.682  1.8281  0.1373 -0.4298
   15CHTO   C76 6076   6.316   1.575   1.396 -0.3836 -0.4585  0.5377
   15CHTO  H148 6077   6.325   1.478   1.347  0.8347  0.3302 -0.8219
   15CHTO   O49 6078   6.317   1.674   1.293  0.5491  0.3801 -0.0414
   15CHTO   C77 6079   6.198   1.676   1.211 -0.3620 -0.3470  0.2363
   15CHTO  H149 6080   6.201   1.577   1.165  0.8393  0.2181 -0.9363
   15CHTO   C88 6081   6.223   1.774   1.097 -0.4048 -0.1206 -0.0708
   15CHTO   O58 6082   6.121   1.760   1.002  0.2545  0.3782  0.5765
   15CHTO  H136 6083   6.126   1.681   0.952 -1.2264  0.4838  0.2585
   15CHTO   O51 6084   6.424   1.608   1.478  0.6899 -0.1342 -0.3608
   15CHTO   C78 6085   6.565   1.519   1.435  0.3377 -0.0033 -0.4017
   15CHTO  H150 6086   6.552   1.479   1.332  0.5027  0.1418 -0.4788
   15CHTO   C80 6087   6.592   1.396   1.525 -0.4910  0.1289 -0.0083
   15CHTO  H152 6088   6.618   1.438   1.625 -4.6646  3.6667 -0.2502
   15CHTO   O55 6089   6.473   1.310   1.515 -0.0520 -0.4187  0.0915
   15CHTO  H134 6090   6.487   1.237   1.573  1.8332  1.0288  1.5492
   15CHTO   C84 6091   6.715   1.315   1.463 -0.3283 -0.9189  0.4680
   15CHTO  H156 6092   6.685   1.286   1.363 -0.4905  1.4913 -0.2338
   15CHTO   N15 6093   6.747   1.189   1.537  1.1781 -1.0021  0.6023
   15CHTO  H143 6094   6.724   1.093   1.496 -1.0062  0.0258 -0.6112
   15CHTO  H144 6095   6.755   1.183   1.644 -0.3779 -1.3210  0.7029
   15CHTO   C87 6096   6.836   1.414   1.457  0.1234  0.6194  0.2102
   15CHTO  H159 6097   6.870   1.445   1.556  0.4955 -0.0905  0.3067
   15CHTO   O53 6098   6.801   1.546   1.373 -0.3259  0.3445  0.3208
   15CHTO   C82 6099   6.688   1.606   1.433  0.3251 -0.3851  0.8228
   15CHTO  H154 6100   6.716   1.633   1.535 -0.7833  0.2880  0.9573
   15CHTO   C89 6101   6.659   1.738   1.357  0.0949  0.0438  0.5260
   15CHTO   O59 6102   6.765   1.830   1.405  0.8845  0.1337  0.5914
   15CHTO  H137 6103   6.764   1.827   1.499 -0.6081  2.3295  0.6720
   15CHTO   O45 6104   6.971   1.344   1.386 -0.0140 -0.3299  0.3326
   15CHTO   C67 6105   7.088   1.426   1.377  0.2101  0.2614  0.2417
   15CHTO  H124 6106   7.061   1.530   1.397 -0.1378  0.1823  0.1948
   15CHTO   C65 6107   7.189   1.375   1.488 -0.0896  0.1343 -0.6467
   15CHTO  H122 6108   7.143   1.284   1.527 -1.7719  1.0427 -0.4349
   15CHTO   O44 6109   7.198   1.479   1.585 -0.0216  0.8038  0.2930
   15CHTO  H102 6110   7.110   1.503   1.604 -0.0671  1.3173 -0.5108
   15CHTO   C63 6111   7.327   1.326   1.427  0.4480 -0.0769  0.4058
   15CHTO  H120 6112   7.315   1.236   1.367  0.9330  0.3222 -0.3131
   15CHTO   N11 6113   7.424   1.275   1.528 -0.0999  0.7138 -0.1429
   15CHTO  H108 6114   7.376   1.207   1.595 -0.6621  1.6107  0.3772
   15CHTO  H109 6115   7.499   1.212   1.486 -0.0881 -0.8865  2.2064
   15CHTO   C61 6116   7.370   1.445   1.337  0.4229 -0.1885 -0.3020
   15CHTO  H118 6117   7.472   1.423   1.303  0.4575 -1.4293  0.5813
   15CHTO   O40 6118   7.286   1.472   1.219  0.3505  0.3320  0.3411
   15CHTO   C68 6119   7.149   1.426   1.227 -0.0092 -0.2135  0.7041
   15CHTO  H125 6120   7.144   1.327   1.178 -0.6738 -0.6728  1.6791
   15CHTO   C72 6121   7.081   1.520   1.126  0.7849  0.6584  0.0393
   15CHTO   O48 6122   6.944   1.495   1.115 -0.1880  0.2243  0.0552
   15CHTO  H105 6123   6.933   1.500   1.022 -0.0312  1.6722  0.0980
   15CHTO   O38 6124   7.376   1.571   1.413  0.3593 -0.5291  0.3379
   15CHTO   C55 6125   7.387   1.696   1.345 -0.7152  0.8761  0.0149
   15CHTO  H112 6126   7.355   1.695   1.240  3.0773  0.8094 -1.2313
   15CHTO   C56 6127   7.536   1.745   1.356  0.2262 -0.5390  0.4959
   15CHTO  H113 6128   7.570   1.731   1.460 -2.0036 -0.4677  1.2558
   15CHTO   O42 6129   7.619   1.649   1.284  0.0841 -0.3924 -0.4597
   15CHTO  H100 6130   7.711   1.666   1.284  0.1197 -0.5647 -1.1216
   15CHTO   C57 6131   7.566   1.893   1.303  0.4273  0.1939  0.8198
   15CHTO  H114 6132   7.541   1.888   1.197 -0.2589 -0.8125  1.0269
   15CHTO   N10 6133   7.706   1.943   1.327  0.4436  0.2261 -0.2083
   15CHTO  H106 6134   7.787   1.875   1.308  0.4521  0.4321 -0.9243
   15CHTO  H107 6135   7.720   2.033   1.268 -0.8481  1.1276  0.8169
   15CHTO   C58 6136   7.463   1.989   1.370  0.3982 -0.6044 -0.0628
   15CHTO  H115 6137   7.501   2.012   1.472 -0.0939  0.7875 -0.1841
   15CHTO   O37 6138   7.327   1.937   1.363  0.2307 -0.1306  0.7322
   15CHTO   C59 6139   7.303   1.811   1.420  0.6737 -0.0261  0.0682
   15CHTO  H116 6140   7.320   1.820   1.527  0.9064 -3.2762  0.3711
   15CHTO   C70 6141   7.151   1.793   1.415  0.0276 -0.6279  0.7326
   15CHTO   O46 6142   7.082   1.893   1.502  0.0438  0.4218  0.0250
   15CHTO  H103 6143   7.086   1.854   1.587 -0.2253 -1.6600 -0.8877
   15CHTO   O39 6144   7.455   2.128   1.287 -0.2420 -0.3026  0.4085
   15CHTO   C60 6145   7.375   2.132   1.169  0.4427 -0.5709  0.7920
   15CHTO  H117 6146   7.379   2.036   1.119  0.7589  0.0056 -0.2966
   15CHTO   C62 6147   7.226   2.169   1.196 -0.4431  0.2529 -0.0981
   15CHTO  H119 6148   7.189   2.092   1.267  1.6443  0.1913  0.9345
   15CHTO   O43 6149   7.221   2.297   1.269  0.4789 -0.1054  0.6167
   15CHTO  H101 6150   7.137   2.299   1.309  0.3516 -0.0492  0.3478
   15CHTO   C66 6151   7.134   2.165   1.062 -0.8130 -0.2563 -0.1854
   15CHTO  H123 6152   7.142   2.064   1.023 -0.4890  0.4133 -1.9235
   15CHTO   N12 6153   6.992   2.199   1.082 -0.5093  0.3027 -0.2405
   15CHTO  H110 6154   6.970   2.211   1.187  1.1698 -0.2697  0.2042
   15CHTO  H111 6155   6.927   2.131   1.030 -0.4105 -0.0053  0.0379
   15CHTO   C69 6156   7.200   2.262   0.966  0.3976  0.4140  0.1533
   15CHTO  H126 6157   7.192   2.366   1.006 -1.4749  0.8399 -1.2621
   15CHTO   O41 6158   7.348   2.226   0.942  0.6587  0.2114  0.0035
   15CHTO   C64 6159   7.423   2.232   1.066 -0.1623  0.6709 -0.4251
   15CHTO  H121 6160   7.426   2.335   1.108  1.6154  0.3449  0.3328
   15CHTO   C71 6161   7.571   2.208   1.024 -0.2701  0.9046  0.0535
   15CHTO   O47 6162   7.623   2.305   0.936  0.0505 -0.4886 -0.4439
   15CHTO  H104 6163   7.662   2.366   0.995  0.9729 -0.8670 -0.6453
   15CHTO   O34 6164   7.129   2.257   0.829  0.4172 -0.3085  0.0564
   15CHTO   C49 6165   7.093   2.329   0.706 -0.1600  0.3503  1.1206
   15CHTO   H91 6166   7.121   2.261   0.625 -0.2401  0.8695  0.6473
   15CHTO   C47 6167   7.173   2.458   0.677 -0.1421  0.2484 -0.3907
   15CHTO   H89 6168   7.153   2.493   0.573  1.2520  1.0724 -0.3888
   15CHTO   O33 6169   7.308   2.426   0.689  0.0177  0.0475  0.0079
   15CHTO   H70 6170   7.344   2.368   0.625  2.1420  0.0496  1.1592
   15CHTO   C45 6171   7.118   2.569   0.775 -0.2056 -0.6635 -0.0028
   15CHTO   H87 6172   7.127   2.527   0.877  0.0208  0.8700  0.6206
   15CHTO    N8 6173   7.199   2.691   0.779 -0.3832 -0.2810  0.3056
   15CHTO   H75 6174   7.147   2.775   0.736 -0.3413 -1.0352 -1.2533
   15CHTO   H76 6175   7.229   2.711   0.881  2.7104 -1.9500 -0.2239
   15CHTO   C43 6176   6.961   2.591   0.758 -0.1753  0.0615 -0.4730
   15CHTO   H85 6177   6.931   2.654   0.841  2.2500  1.1906 -0.4194
   15CHTO   O29 6178   6.884   2.469   0.761 -0.3780  0.5349  0.0574
   15CHTO   C50 6179   6.942   2.353   0.700 -0.4679  0.2505 -0.5093
   15CHTO   H92 6180   6.900   2.266   0.754 -0.1200  0.5376  0.2266
   15CHTO   C54 6181   6.883   2.331   0.558 -0.3914 -0.0650 -0.0675
   15CHTO   O36 6182   6.746   2.285   0.572  0.6145 -0.3391  0.1933
   15CHTO   H72 6183   6.738   2.209   0.626 -0.1294 -0.0163  0.5382
   15CHTO   O27 6184   6.923   2.663   0.639 -0.4846 -0.3727 -0.0791
   15CHTO   C37 6185   6.807   2.702   0.562 -0.2635  0.0766  0.9723
   15CHTO   H79 6186   6.760   2.616   0.512  2.0926 -0.2928 -0.7373
   15CHTO   C38 6187   6.703   2.779   0.648 -0.5079 -0.0973 -0.2424
   15CHTO   H80 6188   6.759   2.859   0.700 -1.5977  1.2363 -1.0909
   15CHTO   O31 6189   6.652   2.684   0.743  0.1859 -0.2196 -0.1024
   15CHTO   H68 6190   6.671   2.711   0.831  0.6098  1.4665 -0.6817
   15CHTO   C39 6191   6.595   2.844   0.551  0.3443  0.4453  0.1623
   15CHTO   H81 6192   6.543   2.759   0.507  1.0850  0.6709 -1.1808
   15CHTO    N7 6193   6.502   2.937   0.623 -1.0486  0.5520 -0.0160
   15CHTO   H73 6194   6.437   2.983   0.550 -0.3102 -2.7242 -2.8003
   15CHTO   H74 6195   6.551   2.997   0.698  0.3032 -2.8048  1.8890
   15CHTO   C40 6196   6.659   2.929   0.432  0.4617 -0.4571  0.0113
   15CHTO   H82 6197   6.704   3.022   0.468  0.2663 -0.4974  0.3596
   15CHTO   O26 6198   6.756   2.846   0.359  0.3654 -0.5548  0.8253
   15CHTO   C41 6199   6.862   2.800   0.447  0.1882  0.0202 -1.0738
   15CHTO   H83 6200   6.915   2.884   0.494 -0.3039 -0.5283  0.5048
   15CHTO   C52 6201   6.973   2.733   0.356 -0.3748 -0.4080  0.1492
   15CHTO   O35 6202   6.919   2.586   0.289  0.4654 -0.2957 -0.3240
   15CHTO   H71 6203   6.907   2.520   0.355 -0.6754 -0.2438 -0.4674
   15CHTO   O28 6204   6.562   2.965   0.335 -0.1703  0.5574  0.1900
   15CHTO   C42 6205   6.555   3.084   0.250  0.1166  0.0195 -0.9115
   15CHTO   H84 6206   6.493   3.048   0.168  0.1175 -0.4429 -0.7117
   15CHTO   C44 6207   6.690   3.120   0.182 -0.1810 -0.4810  0.2168
   15CHTO   H86 6208   6.769   3.126   0.257 -0.6551  3.2292  0.5101
   15CHTO   O32 6209   6.723   3.015   0.091 -0.3408 -0.2667  0.3664
   15CHTO   H69 6210   6.749   2.939   0.140 -1.5137 -1.3180 -0.6039
   15CHTO   C48 6211   6.686   3.257   0.104 -0.1402  0.4169 -0.0255
   15CHTO   H90 6212   6.610   3.243   0.027 -0.1299  0.5975 -0.0682
   15CHTO    N9 6213   6.812   3.298   0.043 -0.0671  0.2148  0.3068
   15CHTO   H77 6214   6.800   3.400   0.007 -1.1937  0.1639  0.5028
   15CHTO   H78 6215   6.844   3.230  -0.035 -1.2662 -0.4996  0.4248
   15CHTO   C51 6216   6.621   3.368   0.190  0.3489  0.3158  0.6512
   15CHTO   H93 6217   6.677   3.393   0.280  2.8311 -0.8602 -0.5221
   15CHTO   O30 6218   6.489   3.323   0.221  0.1332 -0.5258 -0.1352
   15CHTO   C46 6219   6.482   3.204   0.319 -0.3800 -0.8043  0.1426
   15CHTO   H88 6220   6.523   3.237   0.414  0.8596  1.0700 -1.0056
   15CHTO   C53 6221   6.334   3.171   0.348 -0.5191  0.3583  0.3968
   15CHTO   O72 6222   6.251   3.126   0.237  0.0500  0.4206  0.2601
   15CHTO  H199 6223   6.260   3.172   0.156 -0.6880 -1.0394 -0.6747
   15CHTO   O22 6224   6.588   3.493   0.128  0.5527  0.1325  0.1879
   15CHTO   C31 6225   6.526   3.619   0.180 -0.4787  0.2267 -0.2351
   15CHTO   H59 6226   6.543   3.693   0.098 -0.6885 -0.6183 -1.0400
   15CHTO   C29 6227   6.372   3.608   0.206 -0.1779  0.0606 -0.9182
   15CHTO   H57 6228   6.349   3.531   0.280 -0.4683  1.5361  0.5497
   15CHTO   O21 6229   6.315   3.557   0.080  0.0014 -0.5079 -0.1710
   15CHTO   H37 6230   6.222   3.550   0.083 -0.1215  0.7103 -0.6584
   15CHTO   C27 6231   6.303   3.739   0.247 -0.2302 -0.4324 -0.4886
   15CHTO   H55 6232   6.311   3.810   0.163  0.7152 -0.4069 -0.3775
   15CHTO    N5 6233   6.157   3.716   0.277 -0.0591  0.3190  0.0376
   15CHTO   H43 6234   6.120   3.679   0.183 -0.2631  0.1627  0.1808
   15CHTO   H44 6235   6.147   3.649   0.362 -0.6292 -1.9394 -1.7680
   15CHTO   C25 6236   6.385   3.806   0.369  0.2631 -0.4255  0.0974
   15CHTO   H53 6237   6.359   3.747   0.458 -2.4645 -0.8664 -0.9484
   15CHTO   O17 6238   6.527   3.806   0.350 -0.0743  0.4288 -0.0482
   15CHTO   C32 6239   6.584   3.677   0.311 -0.5443 -0.4885 -0.3933
   15CHTO   H60 6240   6.574   3.604   0.392 -0.2983  0.2358  0.3037
   15CHTO   C36 6241   6.735   3.702   0.313 -0.2561  0.1326  0.2992
   15CHTO   O25 6242   6.808   3.586   0.328 -0.8544  0.9325 -0.5029
   15CHTO   H40 6243   6.825   3.565   0.418  0.6667 -0.4342 -1.0683
   15CHTO   O15 6244   6.351   3.943   0.406 -0.5004  0.3204  0.4762
   15CHTO   C19 6245   6.338   4.028   0.518 -0.2558  0.2686  0.0322
   15CHTO   H47 6246   6.416   4.102   0.497 -1.0348  0.6130 -1.7753
   15CHTO   C20 6247   6.204   4.103   0.530  0.2067  0.1687  0.4978
   15CHTO   H48 6248   6.123   4.030   0.516  0.7552 -0.2443 -0.6227
   15CHTO   O19 6249   6.188   4.163   0.401  0.2485  0.1152 -0.0374
   15CHTO   H35 6250   6.238   4.242   0.407  0.0590  0.1206  1.8788
   15CHTO   C21 6251   6.174   4.194   0.656 -0.4793  0.0796 -0.0810
   15CHTO   H49 6252   6.241   4.279   0.657 -1.0369  0.5147  0.5061
   15CHTO    N4 6253   6.035   4.240   0.646  0.1184  0.4360 -0.0917
   15CHTO   H41 6254   6.040   4.329   0.586 -0.5139  1.7851  1.8305
   15CHTO   H42 6255   5.965   4.173   0.597  0.6114  0.1400 -0.3903
   15CHTO   C22 6256   6.210   4.104   0.777 -0.3385 -0.1935 -0.3024
   15CHTO   H50 6257   6.140   4.020   0.771  0.9050 -1.2201 -0.6420
   15CHTO   O14 6258   6.346   4.061   0.761 -0.0645 -0.4867  0.1087
   15CHTO   C23 6259   6.374   3.969   0.656 -0.6946  0.2413  0.8326
   15CHTO   H51 6260   6.313   3.879   0.676  0.4915 -0.8704 -0.4589
   15CHTO   C34 6261   6.522   3.938   0.667 -0.0241 -0.1528  0.2347
   15CHTO   O23 6262   6.547   3.828   0.761  0.5484  0.5928  0.7277
   15CHTO   H38 6263   6.495   3.757   0.726  1.5928  1.0547 -1.8555
   15CHTO   O16 6264   6.185   4.175   0.903 -0.3542  0.9365 -0.1629
   15CHTO   C24 6265   6.299   4.242   0.979  0.4302 -0.0396  0.4411
   15CHTO   H52 6266   6.383   4.264   0.912  1.1198  0.0698  1.3331
   15CHTO   C26 6267   6.337   4.146   1.092  0.0557  0.2275  0.2399
   15CHTO   H54 6268   6.248   4.128   1.156 -0.2031  0.1271 -0.1413
   15CHTO   O20 6269   6.366   4.012   1.043 -1.0352 -0.0768 -0.2162
   15CHTO   H36 6270   6.434   3.972   1.094 -0.7045  0.9355  0.1422
   15CHTO   C30 6271   6.445   4.214   1.183  0.6734  0.4880  0.6745
   15CHTO   H58 6272   6.536   4.223   1.122  0.0040  0.3817 -0.3593
   15CHTO    N6 6273   6.475   4.132   1.303 -0.2754  0.1589  0.1547
   15CHTO   H45 6274   6.490   4.027   1.282  2.7423  0.8138 -1.2731
   15CHTO   H46 6275   6.401   4.139   1.382 -1.3862 -0.1817 -0.8476
   15CHTO   C33 6276   6.402   4.361   1.223 -0.2168 -0.4381  0.9394
   15CHTO   H61 6277   6.318   4.355   1.294 -0.4441 -1.9000  0.5759
   15CHTO   O18 6278   6.361   4.442   1.107 -0.5499  0.2035  0.6106
   15CHTO   C28 6279   6.248   4.381   1.041 -0.0851 -0.2070  0.6249
   15CHTO   H56 6280   6.173   4.363   1.118  2.0032  2.2189  3.3470
   15CHTO   C35 6281   6.203   4.482   0.935  0.4862  0.2977 -0.0013
   15CHTO   O24 6282   6.302   4.520   0.840 -0.0065 -0.2428  0.0408
   15CHTO   H39 6283   6.354   4.448   0.810  2.1159  0.5330  1.7164
   15CHTO    O9 6284   6.506   4.425   1.296 -0.2348  0.2526  0.3544
   15CHTO   C13 6285   6.590   4.547   1.233 -0.7326 -0.4695  1.0492
   15CHTO   H26 6286   6.522   4.618   1.182 -0.3695 -1.0978 -0.3223
   15CHTO   C11 6287   6.693   4.486   1.133 -0.3733  0.2578  0.4072
   15CHTO   H24 6288   6.644   4.460   1.039  2.1680 -2.1690 -0.3107
   15CHTO    O8 6289   6.759   4.368   1.180  0.2780  0.2716  0.0060
   15CHTO    H3 6290   6.828   4.332   1.128  0.0987 -0.5879  0.3539
   15CHTO    C9 6291   6.797   4.595   1.103  0.0415  0.1340 -0.6089
   15CHTO   H22 6292   6.740   4.686   1.077  0.4155  0.6499  0.3805
   15CHTO    N2 6293   6.878   4.555   0.979  0.1846  0.0561 -0.0140
   15CHTO   H10 6294   6.907   4.452   0.985  2.5276  0.6541 -0.5249
   15CHTO   H11 6295   6.822   4.567   0.888  0.6269 -0.6946 -0.3877
   15CHTO    C7 6296   6.878   4.623   1.232  0.1128 -0.5738 -1.1100
   15CHTO   H20 6297   6.918   4.726   1.222  0.8420 -0.7544 -0.0709
   15CHTO    O4 6298   6.798   4.610   1.358  0.2519  0.1528 -0.1376
   15CHTO   C14 6299   6.655   4.641   1.342 -0.5713  0.4770  0.2342
   15CHTO   H27 6300   6.659   4.747   1.309  0.5709 -0.3188 -2.3464
   15CHTO   C18 6301   6.582   4.637   1.472 -0.4375 -0.3307  0.2007
   15CHTO   O13 6302   6.454   4.700   1.446  0.2885 -0.3393 -0.1244
   15CHTO    H7 6303   6.438   4.753   1.521 -0.5354 -0.0488 -0.5043
   15CHTO    O2 6304   7.021   4.529   1.251 -0.1274  0.8112  0.3816
   15CHTO    C1 6305   7.112   4.543   1.364 -0.1527  0.4094  0.0110
   15CHTO   H14 6306   7.066   4.605   1.444  0.0334  2.0700 -1.1387
   15CHTO    C2 6307   7.251   4.610   1.328 -0.9520  0.1963  0.1334
   15CHTO   H15 6308   7.299   4.551   1.248  1.3353  0.1492  1.4762
   15CHTO    O6 6309   7.221   4.742   1.272 -0.6642 -0.3126 -0.4374
   15CHTO    H1 6310   7.282   4.768   1.206  1.9094 -1.4915  1.4202
   15CHTO    C3 6311   7.348   4.620   1.453 -0.2142 -0.5001 -0.0099
   15CHTO   H16 6312   7.310   4.695   1.524  1.4974 -0.1625  0.5715
   15CHTO    N1 6313   7.492   4.661   1.423  0.7401 -0.4194 -0.2877
   15CHTO    H8 6314   7.525   4.680   1.322 -0.2099  0.5526 -0.4291
   15CHTO    H9 6315   7.516   4.754   1.473 -0.6765 -0.0203 -0.3300
   15CHTO    C4 6316   7.347   4.473   1.526 -0.7017 -0.0557  0.5270
   15CHTO   H17 6317   7.422   4.409   1.481 -0.0455  1.1188 -0.0547
   15CHTO    O1 6318   7.221   4.415   1.539  0.2160 -0.2474  0.1531
   15CHTO    C5 6319   7.143   4.398   1.422 -1.0519  0.2156  0.0647
   15CHTO   H18 6320   7.196   4.337   1.349 -1.9149 -0.9129  0.3851
   15CHTO   C16 6321   7.020   4.318   1.458 -0.5172  0.0544 -0.8976
   15CHTO   O11 6322   7.047   4.188   1.502 -0.3885  0.0970  0.0294
   15CHTO    H5 6323   7.043   4.176   1.595  2.7578 -0.6720  0.1103
   15CHTO    O3 6324   7.381   4.491   1.663  0.3107  0.9229 -0.0841
   15CHTO    C6 6325   7.507   4.438   1.717  0.1323 -1.1735  0.5557
   15CHTO   H19 6326   7.575   4.430   1.632 -1.4421 -2.5093 -0.6238
   15CHTO    C8 6327   7.551   4.544   1.828  0.5796 -0.3621  0.8031
   15CHTO   H21 6328   7.470   4.545   1.900  0.9827 -0.5882  1.2572
   15CHTO    O7 6329   7.568   4.671   1.767 -0.4822 -0.7501  0.0827
   15CHTO    H2 6330   7.486   4.702   1.732 -0.8457  0.0681  1.6180
   15CHTO   C12 6331   7.681   4.482   1.892  0.3004 -0.0079 -0.1161
   15CHTO   H25 6332   7.756   4.488   1.811 -0.4201 -0.9422 -0.8708
   15CHTO    N3 6333   7.716   4.569   2.012 -0.1615 -0.7219 -0.0425
   15CHTO   H12 6334   7.630   4.594   2.074  0.3683 -1.8978  1.2002
   15CHTO   H13 6335   7.759   4.663   1.981 -0.6797 -0.6208 -0.4676
   15CHTO   C15 6336   7.657   4.329   1.939  0.0653 -0.4378 -0.7399
   15CHTO   H28 6337   7.586   4.322   2.022  2.6097 -0.8523  1.4998
   15CHTO   O10 6338   7.786   4.258   1.967  0.2561 -0.0872 -0.2686
   15CHTO    H4 6339   7.846   4.313   2.014 -1.5416 -1.3374  3.6697
   15CHTO    O5 6340   7.612   4.256   1.825  0.0582  0.3586 -0.0501
   15CHTO   C10 6341   7.485   4.295   1.776 -0.2271 -0.6102 -0.1806
   15CHTO   H23 6342   7.414   4.299   1.859 -0.4690 -1.1988 -0.3533
   15CHTO   C17 6343   7.445   4.192   1.679 -0.0236 -0.1531 -0.1788
   15CHTO   O12 6344   7.408   4.074   1.741 -0.2084 -0.6036 -0.1594
   15CHTO    H6 6345   7.340   4.090   1.803  0.5186  0.0376  0.4948
   16CHTO  H203 6346   5.513   4.668   0.809 -2.9753 -1.3159  2.9824
   16CHTO   O82 6347   5.505   4.580   0.776  0.1661 -0.4318 -0.4546
   16CHTO  C123 6348   5.546   4.481   0.862  0.2795  0.6105  0.1005
   16CHTO  H227 6349   5.482   4.482   0.951 -1.0708 -1.6183 -0.7876
   16CHTO   O77 6350   5.520   4.358   0.791  0.5066 -0.2346  0.6362
   16CHTO  C118 6351   5.547   4.242   0.872  0.3720  0.1973 -0.0408
   16CHTO  H222 6352   5.493   4.252   0.968 -0.4275 -0.1668 -0.4442
   16CHTO  C125 6353   5.490   4.116   0.785 -0.8293  0.2783  0.1913
   16CHTO   O84 6354   5.547   4.105   0.654 -0.4773 -0.4693  0.6691
   16CHTO  H205 6355   5.508   4.173   0.602 -2.3274 -1.3353  0.8714
   16CHTO  C114 6356   5.697   4.228   0.906 -0.2261 -0.2953 -0.0229
   16CHTO  H218 6357   5.747   4.216   0.810  1.0037 -1.7675  0.7719
   16CHTO  C116 6358   5.732   4.356   0.988 -0.6209 -0.6819  0.1239
   16CHTO  H220 6359   5.673   4.347   1.081 -0.0741 -1.0897  0.4325
   16CHTO   O79 6360   5.870   4.342   1.023  0.1260  0.7222 -0.3618
   16CHTO  H201 6361   5.922   4.368   0.949  2.2193 -0.0438  0.8185
   16CHTO  C120 6362   5.707   4.483   0.902 -0.2599 -0.2557 -0.1027
   16CHTO  H224 6363   5.772   4.482   0.812 -0.9284  2.1837 -0.6472
   16CHTO   N21 6364   5.734   4.608   0.975 -0.0257  0.3547 -0.1121
   16CHTO  H211 6365   5.727   4.602   1.083  1.1465  0.1203 -0.0435
   16CHTO  H212 6366   5.818   4.663   0.935 -0.6120  0.9631 -0.5262
   16CHTO   O75 6367   5.707   4.106   0.987  0.3892 -0.1697 -0.0524
   16CHTO  C112 6368   5.841   4.020   0.946 -0.2922 -0.1360  0.7010
   16CHTO  H216 6369   5.915   4.091   0.906 -1.4376  1.4532  1.2948
   16CHTO   O73 6370   5.799   3.927   0.847  0.5048  0.2760 -0.1702
   16CHTO  C113 6371   5.903   3.864   0.778 -0.6662 -0.4282  0.2343
   16CHTO  H217 6372   5.968   3.942   0.735  0.3453 -0.7989  1.0775
   16CHTO  C124 6373   5.845   3.774   0.668  0.2340 -0.1393 -0.1380
   16CHTO   O83 6374   5.943   3.725   0.582 -0.7320  0.1065 -0.4982
   16CHTO  H204 6375   5.919   3.758   0.498 -0.8179 -0.5952 -0.7424
   16CHTO  C109 6376   5.991   3.780   0.881  0.2786 -0.4020  0.2948
   16CHTO  H213 6377   5.932   3.689   0.903  0.0657 -0.5927 -0.9861
   16CHTO  C110 6378   6.019   3.853   1.017  0.5419  0.4991  0.5570
   16CHTO  H214 6379   6.102   3.920   0.996  0.7515  0.8979  2.5225
   16CHTO   O78 6380   6.069   3.751   1.112  0.9622 -0.0436 -0.9002
   16CHTO  H200 6381   6.157   3.722   1.099  1.1651 -0.2712  0.8455
   16CHTO  C111 6382   5.904   3.946   1.065  0.1803  0.1218  0.1819
   16CHTO  H215 6383   5.825   3.880   1.102  0.6452 -1.3883 -1.4526
   16CHTO   N19 6384   5.945   4.030   1.180 -0.0198  0.1149 -0.8327
   16CHTO  H207 6385   6.025   4.095   1.148  0.5580 -1.7624 -3.3129
   16CHTO  H208 6386   5.983   3.970   1.262 -0.9271 -1.3574 -1.4898
   16CHTO   O74 6387   6.120   3.738   0.820 -0.0329 -0.1918 -0.0008
   16CHTO  C115 6388   6.167   3.598   0.848  0.2399  0.1569 -0.3451
   16CHTO  H219 6389   6.123   3.560   0.940  0.6077 -2.3636 -1.1831
   16CHTO   O76 6390   6.128   3.508   0.752 -0.1299 -0.7568 -0.3187
   16CHTO  C122 6391   6.206   3.497   0.635 -0.0976  0.4803 -0.4235
   16CHTO  H226 6392   6.202   3.587   0.573 -1.1106  2.0294  1.8159
   16CHTO  C126 6393   6.141   3.377   0.548  0.4059  0.3931 -0.3288
   16CHTO   O85 6394   6.145   3.244   0.604 -0.7948 -0.2150  0.1478
   16CHTO  H206 6395   6.230   3.208   0.588 -1.4843 -2.2808  0.9337
   16CHTO  C121 6396   6.354   3.468   0.669  0.2267  0.0385  0.3330
   16CHTO  H225 6397   6.381   3.367   0.633 -0.3869 -0.2474  0.6788
   16CHTO   O81 6398   6.440   3.558   0.600 -0.6809 -0.0509 -0.1147
   16CHTO  H202 6399   6.418   3.542   0.510  0.2994 -1.9235 -0.0641
   16CHTO  C119 6400   6.394   3.476   0.821 -0.0785 -0.1071  0.4913
   16CHTO  H223 6401   6.349   3.389   0.868  0.1172 -0.9337 -0.8505
   16CHTO  C117 6402   6.319   3.605   0.874 -0.6251  0.0677  0.2502
   16CHTO  H221 6403   6.353   3.702   0.837  1.0834 -0.4123  0.5673
   16CHTO   N20 6404   6.348   3.614   1.024 -0.4696  0.5586  0.6222
   16CHTO  H209 6405   6.310   3.533   1.084 -0.6514  0.6034  0.5676
   16CHTO  H210 6406   6.456   3.618   1.031 -0.4445  2.1505 -0.4571
   16CHTO   O80 6407   6.555   3.457   0.853  0.2705 -0.4146  0.1859
   16CHTO  C103 6408   6.614   3.322   0.832  0.2334  0.2505  0.1042
   16CHTO  H190 6409   6.543   3.253   0.787  0.3526  1.4773 -1.9889
   16CHTO  C101 6410   6.747   3.317   0.736  0.2059  0.5537 -0.0854
   16CHTO  H188 6411   6.831   3.376   0.771 -0.7453  0.7159  2.0203
   16CHTO   O68 6412   6.706   3.351   0.616 -0.1554  0.3609 -0.6471
   16CHTO  H168 6413   6.779   3.344   0.557  0.4132  0.4098  0.0367
   16CHTO   C99 6414   6.807   3.162   0.735  0.1226  0.1146 -0.7765
   16CHTO  H186 6415   6.728   3.096   0.694  0.2478  0.4691 -1.5964
   16CHTO   N17 6416   6.935   3.139   0.660 -1.0534  0.1783 -0.3176
   16CHTO  H174 6417   6.931   3.175   0.558 -0.6037  1.9167  0.2617
   16CHTO  H175 6418   6.968   3.036   0.662 -1.1370  0.1008 -1.9604
   16CHTO   C97 6419   6.828   3.111   0.882  0.8037 -0.6540  0.4016
   16CHTO  H184 6420   6.912   3.166   0.928 -1.0663  3.5259 -0.9286
   16CHTO   O64 6421   6.703   3.131   0.950  0.3618  0.6669 -0.2338
   16CHTO  C104 6422   6.659   3.267   0.970  0.1774  0.7456 -0.2277
   16CHTO  H191 6423   6.742   3.329   1.004 -0.4560  0.7806  1.2829
   16CHTO  C108 6424   6.566   3.258   1.091  0.3706  0.1471  0.1460
   16CHTO   O71 6425   6.636   3.244   1.219 -0.2663  0.0276  0.4635
   16CHTO  H171 6426   6.570   3.265   1.283 -1.6149  1.6760 -1.4142
   16CHTO   O62 6427   6.846   2.973   0.900  0.0378 -0.7248  0.4448
   16CHTO   C91 6428   6.878   2.930   1.033 -0.2064  0.7027 -0.7491
   16CHTO  H178 6429   6.835   3.000   1.105  1.1660  0.4959  0.2997
   16CHTO   C92 6430   7.024   2.905   1.063 -0.5088  0.1536 -0.5251
   16CHTO  H179 6431   7.056   2.823   0.996 -2.0745 -0.0443 -1.0586
   16CHTO   O66 6432   7.105   3.015   1.016 -0.1081 -0.0652 -0.5696
   16CHTO  H166 6433   7.084   3.035   0.927 -0.7667 -2.8514 -1.0949
   16CHTO   C93 6434   7.068   2.855   1.208 -0.5872 -0.0435 -0.5139
   16CHTO  H180 6435   7.046   2.937   1.278 -0.6277 -1.4227  1.1446
   16CHTO   N16 6436   7.211   2.823   1.216 -0.0786 -0.4429  0.1742
   16CHTO  H172 6437   7.246   2.767   1.131  1.6463 -1.6796  1.6430
   16CHTO  H173 6438   7.270   2.913   1.212 -1.0646  0.1679 -0.8462
   16CHTO   C94 6439   6.971   2.738   1.252 -0.0051  0.1825 -0.6481
   16CHTO  H181 6440   6.987   2.645   1.197 -1.5603  0.0020 -0.8297
   16CHTO   O61 6441   6.834   2.780   1.218 -0.4959 -0.3570 -0.2334
   16CHTO   C95 6442   6.801   2.798   1.074 -0.8865  0.2897  0.0617
   16CHTO  H182 6443   6.824   2.707   1.019 -0.3169  1.7534 -2.1491
   16CHTO  C106 6444   6.644   2.815   1.077  0.1791  0.1557 -0.8443
   16CHTO   O69 6445   6.573   2.701   1.127 -0.5550 -0.3660  0.2990
   16CHTO  H169 6446   6.594   2.624   1.078 -0.2598 -1.6165  2.3180
   16CHTO   O63 6447   6.972   2.704   1.412 -0.0887  0.1326 -0.1579
   16CHTO   C96 6448   6.812   2.635   1.481  0.4329 -0.1031  0.0560
   16CHTO  H183 6449   6.832   2.589   1.577 -2.6946  0.4926  1.0653
   16CHTO   C98 6450   6.737   2.542   1.396  0.5476  0.2405  0.1787
   16CHTO  H185 6451   6.732   2.580   1.293  0.2382  1.2827  0.5686
   16CHTO   O67 6452   6.828   2.435   1.398  0.3495 -0.1464  0.4754
   16CHTO  H167 6453   6.794   2.350   1.379  1.2874 -1.2355  3.3560
   16CHTO  C102 6454   6.591   2.500   1.441  0.6232 -0.8289 -0.1442
   16CHTO  H189 6455   6.604   2.453   1.539 -0.1475 -0.9480 -0.0936
   16CHTO   N18 6456   6.525   2.394   1.361  0.6921 -0.4724  0.2121
   16CHTO  H176 6457   6.445   2.370   1.430  0.2377 -2.3364 -0.9222
   16CHTO  H177 6458   6.590   2.309   1.367  1.8442  0.4221  0.5917
   16CHTO  C105 6459   6.521   2.635   1.457 -0.2016  0.6402  0.4850
   16CHTO  H192 6460   6.520   2.688   1.362 -0.5278  1.1681  0.7779
   16CHTO   O65 6461   6.585   2.718   1.556 -0.3670  0.0560  0.0657
   16CHTO  C100 6462   6.720   2.760   1.526  0.4496  0.0269  0.4242
   16CHTO  H187 6463   6.714   2.828   1.440 -1.1880  0.5652  0.9484
   16CHTO  C107 6464   6.786   2.824   1.647 -0.0368  0.8267  0.6979
   16CHTO   O70 6465   6.708   2.938   1.693 -0.3817  0.6755 -0.4911
   16CHTO  H170 6466   6.766   2.989   1.746 -0.6897  2.3315 -1.7096
   16CHTO   O57 6467   6.364   2.610   1.509 -0.2340 -0.0433 -0.0692
   16CHTO   C85 6468   6.271   2.703   1.465 -0.1167  0.2213  0.2714
   16CHTO  H157 6469   6.290   2.713   1.356 -0.6748 -1.4816 -0.0009
   16CHTO   C83 6470   6.294   2.841   1.520  0.4370 -0.3528 -0.0729
   16CHTO  H155 6471   6.398   2.869   1.503  0.0029  0.1387 -2.0206
   16CHTO   O56 6472   6.270   2.839   1.663 -0.8175  0.0196  0.3562
   16CHTO  H135 6473   6.178   2.827   1.672 -0.6736 -0.9180  0.6594
   16CHTO   C81 6474   6.208   2.941   1.427  0.2926  0.2690 -0.1504
   16CHTO  H153 6475   6.236   2.919   1.324  1.4750  1.8574 -0.1903
   16CHTO   N14 6476   6.249   3.084   1.445  0.1796  0.5449 -0.3700
   16CHTO  H141 6477   6.169   3.147   1.412 -0.6312 -0.3820 -0.2051
   16CHTO  H142 6478   6.274   3.107   1.546 -1.7652 -0.6123  0.4076
   16CHTO   C79 6479   6.052   2.905   1.449 -0.2403 -0.4414 -0.2502
   16CHTO  H151 6480   5.999   2.950   1.366 -2.5587 -0.5902  1.1170
   16CHTO   O52 6481   6.028   2.759   1.432  0.0847 -0.2898  0.0914
   16CHTO   C86 6482   6.120   2.668   1.495  0.2812 -0.0204  0.3200
   16CHTO  H158 6483   6.088   2.675   1.601  2.4988  3.1952  0.8278
   16CHTO   C90 6484   6.078   2.527   1.445  0.6255 -0.4637  0.6952
   16CHTO   O60 6485   5.964   2.468   1.516  0.1731 -0.1152 -0.4680
   16CHTO  H138 6486   5.977   2.433   1.602 -0.0790 -0.7048 -0.6669
   16CHTO   O50 6487   5.992   2.965   1.561 -0.1696  0.0003 -0.1629
   16CHTO   C73 6488   5.876   2.914   1.628 -0.3540 -0.5068  0.0603
   16CHTO  H145 6489   5.890   2.805   1.636  2.1819 -0.1735  0.6489
   16CHTO   C74 6490   5.737   2.949   1.560  0.2635 -0.2796 -0.5183
   16CHTO  H146 6491   5.727   2.910   1.457  1.2683  2.2984 -1.6233
   16CHTO   O54 6492   5.632   2.892   1.639  0.2105 -0.0674 -0.1826
   16CHTO  H133 6493   5.559   2.873   1.583  0.8195 -0.1566 -0.9524
   16CHTO   C75 6494   5.722   3.110   1.563 -0.4446 -0.2834 -0.1908
   16CHTO  H147 6495   5.790   3.158   1.491  0.0319  0.3305  0.6634
   16CHTO   N13 6496   5.599   3.155   1.497  0.1774  0.0372 -0.9259
   16CHTO  H139 6497   5.609   3.124   1.394  0.7321  1.7761 -1.4265
   16CHTO  H140 6498   5.598   3.263   1.498  0.3515  0.0363 -0.1275
   16CHTO   C76 6499   5.734   3.173   1.713 -0.1239  0.8776  0.9561
   16CHTO  H148 6500   5.646   3.130   1.762 -0.3239  1.7947  1.4116
   16CHTO   O49 6501   5.847   3.121   1.775 -0.1084  0.4477 -0.5784
   16CHTO   C77 6502   5.870   2.978   1.770  0.0915 -0.1390  0.0289
   16CHTO  H149 6503   5.789   2.929   1.824 -0.8995 -0.1382 -1.4228
   16CHTO   C88 6504   5.979   2.957   1.871  0.2858  0.2518 -0.5956
   16CHTO   O58 6505   6.102   3.027   1.830  0.0648 -0.1451 -0.3100
   16CHTO  H136 6506   6.114   3.097   1.892 -1.5691  0.8056 -1.0362
   16CHTO   O51 6507   5.733   3.349   1.709  0.2653  0.2083 -0.0498
   16CHTO   C78 6508   5.692   3.404   1.860  0.5181  0.4723  0.2171
   16CHTO  H150 6509   5.693   3.319   1.931 -1.2966 -0.8731 -1.3373
   16CHTO   C80 6510   5.548   3.461   1.855 -0.1230  0.2833  0.6097
   16CHTO  H152 6511   5.542   3.532   1.770  1.0742 -3.1299 -2.4690
   16CHTO   O55 6512   5.457   3.360   1.811 -0.0315 -0.0037 -0.4124
   16CHTO  H134 6513   5.470   3.334   1.722  0.1367 -1.5602  0.0410
   16CHTO   C84 6514   5.511   3.533   1.988 -0.2998 -0.4088  1.0885
   16CHTO  H156 6515   5.510   3.461   2.069 -1.9284 -1.1795  0.3859
   16CHTO   N15 6516   5.375   3.598   1.985  0.1007 -0.1505 -0.1697
   16CHTO  H143 6517   5.300   3.523   1.975 -0.0418  0.1187 -1.1228
   16CHTO  H144 6518   5.350   3.655   2.072 -1.1859  0.5693 -0.9994
   16CHTO   C87 6519   5.616   3.642   2.019  0.6487 -0.6097  0.0652
   16CHTO  H159 6520   5.612   3.727   1.951 -0.4187  0.2760  1.2082
   16CHTO   O53 6521   5.749   3.580   2.017  0.3574  0.6881 -0.0113
   16CHTO   C82 6522   5.791   3.512   1.898  0.5030 -0.3140  0.4056
   16CHTO  H154 6523   5.809   3.587   1.822  1.9877  1.2027  2.2083
   16CHTO   C89 6524   5.929   3.451   1.924  0.1483  0.2600 -0.3155
   16CHTO   O59 6525   5.939   3.367   2.041 -0.2395 -0.4609 -0.2563
   16CHTO  H137 6526   5.966   3.417   2.115 -1.0063 -1.0068  0.3950
   16CHTO   O45 6527   5.592   3.719   2.151 -0.3438  0.0849  0.1038
   16CHTO   C67 6528   5.702   3.800   2.201 -0.0138  0.8026  0.1241
   16CHTO  H124 6529   5.783   3.787   2.130  0.0728  1.1762  0.1555
   16CHTO   C65 6530   5.660   3.948   2.211  0.1286 -0.6082 -0.1068
   16CHTO  H122 6531   5.556   3.941   2.241  0.3859 -1.5129  0.5761
   16CHTO   O44 6532   5.658   3.995   2.076 -0.2770 -0.0375  0.3859
   16CHTO  H102 6533   5.666   4.088   2.078  1.0761 -0.1388  0.0542
   16CHTO   C63 6534   5.720   4.034   2.330 -0.4114 -0.1944 -0.2263
   16CHTO  H120 6535   5.671   4.003   2.422 -0.4885  0.6365  0.0149
   16CHTO   N11 6536   5.688   4.180   2.326  0.0373  0.1721 -0.6103
   16CHTO  H108 6537   5.642   4.203   2.419  0.9199  0.3789 -0.2139
   16CHTO  H109 6538   5.614   4.196   2.250 -0.4911  0.2165 -0.0833
   16CHTO   C61 6539   5.864   3.988   2.354 -0.7189 -0.2174 -0.1606
   16CHTO  H118 6540   5.900   4.043   2.442  0.4376 -1.4378  0.1517
   16CHTO   O40 6541   5.866   3.840   2.390 -0.2125 -0.1316  0.1642
   16CHTO   C68 6542   5.755   3.749   2.347  0.2482 -0.1763  0.4995
   16CHTO  H125 6543   5.668   3.754   2.417  0.2426  1.0386  0.4247
   16CHTO   C72 6544   5.811   3.611   2.346 -0.0157 -0.3384 -0.6826
   16CHTO   O48 6545   5.728   3.506   2.309 -0.2633 -0.2249  0.3679
   16CHTO  H105 6546   5.788   3.446   2.268 -1.3540 -0.7653 -0.4650
   16CHTO   O38 6547   5.945   4.012   2.238 -0.2943 -0.7482 -0.6195
   16CHTO   C55 6548   6.089   3.994   2.248 -0.3315  0.3422  0.2350
   16CHTO  H112 6549   6.109   3.940   2.342  4.8968  1.1794 -0.2219
   16CHTO   C56 6550   6.175   4.128   2.246 -0.0048  0.0721  0.5906
   16CHTO  H113 6551   6.123   4.198   2.179 -2.5843 -1.4215  0.9347
   16CHTO   O42 6552   6.155   4.199   2.374 -0.3288 -0.2406  0.1384
   16CHTO  H100 6553   6.068   4.228   2.389  0.0778  0.8134  0.5164
   16CHTO   C57 6554   6.325   4.113   2.212  0.3230 -0.0199 -0.2014
   16CHTO  H114 6555   6.351   4.070   2.308 -1.2992  0.8820  0.6716
   16CHTO   N10 6556   6.397   4.242   2.193 -0.3936 -0.1463  0.3510
   16CHTO  H106 6557   6.490   4.230   2.139 -1.4124 -0.4539 -1.3467
   16CHTO  H107 6558   6.337   4.317   2.145 -0.9871 -0.4367  0.6238
   16CHTO   C58 6559   6.346   4.013   2.096  0.5574  0.0716 -0.0475
   16CHTO  H115 6560   6.325   4.061   1.998 -1.4451 -0.1529  0.2462
   16CHTO   O37 6561   6.271   3.894   2.118  0.1593  0.2424 -0.2937
   16CHTO   C59 6562   6.127   3.909   2.119  0.0954 -0.2363 -0.2244
   16CHTO  H116 6563   6.094   3.963   2.030 -0.0454 -1.2567 -0.8119
   16CHTO   C70 6564   6.059   3.772   2.128  0.4079 -0.2338 -0.0718
   16CHTO   O46 6565   6.119   3.669   2.052  0.9481 -0.2434  0.2310
   16CHTO  H103 6566   6.175   3.624   2.112  1.1106 -1.0670 -0.5238
   16CHTO   O39 6567   6.499   3.943   2.087 -0.6736 -0.2888  0.7917
   16CHTO   C60 6568   6.549   3.926   1.949  0.0682  0.8423 -0.2328
   16CHTO  H117 6569   6.475   3.880   1.883  1.1528  2.8672 -2.9703
   16CHTO   C62 6570   6.585   4.065   1.878  0.2657 -0.4099 -0.0520
   16CHTO  H119 6571   6.492   4.126   1.873 -0.0693 -0.9481 -0.5307
   16CHTO   O43 6572   6.691   4.123   1.949 -0.0239  0.5262  0.2597
   16CHTO  H101 6573   6.701   4.215   1.936 -1.0089  0.3208 -2.0766
   16CHTO   C66 6574   6.626   4.026   1.731  0.1334  0.4915  0.7163
   16CHTO  H123 6575   6.543   3.971   1.685  0.8816  1.6583 -2.1375
   16CHTO   N12 6576   6.652   4.146   1.652  0.0361 -0.3421 -0.2788
   16CHTO  H110 6577   6.559   4.200   1.643  0.6736  0.9088  0.4936
   16CHTO  H111 6578   6.728   4.213   1.688 -1.4144 -0.1131  2.5109
   16CHTO   C69 6579   6.750   3.929   1.729 -0.0908  0.7382 -0.1238
   16CHTO  H126 6580   6.833   3.984   1.779  0.1407 -0.6970  1.1258
   16CHTO   O41 6581   6.728   3.813   1.797 -0.3736  0.0998 -0.3487
   16CHTO   C64 6582   6.678   3.833   1.948 -0.0775 -0.1734  0.3905
   16CHTO  H121 6583   6.758   3.882   2.008 -0.1675  1.9022 -1.1262
   16CHTO   C71 6584   6.636   3.690   2.004  0.1358 -0.1806  0.8059
   16CHTO   O47 6585   6.757   3.609   2.011  0.1919  0.5196 -0.1249
   16CHTO  H104 6586   6.809   3.599   1.933 -0.0500 -2.4861  0.0082
   16CHTO   O34 6587   6.785   3.892   1.569 -0.2171  0.0788  0.0182
   16CHTO   C49 6588   6.900   3.802   1.508  0.1356 -0.4384  0.4567
   16CHTO   H91 6589   6.972   3.858   1.448  2.3194 -1.4534  2.0470
   16CHTO   C47 6590   6.818   3.699   1.428 -0.6478 -0.4938 -0.6263
   16CHTO   H89 6591   6.897   3.640   1.376  1.6379  1.4106  0.5532
   16CHTO   O33 6592   6.747   3.777   1.328 -0.1774  0.4708  0.5281
   16CHTO   H70 6593   6.790   3.804   1.249 -0.4415 -0.7778 -0.0549
   16CHTO   C45 6594   6.735   3.601   1.531 -0.2155  0.2517 -0.0835
   16CHTO   H87 6595   6.662   3.659   1.590 -1.4825  0.2994 -1.6536
   16CHTO    N8 6596   6.659   3.498   1.458  0.2455 -0.3064 -0.0430
   16CHTO   H75 6597   6.659   3.524   1.353 -0.9176 -1.2421 -0.2939
   16CHTO   H76 6598   6.699   3.398   1.468 -1.1461 -0.7179  1.8341
   16CHTO   C43 6599   6.828   3.542   1.650 -0.0247 -0.0652 -0.2565
   16CHTO   H85 6600   6.761   3.506   1.728  2.0676 -1.9624  0.7539
   16CHTO   O29 6601   6.917   3.640   1.698 -0.1398  0.6327 -0.0986
   16CHTO   C50 6602   6.985   3.738   1.619  0.4658 -0.3080 -0.0373
   16CHTO   H92 6603   7.023   3.821   1.680  0.8752 -0.2360 -0.3827
   16CHTO   C54 6604   7.120   3.672   1.564  1.0957  0.0222 -0.2851
   16CHTO   O36 6605   7.228   3.754   1.531  0.1710  0.0820 -0.3994
   16CHTO   H72 6606   7.221   3.830   1.585  2.7599 -1.6460  2.4895
   16CHTO   O27 6607   6.907   3.419   1.610  0.2886  0.1660  0.4417
   16CHTO   C37 6608   6.998   3.343   1.681 -0.4506  0.2676  0.0173
   16CHTO   H79 6609   7.092   3.400   1.675  0.0811 -0.5469  0.5456
   16CHTO   C38 6610   6.957   3.314   1.832  0.1079 -0.8152  0.2173
   16CHTO   H80 6611   6.854   3.276   1.832 -1.1184  2.4036 -1.3151
   16CHTO   O31 6612   6.953   3.443   1.893 -0.5092  0.4514  0.2636
   16CHTO   H68 6613   6.945   3.427   1.985  4.3506  0.7348  0.8877
   16CHTO   C39 6614   7.054   3.213   1.905  0.2720  0.4000  0.3643
   16CHTO   H81 6615   7.145   3.271   1.917  1.2220 -0.9272 -0.3590
   16CHTO    N7 6616   7.000   3.180   2.045 -0.5834  0.5389  0.4643
   16CHTO   H73 6617   6.983   3.074   2.057  0.7136  0.2602 -0.1568
   16CHTO   H74 6618   6.907   3.228   2.072 -1.8074 -0.2707 -2.1862
   16CHTO   C40 6619   7.090   3.090   1.817  0.0047 -0.5011 -0.1359
   16CHTO   H82 6620   7.014   3.012   1.818 -1.5781  1.0239 -0.1822
   16CHTO   O26 6621   7.123   3.129   1.686 -0.1962  0.1941 -0.0567
   16CHTO   C41 6622   7.020   3.201   1.615  0.4460 -0.1474 -0.3711
   16CHTO   H83 6623   6.924   3.147   1.619  1.3048 -1.7146 -0.7058
   16CHTO   C52 6624   7.049   3.206   1.470 -0.9799  0.1331 -0.3879
   16CHTO   O35 6625   7.172   3.272   1.433  0.0983  0.1917 -0.4935
   16CHTO   H71 6626   7.176   3.277   1.340  2.5755  1.5121 -0.3640
   16CHTO   O28 6627   7.213   3.036   1.872 -0.1570 -1.1498 -0.0162
   16CHTO   C42 6628   7.255   2.895   1.869 -0.8830  0.1688 -0.0413
   16CHTO   H84 6629   7.342   2.890   1.934  0.4006 -0.8703 -1.7632
   16CHTO   C44 6630   7.297   2.843   1.728 -0.4293  0.8067 -0.2985
   16CHTO   H86 6631   7.222   2.881   1.659 -0.6117  3.4527  1.2556
   16CHTO   O32 6632   7.422   2.907   1.704  0.4306  0.2696  0.0724
   16CHTO   H69 6633   7.420   2.951   1.621 -2.1428 -0.7090 -0.4530
   16CHTO   C48 6634   7.309   2.690   1.704 -0.0241 -0.1861 -0.5815
   16CHTO   H90 6635   7.403   2.659   1.750 -1.3068 -2.7271  0.4749
   16CHTO    N9 6636   7.323   2.660   1.557 -0.0533  0.0679 -0.1663
   16CHTO   H77 6637   7.299   2.555   1.550 -0.6909  0.1713  0.4283
   16CHTO   H78 6638   7.425   2.682   1.529  0.1187 -0.6803 -0.1503
   16CHTO   C51 6639   7.198   2.610   1.764 -0.2959 -0.8341  0.4965
   16CHTO   H93 6640   7.104   2.633   1.714  2.2412  2.0101 -3.2530
   16CHTO   O30 6641   7.197   2.637   1.902  0.2122 -0.3693  0.0996
   16CHTO   C46 6642   7.148   2.795   1.924 -0.9037 -0.0587 -0.6277
   16CHTO   H88 6643   7.051   2.808   1.874 -1.3807 -1.6117 -0.1233
   16CHTO   C53 6644   7.140   2.810   2.076  0.1514 -0.5480  0.3014
   16CHTO   O72 6645   7.070   2.703   2.135 -0.7294 -0.0522 -0.4558
   16CHTO  H199 6646   7.086   2.697   2.227  0.6159 -3.1112 -0.8442
   16CHTO   O22 6647   7.220   2.465   1.772 -0.2877  0.4916  0.8796
   16CHTO   C31 6648   7.104   2.374   1.772  0.1012 -0.4340 -0.1220
   16CHTO   H59 6649   7.014   2.433   1.797 -1.3507 -2.1311 -1.2634
   16CHTO   C29 6650   7.081   2.306   1.633  0.2852 -0.0078  0.2070
   16CHTO   H57 6651   7.163   2.244   1.592 -0.6007 -1.2594  0.3168
   16CHTO   O21 6652   7.068   2.415   1.535  0.1400  0.2761 -0.5096
   16CHTO   H37 6653   6.978   2.436   1.515 -0.2957 -1.1298 -0.0552
   16CHTO   C27 6654   6.944   2.227   1.635 -0.1568  0.1983 -0.7568
   16CHTO   H55 6655   6.863   2.296   1.660 -0.1588 -0.1511  0.2514
   16CHTO    N5 6656   6.909   2.153   1.511  0.0562  0.2218  0.2642
   16CHTO   H43 6657   6.998   2.110   1.467  0.9044  2.1487  0.0736
   16CHTO   H44 6658   6.826   2.083   1.514  0.7442 -0.7717 -2.6921
   16CHTO   C25 6659   6.934   2.131   1.757 -0.1462  0.0101 -0.3265
   16CHTO   H53 6660   7.007   2.050   1.737 -0.8476 -0.6296 -0.3326
   16CHTO   O17 6661   6.978   2.196   1.881  0.3345 -0.4465  0.3080
   16CHTO   C32 6662   7.110   2.258   1.883 -0.5476 -0.5404 -0.4420
   16CHTO   H60 6663   7.194   2.192   1.860  0.4698 -0.5805  3.0651
   16CHTO   C36 6664   7.154   2.297   2.029 -0.3723  0.2265  0.1225
   16CHTO   O25 6665   7.277   2.373   2.033 -0.0176 -0.1844 -0.2415
   16CHTO   H40 6666   7.348   2.338   2.083  1.7667  2.2928 -0.9235
   16CHTO   O15 6667   6.792   2.072   1.786  0.6963  0.5279  0.3578
   16CHTO   C19 6668   6.693   2.025   1.887 -0.7224 -0.0393  0.1301
   16CHTO   H47 6669   6.707   1.917   1.902 -1.0813  0.0148  0.8676
   16CHTO   C20 6670   6.692   2.123   2.017  0.0654  0.0054 -0.2981
   16CHTO   H48 6671   6.691   2.229   1.989 -0.8019  0.1601  0.3042
   16CHTO   O19 6672   6.819   2.094   2.075  0.0311  0.3680  0.5133
   16CHTO   H35 6673   6.819   2.118   2.166  0.5923 -0.8018  0.8371
   16CHTO   C21 6674   6.580   2.087   2.114  0.3633  0.2262  0.1414
   16CHTO   H49 6675   6.607   1.993   2.162 -2.1753 -0.6734 -0.1446
   16CHTO    N4 6676   6.568   2.170   2.241 -0.1267 -0.4696  0.0270
   16CHTO   H41 6677   6.470   2.213   2.257 -0.3051 -1.3216  1.2824
   16CHTO   H42 6678   6.643   2.247   2.244 -0.3220 -0.2921  0.5805
   16CHTO   C22 6679   6.438   2.076   2.046  0.3907 -0.0043  0.3656
   16CHTO   H50 6680   6.405   2.176   2.016 -1.2191 -0.4752  0.5267
   16CHTO   O14 6681   6.449   1.993   1.930  1.4084  0.0448 -0.3315
   16CHTO   C23 6682   6.548   2.037   1.832 -0.6090 -0.0513 -0.4569
   16CHTO   H51 6683   6.522   2.139   1.800 -0.9220  0.3106  0.9410
   16CHTO   C34 6684   6.519   1.944   1.719 -0.5411  0.4462 -0.0080
   16CHTO   O23 6685   6.604   1.969   1.610  0.2169 -0.3461 -0.1811
   16CHTO   H38 6686   6.571   1.923   1.535  2.8388 -0.5231 -1.2871
   16CHTO   O16 6687   6.347   2.012   2.141  0.3448  0.3338 -0.8664
   16CHTO   C24 6688   6.185   2.066   2.103 -0.2234 -0.6309 -0.2894
   16CHTO   H52 6689   6.175   2.102   2.001  0.3913  0.2876 -0.0324
   16CHTO   C26 6690   6.160   2.179   2.211 -0.0418  0.2179 -0.5918
   16CHTO   H54 6691   6.193   2.139   2.309  1.3484 -2.4024 -2.0506
   16CHTO   O20 6692   6.240   2.293   2.172 -0.7416 -0.1041 -0.1773
   16CHTO   H36 6693   6.194   2.375   2.174 -1.6224 -0.6079  0.1937
   16CHTO   C30 6694   6.009   2.208   2.215  0.7661 -0.4620 -0.4722
   16CHTO   H58 6695   5.983   2.254   2.119 -0.1627  0.3713  0.1724
   16CHTO    N6 6696   5.977   2.308   2.319  0.3033 -0.0152  0.0754
   16CHTO   H45 6697   6.050   2.314   2.399  0.7997 -0.2077 -0.3622
   16CHTO   H46 6698   5.964   2.405   2.273  1.0453  0.5574  1.0494
   16CHTO   C33 6699   5.925   2.078   2.228  0.0420  0.8215  0.5383
   16CHTO   H61 6700   5.953   2.025   2.320  1.8068  1.1368  0.2074
   16CHTO   O18 6701   5.952   1.990   2.119 -0.5865  0.0026 -0.0362
   16CHTO   C28 6702   6.086   1.947   2.119  0.8899  0.8598  0.1889
   16CHTO   H56 6703   6.110   1.901   2.215 -2.1941  2.5335  1.8323
   16CHTO   C35 6704   6.120   1.845   2.003  0.2764 -0.0140  0.4559
   16CHTO   O24 6705   6.037   1.727   2.003  0.4203  0.2002  0.1471
   16CHTO   H39 6706   6.041   1.681   1.921 -0.0898 -0.5728  0.5508
   16CHTO    O9 6707   5.787   2.104   2.236  0.1076  0.2298 -0.1931
   16CHTO   C13 6708   5.726   2.054   2.381  0.0830  0.4369 -0.3915
   16CHTO   H26 6709   5.771   2.098   2.472  2.0799 -1.9631 -0.1924
   16CHTO   C11 6710   5.730   1.891   2.380 -0.2870 -0.3876 -0.1600
   16CHTO   H24 6711   5.833   1.859   2.398 -1.7015 -3.1602  3.6325
   16CHTO    O8 6712   5.701   1.839   2.251 -0.1483 -0.8527 -0.6764
   16CHTO    H3 6713   5.618   1.879   2.230  0.8510  0.7105 -1.8174
   16CHTO    C9 6714   5.637   1.846   2.494 -0.1995 -0.0354 -0.1575
   16CHTO   H22 6715   5.680   1.896   2.582  0.6663 -0.8066 -0.1281
   16CHTO    N2 6716   5.656   1.707   2.537 -0.1070 -0.0912 -0.3896
   16CHTO   H10 6717   5.755   1.708   2.579 -0.1425  0.3875 -0.3091
   16CHTO   H11 6718   5.650   1.637   2.455 -0.8008 -0.6642  0.1442
   16CHTO    C7 6719   5.496   1.895   2.471 -0.3682 -0.2398  0.5545
   16CHTO   H20 6720   5.466   1.924   2.573 -0.7369  0.2375  0.3100
   16CHTO    O4 6721   5.487   2.003   2.380  0.3068 -0.1267  0.0978
   16CHTO   C14 6722   5.580   2.111   2.396  0.3256  0.1584  0.1431
   16CHTO   H27 6723   5.552   2.149   2.497  0.4048  0.7736 -0.0658
   16CHTO   C18 6724   5.544   2.223   2.296  0.1096 -0.0329  0.4451
   16CHTO   O13 6725   5.589   2.351   2.330 -0.1962  0.5395  0.0798
   16CHTO    H7 6726   5.542   2.418   2.285 -1.1772 -0.9159 -1.1244
   16CHTO    O2 6727   5.383   1.779   2.421  0.1446 -0.1099  0.5759
   16CHTO    C1 6728   5.279   1.794   2.320  0.5600  0.1545 -0.4449
   16CHTO   H14 6729   5.216   1.702   2.316 -0.6875  1.0581 -2.4507
   16CHTO    C2 6730   5.315   1.825   2.173  0.5415 -0.0964 -0.1908
   16CHTO   H15 6731   5.379   1.915   2.174 -1.6697  1.5285  0.5739
   16CHTO    O6 6732   5.396   1.718   2.119  0.5901  0.7744  0.6250
   16CHTO    H1 6733   5.342   1.643   2.103  1.8306 -0.2727  1.2318
   16CHTO    C3 6734   5.202   1.854   2.070 -0.6011  1.2774  0.5506
   16CHTO   H16 6735   5.154   1.759   2.044  1.8913 -0.5935  2.6479
   16CHTO    N1 6736   5.257   1.914   1.942 -0.2522 -0.2299  0.5265
   16CHTO    H8 6737   5.224   1.856   1.857 -0.9651 -0.2894  0.8437
   16CHTO    H9 6738   5.365   1.907   1.943 -0.2937 -1.0176  0.1586
   16CHTO    C4 6739   5.088   1.944   2.136 -0.5035  0.0515  0.5030
   16CHTO   H17 6740   5.117   2.049   2.126  0.0527 -0.2728 -1.5426
   16CHTO    O1 6741   5.064   1.913   2.271  1.0642 -0.0444  0.0126
   16CHTO    C5 6742   5.178   1.904   2.364  0.5082  0.1480  0.2905
   16CHTO   H18 6743   5.229   2.000   2.359 -1.0551  0.8616 -5.6204
   16CHTO   C16 6744   5.123   1.882   2.505 -0.2458 -0.0699  0.0310
   16CHTO   O11 6745   5.058   1.757   2.522 -0.1671  0.3778  0.2517
   16CHTO    H5 6746   5.124   1.692   2.539 -1.4040 -0.9236  0.1880
   16CHTO    O3 6747   4.955   1.930   2.068  0.1871 -0.1814 -0.6082
   16CHTO    C6 6748   4.869   2.045   2.084 -0.6834  0.5006  0.4785
   16CHTO   H19 6749   4.902   2.111   2.164 -1.2090 -0.4469  1.4922
   16CHTO    C8 6750   4.880   2.125   1.947  0.6041 -1.0498 -0.5991
   16CHTO   H21 6751   4.870   2.050   1.868 -0.9600 -0.4817 -0.9714
   16CHTO    O7 6752   5.009   2.183   1.955 -0.0563  0.1374 -1.1928
   16CHTO    H2 6753   5.051   2.207   1.874 -0.2984  0.4272 -1.2340
   16CHTO   C12 6754   4.778   2.245   1.933 -0.0111  0.8568  0.2966
   16CHTO   H25 6755   4.801   2.313   2.017 -2.1947  1.7901  0.1798
   16CHTO    N3 6756   4.798   2.327   1.807  0.2792  0.1364  0.3070
   16CHTO   H12 6757   4.848   2.285   1.721 -1.2906  1.6581 -1.4059
   16CHTO   H13 6758   4.840   2.426   1.822 -0.7908  0.4804  1.0891
   16CHTO   C15 6759   4.640   2.176   1.954  0.0998 -0.3585 -0.7725
   16CHTO   H28 6760   4.621   2.105   1.873 -1.6701  0.2833 -0.9316
   16CHTO   O10 6761   4.526   2.280   1.961  0.1871  0.0321  0.0281
   16CHTO    H4 6762   4.544   2.343   1.894  1.0729 -0.4247 -0.1806
   16CHTO    O5 6763   4.636   2.121   2.086  0.1997 -0.1979 -0.0177
   16CHTO   C10 6764   4.716   2.007   2.103 -0.4935 -1.0750 -1.1032
   16CHTO   H23 6765   4.683   1.924   2.040  0.8583 -2.1046 -0.4872
   16CHTO   C17 6766   4.703   1.955   2.244  0.7426  0.9329  0.4005
   16CHTO   O12 6767   4.753   1.819   2.241  0.3627  0.2223  0.1306
   16CHTO    H6 6768   4.845   1.808   2.257 -0.0756  0.6135  3.0912
   17CHTO  H203 6769   4.755   4.596   1.161  0.1539  0.2621 -0.8334
   17CHTO   O82 6770   4.771   4.677   1.207  0.7481 -0.3417  0.0296
   17CHTO  C123 6771   4.664   4.769   1.190  0.0349  0.1959  0.3905
   17CHTO  H227 6772   4.579   4.735   1.252 -0.8095  0.5473 -0.5668
   17CHTO   O77 6773   4.731   4.887   1.240  0.6187 -0.0934 -0.2139
   17CHTO  C118 6774   4.650   5.005   1.249  0.0502  0.5189 -1.0272
   17CHTO  H222 6775   4.560   4.986   1.309  1.6244 -1.9828  0.6530
   17CHTO  C125 6776   4.734   5.128   1.317  0.3147 -0.1567  0.3869
   17CHTO   O84 6777   4.746   5.122   1.460  0.0160  0.6004 -0.1464
   17CHTO  H205 6778   4.783   5.038   1.482 -2.0600  0.1059  1.5347
   17CHTO  C114 6779   4.603   5.044   1.108  0.0118 -0.0327 -0.2984
   17CHTO  H218 6780   4.689   5.061   1.043  0.4982  0.7396  0.5254
   17CHTO  C116 6781   4.532   4.921   1.037 -0.7170 -0.6673  0.7001
   17CHTO  H220 6782   4.434   4.904   1.087 -1.5820 -0.3573 -0.8671
   17CHTO   O79 6783   4.505   4.975   0.910  0.4138  0.4864  0.2186
   17CHTO  H201 6784   4.583   4.996   0.862  1.1468  0.4632  1.3838
   17CHTO  C120 6785   4.622   4.788   1.040  0.2302  0.4667 -0.5407
   17CHTO  H224 6786   4.707   4.803   0.971 -0.4929  3.0760 -0.9488
   17CHTO   N21 6787   4.529   4.679   0.987  1.3376  0.0463  0.1769
   17CHTO  H211 6788   4.548   4.578   1.021  2.6653 -0.4695 -2.0232
   17CHTO  H212 6789   4.531   4.673   0.880 -0.2284 -0.0023  0.1405
   17CHTO   O75 6790   4.522   5.162   1.120 -0.1314  0.1662  0.0271
   17CHTO  C112 6791   4.546   5.288   0.993  0.0044  0.6482 -0.6329
   17CHTO  H216 6792   4.478   5.257   0.912 -0.0039  0.1898 -0.4569
   17CHTO   O73 6793   4.685   5.282   0.947  0.5994 -0.1874 -0.0214
   17CHTO  C113 6794   4.729   5.389   0.863  0.2518  0.0661  0.1210
   17CHTO  H217 6795   4.676   5.382   0.766  0.2541  3.5935 -0.1752
   17CHTO  C124 6796   4.879   5.372   0.826  0.3667 -0.3506  0.3379
   17CHTO   O83 6797   4.916   5.273   0.731  0.0244  0.3901  0.0824
   17CHTO  H204 6798   5.008   5.262   0.741 -0.4372 -2.0986  1.9079
   17CHTO  C109 6799   4.699   5.532   0.927  0.8371 -0.0083 -0.2509
   17CHTO  H213 6800   4.760   5.538   1.019  0.1651  0.6164  0.1570
   17CHTO  C110 6801   4.550   5.543   0.962 -0.0866 -0.4092 -0.2283
   17CHTO  H214 6802   4.499   5.547   0.866 -0.1465 -0.5275 -0.2008
   17CHTO   O78 6803   4.523   5.665   1.038  0.1389 -0.4103 -0.3966
   17CHTO  H200 6804   4.439   5.699   1.013 -0.4271 -0.3796  1.4773
   17CHTO  C111 6805   4.499   5.427   1.053 -0.1730  0.6513 -0.2778
   17CHTO  H215 6806   4.555   5.431   1.147  1.4543  1.4480 -1.2721
   17CHTO   N19 6807   4.354   5.421   1.081  0.7318  0.3184 -0.0572
   17CHTO  H207 6808   4.305   5.515   1.063  1.0104  0.1698 -1.6404
   17CHTO  H208 6809   4.332   5.370   1.174  0.2153 -1.8032 -1.3090
   17CHTO   O74 6810   4.738   5.634   0.835  1.1528  1.0355 -0.0881
   17CHTO  C115 6811   4.776   5.790   0.898 -0.0239 -0.6207  0.6812
   17CHTO  H219 6812   4.686   5.847   0.920 -1.4799 -2.3453 -0.6845
   17CHTO   O76 6813   4.856   5.779   1.041 -0.2414  0.5543 -0.2149
   17CHTO  C122 6814   4.997   5.750   1.008 -0.7431  0.6448  0.2128
   17CHTO  H226 6815   4.996   5.651   0.963  0.1030  1.1519 -0.9224
   17CHTO  C126 6816   5.072   5.734   1.143  0.0503  0.4552 -0.2345
   17CHTO   O85 6817   5.032   5.644   1.246  0.2476 -0.0357  0.0799
   17CHTO  H206 6818   5.035   5.558   1.208  1.2230  0.8928 -2.0294
   17CHTO  C121 6819   5.077   5.846   0.909  0.3654 -0.2619 -0.3744
   17CHTO  H225 6820   5.145   5.905   0.973 -1.4422 -0.3996  1.7381
   17CHTO   O81 6821   5.137   5.777   0.798  0.2536 -0.1286  0.1341
   17CHTO  H202 6822   5.218   5.734   0.821  0.1700  0.1050  0.8904
   17CHTO  C119 6823   4.973   5.948   0.846 -0.3793  0.2971 -0.2572
   17CHTO  H223 6824   4.943   6.006   0.933  2.5531  2.1404 -0.4056
   17CHTO  C117 6825   4.853   5.864   0.789  0.1806  0.5450  0.5836
   17CHTO  H221 6826   4.884   5.799   0.707  2.9243  0.9050  1.2866
   17CHTO   N20 6827   4.758   5.967   0.722  0.0073  0.5285  0.1755
   17CHTO  H209 6828   4.826   6.002   0.646  1.1768 -1.0931  0.4378
   17CHTO  H210 6829   4.738   6.056   0.778 -0.5965  1.2360 -1.1383
   17CHTO   O80 6830   5.046   6.064   0.750 -0.0769 -0.1815 -0.4679
   17CHTO  C103 6831   5.118   6.191   0.812  0.6706  0.0925 -0.1914
   17CHTO  H190 6832   5.086   6.214   0.914  0.0193 -1.2307 -0.0827
   17CHTO  C101 6833   5.272   6.179   0.809  0.1059  0.1266  0.8675
   17CHTO  H188 6834   5.296   6.130   0.715 -2.1034 -1.9827  1.3616
   17CHTO   O68 6835   5.327   6.082   0.923  0.0915  0.1634  0.0843
   17CHTO  H168 6836   5.284   6.000   0.922 -0.9692  0.7156  0.1292
   17CHTO   C99 6837   5.338   6.322   0.823 -0.2393 -0.6339  0.0223
   17CHTO  H186 6838   5.322   6.350   0.929  0.7377  1.1402 -0.2665
   17CHTO   N17 6839   5.485   6.324   0.792 -0.2292  0.5374  0.0202
   17CHTO  H174 6840   5.533   6.409   0.837 -0.1800  0.0731  0.8485
   17CHTO  H175 6841   5.530   6.233   0.830  2.3814  1.2239 -1.3178
   17CHTO   C97 6842   5.270   6.435   0.739  0.8494 -0.3927  0.2947
   17CHTO  H184 6843   5.291   6.410   0.634 -0.0748  1.0817 -0.2479
   17CHTO   O64 6844   5.125   6.439   0.767  0.0917 -0.3433  0.9144
   17CHTO  C104 6845   5.072   6.317   0.718 -0.0111 -0.1254 -0.2882
   17CHTO  H191 6846   5.098   6.292   0.615  0.0007  0.8806 -0.5332
   17CHTO  C108 6847   4.925   6.345   0.719 -0.1242  0.1333 -0.1362
   17CHTO   O71 6848   4.895   6.444   0.612  0.5106 -0.5016  0.2203
   17CHTO  H171 6849   4.918   6.532   0.634  0.6954 -0.3307 -0.6281
   17CHTO   O62 6850   5.319   6.572   0.760  0.2985  0.3405  0.3468
   17CHTO   C91 6851   5.312   6.665   0.651  0.3837  0.2591  0.7239
   17CHTO  H178 6852   5.274   6.607   0.568  0.7354  0.0758  0.6893
   17CHTO   C92 6853   5.453   6.711   0.597 -0.7535 -0.2121 -0.9621
   17CHTO  H179 6854   5.517   6.623   0.579  0.5138  0.1796  1.4680
   17CHTO   O66 6855   5.428   6.772   0.469  0.1800  0.0821 -0.0421
   17CHTO  H166 6856   5.509   6.787   0.424  0.5061  1.4535  0.9490
   17CHTO   C93 6857   5.519   6.808   0.705  0.3902  0.7167 -0.4015
   17CHTO  H180 6858   5.594   6.861   0.644  0.0853 -0.7876 -2.1204
   17CHTO   N16 6859   5.590   6.733   0.809 -0.2760 -0.4373  0.4216
   17CHTO  H172 6860   5.690   6.772   0.819 -1.2344  2.2566 -0.0698
   17CHTO  H173 6861   5.537   6.723   0.903 -1.3075 -1.5694 -0.2661
   17CHTO   C94 6862   5.417   6.916   0.765 -0.0192  0.8027 -0.9860
   17CHTO  H181 6863   5.389   6.894   0.868 -1.2593  1.3663 -1.2018
   17CHTO   O61 6864   5.292   6.917   0.691  0.3193 -0.3063  0.4280
   17CHTO   C95 6865   5.218   6.793   0.678  0.1841  0.5601 -0.7849
   17CHTO  H182 6866   5.168   6.768   0.771  0.6812 -0.7846 -0.8561
   17CHTO  C106 6867   5.111   6.810   0.565 -0.0564 -0.4361  0.7213
   17CHTO   O69 6868   5.005   6.899   0.607 -0.0340  0.7665 -0.2435
   17CHTO  H169 6869   4.946   6.905   0.535  2.5466  1.9812 -2.3589
   17CHTO   O63 6870   5.469   7.060   0.746  0.1801 -0.7034 -0.5774
   17CHTO   C96 6871   5.398   7.176   0.841 -0.6721 -0.1107  0.1241
   17CHTO  H183 6872   5.341   7.115   0.912 -0.0986 -1.3025 -0.4253
   17CHTO   C98 6873   5.304   7.279   0.775  0.7882 -0.8980 -0.6264
   17CHTO  H185 6874   5.352   7.315   0.682  1.0930  1.4844  0.3991
   17CHTO   O67 6875   5.185   7.210   0.736 -0.1089  0.0375 -0.2489
   17CHTO  H167 6876   5.199   7.144   0.671 -0.4677 -2.1197  1.7560
   17CHTO  C102 6877   5.258   7.406   0.866  0.4419 -0.3986 -0.2340
   17CHTO  H189 6878   5.173   7.368   0.924  1.0959 -0.7782  0.4864
   17CHTO   N18 6879   5.206   7.514   0.781  0.2333 -0.5240  0.4770
   17CHTO  H176 6880   5.103   7.501   0.752  0.1251  3.9359 -1.5758
   17CHTO  H177 6881   5.225   7.606   0.835 -0.8926  0.1012 -0.1790
   17CHTO  C105 6882   5.376   7.450   0.953 -0.7040 -0.0971  0.2297
   17CHTO  H192 6883   5.448   7.503   0.891 -1.8641  0.1055 -0.9723
   17CHTO   O65 6884   5.446   7.338   1.015  1.0442 -0.0594  0.5007
   17CHTO  C100 6885   5.509   7.253   0.910  0.2202  0.0535 -0.2833
   17CHTO  H187 6886   5.573   7.305   0.837  0.5187  0.0475 -0.0273
   17CHTO  C107 6887   5.614   7.167   0.993 -0.1959  0.0063 -0.5683
   17CHTO   O70 6888   5.690   7.070   0.925  0.9633 -0.0572  0.1214
   17CHTO  H170 6889   5.710   6.996   0.980 -0.0625 -0.0411  0.5323
   17CHTO   O57 6890   5.328   7.541   1.057 -0.5473 -0.1060  0.7552
   17CHTO   C85 6891   5.419   7.631   1.126  0.6467  0.2955  0.3817
   17CHTO  H157 6892   5.472   7.683   1.043 -2.8937  3.0858 -0.2625
   17CHTO   C83 6893   5.527   7.553   1.199 -0.2604 -0.3264  0.2519
   17CHTO  H155 6894   5.594   7.501   1.130  1.1161 -0.6623  1.8078
   17CHTO   O56 6895   5.463   7.453   1.277 -0.6028 -0.3430  0.1367
   17CHTO  H135 6896   5.462   7.366   1.242  0.4720  0.2054 -1.2677
   17CHTO   C81 6897   5.620   7.649   1.276  0.2322  0.1845  0.9201
   17CHTO  H153 6898   5.664   7.715   1.202  1.3589 -1.2501  0.2726
   17CHTO   N14 6899   5.734   7.583   1.344  0.0649  0.0542 -0.0885
   17CHTO  H141 6900   5.708   7.488   1.385 -0.0071 -0.1198 -0.5476
   17CHTO  H142 6901   5.816   7.574   1.276  0.2470  1.9598 -0.1661
   17CHTO   C79 6902   5.529   7.728   1.376  0.2429 -1.4775  0.3193
   17CHTO  H151 6903   5.591   7.805   1.422  0.8532 -2.0057  0.3882
   17CHTO   O52 6904   5.441   7.810   1.303  0.2001 -0.3631  0.1586
   17CHTO   C86 6905   5.352   7.734   1.221 -0.4873 -0.3966 -0.4488
   17CHTO  H158 6906   5.291   7.679   1.296  0.9085  0.0419  1.0418
   17CHTO   C90 6907   5.248   7.825   1.147 -0.7464  0.4608 -0.0597
   17CHTO   O60 6908   5.153   7.889   1.237  0.3029 -0.0124 -0.4661
   17CHTO  H138 6909   5.126   7.967   1.191 -2.8834  0.2895  1.7963
   17CHTO   O50 6910   5.462   7.663   1.487 -0.6822  0.1565  0.2270
   17CHTO   C73 6911   5.439   7.674   1.625  0.6143 -1.0988 -0.3672
   17CHTO  H145 6912   5.420   7.776   1.663  1.3755 -0.9222 -0.4543
   17CHTO   C74 6913   5.561   7.611   1.709  0.0082  0.5840  0.7501
   17CHTO  H146 6914   5.650   7.672   1.688 -0.8260  1.0714 -1.4759
   17CHTO   O54 6915   5.546   7.622   1.848  0.5222  0.1017  0.2314
   17CHTO  H133 6916   5.530   7.712   1.866  0.3478 -0.3967  2.6700
   17CHTO   C75 6917   5.586   7.464   1.678 -0.2089  0.4108  0.4848
   17CHTO  H147 6918   5.601   7.457   1.569 -1.3096 -1.2033  0.4355
   17CHTO   N13 6919   5.699   7.400   1.745  0.1231  0.5410  0.7441
   17CHTO  H139 6920   5.669   7.399   1.849 -1.8514  2.4204  0.2282
   17CHTO  H140 6921   5.704   7.298   1.710 -0.7545  0.1293  1.8021
   17CHTO   C76 6922   5.455   7.382   1.711 -0.3987 -0.2086  0.3796
   17CHTO  H148 6923   5.442   7.392   1.819 -0.4826 -1.6036  0.5051
   17CHTO   O49 6924   5.332   7.444   1.661 -0.1671  0.1803 -0.1934
   17CHTO   C77 6925   5.312   7.589   1.667  0.0508  0.0313 -0.8447
   17CHTO  H149 6926   5.276   7.630   1.762  2.4383 -0.7840  0.4477
   17CHTO   C88 6927   5.192   7.622   1.577  0.2307  0.3771 -0.1795
   17CHTO   O58 6928   5.144   7.768   1.597 -0.8968  0.1865 -0.1565
   17CHTO  H136 6929   5.120   7.809   1.516  0.6788  0.1168 -0.6607
   17CHTO   O51 6930   5.445   7.231   1.661 -0.2201  0.0596 -0.0092
   17CHTO   C78 6931   5.314   7.142   1.683 -0.5392  0.1050  0.5060
   17CHTO  H150 6932   5.228   7.201   1.720 -0.8537 -1.3952  2.3037
   17CHTO   C80 6933   5.347   7.037   1.793  0.3688  0.2835 -0.2403
   17CHTO  H152 6934   5.438   6.983   1.761  0.6683 -0.2733  1.5058
   17CHTO   O55 6935   5.377   7.099   1.923 -0.0725 -0.2895 -0.2452
   17CHTO  H134 6936   5.315   7.170   1.930 -0.3640 -0.4970 -0.6893
   17CHTO   C84 6937   5.233   6.927   1.798 -0.3405 -0.2899 -0.7840
   17CHTO  H156 6938   5.144   6.976   1.837 -0.0722 -0.1262 -0.3724
   17CHTO   N15 6939   5.267   6.813   1.893  0.0008 -0.1063  0.0236
   17CHTO  H143 6940   5.372   6.807   1.909  0.1143 -1.0995 -1.0064
   17CHTO  H144 6941   5.220   6.824   1.988  2.6067 -2.8134  1.7107
   17CHTO   C87 6942   5.208   6.883   1.648 -0.8341 -0.0416 -0.0289
   17CHTO  H159 6943   5.306   6.846   1.619 -0.8495 -0.0287 -0.0963
   17CHTO   O53 6944   5.170   7.000   1.556  0.3563  0.4625 -0.0688
   17CHTO   C82 6945   5.277   7.092   1.545 -0.5890  0.3289  0.1584
   17CHTO  H154 6946   5.361   7.041   1.497 -1.9207 -3.3449  1.5892
   17CHTO   C89 6947   5.231   7.206   1.445  0.2408  0.3173 -0.2727
   17CHTO   O59 6948   5.230   7.158   1.308 -0.3024 -0.2529  0.1553
   17CHTO  H137 6949   5.174   7.219   1.264 -0.4651  0.6839  1.6190
   17CHTO   O45 6950   5.114   6.773   1.627  0.3413  0.1811 -0.5799
   17CHTO   C67 6951   4.977   6.783   1.670 -0.2367  0.3009 -0.2319
   17CHTO  H124 6952   4.975   6.819   1.773 -1.6546  0.1657 -0.2005
   17CHTO   C65 6953   4.883   6.876   1.580  0.7322 -0.4363 -0.2897
   17CHTO  H122 6954   4.956   6.902   1.503 -0.5744  0.5217 -1.2199
   17CHTO   O44 6955   4.839   6.988   1.664 -0.2673 -0.2732 -0.5902
   17CHTO  H102 6956   4.800   7.053   1.610 -0.0784  0.3609  0.0275
   17CHTO   C63 6957   4.765   6.798   1.508 -0.8904  0.1070  0.0069
   17CHTO  H120 6958   4.808   6.720   1.445  1.1308  0.3680  1.0404
   17CHTO   N11 6959   4.681   6.875   1.409 -0.5273  0.1971 -0.0566
   17CHTO  H108 6960   4.732   6.861   1.316  0.2230  0.4491  0.3092
   17CHTO  H109 6961   4.583   6.833   1.408 -0.6234  0.3226  1.8358
   17CHTO   C61 6962   4.688   6.715   1.611 -0.4449  0.5545 -0.0209
   17CHTO  H118 6963   4.638   6.634   1.557  1.2094 -0.7613  0.3945
   17CHTO   O40 6964   4.776   6.649   1.708 -0.1893  0.1135 -0.5074
   17CHTO   C68 6965   4.919   6.637   1.669 -0.3143  0.3851 -0.1059
   17CHTO  H125 6966   4.923   6.587   1.570  0.9271 -0.6680  0.4567
   17CHTO   C72 6967   5.003   6.544   1.763  0.2658  0.0577  0.1736
   17CHTO   O48 6968   4.970   6.408   1.752  0.3957 -0.1685 -0.2458
   17CHTO  H105 6969   4.880   6.390   1.770 -0.1238 -1.8407 -4.0700
   17CHTO   O38 6970   4.594   6.799   1.678 -1.0112 -0.2576 -0.2569
   17CHTO   C55 6971   4.491   6.738   1.754  0.0610 -0.0947  0.0026
   17CHTO  H112 6972   4.515   6.648   1.813  0.4606  0.5905  0.9013
   17CHTO   C56 6973   4.363   6.718   1.674 -0.2562  0.1345  0.1037
   17CHTO  H113 6974   4.339   6.811   1.619  1.0374 -0.6255 -1.7828
   17CHTO   O42 6975   4.385   6.617   1.575  0.3266  0.1224 -0.2102
   17CHTO  H100 6976   4.476   6.611   1.551  0.1004 -0.9114 -0.8168
   17CHTO   C57 6977   4.232   6.680   1.765  0.4511  0.1647 -0.3289
   17CHTO  H114 6978   4.243   6.581   1.811  0.2451 -0.7923 -2.3216
   17CHTO   N10 6979   4.104   6.677   1.693  0.4475 -0.2048  0.1644
   17CHTO  H106 6980   4.035   6.605   1.734 -1.0037  0.1861 -1.5228
   17CHTO  H107 6981   4.126   6.643   1.593  3.1064  0.0846  0.6340
   17CHTO   C58 6982   4.215   6.788   1.876  0.2897 -0.3633  0.3381
   17CHTO  H115 6983   4.189   6.886   1.830 -0.5175 -1.0482 -0.7005
   17CHTO   O37 6984   4.339   6.808   1.946 -0.4790  0.7119  0.4768
   17CHTO   C59 6985   4.450   6.840   1.869 -0.2451 -0.1849  0.5455
   17CHTO  H116 6986   4.435   6.939   1.827  0.1196 -0.1585  0.4762
   17CHTO   C70 6987   4.569   6.855   1.960  0.5517  0.1034 -0.1927
   17CHTO   O46 6988   4.554   6.976   2.038 -0.1899 -0.1091 -0.0669
   17CHTO  H103 6989   4.611   6.975   2.113 -1.3770 -0.9998  0.8513
   17CHTO   O39 6990   4.090   6.761   1.982 -0.2239  0.3271 -0.0076
   17CHTO   C60 6991   4.002   6.872   2.010  0.6739 -0.1336  0.2911
   17CHTO  H117 6992   4.058   6.963   1.990  2.3570 -1.8384 -3.2183
   17CHTO   C62 6993   3.875   6.885   1.919 -0.3116 -0.8885 -0.0550
   17CHTO  H119 6994   3.924   6.901   1.821  1.2809  0.4771  0.9240
   17CHTO   O43 6995   3.802   6.762   1.917  0.3839  0.1224 -0.2809
   17CHTO  H101 6996   3.787   6.731   2.005 -0.1967 -0.8126 -0.7059
   17CHTO   C66 6997   3.792   7.016   1.968  0.0127 -0.3103 -0.1840
   17CHTO  H123 6998   3.857   7.102   1.953 -0.4283  0.2564  1.0503
   17CHTO   N12 6999   3.675   7.042   1.877  0.4642 -0.2166 -0.6773
   17CHTO  H110 7000   3.587   7.065   1.934  1.3110 -0.2796  0.6927
   17CHTO  H111 7001   3.695   7.118   1.803 -1.3402  1.3423  0.4072
   17CHTO   C69 7002   3.749   7.000   2.117  0.7301 -0.0701 -0.6827
   17CHTO  H126 7003   3.680   6.914   2.131  0.0660  0.4252 -0.8957
   17CHTO   O41 7004   3.866   7.003   2.191  0.1615 -0.3310  0.1293
   17CHTO   C64 7005   3.956   6.875   2.167  0.8770 -0.3445 -0.2875
   17CHTO  H121 7006   3.909   6.778   2.194  0.4311 -0.1881 -0.5104
   17CHTO   C71 7007   4.076   6.888   2.259 -0.4099  0.3306 -0.6751
   17CHTO   O47 7008   4.059   6.937   2.389  0.3674  0.3024  0.3158
   17CHTO  H104 7009   4.025   7.024   2.391 -0.8124 -0.1484  0.4244
   17CHTO   O34 7010   3.660   7.124   2.176 -0.1944  0.0667 -0.0444
   17CHTO   C49 7011   3.588   7.212   2.283 -0.3020 -0.0203  0.5448
   17CHTO   H91 7012   3.659   7.291   2.311  2.3084 -1.7971 -0.8767
   17CHTO   C47 7013   3.548   7.121   2.403 -0.0219 -0.0463  1.1690
   17CHTO   H89 7014   3.503   7.190   2.477 -0.9514  1.0546 -0.3856
   17CHTO   O33 7015   3.665   7.051   2.450 -0.2781  0.3943  0.2573
   17CHTO   H70 7016   3.725   7.106   2.496  1.6136  0.6571 -2.4689
   17CHTO   C45 7017   3.434   7.010   2.357  0.5118  0.4811  0.2259
   17CHTO   H87 7018   3.485   6.915   2.333 -2.0688 -0.8582 -0.0800
   17CHTO    N8 7019   3.338   6.979   2.464  0.8825  0.0815 -0.3312
   17CHTO   H75 7020   3.394   6.922   2.535  0.4837 -0.6978 -0.6324
   17CHTO   H76 7021   3.253   6.920   2.433 -0.5691  1.1561  1.5165
   17CHTO   C43 7022   3.368   7.061   2.216  0.5219  0.5013 -0.2516
   17CHTO   H85 7023   3.448   7.041   2.144  0.7358  1.5320 -0.3113
   17CHTO   O29 7024   3.334   7.200   2.226  0.2455 -0.4300 -0.0009
   17CHTO   C50 7025   3.454   7.282   2.230 -0.4435 -0.1621  0.4799
   17CHTO   H92 7026   3.484   7.294   2.125 -1.3143  1.0953  0.3680
   17CHTO   C54 7027   3.437   7.425   2.274 -0.1528 -0.9574  0.5843
   17CHTO   O36 7028   3.394   7.431   2.416 -0.0363  0.1767 -0.6391
   17CHTO   H72 7029   3.470   7.448   2.468 -1.4463 -0.7769  1.8647
   17CHTO   O27 7030   3.256   6.976   2.170  0.0332  0.2664  0.0245
   17CHTO   C37 7031   3.182   6.952   2.052  0.0925  0.3097  0.1279
   17CHTO   H79 7032   3.079   6.989   2.064 -0.2647 -0.9579  1.0406
   17CHTO   C38 7033   3.255   7.039   1.938  0.7655 -0.2064  0.0203
   17CHTO   H80 7034   3.361   7.009   1.937  0.3235 -1.8919  1.2203
   17CHTO   O31 7035   3.241   7.177   1.960  0.4869  0.3393  0.1362
   17CHTO   H68 7036   3.287   7.219   1.890  3.9059 -1.7310  1.0348
   17CHTO   C39 7037   3.205   7.003   1.794 -0.3644 -0.9934 -0.1253
   17CHTO   H81 7038   3.105   7.045   1.785 -0.9042 -1.7148  2.0452
   17CHTO    N7 7039   3.290   7.066   1.687 -0.1653 -0.2310 -0.4890
   17CHTO   H73 7040   3.381   7.011   1.669 -0.2757 -0.6530  0.2206
   17CHTO   H74 7041   3.225   7.094   1.606  0.2480  0.6479 -0.5170
   17CHTO   C40 7042   3.192   6.844   1.782 -0.6178 -0.1868  0.3893
   17CHTO   H82 7043   3.292   6.802   1.784 -0.7854 -0.7036 -1.5603
   17CHTO   O26 7044   3.110   6.789   1.890  0.8107 -0.1285  0.9781
   17CHTO   C41 7045   3.181   6.805   2.015 -0.1462  0.2231 -0.0978
   17CHTO   H83 7046   3.288   6.779   2.015 -0.3326 -0.5818  0.6889
   17CHTO   C52 7047   3.112   6.717   2.120  0.0912  0.3868 -0.2119
   17CHTO   O35 7048   3.168   6.715   2.263 -0.1287  0.2927  0.2603
   17CHTO   H71 7049   3.126   6.648   2.313  0.5089  1.8654  2.9609
   17CHTO   O28 7050   3.114   6.808   1.667  0.2234  0.5959 -0.1112
   17CHTO   C42 7051   3.146   6.683   1.587 -0.3769  0.5076  0.0557
   17CHTO   H84 7052   3.075   6.683   1.504 -0.0535 -0.8872 -0.2251
   17CHTO   C44 7053   3.119   6.545   1.655  0.4301 -0.1913  0.2703
   17CHTO   H86 7054   3.171   6.542   1.751  1.9823 -0.9491 -0.5711
   17CHTO   O32 7055   2.977   6.553   1.678  0.1148 -0.0596 -0.0567
   17CHTO   H69 7056   2.960   6.560   1.770  4.4540  1.5974  0.6975
   17CHTO   C48 7057   3.151   6.410   1.569  0.3181  0.5925 -0.1267
   17CHTO   H90 7058   3.082   6.417   1.485 -0.1074  0.6889  0.2301
   17CHTO    N9 7059   3.121   6.279   1.641 -0.1443 -0.7955  0.0974
   17CHTO   H77 7060   3.183   6.261   1.727 -1.4729  0.3896  1.3250
   17CHTO   H78 7061   3.116   6.196   1.572 -1.1551 -0.7327  0.0966
   17CHTO   C51 7062   3.293   6.432   1.523 -0.5277  0.1328 -1.0068
   17CHTO   H93 7063   3.364   6.431   1.606  1.3360 -2.1440 -2.5492
   17CHTO   O30 7064   3.300   6.553   1.450 -0.5255 -0.0773 -0.0782
   17CHTO   C46 7065   3.292   6.685   1.525 -0.0378 -0.3904  0.0303
   17CHTO   H88 7066   3.369   6.687   1.602 -0.8553  0.2847  0.8506
   17CHTO   C53 7067   3.316   6.795   1.423  0.0254  0.3123 -0.3756
   17CHTO   O72 7068   3.457   6.838   1.414  0.2838 -0.4359 -0.0077
   17CHTO  H199 7069   3.509   6.774   1.368  0.8171 -1.6801  2.2273
   17CHTO   O22 7070   3.335   6.331   1.427  0.6579 -0.2859  0.5068
   17CHTO   C31 7071   3.460   6.336   1.344  0.2085 -0.3931 -0.9764
   17CHTO   H59 7072   3.506   6.436   1.360  0.5902 -0.8010  0.5161
   17CHTO   C29 7073   3.552   6.231   1.400 -0.2122  0.1085  0.3261
   17CHTO   H57 7074   3.514   6.130   1.380 -0.3591  0.1555  0.3739
   17CHTO   O21 7075   3.573   6.248   1.542 -0.3632 -0.1473 -0.0827
   17CHTO   H37 7076   3.490   6.254   1.583 -0.1213 -0.6692  0.4923
   17CHTO   C27 7077   3.695   6.244   1.326  0.6481 -0.7296  0.0293
   17CHTO   H55 7078   3.736   6.339   1.363  0.1990 -1.4170  2.3408
   17CHTO    N5 7079   3.788   6.132   1.363 -0.1458  0.2880 -0.0578
   17CHTO   H43 7080   3.759   6.083   1.454  1.5833 -1.3751 -0.3559
   17CHTO   H44 7081   3.887   6.175   1.368  0.5788 -1.3146 -0.3038
   17CHTO   C25 7082   3.684   6.245   1.165 -0.2860 -0.9539  0.0552
   17CHTO   H53 7083   3.677   6.148   1.115 -1.1528 -0.6828 -0.3536
   17CHTO   O17 7084   3.565   6.312   1.118  0.3116 -0.1693 -0.1935
   17CHTO   C32 7085   3.441   6.317   1.185 -0.1391  0.5462  0.3231
   17CHTO   H60 7086   3.393   6.221   1.164  0.7589 -0.0754  1.0443
   17CHTO   C36 7087   3.347   6.424   1.123 -0.2137 -0.0052 -0.4252
   17CHTO   O25 7088   3.400   6.557   1.137 -0.0355 -0.4383 -0.9530
   17CHTO   H40 7089   3.326   6.613   1.127  0.2652  0.1050 -0.2144
   17CHTO   O15 7090   3.794   6.314   1.105  0.4567 -0.5757  0.0971
   17CHTO   C19 7091   3.848   6.443   1.095 -0.0775  0.7416 -0.1746
   17CHTO   H47 7092   3.912   6.431   1.006 -0.5328  1.4425 -0.6079
   17CHTO   C20 7093   3.746   6.554   1.072 -0.0599 -0.0148  0.0044
   17CHTO   H48 7094   3.663   6.546   1.145 -0.5465 -1.5256 -0.6848
   17CHTO   O19 7095   3.688   6.536   0.942  0.3792  0.0279 -0.0425
   17CHTO   H35 7096   3.658   6.447   0.939  0.0700  0.0431  1.6989
   17CHTO   C21 7097   3.805   6.699   1.082 -0.6996  0.0952 -0.7676
   17CHTO   H49 7098   3.873   6.717   0.998 -0.7231 -0.6954 -0.9543
   17CHTO    N4 7099   3.704   6.805   1.092  0.5819 -0.8275  0.6508
   17CHTO   H41 7100   3.718   6.875   1.172 -1.1645 -1.2288  1.3362
   17CHTO   H42 7101   3.704   6.860   0.999 -0.0746  0.1994  1.2542
   17CHTO   C22 7102   3.909   6.709   1.202 -0.0481 -0.5695 -0.6224
   17CHTO   H50 7103   3.858   6.706   1.299 -1.8302 -0.4029 -1.5294
   17CHTO   O14 7104   4.009   6.605   1.191  0.6856 -0.1407  0.1709
   17CHTO   C23 7105   3.941   6.476   1.211 -0.2381  0.2916  0.5217
   17CHTO   H51 7106   3.885   6.493   1.304 -1.2852  0.0688 -0.0515
   17CHTO   C34 7107   4.057   6.372   1.241  0.1589 -0.5547 -0.5503
   17CHTO   O23 7108   4.166   6.387   1.146 -0.1716 -0.7127 -0.3005
   17CHTO   H38 7109   4.141   6.332   1.074 -2.5433 -0.9294  0.6517
   17CHTO   O16 7110   4.001   6.827   1.192 -0.1192  0.3612 -0.2285
   17CHTO   C24 7111   4.087   6.872   1.319  0.5343  0.1103 -0.5483
   17CHTO   H52 7112   4.100   6.792   1.391  2.8185 -0.3622 -1.4365
   17CHTO   C26 7113   4.023   6.994   1.392  0.6068  0.2827  0.3012
   17CHTO   H54 7114   3.996   7.073   1.318 -1.7023 -2.4572 -1.9303
   17CHTO   O20 7115   3.885   6.956   1.433  0.2121 -0.2382  0.0365
   17CHTO   H36 7116   3.839   7.030   1.467  0.1306 -0.2146 -0.1265
   17CHTO   C30 7117   4.108   7.059   1.507 -0.3895 -0.6446  0.2825
   17CHTO   H58 7118   4.130   6.989   1.589 -3.7230 -1.7382  0.3310
   17CHTO    N6 7119   4.036   7.178   1.568 -0.1479 -0.0340 -0.6837
   17CHTO   H45 7120   3.938   7.143   1.598  0.5333  0.7255  2.7254
   17CHTO   H46 7121   4.084   7.227   1.652  0.7384  0.4447 -1.4685
   17CHTO   C33 7122   4.238   7.103   1.434  0.2869  0.3469  0.4097
   17CHTO   H61 7123   4.213   7.161   1.344  0.6043  0.7403  0.5755
   17CHTO   O18 7124   4.293   6.973   1.393 -0.3598  0.4803  0.1689
   17CHTO   C28 7125   4.230   6.916   1.278  0.2490 -0.6595  0.6148
   17CHTO   H56 7126   4.221   6.990   1.199 -0.5537 -1.2946  0.1048
   17CHTO   C35 7127   4.316   6.797   1.220 -0.1352 -0.2889  0.0600
   17CHTO   O24 7128   4.440   6.847   1.173 -0.1433  0.0012 -0.1988
   17CHTO   H39 7129   4.514   6.802   1.208 -1.6806 -0.9036  2.0068
   17CHTO    O9 7130   4.336   7.183   1.512  0.2111 -0.2746  0.3806
   17CHTO   C13 7131   4.452   7.243   1.415  1.4754  0.5706 -0.0740
   17CHTO   H26 7132   4.461   7.189   1.318 -1.6862  0.4976 -0.3647
   17CHTO   C11 7133   4.581   7.238   1.503  0.4897 -0.7739  0.2528
   17CHTO   H24 7134   4.611   7.134   1.519 -2.4293 -1.9237 -1.3262
   17CHTO    O8 7135   4.557   7.307   1.622  0.0400  0.4108 -0.1650
   17CHTO    H3 7136   4.535   7.398   1.613 -0.7730  0.1393 -1.1276
   17CHTO    C9 7137   4.695   7.311   1.423 -0.4142  0.3191  0.0777
   17CHTO   H22 7138   4.697   7.256   1.327 -1.6307 -2.3037  1.4920
   17CHTO    N2 7139   4.826   7.284   1.484 -0.2294  0.2255  0.5182
   17CHTO   H10 7140   4.812   7.291   1.591  0.3091 -0.1502  0.6163
   17CHTO   H11 7141   4.896   7.359   1.450 -0.4531  0.1169 -0.1838
   17CHTO    C7 7142   4.656   7.461   1.391 -0.4129  0.4021  0.3063
   17CHTO   H20 7143   4.737   7.481   1.317 -0.3679 -2.4643 -0.4766
   17CHTO    O4 7144   4.532   7.471   1.325  0.6506 -0.0612  0.0756
   17CHTO   C14 7145   4.416   7.390   1.371 -0.2389  0.1472  0.3836
   17CHTO   H27 7146   4.355   7.374   1.280 -0.1731  0.0633  0.3545
   17CHTO   C18 7147   4.327   7.473   1.472  0.2409  0.4199  0.3911
   17CHTO   O13 7148   4.283   7.603   1.417  0.0952 -0.3432  0.0843
   17CHTO    H7 7149   4.362   7.640   1.383 -0.6293  2.0392  0.8906
   17CHTO    O2 7150   4.653   7.557   1.528  0.0390 -0.0069 -0.3483
   17CHTO    C1 7151   4.618   7.693   1.513 -0.6529  0.1585 -0.3748
   17CHTO   H14 7152   4.525   7.699   1.453 -1.0267 -0.3287  0.1472
   17CHTO    C2 7153   4.724   7.790   1.453  0.5843 -0.5566  0.1648
   17CHTO   H15 7154   4.812   7.764   1.512 -0.8145 -2.1103  1.6405
   17CHTO    O6 7155   4.761   7.750   1.321  0.4436 -0.6048  0.2777
   17CHTO    H1 7156   4.827   7.805   1.283 -1.5444  1.0974 -0.8525
   17CHTO    C3 7157   4.687   7.949   1.462 -0.0453  0.1404  0.1199
   17CHTO   H16 7158   4.601   7.963   1.394 -1.2362 -0.2538  1.5380
   17CHTO    N1 7159   4.796   8.034   1.419  0.5640  0.2472  0.1746
   17CHTO    H8 7160   4.775   8.137   1.446 -2.3912  0.1009 -1.3532
   17CHTO    H9 7161   4.812   8.027   1.312 -1.6565 -1.3950 -0.0663
   17CHTO    C4 7162   4.638   7.986   1.606  0.2255 -0.2559 -0.0116
   17CHTO   H17 7163   4.722   7.983   1.676 -0.2352 -1.5548  0.5037
   17CHTO    O1 7164   4.537   7.891   1.652 -0.3428 -0.3269  0.3559
   17CHTO    C5 7165   4.571   7.749   1.654  0.0811 -0.0622 -0.2718
   17CHTO   H18 7166   4.649   7.733   1.728 -0.2516 -2.1536 -0.3518
   17CHTO   C16 7167   4.451   7.683   1.703 -0.0945 -0.3342 -0.6185
   17CHTO   O11 7168   4.399   7.746   1.823 -0.0939 -0.0829 -0.0766
   17CHTO    H5 7169   4.336   7.813   1.805 -1.5986 -1.2849  0.6650
   17CHTO    O3 7170   4.566   8.118   1.617  0.2402  0.1045 -0.3554
   17CHTO    C6 7171   4.565   8.196   1.740 -0.2067  0.0868  0.0649
   17CHTO   H19 7172   4.477   8.261   1.740 -0.1770  0.1414  1.8302
   17CHTO    C8 7173   4.555   8.118   1.874 -0.1608 -0.9715 -0.5091
   17CHTO   H21 7174   4.643   8.053   1.882  1.3563  0.9515 -1.0547
   17CHTO    O7 7175   4.432   8.041   1.883 -0.6097 -0.2268  0.1516
   17CHTO    H2 7176   4.367   8.095   1.924 -0.4269  0.2719 -0.2090
   17CHTO   C12 7177   4.560   8.216   2.002  0.1395 -0.5639 -0.3756
   17CHTO   H25 7178   4.471   8.283   1.998  0.5077 -0.0798 -0.3969
   17CHTO    N3 7179   4.552   8.139   2.125 -0.4125  0.2922 -0.9524
   17CHTO   H12 7180   4.582   8.036   2.126 -2.7289 -0.4216  1.7041
   17CHTO   H13 7181   4.458   8.150   2.178 -0.0317 -1.5034  0.1216
   17CHTO   C15 7182   4.689   8.301   1.989 -0.4351 -0.4339  0.0236
   17CHTO   H28 7183   4.777   8.237   1.994 -0.7461 -1.0532 -2.1269
   17CHTO   O10 7184   4.706   8.425   2.091 -0.7500 -0.1307  0.2369
   17CHTO    H4 7185   4.631   8.429   2.149 -0.9077 -0.4349  0.0493
   17CHTO    O5 7186   4.684   8.369   1.865 -0.2653  0.6771 -0.4644
   17CHTO   C10 7187   4.693   8.290   1.745  0.0457 -0.2824  0.1653
   17CHTO   H23 7188   4.783   8.228   1.743  1.7476  2.1374 -1.7880
   17CHTO   C17 7189   4.700   8.380   1.625 -0.2818 -0.6027  0.3600
   17CHTO   O12 7190   4.595   8.471   1.598  0.4338 -0.0103  0.3968
   17CHTO    H6 7191   4.612   8.544   1.655  1.2289  0.2145 -0.1238
   18CHTO  H203 7192   5.721   7.876   2.464 -1.6122 -1.4982 -2.3590
   18CHTO   O82 7193   5.803   7.892   2.421 -0.7251  0.1396 -0.1767
   18CHTO  C123 7194   5.787   7.897   2.279  0.0954 -0.5725  0.1787
   18CHTO  H227 7195   5.682   7.907   2.250 -0.0157  0.7034  1.0106
   18CHTO   O77 7196   5.861   8.018   2.240  0.6838  0.0937  0.4038
   18CHTO  C118 7197   5.856   8.046   2.095 -0.5017  0.1114 -0.8699
   18CHTO  H222 7198   5.752   8.066   2.067 -1.3361 -2.6831  0.1139
   18CHTO  C125 7199   5.949   8.166   2.058  0.3633  0.2104 -0.1260
   18CHTO   O84 7200   5.895   8.295   2.095 -0.4985  0.3412 -0.0034
   18CHTO  H205 7201   5.962   8.346   2.134  1.4593 -2.9006  1.0518
   18CHTO  C114 7202   5.912   7.927   2.022  0.1999  0.2528  0.4511
   18CHTO  H218 7203   6.011   7.907   2.064  0.5050 -1.7535 -1.1430
   18CHTO  C116 7204   5.836   7.786   2.053 -0.2723  0.1051 -0.2945
   18CHTO  H220 7205   5.734   7.790   2.009 -0.6873  0.3059  0.6814
   18CHTO   O79 7206   5.907   7.689   1.981  0.5999 -0.0254 -0.2680
   18CHTO  H201 7207   5.863   7.607   1.993  0.7323 -0.3335 -1.7606
   18CHTO  C120 7208   5.841   7.766   2.207 -0.5049 -0.5107 -0.0465
   18CHTO  H224 7209   5.948   7.750   2.231 -0.6941 -0.2575  1.0127
   18CHTO   N21 7210   5.770   7.639   2.238  0.4291 -0.1757  0.0805
   18CHTO  H211 7211   5.798   7.589   2.330  0.6945 -2.0720 -1.0046
   18CHTO  H212 7212   5.664   7.654   2.232  0.4323  0.0449  0.5259
   18CHTO   O75 7213   5.912   7.963   1.880 -0.2292  0.4052 -0.4731
   18CHTO  C112 7214   6.073   7.936   1.806  0.3809  0.3837 -0.3679
   18CHTO  H216 7215   6.127   7.856   1.860 -0.7617 -0.4153 -0.3966
   18CHTO   O73 7216   6.147   8.062   1.805 -0.4230  0.1828  0.2693
   18CHTO  C113 7217   6.272   8.055   1.736 -0.5077  0.1357  0.0320
   18CHTO  H217 7218   6.336   7.986   1.794 -0.2661 -2.0994 -2.7916
   18CHTO  C124 7219   6.338   8.196   1.743  0.1226  1.0651 -0.4688
   18CHTO   O83 7220   6.384   8.233   1.875 -0.5325  0.0161 -0.1461
   18CHTO  H204 7221   6.312   8.271   1.922 -0.1784  0.1363  0.2946
   18CHTO  C109 7222   6.247   8.007   1.588 -1.1619 -0.4246 -0.3553
   18CHTO  H213 7223   6.192   8.087   1.537 -0.4028  0.5075  0.2744
   18CHTO  C110 7224   6.171   7.868   1.590 -0.1977  0.3639  0.0471
   18CHTO  H214 7225   6.224   7.786   1.639  0.1477  0.4133 -0.2452
   18CHTO   O78 7226   6.147   7.824   1.455  0.3346  0.1780  0.2409
   18CHTO  H200 7227   6.110   7.739   1.442  0.6696 -0.1801  1.5934
   18CHTO  C111 7228   6.037   7.884   1.663  0.2038 -0.5109  0.4634
   18CHTO  H215 7229   5.980   7.962   1.609  0.4969  0.0746  0.9969
   18CHTO   N19 7230   5.951   7.760   1.668  0.5101  0.2137  0.3658
   18CHTO  H207 7231   5.987   7.697   1.748  1.7586  0.2511 -0.1572
   18CHTO  H208 7232   5.845   7.766   1.650  0.6977 -0.6201 -1.1276
   18CHTO   O74 7233   6.375   7.990   1.528  0.0050 -0.8134  0.0235
   18CHTO  C115 7234   6.390   8.037   1.369  0.0565  0.3266  0.3275
   18CHTO  H219 7235   6.303   8.008   1.311  1.2173  0.7451 -1.6616
   18CHTO   O76 7236   6.402   8.190   1.354 -0.0855 -0.3178 -0.3032
   18CHTO  C122 7237   6.421   8.251   1.226 -0.3847  0.5700 -0.4319
   18CHTO  H226 7238   6.452   8.354   1.247 -1.0936  0.6199  0.4343
   18CHTO  C126 7239   6.283   8.263   1.145  0.0614  1.2764 -0.0387
   18CHTO   O85 7240   6.178   8.317   1.217  0.3140  0.1831 -0.3392
   18CHTO  H206 7241   6.139   8.391   1.173  0.1859  0.8280  0.8469
   18CHTO  C121 7242   6.532   8.171   1.135 -0.3398  0.2582  0.1227
   18CHTO  H225 7243   6.515   8.195   1.028 -0.1640  2.3631  0.5391
   18CHTO   O81 7244   6.659   8.226   1.167  0.1413  0.1811  0.4315
   18CHTO  H202 7245   6.650   8.318   1.184  1.2357  0.5066 -0.6825
   18CHTO  C119 7246   6.525   8.009   1.156 -0.1716  0.2833 -1.1472
   18CHTO  H223 7247   6.432   7.978   1.108  0.4881 -0.7465 -1.7597
   18CHTO  C117 7248   6.516   7.966   1.312 -0.5888  0.1268 -0.0205
   18CHTO  H221 7249   6.594   8.007   1.376 -0.5661 -1.8667  1.2693
   18CHTO   N20 7250   6.514   7.820   1.340  0.6187 -0.4148 -0.3511
   18CHTO  H209 7251   6.436   7.782   1.404 -0.9360 -0.0122 -1.9586
   18CHTO  H210 7252   6.603   7.786   1.389 -0.7671  0.7478  3.1354
   18CHTO   O80 7253   6.631   7.937   1.073  0.2977 -0.0310 -0.3201
   18CHTO  C103 7254   6.576   7.873   0.917 -0.7603  0.3687  0.3330
   18CHTO  H190 7255   6.659   7.835   0.857 -1.7347 -1.8743  0.3374
   18CHTO  C101 7256   6.481   7.748   0.927 -0.3359 -0.1156  0.2200
   18CHTO  H188 7257   6.401   7.773   0.997 -0.7409 -1.1164  0.1217
   18CHTO   O68 7258   6.576   7.627   0.985 -0.2701  0.0029 -0.4517
   18CHTO  H168 7259   6.656   7.629   0.937  0.4379  1.5455  0.7328
   18CHTO   C99 7260   6.404   7.714   0.791 -0.7759 -0.0141 -0.4144
   18CHTO  H186 7261   6.482   7.685   0.718  1.6726  2.8394  0.9834
   18CHTO   N17 7262   6.307   7.598   0.808 -0.1405 -0.4400  0.2849
   18CHTO  H174 7263   6.272   7.555   0.715  1.4897  1.7247 -1.3928
   18CHTO  H175 7264   6.243   7.611   0.894  1.5178  2.6868  1.1254
   18CHTO   C97 7265   6.335   7.837   0.733 -0.4944  0.2515 -0.3409
   18CHTO  H184 7266   6.266   7.870   0.812 -0.9027  1.3638 -1.1511
   18CHTO   O64 7267   6.441   7.928   0.720 -0.0548 -0.2530 -0.0761
   18CHTO  C104 7268   6.502   7.986   0.835 -0.6026 -0.0682 -0.0643
   18CHTO  H191 7269   6.431   8.034   0.902  0.5256 -3.6862  3.9116
   18CHTO  C108 7270   6.604   8.103   0.794 -1.1004 -0.2018 -0.1608
   18CHTO   O71 7271   6.532   8.208   0.718 -0.2083  0.7384 -0.3577
   18CHTO  H171 7272   6.509   8.179   0.631 -2.7808 -0.1298  0.5742
   18CHTO   O62 7273   6.266   7.826   0.604 -0.1580  0.4339  0.0061
   18CHTO   C91 7274   6.132   7.888   0.607  0.1807 -0.8340  0.0178
   18CHTO  H178 7275   6.100   7.882   0.711  0.0698 -2.5748 -0.0997
   18CHTO   C92 7276   6.031   7.794   0.533  0.2955  0.3729  0.1994
   18CHTO  H179 7277   6.085   7.759   0.444 -0.2062  1.4131 -0.5267
   18CHTO   O66 7278   6.030   7.670   0.612 -0.0338 -0.1024  0.6005
   18CHTO  H166 7279   5.979   7.681   0.690 -1.6378  2.0648 -0.6756
   18CHTO   C93 7280   5.885   7.849   0.516 -0.4077  0.0979 -0.0457
   18CHTO  H180 7281   5.833   7.836   0.612 -0.7489  0.7756 -0.1322
   18CHTO   N16 7282   5.805   7.765   0.423 -0.2203 -0.1924 -0.5338
   18CHTO  H172 7283   5.851   7.667   0.413 -0.7729 -0.3114 -1.9731
   18CHTO  H173 7284   5.801   7.813   0.326  0.2664 -1.4925 -1.2115
   18CHTO   C94 7285   5.889   8.002   0.477 -0.4221 -0.5299  0.0806
   18CHTO  H181 7286   5.931   8.017   0.378  4.1786 -1.5296  1.7292
   18CHTO   O61 7287   5.984   8.082   0.556 -0.3144  0.0274  0.1808
   18CHTO   C95 7288   6.120   8.031   0.540  0.8510  0.1176  0.4266
   18CHTO  H182 7289   6.143   8.029   0.434 -1.3401  1.7979 -0.1167
   18CHTO  C106 7290   6.222   8.129   0.603  0.0347  0.4460 -0.3974
   18CHTO   O69 7291   6.210   8.255   0.540 -0.2479 -0.4738 -0.3189
   18CHTO  H169 7292   6.297   8.284   0.521 -0.3301 -1.1572 -1.8728
   18CHTO   O63 7293   5.759   8.072   0.504 -0.0692  0.3138 -0.1475
   18CHTO   C96 7294   5.726   8.190   0.399 -0.1926  0.5218  0.6066
   18CHTO  H183 7295   5.786   8.168   0.311  1.3499  0.2346  1.7018
   18CHTO   C98 7296   5.742   8.337   0.451 -0.6207  0.8498 -0.1713
   18CHTO  H185 7297   5.691   8.347   0.548  1.1767  1.0075  0.7557
   18CHTO   O67 7298   5.885   8.358   0.480 -0.2986  0.5077  0.1267
   18CHTO  H167 7299   5.897   8.439   0.527 -0.1824  0.1281  0.7587
   18CHTO  C102 7300   5.695   8.435   0.337 -0.5357  0.1954 -0.6807
   18CHTO  H189 7301   5.758   8.419   0.248 -1.8350 -1.0362 -1.3809
   18CHTO   N18 7302   5.710   8.573   0.370 -0.0145 -0.2342  0.5861
   18CHTO  H176 7303   5.781   8.591   0.449 -1.4726 -0.5762  1.9953
   18CHTO  H177 7304   5.740   8.629   0.283  1.1663 -3.1936 -0.9929
   18CHTO  C105 7305   5.551   8.404   0.284  0.2857  0.7430  0.4048
   18CHTO  H192 7306   5.482   8.429   0.365  1.3673  1.0946  1.2413
   18CHTO   O65 7307   5.541   8.264   0.258  0.0368  0.0713  0.2386
   18CHTO  C100 7308   5.578   8.173   0.361  1.0046  0.5439  0.0193
   18CHTO  H187 7309   5.511   8.187   0.447 -0.3067 -1.3070 -0.6663
   18CHTO  C107 7310   5.539   8.021   0.313  0.4229  0.0181 -0.0493
   18CHTO   O70 7311   5.610   7.983   0.199 -0.5551  0.0933  0.3416
   18CHTO  H170 7312   5.593   7.892   0.183 -0.4299 -0.1057  1.3672
   18CHTO   O57 7313   5.522   8.475   0.153  0.0574 -0.3850  0.3863
   18CHTO   C85 7314   5.400   8.537   0.111 -0.4011  0.4460  0.0913
   18CHTO  H157 7315   5.432   8.561   0.007  2.5348  0.2145  0.9197
   18CHTO   C83 7316   5.351   8.666   0.186 -0.2039  0.4916 -0.5116
   18CHTO  H155 7317   5.428   8.743   0.177  0.9032 -0.4201  0.9063
   18CHTO   O56 7318   5.347   8.639   0.323  0.0225 -0.3400 -0.4492
   18CHTO  H135 7319   5.262   8.611   0.351 -0.0996  1.1796  0.7805
   18CHTO   C81 7320   5.228   8.719   0.111 -0.2323  0.3973  0.1469
   18CHTO  H153 7321   5.255   8.725   0.006 -1.8700  4.0744 -0.1769
   18CHTO   N14 7322   5.197   8.859   0.144  0.3255 -0.0663 -0.1440
   18CHTO  H141 7323   5.097   8.891   0.122  0.5761 -0.0195 -1.2386
   18CHTO  H142 7324   5.222   8.890   0.243  1.2985  0.8027 -0.6493
   18CHTO   C79 7325   5.110   8.603   0.126 -0.5852  0.2913 -0.0477
   18CHTO  H151 7326   5.023   8.641   0.073  1.0439  1.2794 -2.0575
   18CHTO   O52 7327   5.146   8.475   0.075  0.5474  0.0615 -0.0769
   18CHTO   C86 7328   5.283   8.429   0.109  0.0772  0.3908  0.4810
   18CHTO  H158 7329   5.281   8.385   0.212  0.0688 -0.3758  0.1570
   18CHTO   C90 7330   5.321   8.312   0.010  0.2947  0.4695  0.0150
   18CHTO   O60 7331   5.318   8.354  -0.125 -0.0280 -0.2633 -0.1289
   18CHTO  H138 7332   5.226   8.354  -0.143 -0.4015 -3.6697  1.2606
   18CHTO   O50 7333   5.063   8.592   0.263  0.1716  0.0494 -0.1131
   18CHTO   C73 7334   4.981   8.492   0.313  0.4582  0.5291 -0.5461
   18CHTO  H145 7335   4.979   8.396   0.258  1.5737  0.7876 -1.0623
   18CHTO   C74 7336   4.830   8.538   0.332 -0.4697 -0.7908  0.3988
   18CHTO  H146 7337   4.808   8.565   0.227  1.2138  0.5160  0.3592
   18CHTO   O54 7338   4.748   8.426   0.371  0.3688 -0.0309 -0.5673
   18CHTO  H133 7339   4.656   8.438   0.362  0.3172  1.1216  1.2720
   18CHTO   C75 7340   4.830   8.666   0.423 -0.3276 -0.0959  0.0624
   18CHTO  H147 7341   4.879   8.747   0.367 -1.9054  0.6707 -0.2129
   18CHTO   N13 7342   4.699   8.731   0.432 -0.2536  0.3916  0.3831
   18CHTO  H139 7343   4.710   8.834   0.463  2.9298  0.0833  0.3976
   18CHTO  H140 7344   4.644   8.674   0.505  0.2007  0.0322  0.4476
   18CHTO   C76 7345   4.898   8.630   0.565 -0.5204  0.0760 -0.0129
   18CHTO  H148 7346   4.836   8.556   0.616 -1.2078 -0.2591 -1.3380
   18CHTO   O49 7347   5.033   8.579   0.540  0.0014 -0.1797 -0.1007
   18CHTO   C77 7348   5.032   8.459   0.459  0.0393  0.0411 -0.1024
   18CHTO  H149 7349   4.963   8.389   0.505 -1.0732  0.7419 -0.6790
   18CHTO   C88 7350   5.174   8.408   0.469 -0.2941  0.2131 -0.4264
   18CHTO   O58 7351   5.210   8.376   0.602 -0.3702 -0.5296 -0.5522
   18CHTO  H136 7352   5.267   8.439   0.642 -0.4131  0.3525 -1.8404
   18CHTO   O51 7353   4.908   8.744   0.657  0.5632 -0.8461  0.5121
   18CHTO   C78 7354   4.908   8.700   0.818  0.1398  0.1366 -0.2378
   18CHTO  H150 7355   4.894   8.591   0.825  0.8390 -0.0508 -1.5464
   18CHTO   C80 7356   4.782   8.764   0.882  0.2748 -0.3746  0.4718
   18CHTO  H152 7357   4.782   8.868   0.846  1.9437 -0.4384  0.2380
   18CHTO   O55 7358   4.662   8.706   0.829 -0.0043 -0.0363  0.1881
   18CHTO  H134 7359   4.596   8.702   0.896  0.1297  3.8121  0.6247
   18CHTO   C84 7360   4.785   8.748   1.041 -0.6294  0.8440  0.3259
   18CHTO  H156 7361   4.767   8.642   1.062 -0.9972  0.4452 -1.8686
   18CHTO   N15 7362   4.672   8.815   1.114 -0.1500  0.4832  0.4772
   18CHTO  H143 7363   4.586   8.769   1.070 -0.2450 -0.7469  1.9125
   18CHTO  H144 7364   4.680   8.911   1.067 -1.4205  0.1195 -0.5233
   18CHTO   C87 7365   4.918   8.802   1.096  0.1022  0.0394  0.3816
   18CHTO  H159 7366   4.918   8.910   1.078  2.0813  0.4104  2.3155
   18CHTO   O53 7367   5.020   8.720   1.031 -0.2511  0.6146 -0.6559
   18CHTO   C82 7368   5.039   8.744   0.892 -0.6532  0.3890 -0.9618
   18CHTO  H154 7369   5.054   8.850   0.875 -0.0500  0.3909 -0.4584
   18CHTO   C89 7370   5.162   8.674   0.839  0.2002  0.5671 -0.9328
   18CHTO   O59 7371   5.207   8.718   0.708 -0.0548  0.3235 -0.0902
   18CHTO  H137 7372   5.133   8.721   0.651 -1.2862 -1.7415  1.3340
   18CHTO   O45 7373   4.943   8.771   1.278 -0.1684  0.3027  0.4146
   18CHTO   C67 7374   5.076   8.768   1.322 -0.1623  0.1008  0.1908
   18CHTO  H124 7375   5.140   8.732   1.241  0.7466 -1.0616  1.4119
   18CHTO   C65 7376   5.134   8.903   1.370  0.2103  0.1923 -0.5311
   18CHTO  H122 7377   5.045   8.956   1.403 -0.9708 -0.9586 -1.8079
   18CHTO   O44 7378   5.184   8.960   1.243  0.4776 -0.2237 -0.3702
   18CHTO  H102 7379   5.192   9.053   1.253 -0.3643 -0.3062  1.3614
   18CHTO   C63 7380   5.231   8.897   1.495 -0.7455  0.1641  0.0846
   18CHTO  H120 7381   5.168   8.878   1.582  0.2501 -1.6027  0.4472
   18CHTO   N11 7382   5.305   9.020   1.521 -0.4068  0.2062 -0.7312
   18CHTO  H108 7383   5.368   9.022   1.608 -0.5184 -1.5466 -0.5914
   18CHTO  H109 7384   5.231   9.098   1.520 -0.2285  0.3744 -0.8511
   18CHTO   C61 7385   5.323   8.768   1.491  0.2455  0.7674  0.0552
   18CHTO  H118 7386   5.365   8.764   1.592  0.4549  3.1518  0.0934
   18CHTO   O40 7387   5.243   8.644   1.470  0.5698 -0.4834  0.5923
   18CHTO   C68 7388   5.099   8.670   1.440  0.1377  0.2030 -0.0149
   18CHTO  H125 7389   5.054   8.712   1.532 -0.6939 -0.5230 -0.0863
   18CHTO   C72 7390   5.024   8.536   1.409 -0.2505 -0.0288  0.1801
   18CHTO   O48 7391   5.059   8.486   1.283  0.4258 -0.4565 -0.6488
   18CHTO  H105 7392   5.146   8.450   1.289  1.0392  0.9834 -0.6953
   18CHTO   O38 7393   5.438   8.778   1.397 -0.3385 -0.4540 -0.7317
   18CHTO   C55 7394   5.543   8.677   1.399  0.4399  0.2673 -0.0743
   18CHTO  H112 7395   5.518   8.595   1.469  1.9348 -0.2730 -0.1538
   18CHTO   C56 7396   5.675   8.760   1.441  0.0845  0.4186 -0.6112
   18CHTO  H113 7397   5.686   8.845   1.373 -2.8682  1.5438  0.2602
   18CHTO   O42 7398   5.662   8.807   1.576  0.5186  0.1766  0.1796
   18CHTO  H100 7399   5.744   8.817   1.621  0.1736  2.6592  0.2897
   18CHTO   C57 7400   5.804   8.666   1.425  0.4099 -0.2909 -0.4947
   18CHTO  H114 7401   5.788   8.592   1.503 -2.6151  0.8017 -0.0283
   18CHTO   N10 7402   5.938   8.735   1.444  0.2876 -0.0177 -0.8525
   18CHTO  H106 7403   5.990   8.711   1.536  0.2272 -1.1111 -1.1066
   18CHTO  H107 7404   5.920   8.842   1.442 -1.7080 -0.2994  0.5628
   18CHTO   C58 7405   5.807   8.604   1.288 -0.3241  0.8256  0.8720
   18CHTO  H115 7406   5.848   8.673   1.212  1.3844 -1.5731 -0.4359
   18CHTO   O37 7407   5.683   8.539   1.243  0.0816  0.7692  0.0416
   18CHTO   C59 7408   5.565   8.624   1.252  0.9199  0.0341  0.5084
   18CHTO  H116 7409   5.566   8.705   1.179 -1.0361 -0.5140 -0.1648
   18CHTO   C70 7410   5.446   8.530   1.224  0.0117 -0.0210 -0.2853
   18CHTO   O46 7411   5.328   8.600   1.162 -0.3789 -0.1243  0.0039
   18CHTO  H103 7412   5.283   8.659   1.219  0.1788  0.2159  0.1080
   18CHTO   O39 7413   5.916   8.461   1.306 -0.0151  0.0751  0.5892
   18CHTO   C60 7414   5.847   8.355   1.368  0.4368 -0.2264  0.3030
   18CHTO  H117 7415   5.762   8.397   1.422 -0.0016 -1.1590  0.3491
   18CHTO   C62 7416   5.798   8.247   1.268  0.0611  0.4703 -0.1321
   18CHTO  H119 7417   5.764   8.303   1.178  1.8955  2.4024  0.3257
   18CHTO   O43 7418   5.902   8.160   1.212  0.2714  0.2364 -0.3780
   18CHTO  H101 7419   5.862   8.075   1.205 -1.3269  0.9084  0.2732
   18CHTO   C66 7420   5.671   8.172   1.325  0.5153  0.3681 -0.5590
   18CHTO  H123 7421   5.609   8.247   1.374  0.4808 -0.6552  1.0116
   18CHTO   N12 7422   5.579   8.113   1.226 -0.5114 -0.0075 -0.1020
   18CHTO  H110 7423   5.512   8.056   1.289  0.0170  0.2332  0.6817
   18CHTO  H111 7424   5.524   8.192   1.176 -0.3776 -0.3724 -0.8364
   18CHTO   C69 7425   5.717   8.081   1.438 -0.2159 -0.1385  0.1037
   18CHTO  H126 7426   5.762   7.986   1.403  1.5747  0.7557 -0.1097
   18CHTO   O41 7427   5.840   8.167   1.549  0.0123 -0.8751  0.5071
   18CHTO   C64 7428   5.924   8.280   1.476 -0.3027  0.1167  0.4358
   18CHTO  H121 7429   6.015   8.228   1.439 -0.5002 -0.2289  0.4304
   18CHTO   C71 7430   5.978   8.375   1.585  0.1215 -0.2617  0.5242
   18CHTO   O47 7431   6.043   8.322   1.699 -0.0050  0.3313 -0.0661
   18CHTO  H104 7432   6.094   8.246   1.680 -0.2175 -0.0339  0.8039
   18CHTO   O34 7433   5.589   8.018   1.537  0.5115  0.0494 -0.6221
   18CHTO   C49 7434   5.506   8.047   1.664 -0.6350 -0.5014  0.2157
   18CHTO   H91 7435   5.491   7.955   1.721  1.3713  0.2926  2.0969
   18CHTO   C47 7436   5.365   8.092   1.625 -0.2346 -0.1709 -0.6222
   18CHTO   H89 7437   5.310   8.096   1.721  1.3036  0.2841  0.2562
   18CHTO   O33 7438   5.306   7.987   1.542 -0.0164  0.3013  0.1328
   18CHTO   H70 7439   5.339   7.982   1.455  1.0889  0.7641  0.5179
   18CHTO   C45 7440   5.369   8.233   1.544 -0.5136 -0.3280 -0.7400
   18CHTO   H87 7441   5.427   8.222   1.451  1.6104 -0.6691  0.5875
   18CHTO    N8 7442   5.229   8.261   1.505 -0.1199  0.2694 -0.3726
   18CHTO   H75 7443   5.202   8.208   1.414 -2.2382  1.8676 -0.7101
   18CHTO   H76 7444   5.152   8.226   1.571  1.0639 -1.3564  0.1880
   18CHTO   C43 7445   5.427   8.348   1.639 -0.4121 -0.4488  0.0026
   18CHTO   H85 7446   5.444   8.433   1.573  3.3277 -1.0823  0.0647
   18CHTO   O29 7447   5.552   8.302   1.699  0.0062  0.0143 -0.0115
   18CHTO   C50 7448   5.570   8.166   1.751 -0.4635  0.6700  0.9853
   18CHTO   H92 7449   5.680   8.156   1.753 -0.3482  1.4831 -0.6740
   18CHTO   C54 7450   5.537   8.151   1.902 -0.2313 -0.3078  0.5937
   18CHTO   O36 7451   5.600   8.250   1.981 -0.6595 -0.3572 -0.1248
   18CHTO   H72 7452   5.576   8.335   1.950 -0.7853 -0.1474  0.5378
   18CHTO   O27 7453   5.344   8.389   1.749 -0.4636  0.9286  0.2413
   18CHTO   C37 7454   5.294   8.480   1.846  0.7780  0.0488 -0.2478
   18CHTO   H79 7455   5.280   8.428   1.942 -1.7407  1.6238  0.3002
   18CHTO   C38 7456   5.396   8.596   1.871  0.2914  0.2044 -0.0803
   18CHTO   H80 7457   5.439   8.626   1.774 -2.1183 -0.9311 -1.5295
   18CHTO   O31 7458   5.495   8.545   1.956  0.2396  0.0666 -0.2626
   18CHTO   H68 7459   5.564   8.605   1.976 -1.2326  2.0222 -0.8780
   18CHTO   C39 7460   5.334   8.727   1.937  0.2631 -0.4557 -0.1739
   18CHTO   H81 7461   5.318   8.707   2.043 -1.1439  2.1381  0.1408
   18CHTO    N7 7462   5.422   8.849   1.941  0.0674 -0.6164  0.3008
   18CHTO   H73 7463   5.520   8.813   1.967  1.0524  1.1358 -0.9498
   18CHTO   H74 7464   5.381   8.915   2.015  1.3233  0.4455  0.0625
   18CHTO   C40 7465   5.193   8.762   1.870  0.0586 -0.0500 -0.2630
   18CHTO   H82 7466   5.211   8.786   1.765  1.9260 -0.9949 -0.1790
   18CHTO   O26 7467   5.108   8.648   1.885 -0.1267  0.0107 -0.0564
   18CHTO   C41 7468   5.155   8.534   1.800 -0.6732  0.3473 -0.5509
   18CHTO   H83 7469   5.159   8.562   1.694 -1.3403  1.4037 -0.3037
   18CHTO   C52 7470   5.036   8.430   1.829 -0.2952  0.2632 -0.0994
   18CHTO   O35 7471   5.063   8.294   1.781 -0.1652 -0.3779 -0.0282
   18CHTO   H71 7472   5.135   8.260   1.830  3.6775  0.4974 -4.6964
   18CHTO   O28 7473   5.126   8.877   1.913 -0.3504  0.0573 -0.6610
   18CHTO   C42 7474   4.987   8.899   1.947  0.0514  0.0698  0.1988
   18CHTO   H84 7475   4.978   9.003   1.981  1.3699  0.2702 -0.0321
   18CHTO   C44 7476   4.920   8.811   2.065  0.2330  0.1805  0.1163
   18CHTO   H86 7477   4.917   8.708   2.028  0.5938  0.9794 -2.2655
   18CHTO   O32 7478   5.017   8.816   2.175 -0.0087  0.2082 -0.7045
   18CHTO   H69 7479   5.026   8.729   2.211 -1.8209  0.6110  0.7525
   18CHTO   C48 7480   4.773   8.870   2.097 -0.5800 -0.2670  0.4525
   18CHTO   H90 7481   4.777   8.975   2.127  0.0552  0.1191 -0.9631
   18CHTO    N9 7482   4.712   8.791   2.208 -0.1580  0.2802 -0.7969
   18CHTO   H77 7483   4.641   8.855   2.259 -1.2029 -1.7823  0.4223
   18CHTO   H78 7484   4.667   8.697   2.182 -2.6886  1.8671 -2.3921
   18CHTO   C51 7485   4.688   8.860   1.961 -0.7230  0.7547  0.3756
   18CHTO   H93 7486   4.680   8.756   1.928  2.4059  1.0618 -1.6341
   18CHTO   O30 7487   4.750   8.938   1.861  0.0189  0.2285 -0.8486
   18CHTO   C46 7488   4.898   8.891   1.821 -0.1128  0.4378 -0.2541
   18CHTO   H88 7489   4.891   8.786   1.790  3.0796  0.5210 -1.4319
   18CHTO   C53 7490   4.955   8.983   1.710 -0.5931 -0.1002  0.2998
   18CHTO   O72 7491   4.874   9.003   1.593 -0.4635 -0.2983 -0.6462
   18CHTO  H199 7492   4.788   8.966   1.604 -0.8555  0.5817 -0.7214
   18CHTO   O22 7493   4.558   8.924   1.971  0.4227 -0.1624  0.3111
   18CHTO   C31 7494   4.457   8.918   1.869  0.1661 -0.5545  0.5046
   18CHTO   H59 7495   4.366   8.958   1.919 -0.8157 -1.7170 -0.3062
   18CHTO   C29 7496   4.490   9.002   1.741  0.1159  0.0194  0.6650
   18CHTO   H57 7497   4.588   8.968   1.704 -0.2421  2.5927 -2.8969
   18CHTO   O21 7498   4.507   9.134   1.777 -0.1587 -0.1349  0.1254
   18CHTO   H37 7499   4.422   9.163   1.806 -0.1846 -0.2543  0.1710
   18CHTO   C27 7500   4.390   8.980   1.624  0.3133  0.2402 -0.7549
   18CHTO   H55 7501   4.294   9.024   1.653  0.0814 -0.4162 -0.5182
   18CHTO    N5 7502   4.438   9.036   1.493  0.2192 -0.3684 -0.0393
   18CHTO   H43 7503   4.390   8.987   1.409  1.4434 -1.9677  0.1690
   18CHTO   H44 7504   4.413   9.139   1.477  2.8258  0.1833 -0.7736
   18CHTO   C25 7505   4.356   8.826   1.607 -0.0212 -0.0386 -0.6500
   18CHTO   H53 7506   4.444   8.764   1.582 -0.7588 -1.9563  1.3620
   18CHTO   O17 7507   4.311   8.780   1.739  0.5828  0.1637 -0.6289
   18CHTO   C32 7508   4.418   8.776   1.835 -0.3677  0.8238 -0.3556
   18CHTO   H60 7509   4.506   8.725   1.795  0.7109  0.0658  2.8798
   18CHTO   C36 7510   4.366   8.691   1.952 -0.0759 -0.3853  0.4247
   18CHTO   O25 7511   4.468   8.653   2.045 -0.1256 -0.4199  0.7748
   18CHTO   H40 7512   4.452   8.689   2.130  1.8300 -0.1286  1.0590
   18CHTO   O15 7513   4.234   8.792   1.508  0.9209  0.0811 -0.2656
   18CHTO   C19 7514   4.215   8.721   1.388 -0.1240  0.9684  0.8792
   18CHTO   H47 7515   4.108   8.694   1.382 -0.0492  0.6530  0.9671
   18CHTO   C20 7516   4.248   8.810   1.262  0.9850 -0.2092  0.5877
   18CHTO   H48 7517   4.352   8.847   1.262  0.1936  2.0354 -0.0856
   18CHTO   O19 7518   4.154   8.918   1.261 -0.1904 -0.2708  0.1438
   18CHTO   H35 7519   4.201   8.996   1.284 -1.3782 -0.1932  2.4310
   18CHTO   C21 7520   4.237   8.717   1.131 -0.2645 -0.7095 -0.3155
   18CHTO   H49 7521   4.135   8.682   1.119  0.4181 -2.6224 -0.7900
   18CHTO    N4 7522   4.266   8.795   1.005 -0.0982  0.3190 -0.4339
   18CHTO   H41 7523   4.362   8.843   1.021  0.4732 -0.7088 -0.7045
   18CHTO   H42 7524   4.189   8.870   1.001 -0.4158  0.0445  0.3104
   18CHTO   C22 7525   4.311   8.585   1.154 -0.5040 -0.0404  0.0640
   18CHTO   H50 7526   4.419   8.596   1.169 -0.7106 -1.0118  2.6128
   18CHTO   O14 7527   4.263   8.509   1.273  0.1168  0.5138  0.3441
   18CHTO   C23 7528   4.295   8.594   1.386  0.6774 -0.3425 -0.1440
   18CHTO   H51 7529   4.403   8.616   1.389  0.6351 -0.2537  1.4432
   18CHTO   C34 7530   4.261   8.508   1.509  0.2202  0.3629 -0.0241
   18CHTO   O23 7531   4.324   8.387   1.515 -0.0547  0.3095  0.2420
   18CHTO   H38 7532   4.289   8.325   1.455  0.7353 -0.3830  0.4839
   18CHTO   O16 7533   4.283   8.487   1.047  0.1501  0.1548  0.1393
   18CHTO   C24 7534   4.421   8.442   0.945 -0.3506  0.7555 -0.1971
   18CHTO   H52 7535   4.497   8.520   0.949 -1.5058  1.8240  3.1606
   18CHTO   C26 7536   4.379   8.425   0.793  0.1056  0.6113 -0.0321
   18CHTO   H54 7537   4.296   8.352   0.786 -0.0124  0.8914 -1.8187
   18CHTO   O20 7538   4.338   8.556   0.757 -0.8347  0.7865 -0.6386
   18CHTO   H36 7539   4.410   8.612   0.736  0.7961 -1.6969 -1.9177
   18CHTO   C30 7540   4.502   8.372   0.708 -0.5930  0.7405 -0.3955
   18CHTO   H58 7541   4.572   8.455   0.693  0.8925 -0.6785 -1.6561
   18CHTO    N6 7542   4.462   8.337   0.573  0.5280 -0.0106 -0.0366
   18CHTO   H45 7543   4.528   8.348   0.488 -0.8390 -1.1815 -1.2920
   18CHTO   H46 7544   4.370   8.387   0.547 -0.4946 -1.7668  0.1059
   18CHTO   C33 7545   4.584   8.257   0.774  0.1107 -0.2030  0.1356
   18CHTO   H61 7546   4.517   8.170   0.773 -4.0604  2.8571  1.7643
   18CHTO   O18 7547   4.607   8.287   0.906  0.2172  0.5770  0.1439
   18CHTO   C28 7548   4.488   8.313   0.994  0.1685  0.3874  0.1698
   18CHTO   H56 7549   4.422   8.227   0.987 -1.9798  2.0090  0.0699
   18CHTO   C35 7550   4.537   8.311   1.136 -0.4452  0.0292  0.1349
   18CHTO   O24 7551   4.607   8.183   1.168 -0.1959 -0.2212 -0.1869
   18CHTO   H39 7552   4.545   8.127   1.212 -0.4976 -1.9033 -2.6298
   18CHTO    O9 7553   4.706   8.220   0.706  0.0095 -0.2534  0.3932
   18CHTO   C13 7554   4.815   8.132   0.789  0.2722 -0.3363 -0.2041
   18CHTO   H26 7555   4.749   8.072   0.856  1.0155 -0.6864  0.2157
   18CHTO   C11 7556   4.904   8.225   0.869 -0.0615  0.6735 -0.4047
   18CHTO   H24 7557   4.858   8.284   0.950  0.8416 -2.0990  2.2237
   18CHTO    O8 7558   4.969   8.321   0.778  0.8312  0.2230 -0.2581
   18CHTO    H3 7559   5.015   8.380   0.834 -0.3422  2.0097 -1.1118
   18CHTO    C9 7560   5.003   8.135   0.950  0.4184 -0.4220 -0.3063
   18CHTO   H22 7561   4.936   8.067   1.005 -0.1933 -0.3415 -0.9588
   18CHTO    N2 7562   5.077   8.197   1.065  0.0336 -0.2149  0.3269
   18CHTO   H10 7563   5.165   8.253   1.037 -0.1021  1.5973  3.3472
   18CHTO   H11 7564   5.106   8.113   1.126 -1.3947 -0.6830  0.3814
   18CHTO    C7 7565   5.087   8.040   0.844 -0.1955 -0.5519 -0.2540
   18CHTO   H20 7566   5.135   7.977   0.921  0.7959  1.3921  0.7670
   18CHTO    O4 7567   4.993   7.959   0.757  0.0450  0.3151  0.4669
   18CHTO   C14 7568   4.891   8.030   0.688 -0.0847  0.0660  0.0674
   18CHTO   H27 7569   4.813   7.956   0.659 -1.0088  1.3336 -0.7444
   18CHTO   C18 7570   4.940   8.096   0.559  0.3819 -0.1026  0.0494
   18CHTO   O13 7571   4.840   8.160   0.488  0.3660  0.6840 -0.6762
   18CHTO    H7 7572   4.803   8.090   0.437 -0.4038 -0.4340  1.3696
   18CHTO    O2 7573   5.187   8.131   0.750 -0.6325  0.1035 -0.3052
   18CHTO    C1 7574   5.320   8.075   0.725 -0.0086  0.2495  0.5359
   18CHTO   H14 7575   5.366   8.120   0.635 -2.2402  1.6951  0.0811
   18CHTO    C2 7576   5.326   7.914   0.704  0.2504  0.3341 -0.6174
   18CHTO   H15 7577   5.280   7.872   0.795  0.9254  1.8670  0.4393
   18CHTO    O6 7578   5.251   7.877   0.586  0.1090  0.0109 -0.0633
   18CHTO    H1 7579   5.289   7.916   0.509 -0.0240 -0.4035 -0.3351
   18CHTO    C3 7580   5.475   7.877   0.686  0.2988 -0.2071 -0.4744
   18CHTO   H16 7581   5.520   7.930   0.601 -0.8565  0.3520 -0.7390
   18CHTO    N1 7582   5.499   7.733   0.658  0.4457  0.2079  0.3579
   18CHTO    H8 7583   5.506   7.673   0.747 -0.3987  1.8765  1.5741
   18CHTO    H9 7584   5.428   7.692   0.587  1.4057  0.1497 -0.5899
   18CHTO    C4 7585   5.553   7.919   0.805  0.0878 -0.2222  0.1597
   18CHTO   H17 7586   5.517   7.860   0.889  0.1950  0.0014  0.3660
   18CHTO    O1 7587   5.540   8.055   0.840  0.0408 -0.1547 -0.2063
   18CHTO    C5 7588   5.410   8.102   0.848 -0.3811 -0.5538 -0.3167
   18CHTO   H18 7589   5.362   8.056   0.934  0.6765  0.8157  1.0488
   18CHTO   C16 7590   5.420   8.260   0.865 -0.6527 -0.2095 -0.3106
   18CHTO   O11 7591   5.490   8.335   0.763  0.2860  0.0047 -0.0075
   18CHTO    H5 7592   5.577   8.298   0.764  0.4710  0.4139  2.2051
   18CHTO    O3 7593   5.700   7.916   0.789  0.1555 -0.0429 -0.2421
   18CHTO    C6 7594   5.778   7.901   0.913  1.0135  0.3643 -0.5967
   18CHTO   H19 7595   5.721   7.921   1.004  1.7799 -1.3426  0.2822
   18CHTO    C8 7596   5.826   7.751   0.926 -0.0864 -0.8714 -0.1673
   18CHTO   H21 7597   5.888   7.728   0.840  1.8389  2.0658  0.3386
   18CHTO    O7 7598   5.718   7.667   0.927  0.2786 -0.6053  0.0082
   18CHTO    H2 7599   5.664   7.671   0.851 -1.1721  0.1075  1.0698
   18CHTO   C12 7600   5.930   7.736   1.043  1.2195  0.3535  0.2624
   18CHTO   H25 7601   5.869   7.743   1.135 -0.2832  1.6881 -0.7882
   18CHTO    N3 7602   5.994   7.605   1.046  0.1544 -0.0214 -0.3706
   18CHTO   H12 7603   5.947   7.543   1.122  0.1609  0.6614  0.1889
   18CHTO   H13 7604   5.992   7.559   0.948  2.5634 -0.1952 -0.3466
   18CHTO   C15 7605   6.034   7.853   1.039  0.5144 -0.3648  0.1467
   18CHTO   H28 7606   6.107   7.840   0.960 -1.3934 -0.5629 -1.6344
   18CHTO   O10 7607   6.093   7.876   1.180 -0.0995  0.4855 -0.7500
   18CHTO    H4 7608   6.183   7.899   1.168 -0.5388  1.5196 -2.2405
   18CHTO    O5 7609   5.981   7.984   1.023  0.5320 -0.0187 -0.5951
   18CHTO   C10 7610   5.895   8.000   0.908 -0.2204 -0.0274 -0.5589
   18CHTO   H23 7611   5.962   7.990   0.822  0.5130  1.5954 -0.1857
   18CHTO   C17 7612   5.855   8.145   0.899  0.1119 -0.3628  0.6702
   18CHTO   O12 7613   5.812   8.187   0.765  0.2834 -0.2489  0.0216
   18CHTO    H6 7614   5.723   8.214   0.770  0.0003 -1.1243 -0.2563
   19CHTO  H203 7615   4.911   0.031   0.190 -1.0926 -0.3234 -0.2233
   19CHTO   O82 7616   4.973  -0.014   0.136 -0.3059 -0.2887  0.6366
   19CHTO  C123 7617   4.905  -0.113   0.053 -0.9543  0.6679  0.2296
   19CHTO  H227 7618   4.828  -0.070  -0.012 -2.5124 -0.7517  1.1128
   19CHTO   O77 7619   5.018  -0.172  -0.017 -0.5100  0.0539 -0.1226
   19CHTO  C118 7620   4.988  -0.267  -0.119  0.0955  0.4254 -0.0734
   19CHTO  H222 7621   4.915  -0.219  -0.186 -1.6691  0.3010  1.6969
   19CHTO  C125 7622   5.121  -0.305  -0.191  0.0267 -0.1847 -0.0498
   19CHTO   O84 7623   5.098  -0.328  -0.331 -0.3944 -0.1185  0.1514
   19CHTO  H205 7624   5.176  -0.307  -0.378  0.7642 -1.2835  1.4898
   19CHTO  C114 7625   4.921  -0.386  -0.041 -0.2371 -0.5006  0.4417
   19CHTO  H218 7626   4.994  -0.425   0.030 -0.5453  1.0904  1.6570
   19CHTO  C116 7627   4.790  -0.346   0.029 -0.9947 -0.0082 -0.8009
   19CHTO  H220 7628   4.714  -0.304  -0.040 -0.6886 -0.2744 -1.2995
   19CHTO   O79 7629   4.727  -0.459   0.102  0.0173 -0.1586  0.0072
   19CHTO  H201 7630   4.692  -0.517   0.038 -2.9113  1.9806 -0.4353
   19CHTO  C120 7631   4.832  -0.232   0.128  0.4587  0.1838 -0.6314
   19CHTO  H224 7632   4.902  -0.295   0.187 -1.3679 -0.4039  0.9708
   19CHTO   N21 7633   4.729  -0.183   0.218  0.1929 -0.1560  0.8337
   19CHTO  H211 7634   4.766  -0.183   0.319 -1.9623 -0.1361  1.6374
   19CHTO  H212 7635   4.703  -0.081   0.194  0.9652  0.1049  1.0928
   19CHTO   O75 7636   4.907  -0.487  -0.144  0.5411 -0.2512 -0.4245
   19CHTO  C112 7637   4.938  -0.639  -0.108  0.2587  0.9088 -0.4381
   19CHTO  H216 7638   4.939  -0.653   0.001  3.3339 -0.3359 -0.5740
   19CHTO   O73 7639   5.070  -0.652  -0.156 -0.3015  0.5325  0.4440
   19CHTO  C113 7640   5.128  -0.782  -0.147  0.0897 -0.6438  0.2078
   19CHTO  H217 7641   5.135  -0.817  -0.042 -0.5987  0.4149  0.6127
   19CHTO  C124 7642   5.274  -0.769  -0.194  0.1121 -0.1789 -0.4156
   19CHTO   O83 7643   5.358  -0.883  -0.167 -0.2640 -0.2191 -0.0459
   19CHTO  H204 7644   5.399  -0.909  -0.248  1.1362  0.1186  0.5573
   19CHTO  C109 7645   5.039  -0.890  -0.227  0.6371  0.7864  0.1041
   19CHTO  H213 7646   5.046  -0.865  -0.334 -0.0274 -0.3583 -0.2169
   19CHTO  C110 7647   4.892  -0.881  -0.185 -0.4280 -0.6289 -0.0869
   19CHTO  H214 7648   4.887  -0.920  -0.083  2.1483 -1.0912 -0.1070
   19CHTO   O78 7649   4.810  -0.954  -0.280  0.3342 -0.3288 -0.2522
   19CHTO  H200 7650   4.834  -1.044  -0.271  2.0134  0.1850  0.7230
   19CHTO  C111 7651   4.844  -0.737  -0.189  0.2924 -0.6046  0.4286
   19CHTO  H215 7652   4.860  -0.704  -0.293 -0.9304  0.8551  0.6890
   19CHTO   N19 7653   4.700  -0.709  -0.164 -0.6400 -0.0865 -0.0950
   19CHTO  H207 7654   4.630  -0.750  -0.236  0.0572  0.1759 -0.9242
   19CHTO  H208 7655   4.671  -0.743  -0.065  0.7980 -2.7568 -0.5533
   19CHTO   O74 7656   5.101  -1.028  -0.199  0.2527  0.1131 -0.5990
   19CHTO  C115 7657   5.100  -1.111  -0.335 -0.1525 -0.7852 -0.0188
   19CHTO  H219 7658   5.005  -1.103  -0.389  0.1222 -0.2251 -0.4230
   19CHTO   O76 7659   5.215  -1.060  -0.442 -0.2845  0.8122  0.1514
   19CHTO  C122 7660   5.349  -1.106  -0.414  0.0704 -0.1362 -0.3696
   19CHTO  H226 7661   5.379  -1.045  -0.329 -0.3729 -1.0808  0.4753
   19CHTO  C126 7662   5.429  -1.059  -0.531  0.1351  0.0367 -0.1749
   19CHTO   O85 7663   5.564  -1.051  -0.492  0.0268 -0.3286 -0.3058
   19CHTO  H206 7664   5.600  -0.991  -0.554 -0.4264 -1.2818 -1.5033
   19CHTO  C121 7665   5.357  -1.260  -0.397  0.5995 -0.0594 -0.2130
   19CHTO  H225 7666   5.417  -1.302  -0.480  1.1143  0.2498  0.0016
   19CHTO   O81 7667   5.438  -1.287  -0.285  0.1637  0.0230  0.3906
   19CHTO  H202 7668   5.526  -1.261  -0.307  0.5998 -0.4281  1.5656
   19CHTO  C119 7669   5.222  -1.333  -0.383 -0.8508  0.4594 -0.0577
   19CHTO  H223 7670   5.185  -1.333  -0.485  0.9027  0.3819 -0.7025
   19CHTO  C117 7671   5.125  -1.254  -0.285 -0.0321 -0.1904  0.9750
   19CHTO  H221 7672   5.172  -1.252  -0.186 -1.1424 -0.6565  1.5178
   19CHTO   N20 7673   4.996  -1.328  -0.267 -0.1414  0.1859  0.1733
   19CHTO  H209 7674   4.942  -1.294  -0.179 -0.6036 -0.8598  0.2974
   19CHTO  H210 7675   4.935  -1.327  -0.356 -1.3677 -1.9860  0.9569
   19CHTO   O80 7676   5.234  -1.495  -0.339  0.3265 -0.3855  0.1251
   19CHTO  C103 7677   5.302  -1.587  -0.440 -0.2540  0.3512  0.2136
   19CHTO  H190 7678   5.312  -1.528  -0.531  0.9853 -0.8351 -0.4457
   19CHTO  C101 7679   5.438  -1.661  -0.408  0.1095  0.1293 -0.0292
   19CHTO  H188 7680   5.430  -1.727  -0.322 -0.7951 -0.1726 -0.3443
   19CHTO   O68 7681   5.562  -1.544  -0.372 -0.3731 -0.2257  0.1830
   19CHTO  H168 7682   5.561  -1.538  -0.278  4.4037  0.6525  0.3390
   19CHTO   C99 7683   5.469  -1.750  -0.530  0.3702 -0.3211 -0.6947
   19CHTO  H186 7684   5.469  -1.682  -0.617  1.5371  0.7724  0.1400
   19CHTO   N17 7685   5.597  -1.832  -0.523  0.6074 -0.3167  0.4550
   19CHTO  H174 7686   5.643  -1.807  -0.428 -1.2684  2.7440  0.6400
   19CHTO  H175 7687   5.663  -1.833  -0.608  0.2023  1.1773  0.1195
   19CHTO   C97 7688   5.350  -1.849  -0.556 -0.0655  0.4638  0.2269
   19CHTO  H184 7689   5.349  -1.916  -0.469  4.1942 -1.8320 -1.3540
   19CHTO   O64 7690   5.224  -1.782  -0.582  0.3130 -0.3622  0.2207
   19CHTO  C104 7691   5.194  -1.696  -0.470 -0.9737 -0.2619  0.6505
   19CHTO  H191 7692   5.180  -1.756  -0.379  1.3515 -0.3307  0.9972
   19CHTO  C108 7693   5.058  -1.629  -0.507 -0.6009  0.4699  0.6289
   19CHTO   O71 7694   5.053  -1.577  -0.636  0.2798  0.0263 -0.0366
   19CHTO  H171 7695   4.968  -1.578  -0.675  1.2404 -0.0889 -2.2618
   19CHTO   O62 7696   5.364  -1.932  -0.678 -0.0608 -0.7647  0.3841
   19CHTO   C91 7697   5.288  -2.053  -0.688 -0.6279 -0.1148  0.3013
   19CHTO  H178 7698   5.211  -2.042  -0.611  0.3366 -1.7730  1.5304
   19CHTO   C92 7699   5.378  -2.173  -0.661 -0.5374  0.3169 -0.0985
   19CHTO  H179 7700   5.464  -2.173  -0.730 -2.2462 -1.7575 -2.3089
   19CHTO   O66 7701   5.424  -2.157  -0.526  0.3510 -0.7229  0.0904
   19CHTO  H166 7702   5.444  -2.067  -0.511 -2.3190 -0.2071  0.7253
   19CHTO   C93 7703   5.303  -2.315  -0.673 -0.5031 -0.3718  0.2693
   19CHTO  H180 7704   5.234  -2.328  -0.588 -3.3643 -0.9738 -2.0377
   19CHTO   N16 7705   5.391  -2.438  -0.665 -0.2143  0.3944 -0.5424
   19CHTO  H172 7706   5.493  -2.416  -0.635 -0.2744  1.2458 -0.9501
   19CHTO  H173 7707   5.390  -2.500  -0.753  1.7245 -1.1421  0.4487
   19CHTO   C94 7708   5.214  -2.323  -0.798  0.6318 -0.4880 -0.2570
   19CHTO  H181 7709   5.272  -2.341  -0.888  1.8686 -2.2388  0.8440
   19CHTO   O61 7710   5.151  -2.205  -0.817 -0.3402 -0.1506 -0.4768
   19CHTO   C95 7711   5.230  -2.090  -0.830 -0.0191  0.5825  0.1266
   19CHTO  H182 7712   5.310  -2.112  -0.900 -1.2971 -1.7831 -0.6237
   19CHTO  C106 7713   5.145  -1.976  -0.891 -0.0145  0.3211  0.1206
   19CHTO   O69 7714   5.087  -1.992  -1.022  0.3358  0.2658  0.5495
   19CHTO  H169 7715   5.021  -2.058  -1.025 -1.0673  1.6569 -0.0479
   19CHTO   O63 7716   5.090  -2.439  -0.772 -0.3007 -0.5808  0.2878
   19CHTO   C96 7717   5.003  -2.478  -0.912  0.3825  0.0638  0.2355
   19CHTO  H183 7718   5.076  -2.519  -0.983  0.0340 -0.7752  0.3534
   19CHTO   C98 7719   4.914  -2.360  -0.976  0.1823  0.0994  0.5432
   19CHTO  H185 7720   4.979  -2.272  -0.995  1.2062 -1.1243 -1.8740
   19CHTO   O67 7721   4.863  -2.398  -1.104  0.2140 -0.0612 -0.5928
   19CHTO  H167 7722   4.927  -2.364  -1.164 -0.1076  0.9500 -0.3697
   19CHTO  C102 7723   4.785  -2.318  -0.884 -0.4047 -0.1725  0.0099
   19CHTO  H189 7724   4.716  -2.267  -0.953  0.6169  1.8321  0.4328
   19CHTO   N18 7725   4.817  -2.222  -0.775 -0.1237 -0.5320  0.3065
   19CHTO  H176 7726   4.835  -2.276  -0.683  1.2765  0.8978  0.8795
   19CHTO  H177 7727   4.733  -2.155  -0.764 -0.5971 -0.6573 -2.2846
   19CHTO  C105 7728   4.718  -2.450  -0.839  0.0102  0.5038 -0.6843
   19CHTO  H192 7729   4.748  -2.467  -0.735 -1.3127 -2.8321 -0.8068
   19CHTO   O65 7730   4.761  -2.574  -0.906  0.2370  0.2925 -0.3517
   19CHTO  C100 7731   4.901  -2.598  -0.870  0.1127  1.2117 -0.5544
   19CHTO  H187 7732   4.910  -2.609  -0.761  2.9359 -1.5609 -0.9968
   19CHTO  C107 7733   4.942  -2.738  -0.924  0.1233  0.8075 -0.1376
   19CHTO   O70 7734   4.946  -2.731  -1.069  0.2076  0.1402 -0.1712
   19CHTO  H170 7735   4.949  -2.820  -1.100 -3.2200 -0.6770  1.5420
   19CHTO   O57 7736   4.564  -2.424  -0.847  0.0815  0.1152 -0.0178
   19CHTO   C85 7737   4.469  -2.507  -0.781 -0.0649  0.8481 -0.5251
   19CHTO  H157 7738   4.518  -2.553  -0.693  0.2285 -0.5402 -1.4116
   19CHTO   C83 7739   4.426  -2.636  -0.864 -0.4137 -0.6712  0.5930
   19CHTO  H155 7740   4.509  -2.701  -0.889  0.3372 -0.4169  2.3068
   19CHTO   O56 7741   4.386  -2.591  -0.990 -0.2968 -0.4065  0.7627
   19CHTO  H135 7742   4.329  -2.516  -0.980 -0.9262 -0.6068 -0.9957
   19CHTO   C81 7743   4.326  -2.720  -0.782  0.0251 -0.0575  0.0819
   19CHTO  H153 7744   4.376  -2.753  -0.691  1.0414  2.0084  0.3040
   19CHTO   N14 7745   4.277  -2.846  -0.847 -0.2384 -0.1956 -0.1947
   19CHTO  H141 7746   4.353  -2.917  -0.871 -0.0548 -0.9083  2.4446
   19CHTO  H142 7747   4.215  -2.831  -0.934  1.4121 -0.4063 -1.4333
   19CHTO   C79 7748   4.203  -2.627  -0.734  0.4893  0.2126  0.1261
   19CHTO  H151 7749   4.136  -2.685  -0.671 -1.3014 -0.7040 -2.5448
   19CHTO   O52 7750   4.245  -2.516  -0.655 -0.1108 -0.4106  0.0412
   19CHTO   C86 7751   4.335  -2.431  -0.741 -0.7237  0.3275 -0.9679
   19CHTO  H158 7752   4.277  -2.406  -0.833 -3.5186 -0.3696  0.5494
   19CHTO   C90 7753   4.358  -2.298  -0.676 -0.1510 -0.1494  0.3124
   19CHTO   O60 7754   4.416  -2.201  -0.767 -0.6870 -0.1421  0.0327
   19CHTO  H138 7755   4.413  -2.117  -0.726 -0.5192 -1.1477  2.1821
   19CHTO   O50 7756   4.123  -2.586  -0.846  0.2641  0.7583  0.0286
   19CHTO   C73 7757   3.986  -2.572  -0.890 -0.0909  0.1634  0.2189
   19CHTO  H145 7758   3.935  -2.669  -0.891 -0.9493  0.6099  0.7269
   19CHTO   C74 7759   3.984  -2.509  -1.034  0.0313  0.0551 -0.4147
   19CHTO  H146 7760   4.045  -2.580  -1.091 -1.0553 -2.1068  1.0649
   19CHTO   O54 7761   3.842  -2.517  -1.082 -0.6508  0.0832 -0.1674
   19CHTO  H133 7762   3.843  -2.523  -1.175 -0.0426 -0.9586 -0.1038
   19CHTO   C75 7763   4.039  -2.363  -1.034 -0.2852  0.1782  0.1214
   19CHTO  H147 7764   4.147  -2.367  -1.015 -0.4229  0.9377  1.0702
   19CHTO   N13 7765   4.033  -2.287  -1.162  0.5235 -0.3924  0.1749
   19CHTO  H139 7766   4.053  -2.182  -1.146  0.4833 -0.1288 -1.4474
   19CHTO  H140 7767   3.943  -2.302  -1.219  1.8919  1.8717 -2.6843
   19CHTO   C76 7768   3.984  -2.275  -0.906 -0.2810 -0.2486 -0.5123
   19CHTO  H148 7769   3.887  -2.229  -0.924  0.5445  1.5408 -0.4559
   19CHTO   O49 7770   3.975  -2.347  -0.785  0.3584 -0.1298  0.4801
   19CHTO   C77 7771   3.911  -2.470  -0.797  0.3455 -0.1265 -0.0838
   19CHTO  H149 7772   3.811  -2.454  -0.837  0.6673 -1.6824 -1.5368
   19CHTO   C88 7773   3.877  -2.534  -0.658  0.3890  0.6865  0.2519
   19CHTO   O58 7774   3.788  -2.452  -0.573  0.0382 -0.3008 -0.0097
   19CHTO  H136 7775   3.838  -2.383  -0.534 -2.5904  1.2801  0.7212
   19CHTO   O51 7776   4.080  -2.166  -0.883 -0.5051  0.1199 -0.0712
   19CHTO   C78 7777   4.044  -2.020  -0.837 -0.4272 -0.1823 -0.8428
   19CHTO  H150 7778   3.933  -2.012  -0.838 -0.6183 -2.3258 -1.6127
   19CHTO   C80 7779   4.106  -1.923  -0.931 -0.3021 -0.2517  0.4106
   19CHTO  H152 7780   4.211  -1.955  -0.945 -0.5410  0.6065 -4.1690
   19CHTO   O55 7781   4.044  -1.940  -1.061 -0.4594 -0.2491 -0.3694
   19CHTO  H134 7782   4.073  -1.880  -1.127 -0.7735  0.1489 -0.1497
   19CHTO   C84 7783   4.094  -1.771  -0.881 -0.2989  0.0191 -0.1254
   19CHTO  H156 7784   3.994  -1.735  -0.901 -0.2120 -0.6016 -1.7903
   19CHTO   N15 7785   4.190  -1.676  -0.954 -0.2707  0.5464  0.2409
   19CHTO  H143 7786   4.293  -1.701  -0.942 -0.5676 -1.8192 -1.8784
   19CHTO  H144 7787   4.170  -1.680  -1.059 -0.4599 -1.3192  0.3379
   19CHTO   C87 7788   4.117  -1.755  -0.729 -0.3205  0.0624 -0.4051
   19CHTO  H159 7789   4.223  -1.776  -0.716 -0.5422 -0.7636  0.1085
   19CHTO   O53 7790   4.042  -1.858  -0.661  0.0876 -0.4034  0.3441
   19CHTO   C82 7791   4.089  -1.991  -0.692 -0.0978 -0.4030 -0.5444
   19CHTO  H154 7792   4.197  -1.991  -0.691 -0.1000  0.1814  0.7660
   19CHTO   C89 7793   4.037  -2.096  -0.583  0.4458 -0.2241  0.0597
   19CHTO   O59 7794   3.892  -2.113  -0.588  0.1687 -0.4815 -0.7627
   19CHTO  H137 7795   3.886  -2.206  -0.578 -1.1289 -0.0767  3.0447
   19CHTO   O45 7796   4.063  -1.599  -0.671 -0.3318 -0.0012  0.6636
   19CHTO   C67 7797   4.103  -1.557  -0.537 -0.4271  0.2808 -0.6361
   19CHTO  H124 7798   4.191  -1.613  -0.506  0.4180  1.4040 -0.9820
   19CHTO   C65 7799   4.133  -1.402  -0.540  0.2510 -0.3388  0.7276
   19CHTO  H122 7800   4.210  -1.394  -0.616 -1.3823  2.2602 -0.7303
   19CHTO   O44 7801   4.188  -1.344  -0.425  0.3365 -0.5243 -0.2130
   19CHTO  H102 7802   4.251  -1.280  -0.451 -0.3908 -0.3606 -1.6121
   19CHTO   C63 7803   3.992  -1.334  -0.588 -0.3929 -0.5737  0.1591
   19CHTO  H120 7804   3.954  -1.388  -0.675  0.9267 -0.8283 -0.2687
   19CHTO   N11 7805   4.011  -1.195  -0.651 -0.0157  0.4105  0.1613
   19CHTO  H108 7806   4.054  -1.131  -0.576 -1.8883  3.5274 -1.2776
   19CHTO  H109 7807   4.075  -1.203  -0.736 -1.2880  2.0806 -0.9942
   19CHTO   C61 7808   3.890  -1.345  -0.480  0.5991 -0.6884 -0.2911
   19CHTO  H118 7809   3.799  -1.314  -0.534 -0.4503 -0.4990  1.5492
   19CHTO   O40 7810   3.873  -1.483  -0.448 -0.0496 -0.2693 -0.2466
   19CHTO   C68 7811   3.987  -1.582  -0.434  0.0432 -0.0785  0.3805
   19CHTO  H125 7812   3.949  -1.685  -0.450  0.0460 -0.0585  0.2402
   19CHTO   C72 7813   4.023  -1.569  -0.283 -0.2598  0.6523  0.4061
   19CHTO   O48 7814   3.939  -1.637  -0.191  0.3475 -0.2485  1.0906
   19CHTO  H105 7815   3.944  -1.728  -0.215  0.2188  0.3659 -1.4028
   19CHTO   O38 7816   3.895  -1.271  -0.356 -0.0962  0.5371  0.2367
   19CHTO   C55 7817   3.775  -1.214  -0.302  0.6364  1.0125  0.1625
   19CHTO  H112 7818   3.694  -1.269  -0.352  0.8800  0.8065 -0.0089
   19CHTO   C56 7819   3.762  -1.061  -0.321  0.5723  0.5615  0.1149
   19CHTO  H113 7820   3.840  -1.011  -0.263  2.4395 -1.4514 -0.5916
   19CHTO   O42 7821   3.798  -1.024  -0.456  0.2315 -0.4706 -0.0992
   19CHTO  H100 7822   3.798  -0.930  -0.459  2.7509 -0.3959  1.1068
   19CHTO   C57 7823   3.627  -1.013  -0.273  0.1315  0.1095 -0.2189
   19CHTO  H114 7824   3.558  -1.052  -0.348  1.2048 -1.3514 -0.4547
   19CHTO   N10 7825   3.614  -0.868  -0.284  0.0656  0.1986  0.0873
   19CHTO  H106 7826   3.568  -0.851  -0.380 -0.2891  1.2496  0.4360
   19CHTO  H107 7827   3.710  -0.819  -0.291  0.3441 -0.3299  0.1272
   19CHTO   C58 7828   3.593  -1.062  -0.128  0.3271 -0.4231 -0.9820
   19CHTO  H115 7829   3.627  -0.987  -0.053 -0.1379 -1.1087 -0.0652
   19CHTO   O37 7830   3.644  -1.187  -0.088  0.6652 -0.1564 -0.2297
   19CHTO   C59 7831   3.762  -1.252  -0.151  0.4585  0.1679  0.4300
   19CHTO  H116 7832   3.856  -1.244  -0.097  1.4443 -2.8105 -0.7076
   19CHTO   C70 7833   3.732  -1.398  -0.140  0.6547 -0.0830  0.1817
   19CHTO   O46 7834   3.718  -1.436   0.001  0.2814  0.4299  0.2416
   19CHTO  H103 7835   3.690  -1.526   0.006  3.2223 -0.5846 -0.3972
   19CHTO   O39 7836   3.419  -1.077  -0.105  0.2826  0.7276  0.0419
   19CHTO   C60 7837   3.364  -1.182  -0.189 -0.4385 -0.2646  0.3952
   19CHTO  H117 7838   3.436  -1.192  -0.270 -1.6372 -1.4837 -0.5513
   19CHTO   C62 7839   3.337  -1.320  -0.120  0.3681  0.5393  0.1281
   19CHTO  H119 7840   3.429  -1.350  -0.065 -0.4209 -1.0649  0.6147
   19CHTO   O43 7841   3.231  -1.311  -0.020  0.1169  0.0380  0.5343
   19CHTO  H101 7842   3.251  -1.231   0.024  1.1995 -0.3202  0.7105
   19CHTO   C66 7843   3.315  -1.435  -0.232 -0.1442  0.4728  0.0095
   19CHTO  H123 7844   3.402  -1.430  -0.296 -0.5521  2.0211 -0.4614
   19CHTO   N12 7845   3.323  -1.569  -0.169 -0.3982  0.6460  0.1246
   19CHTO  H110 7846   3.285  -1.565  -0.068  0.8245 -2.3496  0.7745
   19CHTO  H111 7847   3.422  -1.613  -0.171 -1.5144 -2.0335  1.1869
   19CHTO   C69 7848   3.182  -1.402  -0.312 -0.2846  0.5644  1.0999
   19CHTO  H126 7849   3.095  -1.453  -0.265 -0.6793  0.1965 -0.0202
   19CHTO   O41 7850   3.164  -1.244  -0.344 -0.6101  0.2232 -0.2739
   19CHTO   C64 7851   3.237  -1.134  -0.254 -0.1292 -0.2706  0.3508
   19CHTO  H121 7852   3.171  -1.098  -0.173 -0.3977  1.4708 -0.6165
   19CHTO   C71 7853   3.255  -1.010  -0.346 -0.4400  0.6167 -0.4942
   19CHTO   O47 7854   3.309  -1.047  -0.468  0.1358 -0.2933 -0.1894
   19CHTO  H104 7855   3.275  -1.127  -0.504  0.8618 -0.1164 -1.3020
   19CHTO   O34 7856   3.196  -1.462  -0.440  0.0864  0.6054  0.0565
   19CHTO   C49 7857   3.312  -1.443  -0.543  0.6953  0.1818  0.5781
   19CHTO   H91 7858   3.367  -1.360  -0.498  0.6867  0.3269  0.3270
   19CHTO   C47 7859   3.239  -1.398  -0.669 -0.0945 -0.6935  0.6000
   19CHTO   H89 7860   3.324  -1.361  -0.730 -0.1346  0.2274  1.0858
   19CHTO   O33 7861   3.142  -1.294  -0.645  0.2396  0.2003 -0.1865
   19CHTO   H70 7862   3.063  -1.321  -0.603 -1.2013  1.3747 -2.0508
   19CHTO   C45 7863   3.171  -1.525  -0.742  0.4679  0.5221 -0.0736
   19CHTO   H87 7864   3.091  -1.564  -0.678 -1.4057  1.1682 -1.9719
   19CHTO    N8 7865   3.104  -1.487  -0.873 -0.1755  0.2621 -0.4508
   19CHTO   H75 7866   3.084  -1.572  -0.936 -1.3520 -1.1814  1.8126
   19CHTO   H76 7867   3.151  -1.404  -0.925  2.0751  0.0269  1.1279
   19CHTO   C43 7868   3.277  -1.641  -0.764 -0.3393 -0.2491 -0.7674
   19CHTO   H85 7869   3.218  -1.723  -0.805  1.2493 -1.3328 -0.9380
   19CHTO   O29 7870   3.337  -1.674  -0.637 -0.1268 -0.1589  0.1959
   19CHTO   C50 7871   3.401  -1.577  -0.555  0.3944  0.0584 -0.0776
   19CHTO   H92 7872   3.407  -1.616  -0.452  0.2271 -1.0036 -0.4653
   19CHTO   C54 7873   3.535  -1.554  -0.615  0.2898  0.8088 -0.1935
   19CHTO   O36 7874   3.591  -1.439  -0.548  0.3757  0.2176 -0.0401
   19CHTO   H72 7875   3.665  -1.413  -0.599  0.6218 -1.0999 -0.3801
   19CHTO   O27 7876   3.375  -1.626  -0.863 -0.0147 -0.1902 -0.0690
   19CHTO   C37 7877   3.424  -1.702  -0.977 -0.2179  0.0145 -0.1094
   19CHTO   H79 7878   3.439  -1.810  -0.968  0.4758 -0.0374 -1.5818
   19CHTO   C38 7879   3.322  -1.688  -1.099  0.3639  0.0470 -0.1824
   19CHTO   H80 7880   3.313  -1.581  -1.125 -0.4993 -0.3531 -1.5604
   19CHTO   O31 7881   3.187  -1.725  -1.061  0.2117 -0.6524  0.5950
   19CHTO   H68 7882   3.185  -1.815  -1.034  1.4948 -0.8183  0.2015
   19CHTO   C39 7883   3.379  -1.754  -1.225 -0.6156 -0.0583  0.4603
   19CHTO   H81 7884   3.382  -1.861  -1.205  0.8456  0.1084  1.1934
   19CHTO    N7 7885   3.304  -1.746  -1.351  0.3503 -0.2543 -0.4585
   19CHTO   H73 7886   3.221  -1.815  -1.359  0.5595 -0.8953  2.2288
   19CHTO   H74 7887   3.284  -1.640  -1.363 -1.0652 -0.2920  1.2226
   19CHTO   C40 7888   3.530  -1.714  -1.253  0.6120  0.5766  0.7726
   19CHTO   H82 7889   3.533  -1.612  -1.290  0.0027 -0.4936 -2.4167
   19CHTO   O26 7890   3.606  -1.725  -1.133  0.0408  0.1045 -0.8744
   19CHTO   C41 7891   3.553  -1.642  -1.025 -0.4102  0.7922  0.4634
   19CHTO   H83 7892   3.524  -1.540  -1.052 -2.1398 -0.2502 -1.7510
   19CHTO   C52 7893   3.663  -1.640  -0.921  0.2718  0.0138  0.5431
   19CHTO   O35 7894   3.700  -1.790  -0.851 -0.1208 -0.3494  0.2678
   19CHTO   H71 7895   3.738  -1.847  -0.915 -2.0619 -0.3872 -0.9076
   19CHTO   O28 7896   3.593  -1.808  -1.339  0.0667 -0.0684  0.2220
   19CHTO   C42 7897   3.726  -1.805  -1.399  0.4859  0.1280 -0.9853
   19CHTO   H84 7898   3.794  -1.777  -1.319  0.8035  1.1105 -1.5825
   19CHTO   C44 7899   3.746  -1.708  -1.513 -0.2427 -0.3009 -0.6727
   19CHTO   H86 7900   3.686  -1.733  -1.601 -0.1660 -0.8990 -0.5545
   19CHTO   O32 7901   3.701  -1.576  -1.465 -0.3691 -0.0131  0.0822
   19CHTO   H69 7902   3.773  -1.517  -1.465  2.2598 -3.0535  0.2478
   19CHTO   C48 7903   3.890  -1.709  -1.557 -0.6106  0.2264  0.2702
   19CHTO   H90 7904   3.952  -1.677  -1.473  0.9634  1.7085 -1.4197
   19CHTO    N9 7905   3.923  -1.610  -1.673 -0.0693 -0.0767 -0.5241
   19CHTO   H77 7906   3.889  -1.655  -1.765  1.4569 -3.2336  0.3592
   19CHTO   H78 7907   4.029  -1.593  -1.677  0.2048 -0.8188  2.1558
   19CHTO   C51 7908   3.942  -1.858  -1.593  0.7552  0.8121  0.2686
   19CHTO   H93 7909   3.874  -1.882  -1.675 -2.4233  0.4670  2.9107
   19CHTO   O30 7910   3.925  -1.951  -1.490  0.3597  0.4126  0.2796
   19CHTO   C46 7911   3.765  -1.952  -1.448  0.1969 -0.1918 -0.4119
   19CHTO   H88 7912   3.710  -1.971  -1.540 -1.1968 -0.3664  0.4455
   19CHTO   C53 7913   3.733  -2.064  -1.343 -0.3051  0.1079 -0.0422
   19CHTO   O72 7914   3.595  -2.095  -1.336  0.0927 -0.4947 -0.3561
   19CHTO  H199 7915   3.582  -2.176  -1.292  0.7786 -0.3878  0.0521
   19CHTO   O22 7916   4.085  -1.862  -1.631 -0.3482 -0.5464  0.5233
   19CHTO   C31 7917   4.132  -1.966  -1.713  0.0932  0.8419 -1.2753
   19CHTO   H59 7918   4.067  -2.055  -1.701  0.1005  0.9444 -0.4229
   19CHTO   C29 7919   4.132  -1.928  -1.863  0.0859 -0.0838 -0.1413
   19CHTO   H57 7920   4.194  -1.837  -1.859 -1.7513  1.1716  0.8429
   19CHTO   O21 7921   4.000  -1.894  -1.915  0.0555 -0.1845 -0.2909
   19CHTO   H37 7922   3.934  -1.956  -1.891 -0.3448 -0.0635 -1.0474
   19CHTO   C27 7923   4.207  -2.034  -1.958  0.1269 -0.4101 -0.1378
   19CHTO   H55 7924   4.141  -2.122  -1.966 -0.6585  0.1951 -0.4334
   19CHTO    N5 7925   4.229  -1.970  -2.097 -0.2617  0.6973 -0.1511
   19CHTO   H43 7926   4.188  -2.040  -2.168 -0.8685 -1.3012  2.0895
   19CHTO   H44 7927   4.205  -1.867  -2.116 -1.7352  0.2924 -0.5228
   19CHTO   C25 7928   4.336  -2.089  -1.884  0.4355  0.0985  0.0106
   19CHTO   H53 7929   4.415  -2.012  -1.880  0.7169 -0.1631 -0.5912
   19CHTO   O17 7930   4.299  -2.128  -1.747 -0.6610  0.4113 -0.4711
   19CHTO   C32 7931   4.272  -2.015  -1.660 -0.3850 -0.7919 -1.0742
   19CHTO   H60 7932   4.340  -1.930  -1.661  0.9711 -1.8128  1.3364
   19CHTO   C36 7933   4.269  -2.051  -1.507 -0.4800 -0.5329 -0.0387
   19CHTO   O25 7934   4.251  -1.928  -1.436  0.5868  0.2725 -0.0342
   19CHTO   H40 7935   4.298  -1.938  -1.356  3.4746 -0.7634 -1.7961
   19CHTO   O15 7936   4.399  -2.195  -1.958 -0.5420  0.5702  0.1807
   19CHTO   C19 7937   4.509  -2.299  -1.954  0.4131  0.1127 -0.1875
   19CHTO   H47 7938   4.520  -2.323  -2.061  1.3233 -3.2205  0.5863
   19CHTO   C20 7939   4.649  -2.248  -1.909 -0.3512 -0.3326 -0.1326
   19CHTO   H48 7940   4.654  -2.227  -1.801  0.7786 -2.8921  0.3578
   19CHTO   O19 7941   4.683  -2.130  -1.981 -0.4032 -0.2597 -0.1167
   19CHTO   H35 7942   4.614  -2.067  -1.976  0.2632  0.4096  0.6747
   19CHTO   C21 7943   4.758  -2.365  -1.930  0.0421 -0.1596 -0.0867
   19CHTO   H49 7944   4.758  -2.388  -2.036  2.3595  0.7421 -0.3027
   19CHTO    N4 7945   4.894  -2.319  -1.891 -0.3356  0.5236  0.1117
   19CHTO   H41 7946   4.968  -2.361  -1.957  0.8066  1.3713  0.8302
   19CHTO   H42 7947   4.920  -2.351  -1.791 -2.7026 -2.2243 -0.0752
   19CHTO   C22 7948   4.710  -2.493  -1.861  0.6572  0.4024  0.3180
   19CHTO   H50 7949   4.716  -2.487  -1.752 -0.0524 -1.4728  0.4769
   19CHTO   O14 7950   4.574  -2.523  -1.892  0.3098  0.0756 -0.2976
   19CHTO   C23 7951   4.466  -2.431  -1.878  0.0968 -0.7360 -1.1946
   19CHTO   H51 7952   4.452  -2.406  -1.772  1.4694  1.2744 -1.4340
   19CHTO   C34 7953   4.344  -2.492  -1.941 -0.1452 -0.5973 -0.0788
   19CHTO   O23 7954   4.328  -2.628  -1.895 -0.3921 -0.4768 -0.1732
   19CHTO   H38 7955   4.274  -2.685  -1.947  0.7124 -1.8854  0.1874
   19CHTO   O16 7956   4.795  -2.605  -1.904  0.2673 -0.3043 -0.5285
   19CHTO   C24 7957   4.759  -2.724  -2.022 -0.3869  0.1264  0.5854
   19CHTO   H52 7958   4.846  -2.784  -2.048 -0.1502  0.5125  0.4821
   19CHTO   C26 7959   4.703  -2.657  -2.149 -0.2863 -0.2206 -0.8581
   19CHTO   H54 7960   4.604  -2.617  -2.118 -0.2734 -1.0827  0.3372
   19CHTO   O20 7961   4.782  -2.554  -2.207  0.1494  0.1154 -0.1313
   19CHTO   H36 7962   4.754  -2.534  -2.294  1.5390 -1.9076 -1.0682
   19CHTO   C30 7963   4.663  -2.768  -2.252 -0.2493 -0.3829  0.1258
   19CHTO   H58 7964   4.749  -2.828  -2.283 -1.0141 -0.8866 -1.0805
   19CHTO    N6 7965   4.604  -2.715  -2.382 -0.2109  0.1208  0.3813
   19CHTO   H45 7966   4.498  -2.733  -2.390 -1.1363  4.2644  2.2430
   19CHTO   H46 7967   4.659  -2.762  -2.463 -0.3361 -1.2827  1.0901
   19CHTO   C33 7968   4.570  -2.873  -2.182 -0.0658 -0.2150 -0.0161
   19CHTO   H61 7969   4.475  -2.824  -2.155  0.1245  1.2544 -1.9514
   19CHTO   O18 7970   4.624  -2.925  -2.058  0.4169  0.6782 -0.2353
   19CHTO   C28 7971   4.651  -2.819  -1.965 -1.1330 -0.0496  0.3010
   19CHTO   H56 7972   4.562  -2.760  -1.942 -1.9930 -0.5772 -1.6036
   19CHTO   C35 7973   4.704  -2.880  -1.839 -0.0348  0.3160  0.6916
   19CHTO   O24 7974   4.600  -2.942  -1.766 -0.4472  0.1532 -0.1394
   19CHTO   H39 7975   4.653  -2.986  -1.701  0.8240 -2.0184 -2.5682
   19CHTO    O9 7976   4.533  -2.985  -2.267  0.2116  0.2393  0.0609
   19CHTO   C13 7977   4.368  -3.021  -2.262 -0.0357 -0.4544 -0.7446
   19CHTO   H26 7978   4.303  -2.933  -2.278  2.1648  1.7706  1.9284
   19CHTO   C11 7979   4.337  -3.088  -2.122  0.0013 -0.1785 -0.6107
   19CHTO   H24 7980   4.319  -2.995  -2.064 -1.8062  0.8559 -2.7357
   19CHTO    O8 7981   4.438  -3.173  -2.069  0.5653  0.7317  0.1108
   19CHTO    H3 7982   4.497  -3.119  -2.020  2.5939  1.3010 -2.8406
   19CHTO    C9 7983   4.198  -3.156  -2.139 -0.5290  1.1556 -0.6157
   19CHTO   H22 7984   4.133  -3.082  -2.188 -1.2300  2.8774  2.7801
   19CHTO    N2 7985   4.134  -3.194  -2.011  0.0373 -0.0596  0.0787
   19CHTO   H10 7986   4.148  -3.146  -1.915 -1.0007 -0.6923  0.5580
   19CHTO   H11 7987   4.050  -3.261  -2.013 -1.6657  2.0071  0.6976
   19CHTO    C7 7988   4.218  -3.284  -2.236 -0.2579  0.3564 -0.9830
   19CHTO   H20 7989   4.117  -3.296  -2.282 -0.3963 -1.0835 -0.3202
   19CHTO    O4 7990   4.305  -3.249  -2.348  0.2837  0.8276  0.4474
   19CHTO   C14 7991   4.330  -3.114  -2.387  0.3922  0.2118  0.3619
   19CHTO   H27 7992   4.237  -3.073  -2.433 -0.3850 -1.2162  0.6413
   19CHTO   C18 7993   4.443  -3.106  -2.496 -0.6185 -0.4922 -0.5986
   19CHTO   O13 7994   4.472  -2.970  -2.542  0.8661 -0.5724  0.2034
   19CHTO    H7 7995   4.507  -2.919  -2.471  1.4532  0.0902 -0.5577
   19CHTO    O2 7996   4.265  -3.416  -2.165  0.5363 -0.4628 -0.8396
   19CHTO    C1 7997   4.204  -3.537  -2.212  0.1169  0.0965 -0.4682
   19CHTO   H14 7998   4.201  -3.542  -2.323 -1.2721 -0.1556 -0.4277
   19CHTO    C2 7999   4.055  -3.560  -2.159  0.5567  0.3972 -0.5575
   19CHTO   H15 8000   4.052  -3.533  -2.052  0.2059  1.1071 -0.7450
   19CHTO    O6 8001   3.963  -3.477  -2.236 -0.2121  0.8274 -0.2664
   19CHTO    H1 8002   3.990  -3.388  -2.243 -1.6398  1.3824  1.0500
   19CHTO    C3 8003   4.019  -3.720  -2.171 -0.9606 -0.1154 -0.1161
   19CHTO   H16 8004   3.999  -3.759  -2.272 -2.1849 -1.5407  0.6512
   19CHTO    N1 8005   3.881  -3.737  -2.110  0.2846  0.0977 -0.0961
   19CHTO    H8 8006   3.808  -3.670  -2.152  0.6679  0.9297  0.5549
   19CHTO    H9 8007   3.882  -3.719  -2.003  0.8845  2.9093 -0.5508
   19CHTO    C4 8008   4.141  -3.805  -2.109  0.1396 -0.5106 -0.4520
   19CHTO   H17 8009   4.162  -3.774  -2.006 -1.5668 -0.9441  0.0492
   19CHTO    O1 8010   4.256  -3.782  -2.185 -0.6224  0.4059 -0.0811
   19CHTO    C5 8011   4.309  -3.647  -2.167 -0.5988 -0.9949  0.6183
   19CHTO   H18 8012   4.342  -3.630  -2.064  0.7323 -0.8616  0.1866
   19CHTO   C16 8013   4.429  -3.636  -2.264 -0.2287 -0.1106 -0.1423
   19CHTO   O11 8014   4.533  -3.721  -2.202 -0.5313  0.3042 -0.2218
   19CHTO    H5 8015   4.518  -3.809  -2.231 -0.4370  0.4949 -0.8426
   19CHTO    O3 8016   4.103  -3.943  -2.116  0.1793 -0.6849  0.2809
   19CHTO    C6 8017   4.100  -4.011  -1.986  0.7925 -1.0826  0.0776
   19CHTO   H19 8018   4.083  -3.931  -1.914  2.7879 -0.8426  0.3025
   19CHTO    C8 8019   3.989  -4.120  -1.975 -0.1251  0.6611  0.3561
   19CHTO   H21 8020   4.001  -4.187  -2.061  0.3875 -1.3675  1.9839
   19CHTO    O7 8021   3.861  -4.056  -1.992  0.2114  0.4849  0.0423
   19CHTO    H2 8022   3.860  -3.986  -1.930 -1.6783  1.6646 -1.2705
   19CHTO   C12 8023   3.991  -4.194  -1.842 -0.2490  0.6057  0.3320
   19CHTO   H25 8024   3.965  -4.122  -1.761 -3.8680 -0.8488  0.5782
   19CHTO    N3 8025   3.885  -4.298  -1.823 -0.1401  0.4835 -0.0619
   19CHTO   H12 8026   3.788  -4.267  -1.860  0.4302  1.5527 -0.6776
   19CHTO   H13 8027   3.911  -4.390  -1.873  0.7347  0.3600  0.6183
   19CHTO   C15 8028   4.131  -4.243  -1.813 -0.3346  0.3123  0.6385
   19CHTO   H28 8029   4.161  -4.321  -1.884 -0.7572  0.2229  0.5554
   19CHTO   O10 8030   4.160  -4.292  -1.680 -0.0769  0.1873  0.9123
   19CHTO    H4 8031   4.137  -4.382  -1.665  2.1906 -0.0741  3.1515
   19CHTO    O5 8032   4.223  -4.135  -1.819  0.3677 -0.0818  0.9104
   19CHTO   C10 8033   4.237  -4.074  -1.947  0.5458 -0.1883 -0.3199
   19CHTO   H23 8034   4.251  -4.152  -2.021  1.2731 -3.3585  3.0133
   19CHTO   C17 8035   4.363  -3.989  -1.953 -0.5405  0.2434  0.2654
   19CHTO   O12 8036   4.344  -3.877  -1.870  0.1613 -0.0544  0.2339
   19CHTO    H6 8037   4.419  -3.872  -1.814  0.8124  1.2640 -0.7537
   20CHTO  H203 8038   4.706   0.984   2.585 -1.7299  1.9645  3.6987
   20CHTO   O82 8039   4.776   1.047   2.592  0.4529  0.2407 -0.8659
   20CHTO  C123 8040   4.784   1.126   2.470 -0.4464  0.2003 -0.6655
   20CHTO  H227 8041   4.686   1.176   2.456 -0.3937  1.1483  2.0226
   20CHTO   O77 8042   4.891   1.223   2.491 -0.2632  0.5558 -0.0324
   20CHTO  C118 8043   4.905   1.309   2.383  0.2922  0.4363  0.1426
   20CHTO  H222 8044   4.810   1.355   2.354 -0.4731 -0.0086  1.9059
   20CHTO  C125 8045   5.007   1.424   2.442 -0.2301 -0.3598 -0.7023
   20CHTO   O84 8046   5.130   1.357   2.479 -0.0690 -0.3035 -0.2371
   20CHTO  H205 8047   5.163   1.409   2.549 -2.1582  2.2147 -1.0885
   20CHTO  C114 8048   4.949   1.239   2.254 -0.3787 -0.3939 -0.1155
   20CHTO  H218 8049   5.049   1.201   2.270 -0.6903 -1.6618 -1.1035
   20CHTO  C116 8050   4.850   1.119   2.217 -0.4725  0.1029 -0.1855
   20CHTO  H220 8051   4.758   1.156   2.167  0.3337 -0.5419 -2.2083
   20CHTO   O79 8052   4.907   1.045   2.117 -0.5616  0.1212 -0.0707
   20CHTO  H201 8053   4.842   0.989   2.078  0.5270 -0.9063 -0.4534
   20CHTO  C120 8054   4.809   1.033   2.349  0.2617 -0.5212  0.1395
   20CHTO  H224 8055   4.896   0.967   2.371  0.4901  0.0885  1.0999
   20CHTO   N21 8056   4.689   0.954   2.321  0.2013  0.2587  0.2317
   20CHTO  H211 8057   4.626   1.001   2.247 -0.9588 -2.2827 -0.4580
   20CHTO  H212 8058   4.725   0.860   2.281 -2.0153  1.1280 -4.2046
   20CHTO   O75 8059   4.956   1.345   2.156 -0.4785 -0.2191  0.2970
   20CHTO  C112 8060   5.066   1.319   2.045  0.3198 -0.3475  0.1280
   20CHTO  H216 8061   5.071   1.211   2.027 -1.7896 -0.4006 -0.2937
   20CHTO   O73 8062   5.189   1.379   2.085 -0.5381 -0.2804 -0.0245
   20CHTO  C113 8063   5.298   1.357   1.990  0.3744 -0.0643  0.0130
   20CHTO  H217 8064   5.308   1.249   1.965 -0.1757 -0.4815  1.4948
   20CHTO  C124 8065   5.428   1.392   2.062  0.5114 -0.9240  0.8602
   20CHTO   O83 8066   5.476   1.317   2.180  0.1691  1.0476  0.3791
   20CHTO  H204 8067   5.568   1.329   2.195 -0.0131  3.1038  0.0173
   20CHTO  C109 8068   5.276   1.454   1.871  0.1526 -0.2776  0.5106
   20CHTO  H213 8069   5.270   1.556   1.911 -0.2810 -0.3709  0.6825
   20CHTO  C110 8070   5.141   1.405   1.802  0.0399 -0.1608 -0.2959
   20CHTO  H214 8071   5.151   1.325   1.730  1.5171 -0.9371  0.7571
   20CHTO   O78 8072   5.103   1.513   1.724  0.2664  0.2950  0.6378
   20CHTO  H200 8073   5.144   1.510   1.639  1.5468 -0.8408  1.2692
   20CHTO  C111 8074   5.019   1.384   1.897 -0.0698 -0.7154 -0.3607
   20CHTO  H215 8075   4.979   1.483   1.925 -0.0574 -0.5694 -0.8481
   20CHTO   N19 8076   4.906   1.315   1.830 -0.2319  0.0011 -0.4843
   20CHTO  H207 8077   4.823   1.320   1.900  1.2982  0.9677  1.2846
   20CHTO  H208 8078   4.888   1.369   1.739  0.9891  0.9041 -0.1922
   20CHTO   O74 8079   5.390   1.445   1.772  0.2093 -0.0624 -0.0828
   20CHTO  C115 8080   5.417   1.587   1.708  0.7843 -0.0228  0.3212
   20CHTO  H219 8081   5.341   1.657   1.741  0.2415 -0.9068  0.9807
   20CHTO   O76 8082   5.542   1.649   1.757  0.1935 -0.3859  0.3177
   20CHTO  C122 8083   5.664   1.589   1.715 -0.8913  0.4490 -0.8074
   20CHTO  H226 8084   5.678   1.504   1.781 -1.1352  0.8068 -0.2950
   20CHTO  C126 8085   5.783   1.690   1.752  0.0497 -0.0006 -0.2404
   20CHTO   O85 8086   5.780   1.802   1.665  0.1763 -0.5082  0.3017
   20CHTO  H206 8087   5.867   1.837   1.658  0.3005 -0.8919 -0.0444
   20CHTO  C121 8088   5.676   1.532   1.566 -0.2410 -0.1289  0.1816
   20CHTO  H225 8089   5.771   1.565   1.518  0.2730 -2.4890 -0.4776
   20CHTO   O81 8090   5.690   1.385   1.570 -0.0127  0.2358  0.1076
   20CHTO  H202 8091   5.609   1.337   1.568  0.6711 -0.9476  0.4835
   20CHTO  C119 8092   5.558   1.592   1.487 -0.0066  0.3317 -0.7011
   20CHTO  H223 8093   5.578   1.698   1.500  0.7863 -0.1336  2.1605
   20CHTO  C117 8094   5.414   1.563   1.550 -0.2528 -0.5086 -0.0812
   20CHTO  H221 8095   5.384   1.459   1.533  0.8372 -0.9059  0.3999
   20CHTO   N20 8096   5.309   1.644   1.488 -0.5542 -0.4463  0.3230
   20CHTO  H209 8097   5.222   1.632   1.551 -2.0096 -1.3337 -1.8150
   20CHTO  H210 8098   5.298   1.621   1.383  1.5614 -0.6529  0.1171
   20CHTO   O80 8099   5.557   1.578   1.322 -0.2257 -0.5023  0.4653
   20CHTO  C103 8100   5.658   1.665   1.231 -0.1355 -0.3651 -0.4016
   20CHTO  H190 8101   5.737   1.714   1.287 -0.2789 -2.6068  1.8602
   20CHTO  C101 8102   5.718   1.581   1.108 -0.3425 -0.3473 -0.0944
   20CHTO  H188 8103   5.642   1.513   1.071 -2.9171  1.6934  1.2940
   20CHTO   O68 8104   5.829   1.503   1.166 -0.6810 -0.8178  0.5171
   20CHTO  H168 8105   5.811   1.413   1.147 -0.2670 -0.3099 -2.5878
   20CHTO   C99 8106   5.764   1.672   0.986 -0.3941 -0.2033 -0.5590
   20CHTO  H186 8107   5.850   1.735   1.017 -1.2510  1.0159 -0.6218
   20CHTO   N17 8108   5.812   1.587   0.869 -0.6163 -0.6630  0.2625
   20CHTO  H174 8109   5.812   1.482   0.897  2.1888 -0.5037  0.9949
   20CHTO  H175 8110   5.758   1.599   0.776  1.5575 -0.6733 -1.0294
   20CHTO   C97 8111   5.650   1.771   0.944  0.3965 -0.5104 -0.2081
   20CHTO  H184 8112   5.560   1.717   0.909  1.0542 -2.0156  0.3578
   20CHTO   O64 8113   5.622   1.844   1.066 -0.5242  0.0224 -0.4092
   20CHTO  C104 8114   5.561   1.770   1.169 -0.6377 -0.5258 -0.0929
   20CHTO  H191 8115   5.477   1.718   1.122  0.6809 -0.6016 -2.4880
   20CHTO  C108 8116   5.497   1.874   1.265 -0.1739  0.9123  0.2850
   20CHTO   O71 8117   5.593   1.961   1.326 -0.3906 -0.5904 -0.1560
   20CHTO  H171 8118   5.643   2.010   1.264  0.3393 -1.7198 -0.4739
   20CHTO   O62 8119   5.690   1.854   0.830  0.0743  0.1765  0.4151
   20CHTO   C91 8120   5.619   1.973   0.789 -0.6815  0.0925 -0.1594
   20CHTO  H178 8121   5.623   2.038   0.876  0.9811  1.7340 -1.4297
   20CHTO   C92 8122   5.469   1.951   0.749 -0.4930 -0.2959 -0.9174
   20CHTO  H179 8123   5.466   1.884   0.662 -1.3486 -2.7588  0.9442
   20CHTO   O66 8124   5.386   1.895   0.850  0.0880 -0.2865  0.0031
   20CHTO  H166 8125   5.312   1.849   0.816 -0.5834 -0.6955  1.9251
   20CHTO   C93 8126   5.399   2.086   0.711 -0.2555  0.1245  0.2076
   20CHTO  H180 8127   5.403   2.150   0.801 -0.5050  1.3224 -0.6306
   20CHTO   N16 8128   5.251   2.101   0.691 -0.2491 -0.4905 -0.3434
   20CHTO  H172 8129   5.201   2.096   0.787 -1.4655  0.9393 -0.8819
   20CHTO  H173 8130   5.236   2.201   0.654  0.1539 -0.3606 -0.1540
   20CHTO   C94 8131   5.484   2.160   0.599 -0.0936  0.2338  0.8634
   20CHTO  H181 8132   5.495   2.099   0.510  0.4296 -0.8312  1.6356
   20CHTO   O61 8133   5.615   2.183   0.656 -0.2003  0.6893 -0.2748
   20CHTO   C95 8134   5.685   2.054   0.685 -1.0728 -0.1589  0.0219
   20CHTO  H182 8135   5.686   1.994   0.594  2.4863  1.0135 -0.7989
   20CHTO  C106 8136   5.829   2.093   0.715  0.2658  0.2796  0.3678
   20CHTO   O69 8137   5.924   1.986   0.702 -0.4763  0.1948 -0.0279
   20CHTO  H169 8138   5.982   1.995   0.775 -0.5797  2.6526 -0.2014
   20CHTO   O63 8139   5.434   2.310   0.550 -0.0202  0.2315  0.2078
   20CHTO   C96 8140   5.351   2.315   0.420 -0.1607 -0.7978 -0.1672
   20CHTO  H183 8141   5.285   2.229   0.414 -0.4491 -0.5722 -0.2675
   20CHTO   C98 8142   5.436   2.320   0.298 -0.1891  0.4289 -0.4007
   20CHTO  H185 8143   5.511   2.239   0.304 -0.6923  0.0764  1.4698
   20CHTO   O67 8144   5.343   2.286   0.195 -0.5287  0.2917  0.2401
   20CHTO  H167 8145   5.391   2.278   0.116  2.3392  1.8496  1.7641
   20CHTO  C102 8146   5.506   2.466   0.256  0.3584 -0.6265 -0.0265
   20CHTO  H189 8147   5.528   2.460   0.149  2.4189 -1.0639  0.4076
   20CHTO   N18 8148   5.634   2.496   0.317 -0.6090 -0.0894  0.2043
   20CHTO  H176 8149   5.674   2.588   0.276 -0.0197 -0.8657 -0.9965
   20CHTO  H177 8150   5.629   2.511   0.423 -1.2649  0.5291  0.0880
   20CHTO  C105 8151   5.404   2.584   0.281  0.1295  0.4405  0.0624
   20CHTO  H192 8152   5.441   2.657   0.352 -3.0775  1.5858  0.6594
   20CHTO   O65 8153   5.273   2.550   0.333  0.0008 -0.3509 -0.1048
   20CHTO  C100 8154   5.264   2.451   0.430 -0.4447 -0.3175 -0.1644
   20CHTO  H187 8155   5.293   2.499   0.525 -0.2150  0.2243 -0.5044
   20CHTO  C107 8156   5.116   2.404   0.462 -0.3661 -0.3701  0.4621
   20CHTO   O70 8157   5.032   2.512   0.494 -0.2030  0.0031 -0.0321
   20CHTO  H170 8158   5.001   2.555   0.416 -1.8741 -0.3573  0.4219
   20CHTO   O57 8159   5.392   2.652   0.110 -0.0432  0.2157 -0.3582
   20CHTO   C85 8160   5.377   2.799   0.097  0.2020 -0.2335  0.0429
   20CHTO  H157 8161   5.382   2.847   0.197  0.0874  1.4277 -0.7304
   20CHTO   C83 8162   5.231   2.832   0.056  0.7129  0.5279 -0.0354
   20CHTO  H155 8163   5.169   2.791   0.135  0.1980 -1.2907 -1.3602
   20CHTO   O56 8164   5.186   2.764  -0.064  0.0941 -0.0745 -0.2554
   20CHTO  H135 8165   5.238   2.784  -0.139  1.4590  1.8741  1.1867
   20CHTO   C81 8166   5.222   2.985   0.065 -0.2502 -0.2071 -0.0756
   20CHTO  H153 8167   5.255   3.015   0.164  1.4551  0.2204 -0.7494
   20CHTO   N14 8168   5.080   3.037   0.043 -0.5131  0.6864  0.0898
   20CHTO  H141 8169   5.078   3.144   0.044 -1.7454  0.6743  0.0884
   20CHTO  H142 8170   5.010   2.997   0.113 -0.0251  0.7575  0.6216
   20CHTO   C79 8171   5.323   3.051  -0.039  0.1014  0.2970 -0.8377
   20CHTO  H151 8172   5.316   3.158  -0.018 -0.7627 -0.5670  3.7848
   20CHTO   O52 8173   5.463   3.003  -0.018 -0.1066 -0.8316 -0.1535
   20CHTO   C86 8174   5.483   2.858   0.002 -0.4207  0.3345  0.1396
   20CHTO  H158 8175   5.470   2.813  -0.098  0.5853  0.0043  0.1471
   20CHTO   C90 8176   5.629   2.826   0.046 -0.2645 -0.8005  0.1882
   20CHTO   O60 8177   5.660   2.890   0.169  0.6865  0.2619  0.6499
   20CHTO  H138 8178   5.659   2.983   0.159  0.1889 -0.0429 -2.4943
   20CHTO   O50 8179   5.290   3.026  -0.179 -0.4240 -0.2272 -0.0759
   20CHTO   C73 8180   5.326   3.065  -0.316 -0.5144 -0.3794 -0.4218
   20CHTO  H145 8181   5.435   3.062  -0.331 -0.5634  3.1839 -2.0134
   20CHTO   C74 8182   5.289   3.215  -0.351  0.0558 -0.2725  0.2975
   20CHTO  H146 8183   5.326   3.274  -0.266 -1.2473 -0.7107  1.1655
   20CHTO   O54 8184   5.356   3.257  -0.476 -0.5046  0.2462 -0.1983
   20CHTO  H133 8185   5.379   3.180  -0.523  1.3215  0.6155  0.0660
   20CHTO   C75 8186   5.130   3.213  -0.361 -0.2191 -0.0259  0.4706
   20CHTO  H147 8187   5.087   3.184  -0.264 -0.4663  0.9045  0.6409
   20CHTO   N13 8188   5.076   3.353  -0.378  0.7415 -0.4110 -0.1180
   20CHTO  H139 8189   5.098   3.416  -0.292 -2.2741  1.8787 -0.9221
   20CHTO  H140 8190   4.976   3.350  -0.418 -0.1197  0.7424  1.8153
   20CHTO   C76 8191   5.067   3.108  -0.462 -0.3441  0.2825 -0.1881
   20CHTO  H148 8192   5.097   3.141  -0.561 -0.7867  1.8206  0.1669
   20CHTO   O49 8193   5.124   2.982  -0.437 -0.1647  0.9626 -0.1517
   20CHTO   C77 8194   5.267   2.978  -0.428  0.1946 -0.2281 -0.2325
   20CHTO  H149 8195   5.307   2.999  -0.527 -0.9405 -1.3242 -0.9394
   20CHTO   C88 8196   5.299   2.838  -0.403  0.1754  0.2151 -0.5052
   20CHTO   O58 8197   5.248   2.753  -0.522 -0.2565  0.3632 -0.5039
   20CHTO  H136 8198   5.286   2.795  -0.597  1.2474 -4.0102 -2.3131
   20CHTO   O51 8199   4.891   3.087  -0.439  0.0371  0.5704  0.4759
   20CHTO   C78 8200   4.838   3.016  -0.313 -0.2275  0.1528  0.6393
   20CHTO  H150 8201   4.919   3.018  -0.237 -0.5604 -0.4392  1.0173
   20CHTO   C80 8202   4.804   2.871  -0.345  0.0201 -0.5183 -0.4164
   20CHTO  H152 8203   4.724   2.877  -0.422 -0.1424  0.0393 -0.2046
   20CHTO   O55 8204   4.920   2.809  -0.390 -1.1614  0.5544  0.0611
   20CHTO  H134 8205   4.916   2.811  -0.484 -1.6479  2.7564  0.0985
   20CHTO   C84 8206   4.745   2.806  -0.220  0.2445  0.8075 -0.2704
   20CHTO  H156 8207   4.837   2.785  -0.165  1.3254 -0.4198 -2.4582
   20CHTO   N15 8208   4.692   2.671  -0.262  0.6181 -0.1525 -0.1315
   20CHTO  H143 8209   4.598   2.676  -0.312 -0.4459 -0.4128  1.7692
   20CHTO  H144 8210   4.757   2.616  -0.326  0.1180 -1.2734  0.3089
   20CHTO   C87 8211   4.640   2.889  -0.138  0.0269 -0.5569 -0.2316
   20CHTO  H159 8212   4.549   2.894  -0.197 -0.5477 -3.0508  0.3921
   20CHTO   O53 8213   4.697   3.029  -0.120 -0.5148  0.2494  0.5556
   20CHTO   C82 8214   4.720   3.091  -0.243 -0.8305  0.1077  0.2471
   20CHTO  H154 8215   4.632   3.088  -0.308  0.8043  1.4394 -2.1095
   20CHTO   C89 8216   4.764   3.241  -0.231 -0.1590  0.2823 -0.3573
   20CHTO   O59 8217   4.878   3.246  -0.143  0.6083  0.1412  0.5950
   20CHTO  H137 8218   4.919   3.327  -0.168  2.4058 -0.8793  0.0854
   20CHTO   O45 8219   4.604   2.822  -0.007  0.0999  0.1367  0.3789
   20CHTO   C67 8220   4.685   2.842   0.112  0.4077 -1.1339 -0.2368
   20CHTO  H124 8221   4.779   2.888   0.081  0.9697 -1.6880  0.6227
   20CHTO   C65 8222   4.607   2.942   0.213  0.3369  0.7601  0.4493
   20CHTO  H122 8223   4.511   2.942   0.162  1.2750  0.2258 -1.3504
   20CHTO   O44 8224   4.673   3.067   0.216 -0.6378 -0.7613 -0.1675
   20CHTO  H102 8225   4.729   3.083   0.289  2.0738 -2.5583 -1.7793
   20CHTO   C63 8226   4.566   2.859   0.343 -0.7257 -0.8264 -0.9307
   20CHTO  H120 8227   4.495   2.779   0.322  0.0900 -2.0400  0.7913
   20CHTO   N11 8228   4.480   2.927   0.437  0.0174  0.3228  0.5207
   20CHTO  H108 8229   4.509   3.026   0.462  3.6989  0.2211 -2.9004
   20CHTO  H109 8230   4.378   2.898   0.456  0.7872 -0.6219  3.5255
   20CHTO   C61 8231   4.697   2.793   0.406 -0.5394 -0.4817  0.5603
   20CHTO  H118 8232   4.662   2.727   0.486  0.5408 -0.5547  0.9705
   20CHTO   O40 8233   4.772   2.712   0.309  0.4878  0.0835  0.2896
   20CHTO   C68 8234   4.718   2.696   0.172 -0.6008  0.2147 -0.0954
   20CHTO  H125 8235   4.639   2.619   0.181 -0.3041 -0.3054 -1.6780
   20CHTO   C72 8236   4.829   2.632   0.087 -0.8830  0.2400 -0.2360
   20CHTO   O48 8237   4.857   2.494   0.129  0.1619 -0.6638 -0.5973
   20CHTO  H105 8238   4.778   2.453   0.159 -0.6212  0.2095 -1.4328
   20CHTO   O38 8239   4.800   2.886   0.454  0.6616 -0.1833  0.1894
   20CHTO   C55 8240   4.878   2.855   0.573  0.3319  0.1930  0.1891
   20CHTO  H112 8241   4.866   2.749   0.597 -2.2170  0.4354  0.1565
   20CHTO   C56 8242   4.826   2.949   0.691  0.1551  0.3309 -0.0606
   20CHTO  H113 8243   4.843   3.053   0.661 -1.2279 -0.1753 -2.7785
   20CHTO   O42 8244   4.687   2.936   0.719 -0.2510  0.5398 -0.0998
   20CHTO  H100 8245   4.655   2.988   0.789 -0.0232 -1.1682  1.2985
   20CHTO   C57 8246   4.915   2.920   0.824 -0.4940  0.6343 -0.5594
   20CHTO  H114 8247   4.881   2.825   0.865 -2.1047  1.5427  0.2477
   20CHTO   N10 8248   4.890   3.022   0.925  0.2642 -0.9970 -0.3548
   20CHTO  H106 8249   4.792   3.069   0.928  1.2104  1.0173 -0.4172
   20CHTO  H107 8250   4.964   3.100   0.928 -1.2091  0.4676 -1.0848
   20CHTO   C58 8251   5.071   2.921   0.787 -0.0437  0.5607 -0.3863
   20CHTO  H115 8252   5.102   3.023   0.757  0.4483  1.1373  2.0004
   20CHTO   O37 8253   5.088   2.836   0.676 -0.2085 -0.4090 -0.4268
   20CHTO   C59 8254   5.026   2.891   0.555  0.6957  0.2448  0.1230
   20CHTO  H116 8255   5.034   2.999   0.541  1.0960  0.1669 -0.2780
   20CHTO   C70 8256   5.079   2.830   0.428 -0.2367 -0.0982 -0.4165
   20CHTO   O46 8257   5.221   2.836   0.410  0.1820  0.3235  0.2072
   20CHTO  H103 8258   5.251   2.766   0.355  0.9509  0.0988  0.9066
   20CHTO   O39 8259   5.169   2.860   0.908 -0.6367  0.1366 -0.0769
   20CHTO   C60 8260   5.118   2.765   0.997  0.1596 -0.4701  0.2712
   20CHTO  H117 8261   5.019   2.792   1.035  0.2817  0.7090 -0.2323
   20CHTO   C62 8262   5.125   2.632   0.925 -0.4359 -0.5055 -0.2478
   20CHTO  H119 8263   5.066   2.639   0.831  1.7230  0.7221 -1.5353
   20CHTO   O43 8264   5.257   2.594   0.891 -0.1704  0.3798  0.2979
   20CHTO  H101 8265   5.280   2.603   0.800 -3.1917  0.4776 -0.5160
   20CHTO   C66 8266   5.057   2.528   1.027  0.0912  0.1704  0.5961
   20CHTO  H123 8267   4.970   2.578   1.069 -1.7711  0.0402 -2.9341
   20CHTO   N12 8268   5.006   2.407   0.956 -0.2625 -0.4541 -0.3737
   20CHTO  H110 8269   5.040   2.312   0.994  2.4134  1.3054  1.8013
   20CHTO  H111 8270   5.029   2.413   0.850 -0.2321 -1.5429 -0.4325
   20CHTO   C69 8271   5.149   2.506   1.152 -0.5040 -0.6120  0.5275
   20CHTO  H126 8272   5.243   2.481   1.098  1.0539  0.6893  2.5760
   20CHTO   O41 8273   5.161   2.647   1.226  0.1422 -0.1581  0.5272
   20CHTO   C64 8274   5.212   2.766   1.122 -0.0775  0.2880  0.1090
   20CHTO  H121 8275   5.315   2.746   1.087  0.7487  0.2244  2.5383
   20CHTO   C71 8276   5.216   2.904   1.194  0.2295  0.4055 -0.5537
   20CHTO   O47 8277   5.337   2.924   1.268  0.0795  0.1445 -0.0042
   20CHTO  H104 8278   5.333   3.008   1.309  0.5715  0.6369 -0.9329
   20CHTO   O34 8279   5.090   2.398   1.242  0.4259 -0.1367 -0.4632
   20CHTO   C49 8280   5.100   2.231   1.243 -0.2797 -0.9326  0.2542
   20CHTO   H91 8281   5.031   2.210   1.161 -1.4865 -1.0018  1.2726
   20CHTO   C47 8282   5.044   2.184   1.378  0.1007  1.3966 -0.0687
   20CHTO   H89 8283   4.934   2.193   1.364 -0.1112  1.3419  1.5046
   20CHTO   O33 8284   5.081   2.274   1.483  0.0463 -0.3520  0.0994
   20CHTO   H70 8285   5.117   2.353   1.447  1.3230 -1.0838 -0.2580
   20CHTO   C45 8286   5.083   2.033   1.409  0.0369  0.2106  0.5266
   20CHTO   H87 8287   5.179   2.041   1.462  1.6881  0.6456 -2.4216
   20CHTO    N8 8288   4.981   1.971   1.495  0.7122  0.0970 -0.4586
   20CHTO   H75 8289   4.888   1.935   1.452  0.3950 -2.4118  2.1286
   20CHTO   H76 8290   5.025   1.892   1.555  1.6600  0.2835 -0.9096
   20CHTO   C43 8291   5.121   1.950   1.275  0.4731  0.0720  0.3757
   20CHTO   H85 8292   5.149   1.853   1.317 -3.6325 -0.3677  2.3562
   20CHTO   O29 8293   5.232   2.013   1.204  0.3373 -0.1262  0.1283
   20CHTO   C50 8294   5.237   2.161   1.208  0.4138  0.0925 -0.1334
   20CHTO   H92 8295   5.308   2.189   1.287 -1.6482  1.7698  1.1651
   20CHTO   C54 8296   5.301   2.213   1.082 -0.4403 -0.0956  0.1304
   20CHTO   O36 8297   5.440   2.180   1.069  0.8869  1.2713  0.2053
   20CHTO   H72 8298   5.451   2.116   1.002 -1.2899  1.2280 -0.1417
   20CHTO   O27 8299   5.018   1.918   1.189 -0.3920  0.0554  0.1609
   20CHTO   C37 8300   4.966   1.861   1.071 -0.2884 -0.0757 -0.4353
   20CHTO   H79 8301   4.889   1.788   1.100 -0.7835  1.4839  2.3154
   20CHTO   C38 8302   4.897   1.958   0.974  0.1280  0.3583  0.2079
   20CHTO   H80 8303   4.972   2.036   0.955 -0.3563  0.4985 -1.2612
   20CHTO   O31 8304   4.794   2.020   1.053  0.0850 -0.1281  0.1367
   20CHTO   H68 8305   4.758   2.091   1.003 -0.5804  0.7101  1.7738
   20CHTO   C39 8306   4.850   1.884   0.844 -0.3466  0.0358  0.0642
   20CHTO   H81 8307   4.772   1.811   0.864  0.8920 -1.3809 -0.1355
   20CHTO    N7 8308   4.784   1.971   0.738  0.3270 -0.2278  0.2572
   20CHTO   H73 8309   4.860   2.047   0.724  1.9409 -1.6490  1.1702
   20CHTO   H74 8310   4.775   1.923   0.642 -1.4532  2.8508 -1.2068
   20CHTO   C40 8311   4.974   1.811   0.779 -0.8160  0.7069 -0.4199
   20CHTO   H82 8312   5.043   1.887   0.742 -0.2431  0.8839  0.9638
   20CHTO   O26 8313   5.039   1.723   0.877 -0.8316 -0.0797 -0.2458
   20CHTO   C41 8314   5.082   1.781   1.001 -0.0040  0.2586  0.8979
   20CHTO   H83 8315   5.154   1.860   0.974 -1.2641  0.8654 -0.7513
   20CHTO   C52 8316   5.145   1.669   1.087  0.1860  0.6288  0.6000
   20CHTO   O35 8317   5.235   1.584   1.023 -0.5045  0.3656  0.2219
   20CHTO   H71 8318   5.311   1.626   0.989  0.1968 -0.8587  0.2559
   20CHTO   O28 8319   4.941   1.722   0.667  0.0310 -0.1165  0.0665
   20CHTO   C42 8320   5.040   1.650   0.586  0.6271  0.8702  0.2163
   20CHTO   H84 8321   4.977   1.607   0.508  1.8690 -1.3313  0.3965
   20CHTO   C44 8322   5.108   1.521   0.656 -0.4887 -0.2584  0.2780
   20CHTO   H86 8323   5.164   1.557   0.742  0.9993 -0.6654 -0.4950
   20CHTO   O32 8324   4.996   1.438   0.697  0.3381  0.4203 -0.4097
   20CHTO   H69 8325   4.979   1.437   0.790 -2.1662  0.4632 -0.8496
   20CHTO   C48 8326   5.200   1.442   0.558  0.2205  0.8389 -0.5494
   20CHTO   H90 8327   5.145   1.395   0.477  0.2057 -0.5476  0.2382
   20CHTO    N9 8328   5.276   1.331   0.622 -0.1273 -0.6088 -0.4469
   20CHTO   H77 8329   5.382   1.335   0.604 -0.1287 -0.4828 -0.4301
   20CHTO   H78 8330   5.261   1.338   0.729  0.8599  1.7612 -0.4129
   20CHTO   C51 8331   5.303   1.527   0.480 -0.2051 -0.5914  0.1121
   20CHTO   H93 8332   5.365   1.565   0.561  0.1145 -3.3450  1.2294
   20CHTO   O30 8333   5.226   1.638   0.415  0.0426  0.2913 -0.3793
   20CHTO   C46 8334   5.149   1.726   0.517  0.4308  0.2323  0.1645
   20CHTO   H88 8335   5.220   1.763   0.592  0.1952 -0.3001  0.6614
   20CHTO   C53 8336   5.096   1.844   0.426 -0.2293  0.2480 -0.1237
   20CHTO   O72 8337   5.196   1.885   0.328 -0.0359  0.6021 -0.1364
   20CHTO  H199 8338   5.219   1.976   0.335 -1.3242  1.0104 -1.0307
   20CHTO   O22 8339   5.373   1.452   0.378  0.2306 -0.2148 -0.3006
   20CHTO   C31 8340   5.514   1.478   0.345  0.1036 -0.1056  0.1250
   20CHTO   H59 8341   5.522   1.452   0.237 -2.7026 -0.4795 -0.0266
   20CHTO   C29 8342   5.548   1.625   0.364 -0.2318 -0.9592 -0.1767
   20CHTO   H57 8343   5.520   1.675   0.458  0.1892  1.5124 -1.3066
   20CHTO   O21 8344   5.468   1.702   0.279  0.6433 -0.6184  0.6139
   20CHTO   H37 8345   5.497   1.791   0.278  2.5221 -1.2100  0.2450
   20CHTO   C27 8346   5.706   1.663   0.333  0.3598 -0.4962 -0.4041
   20CHTO   H55 8347   5.725   1.651   0.225 -1.4676  0.1295 -0.8216
   20CHTO    N5 8348   5.736   1.809   0.363  0.1181  0.6616 -0.3053
   20CHTO   H43 8349   5.842   1.825   0.357  0.5756 -1.4820  1.5543
   20CHTO   H44 8350   5.688   1.885   0.303  0.2336 -1.3454 -3.0859
   20CHTO   C25 8351   5.796   1.567   0.407  0.2025  0.3439  0.6423
   20CHTO   H53 8352   5.769   1.564   0.513 -0.7154  1.3415  0.4472
   20CHTO   O17 8353   5.755   1.428   0.371 -0.2880 -0.7322  0.0197
   20CHTO   C32 8354   5.625   1.386   0.416  0.2556  0.0716 -0.5262
   20CHTO   H60 8355   5.616   1.402   0.524  0.0864 -0.3736 -0.4752
   20CHTO   C36 8356   5.604   1.230   0.390  0.1195  0.1527  0.2337
   20CHTO   O25 8357   5.478   1.204   0.320  0.1872 -0.4370  0.0511
   20CHTO   H40 8358   5.456   1.113   0.314 -1.0917 -0.2295  1.1739
   20CHTO   O15 8359   5.941   1.592   0.386 -0.5597 -0.0260 -0.4356
   20CHTO   C19 8360   6.065   1.650   0.344  0.6125  0.0740 -0.1458
   20CHTO   H47 8361   6.039   1.708   0.254 -0.0850 -0.4854 -0.3152
   20CHTO   C20 8362   6.135   1.749   0.451  1.4497  0.7769  0.6138
   20CHTO   H48 8363   6.151   1.698   0.548  0.6534 -0.6697  0.0079
   20CHTO   O19 8364   6.039   1.858   0.467 -0.2502  0.3425  0.2896
   20CHTO   H35 8365   6.074   1.932   0.512  0.5364  0.5519 -0.6530
   20CHTO   C21 8366   6.276   1.798   0.395  0.0540  0.2317 -0.3888
   20CHTO   H49 8367   6.256   1.865   0.312  0.6300  1.3362  0.3573
   20CHTO    N4 8368   6.344   1.890   0.495 -0.4760  0.3320  0.3271
   20CHTO   H41 8369   6.295   1.985   0.510  0.8338  0.9527  0.7500
   20CHTO   H42 8370   6.442   1.906   0.454 -0.5269  1.3924  0.6157
   20CHTO   C22 8371   6.360   1.683   0.339  0.5033 -0.0473 -0.5996
   20CHTO   H50 8372   6.375   1.617   0.425  1.7158  2.1260  0.8872
   20CHTO   O14 8373   6.270   1.618   0.240 -0.3851  0.4482  0.6828
   20CHTO   C23 8374   6.160   1.541   0.290 -0.3060  0.7145  0.0525
   20CHTO   H51 8375   6.194   1.475   0.371 -2.5022  0.3981  0.7419
   20CHTO   C34 8376   6.122   1.453   0.171  0.0914  0.7022 -0.5379
   20CHTO   O23 8377   6.018   1.351   0.192  0.0936 -0.6515  0.0966
   20CHTO   H38 8378   5.998   1.309   0.110 -1.0142 -0.2488  0.1607
   20CHTO   O16 8379   6.479   1.725   0.271 -0.4926  0.2177  0.7106
   20CHTO   C24 8380   6.570   1.595   0.233  0.1899  0.1334  0.0785
   20CHTO   H52 8381   6.509   1.505   0.223 -0.9601  0.7552  1.3322
   20CHTO   C26 8382   6.679   1.568   0.338  0.6159  0.2402  0.8334
   20CHTO   H54 8383   6.735   1.663   0.349  2.4677 -0.4188 -2.1898
   20CHTO   O20 8384   6.610   1.542   0.460 -0.3741  0.0044  0.0835
   20CHTO   H36 8385   6.543   1.478   0.447 -1.1512  0.9163 -0.4260
   20CHTO   C30 8386   6.778   1.462   0.288 -0.2818  0.1780 -0.0772
   20CHTO   H58 8387   6.760   1.372   0.349  4.1012 -1.2648 -0.8061
   20CHTO    N6 8388   6.917   1.509   0.318  0.4951  0.2766 -0.2388
   20CHTO   H45 8389   6.915   1.606   0.366  2.1628  0.3487 -0.3025
   20CHTO   H46 8390   6.960   1.440   0.389  1.9736  1.0682 -0.3593
   20CHTO   C33 8391   6.770   1.421   0.141 -0.3915  0.3517 -0.4447
   20CHTO   H61 8392   6.859   1.367   0.107 -2.0549 -5.1690  3.3697
   20CHTO   O18 8393   6.746   1.539   0.055  0.0128  0.0654 -0.1957
   20CHTO   C28 8394   6.638   1.622   0.094  0.3608  0.6247 -0.1511
   20CHTO   H56 8395   6.676   1.724   0.092  2.8758 -0.2790 -0.1116
   20CHTO   C35 8396   6.528   1.609  -0.019 -0.0075  0.0726  0.5061
   20CHTO   O24 8397   6.447   1.494  -0.026 -0.5646  0.5780 -0.2298
   20CHTO   H39 8398   6.374   1.507  -0.084 -0.8027 -0.9375 -0.3079
   20CHTO    O9 8399   6.669   1.322   0.120 -0.2058  0.2830  0.6540
   20CHTO   C13 8400   6.681   1.172   0.155  0.2809  1.2377 -0.5736
   20CHTO   H26 8401   6.774   1.155   0.213 -0.0960  0.3714 -0.2046
   20CHTO   C11 8402   6.689   1.095   0.019 -0.4353 -0.0896 -0.4542
   20CHTO   H24 8403   6.792   1.112  -0.017 -0.2051 -0.6626 -0.0710
   20CHTO    O8 8404   6.588   1.140  -0.074  1.2318 -0.1325 -0.1052
   20CHTO    H3 8405   6.526   1.200  -0.037 -1.2099 -1.9426 -1.1007
   20CHTO    C9 8406   6.682   0.939   0.041 -0.8525  0.9694  0.4381
   20CHTO   H22 8407   6.778   0.910   0.086  0.5578  1.3820 -2.2344
   20CHTO    N2 8408   6.709   0.867  -0.084  0.3759  0.6117 -0.0101
   20CHTO   H10 8409   6.748   0.769  -0.060 -0.0642  0.5114  0.2990
   20CHTO   H11 8410   6.616   0.863  -0.138 -0.0492  0.6512  0.7131
   20CHTO    C7 8411   6.557   0.903   0.130  0.5056  0.1679 -0.3933
   20CHTO   H20 8412   6.602   0.858   0.220 -0.7929  0.6410  0.5080
   20CHTO    O4 8413   6.484   1.021   0.172  0.1762  0.1391  0.7140
   20CHTO   C14 8414   6.554   1.122   0.245 -0.2971 -0.1267 -0.2910
   20CHTO   H27 8415   6.583   1.086   0.346 -2.8238 -3.7644 -0.7759
   20CHTO   C18 8416   6.448   1.232   0.269  0.9253  0.4908  0.1056
   20CHTO   O13 8417   6.377   1.201   0.391  0.0744  0.0803  0.5212
   20CHTO    H7 8418   6.314   1.132   0.392  1.2451 -0.9913  1.5971
   20CHTO    O2 8419   6.454   0.800   0.067  0.8245 -0.9988 -0.3569
   20CHTO    C1 8420   6.422   0.686   0.152 -0.1431  0.4626  0.0715
   20CHTO   H14 8421   6.459   0.700   0.256 -1.3480 -0.8040  0.6842
   20CHTO    C2 8422   6.472   0.546   0.098  0.6199  0.0690  0.5173
   20CHTO   H15 8423   6.442   0.546  -0.008  0.9279  0.0630  0.4310
   20CHTO    O6 8424   6.619   0.544   0.107 -0.6013  0.0219 -0.3646
   20CHTO    H1 8425   6.642   0.457   0.081  0.0829  0.1732 -0.2567
   20CHTO    C3 8426   6.404   0.430   0.184  0.6689  0.2082 -0.0033
   20CHTO   H16 8427   6.435   0.446   0.288  1.1261  1.8242 -0.3607
   20CHTO    N1 8428   6.442   0.290   0.137  0.0151  0.2712  0.0721
   20CHTO    H8 8429   6.386   0.217   0.194  0.6821  0.6149  1.1825
   20CHTO    H9 8430   6.545   0.275   0.167  0.1097 -1.9712 -1.2893
   20CHTO    C4 8431   6.249   0.448   0.186 -0.2825  0.2446  0.5831
   20CHTO   H17 8432   6.209   0.431   0.086  1.2057 -1.6510  0.2950
   20CHTO    O1 8433   6.218   0.577   0.245  0.5447 -1.0994  0.1093
   20CHTO    C5 8434   6.271   0.688   0.160  0.3199  0.7682 -0.3601
   20CHTO   H18 8435   6.234   0.667   0.060  1.2118 -1.8421 -0.1723
   20CHTO   C16 8436   6.209   0.821   0.199 -0.1697 -0.3346  0.1032
   20CHTO   O11 8437   6.232   0.840   0.338 -0.2286 -0.2077 -0.5610
   20CHTO    H5 8438   6.174   0.794   0.396 -3.1104  0.8650 -2.4352
   20CHTO    O3 8439   6.178   0.369   0.282  0.1741  0.3210 -0.0596
   20CHTO    C6 8440   6.034   0.348   0.250 -0.5851 -0.0799 -0.2267
   20CHTO   H19 8441   6.000   0.421   0.176  0.0001 -0.6473 -1.0582
   20CHTO    C8 8442   6.022   0.205   0.198 -0.5879 -0.2827 -1.2441
   20CHTO   H21 8443   6.057   0.134   0.273  0.0605 -0.7459 -1.9659
   20CHTO    O7 8444   6.107   0.197   0.090 -0.0079 -0.3233  0.4119
   20CHTO    H2 8445   6.198   0.215   0.106  0.4057  0.2462 -2.2349
   20CHTO   C12 8446   5.876   0.162   0.164 -0.1179  0.3630  0.2928
   20CHTO   H25 8447   5.855   0.237   0.085  2.1930 -0.5687 -1.2540
   20CHTO    N3 8448   5.858   0.020   0.119 -0.1990  0.3437  1.1644
   20CHTO   H12 8449   5.759   0.003   0.081  0.2628  1.7607 -0.8024
   20CHTO   H13 8450   5.942  -0.009   0.056 -0.3504  0.3206  0.9738
   20CHTO   C15 8451   5.785   0.193   0.288 -0.6654  0.6881  0.7652
   20CHTO   H28 8452   5.807   0.117   0.363 -1.1589  0.2846  0.5045
   20CHTO   O10 8453   5.641   0.197   0.257  0.9207  0.0181 -0.4583
   20CHTO    H4 8454   5.629   0.242   0.176  1.2756  0.3051 -0.3526
   20CHTO    O5 8455   5.806   0.324   0.342  0.0504  0.8605 -0.0988
   20CHTO   C10 8456   5.943   0.358   0.374  0.3600  0.1471 -0.1200
   20CHTO   H23 8457   5.981   0.282   0.442  2.4309  1.8520  0.6940
   20CHTO   C17 8458   5.950   0.497   0.443 -0.6218 -0.2050  0.7471
   20CHTO   O12 8459   5.908   0.495   0.582 -0.1539 -0.1105  0.3006
   20CHTO    H6 8460   5.977   0.452   0.629  1.1258  0.8476 -0.6673
   21GLOH   H03 8461   4.058   0.370   1.006  0.1568 -0.3316  0.0175
   21GLOH    O1 8462   4.121   0.371   1.080  0.3135  0.0067 -0.1206
   21GLOH    C1 8463   4.047   0.411   1.190  0.2526 -0.8382  0.3109
   21GLOH   H02 8464   3.940   0.397   1.176  0.7720 -3.1022 -1.6948
   21GLOH   H08 8465   4.057   0.520   1.187 -0.2311 -0.7211  2.1108
   21GLOH    C2 8466   4.090   0.360   1.326  0.3562 -0.8523 -0.6822
   21GLOH   H04 8467   4.199   0.367   1.334  0.2150  1.0851 -0.2876
   21GLOH    O2 8468   4.023   0.428   1.433  0.0892 -0.2742  0.6604
   21GLOH   H05 8469   4.071   0.512   1.439  0.2406 -0.2879 -0.3557
   21GLOH    C3 8470   4.058   0.217   1.335 -0.2195 -0.0701 -0.0117
   21GLOH   H06 8471   3.950   0.204   1.336 -0.4523  1.6467 -1.0246
   21GLOH   H07 8472   4.092   0.178   1.431  1.4111  0.9586 -0.1523
   21GLOH    O3 8473   4.111   0.131   1.234 -0.5347 -0.7245  0.2055
   21GLOH   H01 8474   4.119   0.180   1.149  1.2092 -2.9082 -0.9542
   22GLOH   H03 8475   2.965   0.039   1.648 -0.4756 -1.1660 -1.5347
   22GLOH    O1 8476   2.970  -0.039   1.705 -0.2550  0.0574  0.1644
   22GLOH    C1 8477   3.025   0.006   1.832 -0.0865  1.0623  0.2132
   22GLOH   H02 8478   3.131   0.031   1.840 -0.0550  2.0988 -2.8374
   22GLOH   H08 8479   3.007  -0.074   1.904  0.3174 -0.2862 -1.1686
   22GLOH    C2 8480   2.951   0.133   1.892  0.3745  0.0461 -0.0723
   22GLOH   H04 8481   3.009   0.161   1.982  3.4187 -2.1005 -1.2810
   22GLOH    O2 8482   2.967   0.246   1.805  0.2321 -0.6250  1.1687
   22GLOH   H05 8483   3.060   0.270   1.789 -0.5743  0.7818 -1.6730
   22GLOH    C3 8484   2.803   0.115   1.922 -0.2604 -0.3096 -0.0262
   22GLOH   H06 8485   2.756   0.130   1.825  4.3404  1.6711 -2.1035
   22GLOH   H07 8486   2.784   0.199   1.989 -0.6749  0.0261 -0.5622
   22GLOH    O3 8487   2.767  -0.008   1.988 -0.4729  0.1842  0.4278
   22GLOH   H01 8488   2.757  -0.081   1.925  1.5316  1.0787 -0.9806
   23GLOH   H03 8489   3.445   9.575   1.958 -1.5508  1.4843  0.4681
   23GLOH    O1 8490   3.491   9.565   2.043 -0.3547 -1.0082 -0.4028
   23GLOH    C1 8491   3.459   9.444   2.115  0.4543 -0.1849 -0.2665
   23GLOH   H02 8492   3.539   9.370   2.102  0.9950  0.1575  1.0387
   23GLOH   H08 8493   3.366   9.403   2.075  0.7766  0.0926 -1.3430
   23GLOH    C2 8494   3.452   9.472   2.266 -0.2443  0.0788 -0.1565
   23GLOH   H04 8495   3.361   9.533   2.278  0.4193  0.8165  1.2902
   23GLOH    O2 8496   3.427   9.352   2.337 -0.0790 -0.1387 -0.0322
   23GLOH   H05 8497   3.480   9.280   2.299 -0.1266  0.9123 -2.1526
   23GLOH    C3 8498   3.574   9.546   2.325 -1.1082 -0.2891  0.1514
   23GLOH   H06 8499   3.664   9.485   2.312 -0.5071  0.6043  0.0764
   23GLOH   H07 8500   3.563   9.553   2.433  1.5009 -2.4331  0.6311
   23GLOH    O3 8501   3.582   9.674   2.266  0.0056  0.1161  0.0972
   23GLOH   H01 8502   3.576   9.643   2.174 -1.1486  1.8384 -0.4442
   24GLOH   H03 8503   4.227   1.218   2.331  1.3217  2.6568 -0.8262
   24GLOH    O1 8504   4.249   1.177   2.245 -0.0614 -0.8240  0.3831
   24GLOH    C1 8505   4.401   1.160   2.231  0.4061  0.3570  0.1038
   24GLOH   H02 8506   4.459   1.096   2.298 -0.0604 -0.1478  0.0302
   24GLOH   H08 8507   4.440   1.261   2.242 -1.3232  0.9063  1.4034
   24GLOH    C2 8508   4.441   1.107   2.099  0.1752  0.4086  0.3844
   24GLOH   H04 8509   4.547   1.134   2.084 -0.9228  3.3622 -2.7599
   24GLOH    O2 8510   4.425   0.963   2.088 -0.0863  0.7381  0.5067
   24GLOH   H05 8511   4.509   0.927   2.054 -1.9058 -1.8759 -1.3616
   24GLOH    C3 8512   4.383   1.174   1.979  0.7153 -0.3957  0.0485
   24GLOH   H06 8513   4.387   1.105   1.894  1.2590 -1.1772  0.7005
   24GLOH   H07 8514   4.445   1.259   1.951 -0.2827 -0.1907 -1.5947
   24GLOH    O3 8515   4.249   1.212   2.005  0.1012  1.2081  0.2602
   24GLOH   H01 8516   4.228   1.192   2.098 -3.4475  0.5838 -0.5974
   25GLOH   H03 8517   4.204   3.963   1.308 -0.7739 -0.5492 -0.3253
   25GLOH    O1 8518   4.143   3.982   1.381 -0.3820  0.0208 -0.1459
   25GLOH    C1 8519   4.212   3.990   1.505  0.4801 -0.5805  0.1545
   25GLOH   H02 8520   4.177   4.075   1.564  2.1511  0.7566 -0.7492
   25GLOH   H08 8521   4.319   4.004   1.493  0.4399 -0.4170 -0.0065
   25GLOH    C2 8522   4.180   3.867   1.600  0.7724  0.6080  0.2620
   25GLOH   H04 8523   4.080   3.870   1.646 -1.4154 -1.3390 -4.0580
   25GLOH    O2 8524   4.189   3.735   1.541  0.1655  0.2034 -0.3765
   25GLOH   H05 8525   4.284   3.716   1.532  0.2638  0.7359 -0.4862
   25GLOH    C3 8526   4.267   3.853   1.724  0.6513 -0.5025  0.8409
   25GLOH   H06 8527   4.370   3.838   1.692  0.4841  0.8210 -0.3695
   25GLOH   H07 8528   4.227   3.763   1.771  2.3386 -1.5561  0.3063
   25GLOH    O3 8529   4.270   3.971   1.810 -0.1954  0.0555  0.0080
   25GLOH   H01 8530   4.346   3.976   1.870  0.4281 -2.5650 -0.4889
   26GLOH   H03 8531   2.887   1.096   0.163  0.0285  0.9884  2.4394
   26GLOH    O1 8532   2.956   1.154   0.125  0.0827  0.0724  1.1070
   26GLOH    C1 8533   3.025   1.230   0.225  0.6428  0.2090  0.5858
   26GLOH   H02 8534   3.039   1.331   0.185  1.2349  0.0603  0.4132
   26GLOH   H08 8535   3.128   1.201   0.245  0.8394  0.3618 -0.1625
   26GLOH    C2 8536   2.960   1.237   0.359  0.5009  0.5680 -0.6225
   26GLOH   H04 8537   2.929   1.136   0.388 -2.2237  1.5150 -0.0655
   26GLOH    O2 8538   3.050   1.284   0.463 -0.2885 -0.1823 -0.0020
   26GLOH   H05 8539   3.126   1.225   0.473  0.8700  1.3935  0.7221
   26GLOH    C3 8540   2.831   1.328   0.355  0.1725  0.7764 -0.4143
   26GLOH   H06 8541   2.866   1.423   0.315 -0.1928  0.7341 -0.8381
   26GLOH   H07 8542   2.794   1.347   0.455 -2.3955 -2.1316 -0.7430
   26GLOH    O3 8543   2.730   1.274   0.274  0.1950  0.6867  0.1531
   26GLOH   H01 8544   2.730   1.177   0.283  1.6763  0.6962  0.4536
   27GLOH   H03 8545   4.403   1.524   1.921  2.5376 -0.3233  2.4645
   27GLOH    O1 8546   4.339   1.577   1.973  0.5332 -0.3604  0.1320
   27GLOH    C1 8547   4.354   1.535   2.104 -0.1986 -0.1523 -0.6368
   27GLOH   H02 8548   4.448   1.480   2.103 -0.3612 -0.5191  1.5316
   27GLOH   H08 8549   4.281   1.458   2.128 -0.2589  1.3537  4.5940
   27GLOH    C2 8550   4.344   1.637   2.219 -0.2441  0.3977 -0.5330
   27GLOH   H04 8551   4.237   1.662   2.227 -0.1487  0.2668  1.3431
   27GLOH    O2 8552   4.395   1.576   2.339  0.2093 -0.1315  0.0701
   27GLOH   H05 8553   4.332   1.515   2.381 -1.4835  0.4759 -1.5172
   27GLOH    C3 8554   4.435   1.753   2.173 -0.3898  0.2650  0.7831
   27GLOH   H06 8555   4.531   1.706   2.150 -1.2618 -0.3482 -1.6758
   27GLOH   H07 8556   4.437   1.829   2.251  0.3606 -0.7778  1.7903
   27GLOH    O3 8557   4.384   1.823   2.057 -0.1007  0.1423 -0.2291
   27GLOH   H01 8558   4.345   1.762   1.992  0.3407 -0.0834 -0.2822
   28GLOH   H03 8559   3.845   9.693   0.363  0.2768  0.3576  0.0285
   28GLOH    O1 8560   3.862   9.636   0.441 -0.7354 -0.0944 -0.0717
   28GLOH    C1 8561   3.741   9.565   0.477  0.9119  0.8620 -0.0631
   28GLOH   H02 8562   3.698   9.520   0.388  4.8300 -0.9122 -1.1856
   28GLOH   H08 8563   3.666   9.636   0.513 -0.9152 -0.8915 -0.2983
   28GLOH    C2 8564   3.782   9.448   0.569 -0.5443  0.2100  0.4297
   28GLOH   H04 8565   3.828   9.498   0.657 -0.3740  0.0435  0.4351
   28GLOH    O2 8566   3.665   9.389   0.620  0.2567  0.0878  0.4100
   28GLOH   H05 8567   3.664   9.410   0.715  1.6077 -0.8885  0.6554
   28GLOH    C3 8568   3.878   9.345   0.513 -1.0821  0.0854 -0.5414
   28GLOH   H06 8569   3.966   9.406   0.488 -2.1690  0.7704 -2.8215
   28GLOH   H07 8570   3.831   9.307   0.423 -0.1847 -1.8298 -0.2192
   28GLOH    O3 8571   3.928   9.229   0.584  0.0602 -0.0638 -0.0819
   28GLOH   H01 8572   3.864   9.219   0.657  0.5691 -1.5919  0.1595
   29GLOH   H03 8573   3.974   9.724   0.532  2.0390 -1.7845 -0.8950
   29GLOH    O1 8574   4.009   9.810   0.562 -0.6697 -0.8111 -0.3433
   29GLOH    C1 8575   3.912   9.922   0.576  0.9931  0.5520  0.0652
   29GLOH   H02 8576   3.811   9.897   0.612 -0.0569 -0.0224 -3.1407
   29GLOH   H08 8577   3.910   9.973   0.480  0.2722 -0.0705 -0.2642
   29GLOH    C2 8578   3.960  10.020   0.685 -0.2130 -0.1304 -0.0560
   29GLOH   H04 8579   4.069  10.031   0.672 -0.3988 -0.8407 -2.3517
   29GLOH    O2 8580   3.894  10.151   0.680  0.1416  0.6551  0.0667
   29GLOH   H05 8581   3.974  10.205   0.664  1.2764 -1.0692 -0.2455
   29GLOH    C3 8582   3.932   9.954   0.826  0.4930 -0.0462 -0.2838
   29GLOH   H06 8583   3.829   9.921   0.834  0.8281 -1.3059 -0.9754
   29GLOH   H07 8584   3.962  10.021   0.907  0.9295  0.1162 -0.5736
   29GLOH    O3 8585   4.031   9.846   0.831 -0.5800  0.1067 -0.2490
   29GLOH   H01 8586   4.060   9.802   0.749  0.5208 -0.1228  0.2453
   30GLOH   H03 8587   4.452   3.931   2.786 -0.1056  0.5458 -0.2820
   30GLOH    O1 8588   4.384   3.936   2.855 -0.5028  0.1926 -0.6457
   30GLOH    C1 8589   4.381   4.075   2.890 -0.1231  0.5838 -0.4896
   30GLOH   H02 8590   4.365   4.133   2.799  0.4739  2.1574  0.3910
   30GLOH   H08 8591   4.475   4.102   2.938 -0.1820  0.9878 -0.6065
   30GLOH    C2 8592   4.277   4.117   2.998 -0.4220 -0.4590 -0.4697
   30GLOH   H04 8593   4.294   4.039   3.073 -0.9918  0.3598  0.5231
   30GLOH    O2 8594   4.297   4.248   3.055 -0.2618 -0.2471 -0.5296
   30GLOH   H05 8595   4.235   4.316   3.025 -0.6528 -0.4985 -0.2916
   30GLOH    C3 8596   4.141   4.093   2.945  0.2907 -0.1918  0.2343
   30GLOH   H06 8597   4.120   4.162   2.863  0.2585  0.3166  0.6644
   30GLOH   H07 8598   4.063   4.107   3.020 -0.6817 -0.7390 -0.6649
   30GLOH    O3 8599   4.127   3.963   2.894  0.2648 -0.1628 -0.5099
   30GLOH   H01 8600   4.210   3.943   2.847 -0.9041 -3.2263 -1.4087
   31GLOH   H03 8601   3.504   1.277   2.102 -1.2533  0.1967 -0.4687
   31GLOH    O1 8602   3.583   1.280   2.045  0.0233 -0.0640  1.2506
   31GLOH    C1 8603   3.544   1.367   1.929 -0.1343 -0.7041 -0.3208
   31GLOH   H02 8604   3.489   1.459   1.951  0.3919  0.1778 -2.5763
   31GLOH   H08 8605   3.475   1.315   1.864 -1.3522 -0.0899  0.4468
   31GLOH    C2 8606   3.669   1.415   1.848  0.8618  0.7231  0.9844
   31GLOH   H04 8607   3.682   1.338   1.771 -2.3404  0.7596  0.3311
   31GLOH    O2 8608   3.651   1.543   1.778 -0.3061  0.4488  0.1756
   31GLOH   H05 8609   3.611   1.527   1.691 -0.4724 -0.0394  0.3399
   31GLOH    C3 8610   3.808   1.400   1.921 -0.4723 -1.0176 -0.4023
   31GLOH   H06 8611   3.807   1.471   2.004  0.5297 -0.6447 -0.7071
   31GLOH   H07 8612   3.886   1.421   1.848  0.9273  1.4551  1.6821
   31GLOH    O3 8613   3.819   1.266   1.966 -0.1178 -0.1393  0.0882
   31GLOH   H01 8614   3.744   1.250   2.026  2.4047 -1.1126  3.1450
   32GLOH   H03 8615   4.060   1.183   0.816  0.6202  2.5165 -0.0436
   32GLOH    O1 8616   4.126   1.169   0.746 -0.3700 -0.0718 -0.5124
   32GLOH    C1 8617   4.053   1.137   0.626 -0.6267 -0.7337 -0.3061
   32GLOH   H02 8618   4.112   1.140   0.534  0.2215 -4.5685  0.0332
   32GLOH   H08 8619   3.973   1.210   0.615 -2.0902 -2.1384  0.7707
   32GLOH    C2 8620   3.983   0.999   0.632  0.1890 -0.4151 -0.3007
   32GLOH   H04 8621   3.935   0.988   0.730 -1.4661  0.2652 -1.0119
   32GLOH    O2 8622   3.884   1.015   0.527 -0.0064 -0.1618  0.5351
   32GLOH   H05 8623   3.817   0.949   0.552 -0.7167 -0.1447 -1.2299
   32GLOH    C3 8624   4.085   0.895   0.581  0.4823 -0.0452  0.1295
   32GLOH   H06 8625   4.172   0.906   0.645  0.0133  1.0705  0.5853
   32GLOH   H07 8626   4.128   0.922   0.485  2.7524 -0.7202  0.9115
   32GLOH    O3 8627   4.044   0.758   0.562  0.8929 -0.1802 -0.2127
   32GLOH   H01 8628   3.958   0.761   0.516  0.2269  1.1983  1.0413
   33GLOH   H03 8629   3.377   0.459   0.742 -0.1916 -2.8305  2.3529
   33GLOH    O1 8630   3.320   0.512   0.801  0.6318  0.1195  0.6080
   33GLOH    C1 8631   3.353   0.483   0.940  0.1730 -0.4868 -0.4806
   33GLOH   H02 8632   3.327   0.381   0.964  0.2578 -0.1994  0.8644
   33GLOH   H08 8633   3.303   0.554   1.006  0.0743 -0.5065 -0.5345
   33GLOH    C2 8634   3.499   0.485   0.965  0.0215 -0.2537  0.1444
   33GLOH   H04 8635   3.550   0.421   0.891 -0.4776  0.6607 -1.0153
   33GLOH    O2 8636   3.560   0.615   0.960  0.3702 -0.1907  0.1566
   33GLOH   H05 8637   3.495   0.682   0.985 -0.7265 -0.5382 -1.7276
   33GLOH    C3 8638   3.525   0.435   1.108 -0.2302  0.1946 -0.5030
   33GLOH   H06 8639   3.480   0.498   1.185 -2.8331 -2.2367  0.0689
   33GLOH   H07 8640   3.634   0.439   1.117 -0.4460  1.6902  1.8262
   33GLOH    O3 8641   3.471   0.305   1.120 -0.3540  0.1287  0.5128
   33GLOH   H01 8642   3.482   0.256   1.037  1.2479 -0.2430  0.9202
   34GLOH   H03 8643   3.860   3.629   0.970 -1.5340 -0.3446  0.1492
   34GLOH    O1 8644   3.882   3.594   0.881 -0.2316  0.0265  0.3156
   34GLOH    C1 8645   3.824   3.685   0.782  0.1126 -0.3111 -0.2087
   34GLOH   H02 8646   3.891   3.768   0.762 -0.8064  0.0714 -1.8619
   34GLOH   H08 8647   3.733   3.732   0.818  0.1322 -0.6235  0.2560
   34GLOH    C2 8648   3.806   3.622   0.637 -0.5330 -0.3012 -0.2024
   34GLOH   H04 8649   3.899   3.576   0.601 -0.4920 -1.1024  0.9346
   34GLOH    O2 8650   3.711   3.514   0.638  1.0767 -0.2110  0.5730
   34GLOH   H05 8651   3.727   3.452   0.565 -3.2374 -1.6710  0.7254
   34GLOH    C3 8652   3.761   3.723   0.526  0.1325  0.5759  0.0369
   34GLOH   H06 8653   3.665   3.769   0.551 -0.7117 -0.1886 -1.7139
   34GLOH   H07 8654   3.735   3.678   0.430 -2.4118  1.7175  0.1582
   34GLOH    O3 8655   3.870   3.819   0.509 -0.3255 -0.0070  0.4876
   34GLOH   H01 8656   3.895   3.832   0.415 -1.3773  1.3137  0.3726
   35GLOH   H03 8657   4.286   1.714   0.874 -0.3030 -1.5889  1.7587
   35GLOH    O1 8658   4.271   1.643   0.809  0.0305  0.1537 -0.2990
   35GLOH    C1 8659   4.162   1.558   0.846  0.1302 -0.1279 -0.5237
   35GLOH   H02 8660   4.149   1.564   0.954  0.4006 -1.4087 -0.4117
   35GLOH   H08 8661   4.166   1.453   0.816 -0.3023 -0.0868 -0.7418
   35GLOH    C2 8662   4.026   1.615   0.792 -0.7123  0.3279 -0.4554
   35GLOH   H04 8663   4.039   1.603   0.683 -1.8366 -1.0108 -0.4590
   35GLOH    O2 8664   3.916   1.529   0.835 -0.6034  0.2817 -0.0312
   35GLOH   H05 8665   3.898   1.529   0.931  0.3305 -0.8138  0.1581
   35GLOH    C3 8666   4.009   1.768   0.824 -0.8546  0.0857 -0.4605
   35GLOH   H06 8667   4.081   1.824   0.764  0.1798  2.1789  2.5561
   35GLOH   H07 8668   4.032   1.789   0.929 -2.3101  1.5624 -0.4184
   35GLOH    O3 8669   3.884   1.829   0.797  0.9200 -0.0705 -0.7846
   35GLOH   H01 8670   3.891   1.849   0.701  1.4946 -1.0133 -0.9444
   36GLOH   H03 8671   4.687   1.726   1.599 -0.6037  0.8395  0.0729
   36GLOH    O1 8672   4.667   1.725   1.694 -0.4601  0.4915  0.0977
   36GLOH    C1 8673   4.567   1.824   1.701 -0.1324  0.3012  0.7972
   36GLOH   H02 8674   4.607   1.925   1.692 -2.3327  0.9124 -2.8916
   36GLOH   H08 8675   4.518   1.814   1.798 -0.1483 -0.3174  0.7290
   36GLOH    C2 8676   4.479   1.817   1.580 -0.0725 -0.3066  0.0132
   36GLOH   H04 8677   4.432   1.717   1.582  1.0687 -0.8605 -0.5501
   36GLOH    O2 8678   4.373   1.915   1.594 -0.1771 -0.7077  0.1151
   36GLOH   H05 8679   4.305   1.878   1.653 -0.7383  0.7177  0.3965
   36GLOH    C3 8680   4.556   1.843   1.452  0.6914 -0.3420  0.0499
   36GLOH   H06 8681   4.597   1.944   1.449 -1.0478  0.4062  1.0665
   36GLOH   H07 8682   4.487   1.834   1.368  0.2510 -2.7740  0.6287
   36GLOH    O3 8683   4.668   1.755   1.445 -0.2949  0.1565 -0.2255
   36GLOH   H01 8684   4.702   1.747   1.354 -0.2425 -0.4393 -0.1533
   37GLOH   H03 8685   3.537   3.832   1.437  1.4700 -0.4422 -0.4071
   37GLOH    O1 8686   3.502   3.867   1.352 -0.2328 -0.3043  0.3310
   37GLOH    C1 8687   3.613   3.917   1.278  0.2196  0.0916  0.1541
   37GLOH   H02 8688   3.569   3.968   1.193 -0.1062  0.4938  0.5615
   37GLOH   H08 8689   3.671   3.833   1.241 -1.4592 -0.2213 -1.8593
   37GLOH    C2 8690   3.713   4.002   1.362  0.4848 -0.2854 -0.1859
   37GLOH   H04 8691   3.660   4.085   1.411  1.1275  0.2877 -0.4688
   37GLOH    O2 8692   3.760   3.925   1.472  0.3902 -0.2598 -0.3679
   37GLOH   H05 8693   3.846   3.891   1.442  0.8321  1.5871 -1.2358
   37GLOH    C3 8694   3.828   4.057   1.273 -0.8512 -0.3279 -0.1616
   37GLOH   H06 8695   3.876   4.136   1.331 -0.4443 -1.5004  1.1329
   37GLOH   H07 8696   3.769   4.105   1.195 -0.7681 -1.4359 -0.9101
   37GLOH    O3 8697   3.932   3.960   1.237  0.3055 -0.1727 -0.2345
   37GLOH   H01 8698   4.014   3.979   1.287 -0.6142  0.5819  1.0257
   38GLOH   H03 8699   2.547   1.172   1.902  0.4056 -0.1239 -0.6245
   38GLOH    O1 8700   2.540   1.232   1.978  0.5606 -0.0311 -0.6841
   38GLOH    C1 8701   2.469   1.169   2.086  0.2230 -0.2907  0.5302
   38GLOH   H02 8702   2.494   1.063   2.100  3.6818  0.2897 -0.6081
   38GLOH   H08 8703   2.363   1.188   2.074 -0.4041 -2.3758  2.3664
   38GLOH    C2 8704   2.498   1.249   2.214  0.9732  0.1969 -0.3176
   38GLOH   H04 8705   2.446   1.344   2.194 -0.7012 -0.9996 -1.8143
   38GLOH    O2 8706   2.440   1.181   2.325  0.1066 -0.1672  0.0834
   38GLOH   H05 8707   2.403   1.092   2.311  3.5824 -1.4702 -1.5758
   38GLOH    C3 8708   2.642   1.278   2.255 -0.0984 -0.1931  0.1831
   38GLOH   H06 8709   2.637   1.337   2.347  2.3616  1.3095 -0.5944
   38GLOH   H07 8710   2.682   1.346   2.181 -1.8697  0.3177 -0.3377
   38GLOH    O3 8711   2.724   1.163   2.277  0.1696 -0.1537 -0.3897
   38GLOH   H01 8712   2.666   1.086   2.295  0.7096 -0.7364 -1.1405
   39GLOH   H03 8713   4.200   3.089   2.688 -1.0525  3.5914 -1.7626
   39GLOH    O1 8714   4.259   3.126   2.756 -1.0942  0.0289  0.3287
   39GLOH    C1 8715   4.315   3.008   2.816  0.4106  0.3541 -0.2398
   39GLOH   H02 8716   4.408   3.036   2.865  0.0412 -0.0259  0.6903
   39GLOH   H08 8717   4.335   2.934   2.738 -4.1259 -0.5350 -0.6741
   39GLOH    C2 8718   4.215   2.953   2.927 -0.2300  0.0907 -0.1080
   39GLOH   H04 8719   4.119   2.946   2.874 -0.6550 -1.4626  0.8314
   39GLOH    O2 8720   4.273   2.831   2.975  0.2220  0.5299 -0.4740
   39GLOH   H05 8721   4.237   2.816   3.064  1.3164  0.5242 -0.0263
   39GLOH    C3 8722   4.194   3.048   3.038 -0.1932 -0.1377 -0.3372
   39GLOH   H06 8723   4.288   3.066   3.090 -1.9469  0.0672  2.9282
   39GLOH   H07 8724   4.135   3.019   3.125 -0.5655  1.5075 -0.0127
   39GLOH    O3 8725   4.149   3.175   2.983  0.0425 -0.7203 -0.5077
   39GLOH   H01 8726   4.184   3.183   2.893  1.4921 -2.0398 -0.0822
   40GLOH   H03 8727   4.034   0.649   0.693  0.3770 -0.2564 -0.1740
   40GLOH    O1 8728   4.049   0.595   0.773 -0.3586 -0.3838 -0.1196
   40GLOH    C1 8729   4.036   0.678   0.887 -0.1020  0.2798  0.1674
   40GLOH   H02 8730   4.086   0.774   0.869 -0.6015  0.0871 -2.4953
   40GLOH   H08 8731   4.084   0.632   0.973  1.8528 -0.1864 -1.1173
   40GLOH    C2 8732   3.887   0.705   0.913 -0.3661 -0.3688  0.2591
   40GLOH   H04 8733   3.856   0.759   0.822  0.0968  1.0886  0.9506
   40GLOH    O2 8734   3.806   0.590   0.935  0.5021  0.2266  0.2564
   40GLOH   H05 8735   3.714   0.621   0.946  1.0113  2.3574 -1.2953
   40GLOH    C3 8736   3.867   0.804   1.034  0.3295 -0.8467 -1.3126
   40GLOH   H06 8737   3.917   0.767   1.123 -0.7856 -1.5248 -0.9607
   40GLOH   H07 8738   3.759   0.807   1.047  0.6863 -1.0132  1.9653
   40GLOH    O3 8739   3.898   0.943   1.005  0.4286  0.5542  0.1273
   40GLOH   H01 8740   3.989   0.957   1.036  0.7795  0.3610 -0.7874
   41GLOH   H03 8741   3.238   0.746   0.637  1.0459 -0.5298 -0.9971
   41GLOH    O1 8742   3.205   0.771   0.549 -0.2335  0.3973 -0.2699
   41GLOH    C1 8743   3.317   0.808   0.468 -0.3436 -0.1242 -0.0286
   41GLOH   H02 8744   3.292   0.840   0.367  3.0144 -0.8798 -1.1395
   41GLOH   H08 8745   3.391   0.728   0.468  0.7961  0.9099 -0.0000
   41GLOH    C2 8746   3.383   0.937   0.532 -0.3238 -0.6120 -0.1875
   41GLOH   H04 8747   3.371   0.948   0.641 -0.3700  3.4994 -0.5366
   41GLOH    O2 8748   3.524   0.932   0.502  0.1777 -0.0390  0.3854
   41GLOH   H05 8749   3.581   0.922   0.579  0.6780 -2.9824 -0.2767
   41GLOH    C3 8750   3.324   1.066   0.467  0.7318 -0.1003 -0.1027
   41GLOH   H06 8751   3.356   1.060   0.363  1.8849 -1.1799  0.2993
   41GLOH   H07 8752   3.370   1.155   0.509 -0.5919 -0.4132  2.0724
   41GLOH    O3 8753   3.181   1.064   0.495  0.3279  0.4587  0.7861
   41GLOH   H01 8754   3.153   0.980   0.536 -0.4936  0.0150 -0.6280
   42GLOH   H03 8755   4.454   4.072   2.423 -2.1600 -0.7683 -0.9758
   42GLOH    O1 8756   4.515   4.008   2.382 -0.6581  0.1914 -0.2948
   42GLOH    C1 8757   4.631   3.993   2.467 -1.3160 -0.3806  0.3648
   42GLOH   H02 8758   4.634   4.078   2.535  2.6972 -1.1594  1.2829
   42GLOH   H08 8759   4.721   3.978   2.408 -2.4160 -2.6987 -0.8018
   42GLOH    C2 8760   4.624   3.869   2.556 -0.6860 -0.2402  0.0401
   42GLOH   H04 8761   4.716   3.868   2.617 -0.2589  2.9733 -0.4598
   42GLOH    O2 8762   4.521   3.879   2.656 -0.0090 -0.4557 -0.1088
   42GLOH   H05 8763   4.456   3.807   2.645 -0.1701 -0.6526  1.9152
   42GLOH    C3 8764   4.630   3.733   2.486 -0.1670  0.1596  0.2221
   42GLOH   H06 8765   4.543   3.726   2.421  0.2911  0.1378 -0.3908
   42GLOH   H07 8766   4.629   3.654   2.561  2.3783  1.5839  1.8379
   42GLOH    O3 8767   4.758   3.720   2.415 -0.2447 -0.1852 -0.2760
   42GLOH   H01 8768   4.740   3.661   2.340  2.7096 -0.0106 -1.1671
   43GLOH   H03 8769   3.851   9.422   1.586  0.0759 -0.5480 -0.2680
   43GLOH    O1 8770   3.798   9.397   1.664  0.0861  0.0161 -0.0773
   43GLOH    C1 8771   3.891   9.333   1.749 -0.2174  0.5622 -0.7289
   43GLOH   H02 8772   3.980   9.396   1.751  0.8921 -0.8744 -2.2672
   43GLOH   H08 8773   3.920   9.231   1.724  1.8131  1.3274 -1.6193
   43GLOH    C2 8774   3.841   9.326   1.889  0.3291 -0.5316  0.4989
   43GLOH   H04 8775   3.745   9.272   1.892  0.8570 -1.4085  2.5853
   43GLOH    O2 8776   3.936   9.259   1.973 -0.1557  0.0598  0.2171
   43GLOH   H05 8777   3.960   9.182   1.919  1.3919  1.2599 -0.8107
   43GLOH    C3 8778   3.818   9.470   1.936 -0.0399 -0.7819  0.6030
   43GLOH   H06 8779   3.914   9.520   1.950  0.0415 -0.8649  0.3475
   43GLOH   H07 8780   3.769   9.468   2.033  0.0786 -4.6412  0.6455
   43GLOH    O3 8781   3.727   9.549   1.854 -0.1471  0.2343  0.1320
   43GLOH   H01 8782   3.747   9.513   1.765  1.6228  1.0514  0.1788
   44GLOH   H03 8783   3.633   2.366   1.614 -1.2182 -0.3850 -0.3339
   44GLOH    O1 8784   3.665   2.424   1.542 -0.6539 -0.2029  0.0585
   44GLOH    C1 8785   3.759   2.526   1.587 -0.0466 -0.8045  0.2761
   44GLOH   H02 8786   3.800   2.575   1.498  0.5078 -2.3847 -0.3575
   44GLOH   H08 8787   3.845   2.479   1.636  1.6028  1.5855 -0.2502
   44GLOH    C2 8788   3.694   2.625   1.679 -0.6075  0.0500  0.5223
   44GLOH   H04 8789   3.619   2.683   1.624  0.8642  1.3430 -0.1598
   44GLOH    O2 8790   3.643   2.553   1.799  0.3003  0.0763  0.1756
   44GLOH   H05 8791   3.707   2.489   1.836 -0.4824 -0.3648  0.7909
   44GLOH    C3 8792   3.800   2.731   1.719  0.2523  0.0134  0.8961
   44GLOH   H06 8793   3.871   2.680   1.784 -0.3274 -2.2000 -0.1630
   44GLOH   H07 8794   3.745   2.804   1.777 -1.2889  2.5057 -3.4398
   44GLOH    O3 8795   3.865   2.793   1.602 -0.3196 -0.3559 -0.2552
   44GLOH   H01 8796   3.959   2.808   1.624 -0.6232 -0.6172  1.3126
   45GLOH   H03 8797   4.181   1.235   1.335 -0.5700 -0.0059  3.1744
   45GLOH    O1 8798   4.253   1.180   1.371  0.7472 -0.3342  0.1736
   45GLOH    C1 8799   4.334   1.275   1.444  0.2712 -0.6106 -0.2788
   45GLOH   H02 8800   4.279   1.334   1.517 -0.7232 -1.3454 -0.4201
   45GLOH   H08 8801   4.379   1.350   1.380  1.2977  1.4318  2.7581
   45GLOH    C2 8802   4.446   1.201   1.509  0.0780 -0.3163 -0.0469
   45GLOH   H04 8803   4.511   1.157   1.432  1.6393  2.3585 -0.2911
   45GLOH    O2 8804   4.530   1.295   1.583 -0.2727 -0.7728  0.1530
   45GLOH   H05 8805   4.592   1.327   1.515 -0.2615 -0.2669  0.3960
   45GLOH    C3 8806   4.403   1.111   1.624 -0.8038 -0.4327 -0.0616
   45GLOH   H06 8807   4.354   1.175   1.698  1.2111 -2.4512  3.1365
   45GLOH   H07 8808   4.493   1.064   1.663 -0.1710 -0.8106 -1.9221
   45GLOH    O3 8809   4.319   0.999   1.573 -0.3515  0.0746  0.1161
   45GLOH   H01 8810   4.284   1.036   1.491  0.3861  3.3876  1.1812
   46GLOH   H03 8811   3.046   9.556   2.780  0.2589  0.4821  1.7879
   46GLOH    O1 8812   2.966   9.611   2.772 -0.2952 -0.5556 -0.1315
   46GLOH    C1 8813   2.890   9.536   2.669  0.4541  0.1950 -0.0462
   46GLOH   H02 8814   2.901   9.597   2.579  1.0345  0.6042  0.2966
   46GLOH   H08 8815   2.787   9.532   2.704  0.6069 -0.0797  0.3734
   46GLOH    C2 8816   2.932   9.392   2.628  0.0474  0.1940 -0.0856
   46GLOH   H04 8817   2.932   9.314   2.705 -2.0710 -1.2970 -1.5404
   46GLOH    O2 8818   2.861   9.362   2.506 -0.3077 -0.0075 -0.2746
   46GLOH   H05 8819   2.794   9.430   2.488  0.3571  1.0836  1.2341
   46GLOH    C3 8820   3.081   9.392   2.597  0.0809  0.4283  1.0286
   46GLOH   H06 8821   3.109   9.446   2.506 -2.1439  1.2232  0.7962
   46GLOH   H07 8822   3.114   9.291   2.573 -1.7262  0.2974 -1.0882
   46GLOH    O3 8823   3.162   9.441   2.706 -0.2404  0.2228  0.2040
   46GLOH   H01 8824   3.254   9.446   2.673 -0.9741  1.3676 -1.7096
   47GLOH   H03 8825   3.957   9.399   1.110  1.3849 -0.5488  1.3428
   47GLOH    O1 8826   3.906   9.318   1.127  0.1489  0.0027  0.3230
   47GLOH    C1 8827   3.876   9.255   1.003 -0.5587  0.6437 -0.3365
   47GLOH   H02 8828   3.970   9.256   0.948  0.5176 -2.1422  1.3148
   47GLOH   H08 8829   3.794   9.313   0.962  1.0702  2.2451 -1.4238
   47GLOH    C2 8830   3.837   9.105   1.013  0.6062  0.5254 -0.1767
   47GLOH   H04 8831   3.912   9.055   1.076  1.8886  0.7857 -1.4833
   47GLOH    O2 8832   3.702   9.092   1.058 -0.1322 -0.5382 -0.4250
   47GLOH   H05 8833   3.651   9.132   0.986 -1.3252 -1.5029 -0.1235
   47GLOH    C3 8834   3.853   9.047   0.878  0.7858 -0.2315  0.3932
   47GLOH   H06 8835   3.829   8.941   0.885  1.1492 -0.5728 -2.7145
   47GLOH   H07 8836   3.959   9.042   0.855  0.2403  0.2147 -2.4191
   47GLOH    O3 8837   3.770   9.111   0.780 -0.2582 -0.8339 -0.4966
   47GLOH   H01 8838   3.682   9.077   0.804 -0.1987 -0.7508 -0.1624
   48GLOH   H03 8839   2.459   1.036   1.796 -0.2544  0.9652  3.1864
   48GLOH    O1 8840   2.550   1.072   1.790 -0.4085  1.0024  0.4959
   48GLOH    C1 8841   2.636   0.958   1.779 -0.6508 -0.0517  0.0887
   48GLOH   H02 8842   2.643   0.938   1.672 -1.8819 -0.9238  0.1620
   48GLOH   H08 8843   2.599   0.864   1.821 -0.5492 -1.5303 -2.9530
   48GLOH    C2 8844   2.778   1.007   1.821 -0.0410 -0.0758 -0.6344
   48GLOH   H04 8845   2.812   1.098   1.769 -0.2515  0.0354 -0.5765
   48GLOH    O2 8846   2.772   1.039   1.962  0.5477 -0.5432  0.2512
   48GLOH   H05 8847   2.725   1.124   1.972  0.5977 -0.3245 -1.3324
   48GLOH    C3 8848   2.872   0.887   1.819  0.7267  0.1789  0.0760
   48GLOH   H06 8849   2.819   0.800   1.855 -0.9186  1.1375  0.0288
   48GLOH   H07 8850   2.956   0.925   1.878 -0.3466  1.8451  0.5730
   48GLOH    O3 8851   2.916   0.853   1.684 -0.1844  0.7529 -0.2082
   48GLOH   H01 8852   2.952   0.763   1.679 -1.1863  0.3527 -0.3466
   49GLOH   H03 8853   4.707   2.258   0.246 -1.9324 -0.5925  0.7065
   49GLOH    O1 8854   4.684   2.345   0.285 -0.0136  0.1220  0.3097
   49GLOH    C1 8855   4.685   2.320   0.428 -0.1647  0.0003  0.0780
   49GLOH   H02 8856   4.792   2.324   0.451  0.2119 -1.1650 -1.3601
   49GLOH   H08 8857   4.653   2.226   0.471  1.2447 -0.9914 -0.9822
   49GLOH    C2 8858   4.608   2.430   0.500  0.3108  0.0343  0.2420
   49GLOH   H04 8859   4.660   2.524   0.473  1.1752  0.0082  1.7585
   49GLOH    O2 8860   4.466   2.434   0.468  0.1160 -0.0565  0.2703
   49GLOH   H05 8861   4.473   2.475   0.380  2.9796  1.6607  1.1883
   49GLOH    C3 8862   4.619   2.421   0.652  0.0459 -0.1877 -0.2798
   49GLOH   H06 8863   4.541   2.487   0.691 -0.1414  0.3886 -1.6141
   49GLOH   H07 8864   4.717   2.458   0.681 -0.1790 -0.1758  0.4888
   49GLOH    O3 8865   4.596   2.289   0.714  0.2209  0.0393 -0.0137
   49GLOH   H01 8866   4.552   2.291   0.801 -1.2532 -1.1804 -0.7134
   50GLOH   H03 8867   2.697   1.771   2.568 -1.1120 -0.8364  1.3710
   50GLOH    O1 8868   2.709   1.675   2.557  0.1647 -0.4660 -0.7072
   50GLOH    C1 8869   2.618   1.613   2.648 -0.4602  0.0409  0.0572
   50GLOH   H02 8870   2.653   1.637   2.748 -0.3499 -0.6397  0.1830
   50GLOH   H08 8871   2.619   1.505   2.630  1.2195  0.1070 -0.3260
   50GLOH    C2 8872   2.478   1.674   2.627  0.1550  0.0090 -0.5000
   50GLOH   H04 8873   2.408   1.617   2.690 -1.2057  0.6258 -1.4207
   50GLOH    O2 8874   2.490   1.803   2.673  0.4398 -0.2128  0.1492
   50GLOH   H05 8875   2.444   1.817   2.758 -1.6734  1.4197 -1.2003
   50GLOH    C3 8876   2.437   1.666   2.477 -0.9772  0.5977  0.3157
   50GLOH   H06 8877   2.502   1.735   2.424  0.2193  0.1842  1.2318
   50GLOH   H07 8878   2.339   1.712   2.461 -1.1994  0.5465  1.4969
   50GLOH    O3 8879   2.438   1.541   2.404  0.7988  0.4331 -0.0638
   50GLOH   H01 8880   2.462   1.552   2.310  0.0171  2.6297 -0.0350
   51GLOH   H03 8881   4.443   0.820   0.609  1.9584  1.3373 -0.8413
   51GLOH    O1 8882   4.457   0.838   0.704 -0.3420  0.2096 -0.2373
   51GLOH    C1 8883   4.559   0.940   0.711  0.1067 -0.2464  0.0504
   51GLOH   H02 8884   4.661   0.904   0.716  0.0035 -0.4958  0.4846
   51GLOH   H08 8885   4.542   0.999   0.801 -1.3171  0.8704 -0.9116
   51GLOH    C2 8886   4.561   1.041   0.602  0.3664 -0.2982 -0.6472
   51GLOH   H04 8887   4.468   1.099   0.591  0.7147  0.5604  0.8213
   51GLOH    O2 8888   4.672   1.129   0.609 -0.5772 -0.4890  0.0977
   51GLOH   H05 8889   4.655   1.195   0.678 -0.7291 -1.4733  1.0148
   51GLOH    C3 8890   4.565   0.954   0.476 -0.1237 -0.5984 -0.6598
   51GLOH   H06 8891   4.638   0.873   0.476  0.3149 -0.2030 -0.4665
   51GLOH   H07 8892   4.594   1.017   0.392  1.1773  2.3996  1.9707
   51GLOH    O3 8893   4.429   0.897   0.458  0.2742 -0.4985  0.2247
   51GLOH   H01 8894   4.371   0.957   0.408  0.3021  0.0117  0.7944
   52GLOH   H03 8895   4.646   2.761   1.605  0.6830 -0.8272 -0.1029
   52GLOH    O1 8896   4.590   2.720   1.536 -0.5033  0.3918  0.1186
   52GLOH    C1 8897   4.644   2.723   1.407  0.4384  0.6731  0.3109
   52GLOH   H02 8898   4.588   2.660   1.338  0.0439  0.6470  0.6506
   52GLOH   H08 8899   4.744   2.681   1.412  1.0711  2.1862  0.7144
   52GLOH    C2 8900   4.640   2.870   1.358  0.0092  0.9291  0.0753
   52GLOH   H04 8901   4.655   2.945   1.437  2.1230  0.4532  0.1561
   52GLOH    O2 8902   4.731   2.896   1.250 -0.5550 -0.7478 -0.2441
   52GLOH   H05 8903   4.789   2.972   1.268  0.9896 -2.0113  0.2730
   52GLOH    C3 8904   4.503   2.899   1.304 -1.0565 -0.0079  0.5071
   52GLOH   H06 8905   4.485   2.831   1.221 -0.0079  0.0034  0.2613
   52GLOH   H07 8906   4.508   2.993   1.249  0.8802 -1.5950 -2.1546
   52GLOH    O3 8907   4.387   2.897   1.390  0.2458 -0.0121  0.1273
   52GLOH   H01 8908   4.373   2.814   1.439  0.7846 -0.3288 -0.2580
   53GLOH   H03 8909   3.544   1.570   2.478  0.6504  0.4215  0.1739
   53GLOH    O1 8910   3.611   1.502   2.459 -0.0798 -0.4758  0.8131
   53GLOH    C1 8911   3.638   1.541   2.323  0.1102  0.9549  0.1116
   53GLOH   H02 8912   3.556   1.547   2.252  2.4230 -0.6923 -2.8343
   53GLOH   H08 8913   3.697   1.457   2.287  1.0243  0.7644  2.0045
   53GLOH    C2 8914   3.711   1.676   2.307  0.6096  0.4731 -0.0071
   53GLOH   H04 8915   3.668   1.753   2.372  0.0181  0.7933 -0.7759
   53GLOH    O2 8916   3.850   1.665   2.344  0.4000  0.0622 -0.4445
   53GLOH   H05 8917   3.869   1.751   2.385  1.4625 -0.8360  1.0072
   53GLOH    C3 8918   3.697   1.733   2.164 -0.4474  0.3327  0.2010
   53GLOH   H06 8919   3.592   1.715   2.144 -0.1464  0.0049 -1.1899
   53GLOH   H07 8920   3.764   1.669   2.106  1.3428  2.1601  0.1985
   53GLOH    O3 8921   3.725   1.875   2.148  0.2894 -0.1178 -0.8249
   53GLOH   H01 8922   3.800   1.872   2.086  0.5913 -1.0862 -0.4104
   54GLOH   H03 8923   3.123   3.192   2.630  0.4828  2.4091  0.6579
   54GLOH    O1 8924   3.035   3.203   2.672 -0.1303 -0.2121  0.1186
   54GLOH    C1 8925   2.968   3.075   2.656 -0.3337  0.7538  0.2543
   54GLOH   H02 8926   2.871   3.076   2.705 -0.2946  0.8222  0.3313
   54GLOH   H08 8927   3.022   2.997   2.711 -0.6331 -0.5537 -1.2930
   54GLOH    C2 8928   2.972   3.029   2.507 -0.1666  0.2167  0.0808
   54GLOH   H04 8929   3.075   3.025   2.469 -0.5185 -1.3078 -0.7626
   54GLOH    O2 8930   2.903   2.899   2.502  0.4358  0.0657 -0.3036
   54GLOH   H05 8931   2.903   2.852   2.417  1.5143 -0.4750 -0.0183
   54GLOH    C3 8932   2.897   3.134   2.423 -0.9083  0.0794  0.0783
   54GLOH   H06 8933   2.797   3.123   2.465 -0.5696 -1.8239  0.4237
   54GLOH   H07 8934   2.885   3.094   2.323  0.4755  2.6146 -1.1505
   54GLOH    O3 8935   2.963   3.260   2.423 -0.4482  0.0207 -0.3549
   54GLOH   H01 8936   2.972   3.284   2.517 -1.2783 -0.8235 -0.0425
   55GLOH   H03 8937   4.310   0.864   2.086  0.7240  0.8577  0.5734
   55GLOH    O1 8938   4.229   0.810   2.090  0.9028  0.5106 -0.3848
   55GLOH    C1 8939   4.206   0.753   1.958 -0.3634 -0.5404 -0.4580
   55GLOH   H02 8940   4.201   0.835   1.886 -1.8634 -0.2200 -0.0053
   55GLOH   H08 8941   4.108   0.704   1.956  0.5514 -2.4891  1.1167
   55GLOH    C2 8942   4.317   0.653   1.907 -0.2813 -0.4193  0.4779
   55GLOH   H04 8943   4.282   0.623   1.807  0.2089 -2.5244  0.9003
   55GLOH    O2 8944   4.443   0.718   1.900 -0.4093  0.6771  0.1942
   55GLOH   H05 8945   4.459   0.755   1.811 -0.4793  0.6055  0.1521
   55GLOH    C3 8946   4.312   0.519   1.991 -0.7432 -0.2468  0.5430
   55GLOH   H06 8947   4.340   0.535   2.095 -0.3035 -2.0113  0.7058
   55GLOH   H07 8948   4.389   0.456   1.945 -0.7243  1.8196 -2.4405
   55GLOH    O3 8949   4.177   0.468   1.980  0.4325 -0.1863 -0.1383
   55GLOH   H01 8950   4.164   0.426   1.893 -0.6607 -1.9245  0.8239
   56GLOH   H03 8951   3.208   9.891   1.075  2.0524 -4.3590 -1.0217
   56GLOH    O1 8952   3.238   9.932   0.992 -0.7588  0.1782  0.0741
   56GLOH    C1 8953   3.316  10.048   1.014  0.0407 -0.1226  0.0298
   56GLOH   H02 8954   3.364  10.046   1.112  2.1056  0.3618 -0.9558
   56GLOH   H08 8955   3.254  10.136   1.028  0.4767  0.0981  0.6047
   56GLOH    C2 8956   3.424  10.051   0.903 -0.1382  0.0173  0.2026
   56GLOH   H04 8957   3.382  10.046   0.801 -1.5800 -2.0547  0.8575
   56GLOH    O2 8958   3.506  10.171   0.906  0.0384  0.7374  0.1918
   56GLOH   H05 8959   3.568  10.157   0.832  0.1670 -4.4962  1.0815
   56GLOH    C3 8960   3.518   9.926   0.921  0.4299 -0.6071  0.0651
   56GLOH   H06 8961   3.579   9.924   0.831  0.0363 -0.4409 -0.2078
   56GLOH   H07 8962   3.449   9.842   0.920  1.1580 -1.2339  1.3886
   56GLOH    O3 8963   3.601   9.928   1.040  0.6688 -0.3665 -0.1699
   56GLOH   H01 8964   3.643  10.016   1.047  0.8890 -0.3288 -1.7592
   57GLOH   H03 8965   3.275   0.674   0.826 -1.1093  0.3862  0.0442
   57GLOH    O1 8966   3.259   0.764   0.791  0.0796  0.5378 -0.1223
   57GLOH    C1 8967   3.151   0.827   0.865 -0.4961 -0.4562 -0.0606
   57GLOH   H02 8968   3.094   0.757   0.925  1.5267 -1.4847  0.7137
   57GLOH   H08 8969   3.073   0.875   0.807 -2.4555 -1.6606  1.5209
   57GLOH    C2 8970   3.214   0.946   0.948 -0.1418  0.1834  0.0774
   57GLOH   H04 8971   3.210   1.024   0.871 -0.2467  0.1373  0.0371
   57GLOH    O2 8972   3.122   0.988   1.051  0.1294 -0.1017 -0.4384
   57GLOH   H05 8973   3.035   1.011   1.015  0.7178  2.5841 -0.2297
   57GLOH    C3 8974   3.359   0.919   0.988  0.4460 -0.6772  1.2727
   57GLOH   H06 8975   3.400   1.010   1.031 -1.5095 -0.0737  1.8936
   57GLOH   H07 8976   3.414   0.902   0.895  1.8859  0.9245  1.8274
   57GLOH    O3 8977   3.376   0.804   1.064 -0.1278  0.5039  0.5232
   57GLOH   H01 8978   3.289   0.769   1.088  0.2030 -0.6946  0.0507
   58GLOH   H03 8979   4.708   1.679   1.121  0.2293 -0.4576  1.3179
   58GLOH    O1 8980   4.649   1.742   1.167 -0.7649  0.0615 -0.6377
   58GLOH    C1 8981   4.569   1.809   1.071  0.2105  0.0852 -0.3656
   58GLOH   H02 8982   4.595   1.785   0.968  1.7327  2.6913 -0.6062
   58GLOH   H08 8983   4.586   1.916   1.077 -0.8474  0.2333  0.2168
   58GLOH    C2 8984   4.411   1.790   1.079  0.0898 -0.5168  0.9947
   58GLOH   H04 8985   4.375   1.857   1.159 -0.3210  0.2259  0.1951
   58GLOH    O2 8986   4.337   1.827   0.961 -0.2594 -0.2181 -0.0563
   58GLOH   H05 8987   4.328   1.924   0.960 -1.0243 -0.2854 -0.7308
   58GLOH    C3 8988   4.377   1.654   1.138 -0.3197 -0.0862 -0.1400
   58GLOH   H06 8989   4.269   1.639   1.143 -0.4766  1.3737  1.0306
   58GLOH   H07 8990   4.403   1.653   1.244 -1.3332 -3.6149  0.1358
   58GLOH    O3 8991   4.437   1.547   1.063 -0.0934 -0.0969  0.0856
   58GLOH   H01 8992   4.437   1.462   1.112  4.1796  0.5772  1.4803
   59GLOH   H03 8993   4.238   3.290   2.392  0.4856  0.6932 -0.4805
   59GLOH    O1 8994   4.326   3.297   2.351  0.6570 -0.3147 -0.3060
   59GLOH    C1 8995   4.310   3.385   2.239  0.2981 -0.8636 -0.2757
   59GLOH   H02 8996   4.249   3.472   2.263  0.1478 -0.6568 -1.3780
   59GLOH   H08 8997   4.265   3.327   2.159  0.8593 -0.2686 -1.0323
   59GLOH    C2 8998   4.437   3.432   2.175 -0.3125  0.5367  0.3930
   59GLOH   H04 8999   4.489   3.349   2.125 -1.8233  1.0820 -2.1677
   59GLOH    O2 9000   4.409   3.530   2.068 -0.7570  0.1552  0.2659
   59GLOH   H05 9001   4.476   3.528   1.999 -0.6436  3.7051  0.1533
   59GLOH    C3 9002   4.528   3.482   2.286 -0.5700 -0.3942  0.4541
   59GLOH   H06 9003   4.545   3.392   2.344  2.1152  0.1501  0.5745
   59GLOH   H07 9004   4.484   3.564   2.343  2.4121  1.7680 -0.1847
   59GLOH    O3 9005   4.652   3.534   2.237  0.1951 -0.4285 -0.5009
   59GLOH   H01 9006   4.688   3.471   2.170 -0.8019  0.6817 -2.1121
   60GLOH   H03 9007   2.637   1.032   0.873 -0.6742 -0.0319  0.3440
   60GLOH    O1 9008   2.580   0.953   0.881 -0.0021 -0.5469  0.1755
   60GLOH    C1 9009   2.524   0.914   0.751  0.0960  0.1982  0.0259
   60GLOH   H02 9010   2.484   1.005   0.707 -2.2222  0.7667  3.1282
   60GLOH   H08 9011   2.438   0.848   0.761 -0.4610  1.0593  1.0001
   60GLOH    C2 9012   2.633   0.854   0.655 -0.2135 -0.4346 -0.2454
   60GLOH   H04 9013   2.569   0.815   0.574  0.2297 -0.2580 -0.6900
   60GLOH    O2 9014   2.721   0.964   0.602  0.4148 -0.8847 -0.0113
   60GLOH   H05 9015   2.683   1.044   0.642 -0.0706 -1.6608  1.1042
   60GLOH    C3 9016   2.712   0.735   0.719 -0.3936  0.2422 -0.4546
   60GLOH   H06 9017   2.788   0.767   0.790  0.2040  0.2754 -1.1012
   60GLOH   H07 9018   2.769   0.682   0.643  4.0481  0.0576  2.7778
   60GLOH    O3 9019   2.630   0.639   0.784  0.0438  0.4486 -0.1116
   60GLOH   H01 9020   2.671   0.551   0.797 -0.3435  0.2856  0.0254
   61GLOH   H03 9021   3.307   1.508   2.153 -2.2939 -0.4197 -2.1382
   61GLOH    O1 9022   3.330   1.413   2.149  0.9059  0.1709  0.0822
   61GLOH    C1 9023   3.210   1.323   2.168 -0.1870 -0.4810  0.4459
   61GLOH   H02 9024   3.152   1.353   2.255 -1.7365 -1.9122 -0.0581
   61GLOH   H08 9025   3.229   1.216   2.181 -2.2866 -1.0696 -1.0875
   61GLOH    C2 9026   3.107   1.335   2.053 -0.1690 -0.3012  0.1181
   61GLOH   H04 9027   3.084   1.442   2.048 -0.7211 -0.4830 -1.5064
   61GLOH    O2 9028   3.159   1.291   1.920  0.0857 -0.2966  0.5233
   61GLOH   H05 9029   3.202   1.205   1.933  1.8078 -0.2864 -4.2302
   61GLOH    C3 9030   2.983   1.254   2.090 -0.1998  0.2061 -0.0462
   61GLOH   H06 9031   3.016   1.151   2.099  0.8050  0.6447  1.5247
   61GLOH   H07 9032   2.915   1.252   2.005 -1.2397 -1.5197  0.8198
   61GLOH    O3 9033   2.928   1.304   2.214 -0.3031 -0.3183  0.0428
   61GLOH   H01 9034   2.865   1.236   2.243 -3.1055  2.4314  0.7142
   62GLOH   H03 9035   3.800   2.961   0.419 -0.3314 -0.2145 -0.5080
   62GLOH    O1 9036   3.813   3.048   0.461 -0.9084  0.1278 -1.0318
   62GLOH    C1 9037   3.837   3.026   0.602  0.0467 -0.2268 -0.2585
   62GLOH   H02 9038   3.777   2.939   0.627 -0.3288  0.3622  0.9194
   62GLOH   H08 9039   3.812   3.103   0.675 -1.0326 -1.6973  0.9380
   62GLOH    C2 9040   3.981   2.975   0.629  0.5337 -0.1647 -0.4888
   62GLOH   H04 9041   4.006   2.951   0.733  1.6067  0.4694 -0.5889
   62GLOH    O2 9042   3.995   2.846   0.560 -0.4630 -0.1019 -0.1640
   62GLOH   H05 9043   3.991   2.778   0.630 -0.2672  1.7252  1.6551
   62GLOH    C3 9044   4.082   3.074   0.572  0.0586 -0.2324  0.6029
   62GLOH   H06 9045   4.066   3.095   0.467 -0.6266  0.8417  0.9162
   62GLOH   H07 9046   4.182   3.033   0.586  0.4163  0.6245  0.5809
   62GLOH    O3 9047   4.064   3.200   0.652 -0.2512  0.7543  0.5857
   62GLOH   H01 9048   4.078   3.277   0.594 -1.5824  0.5179 -0.0714
   63GLOH   H03 9049   2.986   9.995   0.073  1.5110  0.1769 -0.7988
   63GLOH    O1 9050   3.025   9.925   0.129 -0.2981  0.0913  0.3814
   63GLOH    C1 9051   3.132   9.978   0.206  0.1689 -0.1879 -0.3336
   63GLOH   H02 9052   3.105   9.995   0.310 -0.9126 -0.4781 -0.5546
   63GLOH   H08 9053   3.165  10.077   0.173 -0.1661  1.4154  3.8250
   63GLOH    C2 9054   3.256   9.882   0.200  0.8337 -0.2518 -0.0172
   63GLOH   H04 9055   3.282   9.886   0.094  0.2777  0.1609 -0.1395
   63GLOH    O2 9056   3.354   9.940   0.292 -0.0416 -0.4470 -0.3505
   63GLOH   H05 9057   3.331   9.903   0.379 -1.4324  0.7677 -0.1882
   63GLOH    C3 9058   3.206   9.743   0.248  0.5389  0.9231 -0.7177
   63GLOH   H06 9059   3.264   9.664   0.201 -0.8790  0.8150 -2.3200
   63GLOH   H07 9060   3.101   9.731   0.223 -0.0501  1.2566  1.4885
   63GLOH    O3 9061   3.203   9.736   0.393  0.2187 -0.1667  0.4365
   63GLOH   H01 9062   3.118   9.692   0.410  1.7087 -3.1711  0.4624
   64GLOH   H03 9063   4.756   3.571   0.575  1.0511 -0.0757 -0.3584
   64GLOH    O1 9064   4.830   3.556   0.637  0.4001 -0.4935  0.3198
   64GLOH    C1 9065   4.788   3.505   0.762 -0.6843  0.3147  0.1333
   64GLOH   H02 9066   4.743   3.407   0.749  2.1576 -1.2062  1.2689
   64GLOH   H08 9067   4.717   3.568   0.815 -0.6325 -0.5176  1.2219
   64GLOH    C2 9068   4.903   3.466   0.857  0.3805 -0.3111 -0.2425
   64GLOH   H04 9069   4.865   3.449   0.959  0.7095  0.1244 -0.0421
   64GLOH    O2 9070   4.969   3.344   0.813 -0.8483 -0.3814  0.1523
   64GLOH   H05 9071   4.912   3.266   0.820 -0.3099 -0.6092  2.2086
   64GLOH    C3 9072   4.999   3.584   0.878  0.4281 -0.2877  0.1855
   64GLOH   H06 9073   5.028   3.617   0.778  1.6143 -1.8857 -0.0061
   64GLOH   H07 9074   5.089   3.561   0.935  1.6728  1.6106 -0.9400
   64GLOH    O3 9075   4.930   3.689   0.953  0.0417  0.4640  0.3015
   64GLOH   H01 9076   4.874   3.743   0.893  1.2567  1.4181  0.0185
   65GLOH   H03 9077   4.104   1.773   1.395  1.2057 -1.6930  0.4125
   65GLOH    O1 9078   4.028   1.712   1.404 -0.2165  0.0901  0.8946
   65GLOH    C1 9079   3.964   1.700   1.269  0.0031 -0.2560 -0.4594
   65GLOH   H02 9080   4.035   1.654   1.201  0.8847  0.6659 -0.1747
   65GLOH   H08 9081   3.939   1.801   1.236 -0.5450 -0.2795 -0.1189
   65GLOH    C2 9082   3.832   1.630   1.261 -0.6281  0.1185 -0.1343
   65GLOH   H04 9083   3.843   1.539   1.321  0.0071  0.8069  0.7991
   65GLOH    O2 9084   3.728   1.716   1.317 -0.0017 -0.2809  0.4799
   65GLOH   H05 9085   3.758   1.738   1.407 -4.1951 -0.1334  1.9483
   65GLOH    C3 9086   3.807   1.596   1.116  0.3156 -0.9325 -0.0487
   65GLOH   H06 9087   3.821   1.691   1.064 -0.4870  1.3498  3.7015
   65GLOH   H07 9088   3.702   1.568   1.107 -0.5929  2.0889  0.5394
   65GLOH    O3 9089   3.892   1.490   1.078  0.5200  0.4677  0.3914
   65GLOH   H01 9090   3.843   1.407   1.093  2.4715 -0.3324  2.5851
   66GLOH   H03 9091   2.857   0.953   2.068 -0.7730 -1.1924 -1.7625
   66GLOH    O1 9092   2.874   0.875   2.124  0.1077  0.2764  0.0704
   66GLOH    C1 9093   2.744   0.815   2.156  0.1567 -0.6034  0.2399
   66GLOH   H02 9094   2.703   0.772   2.065 -1.9938  0.4748  0.6863
   66GLOH   H08 9095   2.679   0.890   2.201 -1.4315 -1.6372 -0.2937
   66GLOH    C2 9096   2.768   0.691   2.252 -0.3288  0.8033  0.1686
   66GLOH   H04 9097   2.673   0.648   2.288 -0.0540  1.2936  1.5112
   66GLOH    O2 9098   2.843   0.588   2.177 -0.5110 -0.1571 -0.3940
   66GLOH   H05 9099   2.932   0.588   2.214 -0.4557  2.2789 -0.4648
   66GLOH    C3 9100   2.833   0.731   2.380 -0.6068  0.1913  0.0962
   66GLOH   H06 9101   2.911   0.801   2.349 -0.3292  0.7042  1.8877
   66GLOH   H07 9102   2.879   0.652   2.438 -2.4642 -0.0359  1.2948
   66GLOH    O3 9103   2.753   0.808   2.465 -0.1380  0.2642  0.2412
   66GLOH   H01 9104   2.821   0.852   2.520 -0.3754  1.4574 -0.4049
   67GLOH   H03 9105   4.194   1.517   2.725  0.3986  0.1719 -0.3075
   67GLOH    O1 9106   4.226   1.433   2.763 -0.9418 -0.2134 -0.0216
   67GLOH    C1 9107   4.300   1.440   2.890  0.1564  0.9381  0.8030
   67GLOH   H02 9108   4.279   1.532   2.945 -0.2306  1.0346  0.4986
   67GLOH   H08 9109   4.407   1.439   2.869  0.1361  1.4188  0.6609
   67GLOH    C2 9110   4.275   1.309   2.978  0.0652 -0.1989 -0.2428
   67GLOH   H04 9111   4.274   1.223   2.908  1.2316  0.1758 -0.7401
   67GLOH    O2 9112   4.385   1.285   3.072  0.3629 -0.4205  0.4550
   67GLOH   H05 9113   4.431   1.368   3.094  1.0310 -0.6528 -0.0462
   67GLOH    C3 9114   4.139   1.319   3.040  0.0350  0.2713 -0.3927
   67GLOH   H06 9115   4.128   1.219   3.081  0.8625  0.0764 -0.6397
   67GLOH   H07 9116   4.065   1.319   2.960  0.4962 -1.3334 -0.8334
   67GLOH    O3 9117   4.128   1.431   3.139  1.0225 -0.3611 -0.0957
   67GLOH   H01 9118   4.054   1.409   3.199 -0.1416  4.8491  0.6007
   68GLOH   H03 9119   3.715   1.764   0.826  0.0760  0.9176  0.3381
   68GLOH    O1 9120   3.637   1.707   0.812  0.5377  0.4456 -0.3442
   68GLOH    C1 9121   3.533   1.781   0.744  0.6069  0.2387  0.0881
   68GLOH   H02 9122   3.554   1.801   0.639  0.4231  0.5491  0.1090
   68GLOH   H08 9123   3.520   1.884   0.778 -1.2534 -0.3048  1.0849
   68GLOH    C2 9124   3.397   1.701   0.749  0.1394  0.3271 -0.2428
   68GLOH   H04 9125   3.388   1.653   0.848 -1.4495  1.0105 -0.0324
   68GLOH    O2 9126   3.290   1.791   0.724 -0.0363 -0.0003  0.8577
   68GLOH   H05 9127   3.300   1.860   0.657  2.3636 -0.0675  1.1322
   68GLOH    C3 9128   3.415   1.600   0.628  0.9129 -1.0943 -0.5812
   68GLOH   H06 9129   3.406   1.649   0.531  1.3400  0.5261  0.1794
   68GLOH   H07 9130   3.328   1.535   0.644 -1.0024  1.0107 -2.1470
   68GLOH    O3 9131   3.538   1.532   0.656  0.1712  0.3828  0.1548
   68GLOH   H01 9132   3.586   1.594   0.714 -2.5705  0.7452  2.1822
   69GLOH   H03 9133   3.214   2.971   1.753 -1.3329 -0.7564 -0.6764
   69GLOH    O1 9134   3.157   3.031   1.805  0.2078 -0.5473  0.8461
   69GLOH    C1 9135   3.197   3.166   1.792  0.1756 -0.6672  0.0179
   69GLOH   H02 9136   3.241   3.191   1.695  0.1845 -0.2582  0.1296
   69GLOH   H08 9137   3.279   3.186   1.861  1.8896 -0.8189 -1.9125
   69GLOH    C2 9138   3.077   3.260   1.803  1.2728 -1.3369 -0.4814
   69GLOH   H04 9139   3.045   3.241   1.907  2.0808 -1.5228 -0.2591
   69GLOH    O2 9140   3.119   3.401   1.784 -0.2972  0.1919  0.7837
   69GLOH   H05 9141   3.047   3.451   1.826 -0.0773  2.4352 -1.3588
   69GLOH    C3 9142   2.975   3.228   1.695 -0.3645 -0.1469 -0.1040
   69GLOH   H06 9143   2.958   3.122   1.713  2.1928 -1.0324 -2.4233
   69GLOH   H07 9144   3.013   3.237   1.593 -1.0919  1.0393 -0.2896
   69GLOH    O3 9145   2.854   3.300   1.691 -0.0431 -0.0625  0.0322
   69GLOH   H01 9146   2.795   3.253   1.630 -2.3458  0.4017  1.8409
   70GLOH   H03 9147   3.747   9.784   1.757 -0.0429  1.9599  1.5020
   70GLOH    O1 9148   3.815   9.823   1.698 -0.4078  0.3356 -0.0288
   70GLOH    C1 9149   3.872   9.932   1.778  0.3558 -0.5889  0.1905
   70GLOH   H02 9150   3.793   9.999   1.813  2.2384  1.4727  0.5595
   70GLOH   H08 9151   3.945   9.986   1.718  1.3777 -1.5507  0.5703
   70GLOH    C2 9152   3.939   9.881   1.908  0.0454 -0.7519 -0.3485
   70GLOH   H04 9153   3.996   9.965   1.949 -3.6608  1.7744 -0.1398
   70GLOH    O2 9154   3.846   9.859   2.015 -0.0065 -0.6142  0.8333
   70GLOH   H05 9155   3.763   9.827   1.977 -0.6925  0.6123  1.2605
   70GLOH    C3 9156   4.031   9.759   1.878  0.4997 -0.2308  0.5153
   70GLOH   H06 9157   3.956   9.694   1.833 -0.5665  2.0080 -1.0540
   70GLOH   H07 9158   4.063   9.712   1.971 -0.0581  1.0154  1.3502
   70GLOH    O3 9159   4.138   9.786   1.785  0.4278 -0.1726  1.1879
   70GLOH   H01 9160   4.095   9.780   1.698 -2.1990  0.8787  2.3363
   71GLOH   H03 9161   3.518   2.108   1.454  0.6030 -1.3626  1.0441
   71GLOH    O1 9162   3.614   2.116   1.469  0.7381 -0.1558 -0.2885
   71GLOH    C1 9163   3.682   2.084   1.350 -0.1787  0.0754  0.6616
   71GLOH   H02 9164   3.662   2.165   1.281  0.6982 -0.5998 -0.3952
   71GLOH   H08 9165   3.636   2.003   1.294 -0.8973  1.9026 -1.4524
   71GLOH    C2 9166   3.832   2.068   1.358 -0.1776  0.4186  0.3801
   71GLOH   H04 9167   3.851   1.976   1.414  0.4536 -0.0829 -0.6465
   71GLOH    O2 9168   3.869   2.061   1.216  0.2173  0.2707 -0.1282
   71GLOH   H05 9169   3.965   2.065   1.206  0.3209 -1.1079  0.2134
   71GLOH    C3 9170   3.909   2.181   1.428 -0.8443 -0.4590  0.6483
   71GLOH   H06 9171   3.874   2.186   1.531  0.2735 -1.3546  1.0826
   71GLOH   H07 9172   3.883   2.271   1.372  0.1251  0.8053  2.1995
   71GLOH    O3 9173   4.053   2.166   1.415  0.0425  0.2742  0.0773
   71GLOH   H01 9174   4.091   2.222   1.344  0.7423  0.3729  0.5282
   72GLOH   H03 9175   3.132   0.856   2.431 -0.4955 -0.1584  0.7451
   72GLOH    O1 9176   3.150   0.896   2.519 -0.2309  0.2510  0.5036
   72GLOH    C1 9177   3.180   1.036   2.492  0.8003  0.0812 -0.4172
   72GLOH   H02 9178   3.188   1.057   2.385  1.1654  1.0500 -0.2021
   72GLOH   H08 9179   3.268   1.073   2.545  0.0452  1.2654  0.0355
   72GLOH    C2 9180   3.081   1.142   2.539  0.0663  0.4431 -0.3663
   72GLOH   H04 9181   3.109   1.164   2.644  0.3096  1.3122 -0.6059
   72GLOH    O2 9182   3.078   1.259   2.456 -0.3116 -0.2491 -0.3132
   72GLOH   H05 9183   3.008   1.325   2.473  0.8512  0.4414  2.0969
   72GLOH    C3 9184   2.937   1.092   2.560  0.2750  0.0579  0.5566
   72GLOH   H06 9185   2.886   1.109   2.465  1.0638 -0.9246 -0.0541
   72GLOH   H07 9186   2.890   1.157   2.634 -0.2674  1.1250 -0.7002
   72GLOH    O3 9187   2.934   0.955   2.603 -0.7457 -0.6052 -0.3215
   72GLOH   H01 9188   3.026   0.927   2.585 -0.8067 -1.7895  1.1092
   73GLOH   H03 9189   4.144   9.227   1.524 -1.3598  1.9460 -0.5602
   73GLOH    O1 9190   4.117   9.190   1.437 -0.5831  0.3884 -0.1705
   73GLOH    C1 9191   4.145   9.302   1.343 -0.2295  0.0657  0.0277
   73GLOH   H02 9192   4.060   9.364   1.318  0.4089  0.8217 -0.2813
   73GLOH   H08 9193   4.176   9.266   1.245 -1.1361  2.5907 -1.2213
   73GLOH    C2 9194   4.259   9.398   1.397  0.2281 -0.0197 -0.5629
   73GLOH   H04 9195   4.358   9.353   1.383  0.2225 -0.2761  0.1703
   73GLOH    O2 9196   4.237   9.513   1.305 -0.1333  0.6224 -0.0391
   73GLOH   H05 9197   4.318   9.564   1.320 -0.8496  1.3099  1.7136
   73GLOH    C3 9198   4.242   9.433   1.547  0.1864  0.0951  0.0380
   73GLOH   H06 9199   4.143   9.478   1.551 -0.3380 -1.0871  0.9494
   73GLOH   H07 9200   4.319   9.503   1.579 -0.1200 -0.3468  1.8300
   73GLOH    O3 9201   4.244   9.316   1.634 -0.5277 -0.3269  0.2411
   73GLOH   H01 9202   4.252   9.327   1.730 -0.1034 -1.1735  0.2976
   74GLOH   H03 9203   3.269   2.864   2.798 -2.3182  2.9534  0.5773
   74GLOH    O1 9204   3.345   2.923   2.779  0.1452 -0.2485  0.0202
   74GLOH    C1 9205   3.332   3.016   2.894  0.0682 -0.2688  0.1347
   74GLOH   H02 9206   3.308   2.967   2.988 -2.3754 -0.2736 -0.4716
   74GLOH   H08 9207   3.259   3.095   2.873  1.0865  0.5929 -0.2352
   74GLOH    C2 9208   3.466   3.093   2.915 -0.5646 -0.6469 -0.2566
   74GLOH   H04 9209   3.480   3.168   2.835  0.9907 -0.1679  0.4415
   74GLOH    O2 9210   3.477   3.155   3.044  0.4015 -0.4175 -0.8020
   74GLOH   H05 9211   3.404   3.219   3.053  1.8891  1.1730  0.2735
   74GLOH    C3 9212   3.583   2.995   2.900  0.7053  0.3966  0.3421
   74GLOH   H06 9213   3.553   2.913   2.966  2.3149 -1.0852 -0.7384
   74GLOH   H07 9214   3.670   3.043   2.946 -0.8448  2.4151  1.2450
   74GLOH    O3 9215   3.614   2.951   2.770 -0.3177  0.3774  0.2287
   74GLOH   H01 9216   3.545   2.888   2.742 -1.8784  1.6202  1.2375
   75GLOH   H03 9217   2.982   2.072   2.334  0.6110  1.8820  1.5543
   75GLOH    O1 9218   2.958   2.014   2.408  0.0136  0.1919  0.0725
   75GLOH    C1 9219   2.893   1.892   2.368  0.2476  0.2082 -0.1530
   75GLOH   H02 9220   2.888   1.833   2.459 -0.3212 -0.2071 -0.4501
   75GLOH   H08 9221   2.940   1.835   2.288 -0.3769 -0.1321 -0.2831
   75GLOH    C2 9222   2.742   1.919   2.328 -0.3141 -0.2333 -1.0415
   75GLOH   H04 9223   2.751   1.990   2.245 -3.2900 -0.1671 -1.3580
   75GLOH    O2 9224   2.690   1.789   2.281  0.3381  0.3020 -0.0019
   75GLOH   H05 9225   2.729   1.726   2.344 -0.1816  0.7870  0.8050
   75GLOH    C3 9226   2.660   1.981   2.438 -0.5456 -0.3957 -0.4377
   75GLOH   H06 9227   2.556   1.978   2.404 -0.5612 -1.2375 -0.3315
   75GLOH   H07 9228   2.679   2.088   2.446  1.7543 -0.7277 -1.2321
   75GLOH    O3 9229   2.674   1.922   2.569 -0.1065  0.7904 -0.3851
   75GLOH   H01 9230   2.587   1.897   2.604  0.5496  1.9372  2.1365
   76GLOH   H03 9231   4.633   4.405   1.246  0.7095 -0.3200  1.3644
   76GLOH    O1 9232   4.680   4.345   1.186 -0.6917  0.3888 -0.4751
   76GLOH    C1 9233   4.604   4.223   1.176  0.6666  0.3165 -0.2427
   76GLOH   H02 9234   4.500   4.257   1.170 -0.3478 -2.5261  0.2147
   76GLOH   H08 9235   4.613   4.163   1.267 -3.8115  1.0340  0.8123
   76GLOH    C2 9236   4.643   4.162   1.043 -0.9632 -0.4875 -0.5614
   76GLOH   H04 9237   4.751   4.141   1.050 -0.3555  2.5890 -0.2343
   76GLOH    O2 9238   4.567   4.037   1.034  0.0070 -0.0981  0.4095
   76GLOH   H05 9239   4.472   4.060   1.031 -0.2119 -1.1650 -1.5049
   76GLOH    C3 9240   4.634   4.264   0.928 -0.0001 -0.1771  0.0406
   76GLOH   H06 9241   4.724   4.325   0.932  0.2184 -0.6188  3.0878
   76GLOH   H07 9242   4.544   4.324   0.944 -0.3987 -0.3044 -1.6080
   76GLOH    O3 9243   4.627   4.210   0.794  0.0272  0.5508 -0.6883
   76GLOH   H01 9244   4.714   4.182   0.761  0.7786  1.4571  0.4847
   77GLOH   H03 9245   3.025   9.708   2.155 -0.5096  0.0055  0.3032
   77GLOH    O1 9246   2.936   9.745   2.175 -0.6073 -0.1552  0.1653
   77GLOH    C1 9247   2.857   9.631   2.220 -0.2707 -0.0991 -0.3681
   77GLOH   H02 9248   2.899   9.603   2.317  0.0937 -2.2792 -1.1468
   77GLOH   H08 9249   2.873   9.542   2.159  1.2893  0.0264 -0.1816
   77GLOH    C2 9250   2.711   9.671   2.239  0.0789  0.7245  0.3516
   77GLOH   H04 9251   2.711   9.764   2.298 -0.3484  0.7242  0.3550
   77GLOH    O2 9252   2.642   9.695   2.115  0.2555 -0.2064  0.3292
   77GLOH   H05 9253   2.682   9.770   2.069  0.2834  0.2626  1.1056
   77GLOH    C3 9254   2.635   9.565   2.315 -0.0817  0.0799  0.3882
   77GLOH   H06 9255   2.648   9.475   2.255  4.4289  1.2850 -0.6764
   77GLOH   H07 9256   2.530   9.594   2.312  0.9488  4.3078  0.9121
   77GLOH    O3 9257   2.679   9.549   2.455  0.0521 -0.1131 -0.4702
   77GLOH   H01 9258   2.602   9.541   2.515 -0.3729 -0.8371 -1.1049
   78GLOH   H03 9259   3.498   0.617   2.335 -0.0555 -1.1409 -0.1801
   78GLOH    O1 9260   3.540   0.551   2.394  0.7557 -0.1304  0.3742
   78GLOH    C1 9261   3.676   0.586   2.409 -1.1718  0.0874  0.3033
   78GLOH   H02 9262   3.709   0.592   2.513  0.5515  0.2426 -0.2303
   78GLOH   H08 9263   3.697   0.689   2.380 -2.6307  0.2384 -0.2577
   78GLOH    C2 9264   3.773   0.484   2.349 -0.9423 -1.2022  0.5373
   78GLOH   H04 9265   3.874   0.525   2.364 -0.6587 -2.1669  1.3164
   78GLOH    O2 9266   3.768   0.369   2.421  0.6502 -0.4996 -0.3346
   78GLOH   H05 9267   3.745   0.301   2.356  0.1402 -1.2453  0.6225
   78GLOH    C3 9268   3.750   0.477   2.199 -0.7465  0.5127  0.2767
   78GLOH   H06 9269   3.652   0.430   2.191  0.3747 -1.7336 -0.6347
   78GLOH   H07 9270   3.811   0.401   2.150 -2.1343  0.7496 -1.8312
   78GLOH    O3 9271   3.771   0.598   2.128 -0.2581 -0.3121  0.3086
   78GLOH   H01 9272   3.865   0.619   2.142  0.1720  0.2632 -3.0010
   79GLOH   H03 9273   3.871   0.990   2.123  0.1125  0.6031 -0.0079
   79GLOH    O1 9274   3.791   1.042   2.142  0.0344  0.2602  0.6064
   79GLOH    C1 9275   3.717   0.967   2.243  0.0980 -0.5861  0.3107
   79GLOH   H02 9276   3.773   0.965   2.336  0.4459 -1.6194  0.0817
   79GLOH   H08 9277   3.690   0.866   2.213  0.2416 -0.1477 -1.3667
   79GLOH    C2 9278   3.597   1.050   2.287 -1.0224  0.2983 -0.4286
   79GLOH   H04 9279   3.627   1.156   2.284  1.0311 -0.2805 -1.6341
   79GLOH    O2 9280   3.488   1.042   2.197  0.1672 -0.3934 -0.4335
   79GLOH   H05 9281   3.497   0.984   2.119 -0.2114 -1.4867  0.3153
   79GLOH    C3 9282   3.547   1.003   2.432 -0.3895 -0.2314  1.1080
   79GLOH   H06 9283   3.486   0.913   2.423 -1.6718  0.7074  0.2384
   79GLOH   H07 9284   3.479   1.076   2.474 -2.4280 -1.6093  0.2540
   79GLOH    O3 9285   3.645   0.971   2.530 -0.2884  0.2711 -0.4449
   79GLOH   H01 9286   3.727   1.020   2.514  0.2501 -0.7174 -0.7411
   80GLOH   H03 9287   3.287   0.334   1.756 -0.2157 -2.8886 -1.3565
   80GLOH    O1 9288   3.214   0.300   1.810 -0.0317 -0.6918  0.3403
   80GLOH    C1 9289   3.229   0.345   1.953  0.3194 -0.3297 -0.4345
   80GLOH   H02 9290   3.135   0.325   2.004  2.2339  1.0168  3.8331
   80GLOH   H08 9291   3.248   0.452   1.963  1.1309 -0.4491 -0.6605
   80GLOH    C2 9292   3.350   0.275   2.022  0.4257 -0.2036 -0.2823
   80GLOH   H04 9293   3.347   0.167   1.998 -0.1302 -0.4394  0.8501
   80GLOH    O2 9294   3.476   0.316   1.963 -0.3996  0.4887  0.4034
   80GLOH   H05 9295   3.500   0.280   1.876  2.1784  2.7639  0.1480
   80GLOH    C3 9296   3.333   0.291   2.170  0.0284 -0.7334  0.2332
   80GLOH   H06 9297   3.424   0.249   2.212  0.9006  1.4363  0.5903
   80GLOH   H07 9298   3.248   0.241   2.215  0.1116 -0.0610  1.1627
   80GLOH    O3 9299   3.330   0.433   2.210  0.0036  0.4130  0.2284
   80GLOH   H01 9300   3.420   0.468   2.222 -0.5977  1.6198  1.4585
   81GLOH   H03 9301   5.055   3.874   2.010  0.4124 -0.5193  2.2601
   81GLOH    O1 9302   4.972   3.825   2.021 -0.3703  0.2513  0.0778
   81GLOH    C1 9303   4.967   3.777   2.154 -0.1410 -0.2887 -1.2219
   81GLOH   H02 9304   5.050   3.706   2.161 -0.1423  0.0555  4.2468
   81GLOH   H08 9305   4.881   3.713   2.175  0.2547 -1.3186 -2.6103
   81GLOH    C2 9306   4.982   3.894   2.254  0.0128 -0.2604 -0.4302
   81GLOH   H04 9307   4.912   3.977   2.236  1.9537  1.7770  1.0396
   81GLOH    O2 9308   4.987   3.848   2.387 -0.3600  0.6346  0.2352
   81GLOH   H05 9309   4.898   3.811   2.405 -0.1709  0.0970  0.0557
   81GLOH    C3 9310   5.126   3.955   2.241  0.0974 -0.1304 -0.6050
   81GLOH   H06 9311   5.206   3.901   2.290 -0.7426 -0.2428  0.6501
   81GLOH   H07 9312   5.126   4.048   2.298 -0.9925 -1.7497  2.1291
   81GLOH    O3 9313   5.164   3.994   2.112  0.0030 -0.2343 -0.1430
   81GLOH   H01 9314   5.248   4.044   2.114 -1.7232  2.7765 -0.2938
   82GLOH   H03 9315   2.825   0.666   1.212 -0.5980  0.3758  0.3355
   82GLOH    O1 9316   2.919   0.645   1.223 -0.4526  0.3346 -0.8779
   82GLOH    C1 9317   2.940   0.606   1.365  0.1371  0.2161  0.0326
   82GLOH   H02 9318   2.963   0.499   1.358 -2.7164 -0.4244 -0.4555
   82GLOH   H08 9319   2.847   0.618   1.421 -0.1018 -1.8775  0.1610
   82GLOH    C2 9320   3.057   0.680   1.426 -0.1505 -0.2072 -0.4539
   82GLOH   H04 9321   3.051   0.789   1.443  3.6699  0.0792 -0.5116
   82GLOH    O2 9322   3.073   0.620   1.557  0.2832  0.1834 -0.0955
   82GLOH   H05 9323   3.084   0.523   1.553 -0.3225  0.1415 -1.2126
   82GLOH    C3 9324   3.184   0.671   1.337 -1.0535  0.6791  0.5447
   82GLOH   H06 9325   3.227   0.572   1.346  0.6561  1.1445 -2.1251
   82GLOH   H07 9326   3.261   0.732   1.384  0.5036 -0.6728 -0.2062
   82GLOH    O3 9327   3.157   0.719   1.208  0.5664  0.6416  0.1721
   82GLOH   H01 9328   3.064   0.699   1.185  0.9226  0.9452 -1.6042
   83GLOH   H03 9329   4.109   2.390   1.250  0.0167  0.2603 -0.3333
   83GLOH    O1 9330   4.181   2.383   1.314 -0.2085 -0.1638 -0.1269
   83GLOH    C1 9331   4.192   2.514   1.375  0.0498  0.3392 -0.0519
   83GLOH   H02 9332   4.099   2.533   1.428 -1.1242 -0.5010 -1.7711
   83GLOH   H08 9333   4.196   2.582   1.290  1.0957 -0.3796 -0.5894
   83GLOH    C2 9334   4.321   2.534   1.455  0.2605 -0.0186  0.3411
   83GLOH   H04 9335   4.399   2.501   1.385  1.0239  1.2774  0.5586
   83GLOH    O2 9336   4.345   2.674   1.497  0.0298 -0.5657  0.3398
   83GLOH   H05 9337   4.437   2.686   1.528 -0.2715  0.8219  0.7002
   83GLOH    C3 9338   4.298   2.443   1.580  0.3892  0.9358  0.0706
   83GLOH   H06 9339   4.210   2.468   1.639  0.6004  1.8961 -0.0126
   83GLOH   H07 9340   4.388   2.441   1.642 -0.5996  1.3427  1.5368
   83GLOH    O3 9341   4.285   2.314   1.524  0.6925 -0.0856 -0.4380
   83GLOH   H01 9342   4.205   2.311   1.469 -0.1825 -2.5369  0.8490
   84GLOH   H03 9343   4.272   1.961   1.994 -1.8520 -1.6162 -0.2636
   84GLOH    O1 9344   4.199   2.014   2.031 -0.6459  0.1986 -0.4664
   84GLOH    C1 9345   4.176   1.997   2.169  0.0234  0.0177  0.3916
   84GLOH   H02 9346   4.271   2.000   2.221  0.1368 -0.8212  0.2504
   84GLOH   H08 9347   4.120   1.905   2.188 -1.8749  1.5564  2.4770
   84GLOH    C2 9348   4.088   2.111   2.227 -0.0152  0.1434  0.0614
   84GLOH   H04 9349   3.986   2.099   2.188  0.7450 -2.7842 -1.1147
   84GLOH    O2 9350   4.082   2.096   2.372  0.1314 -0.2564 -0.0789
   84GLOH   H05 9351   4.158   2.141   2.413 -0.0676 -0.4369  0.4840
   84GLOH    C3 9352   4.141   2.252   2.180  0.5183 -0.0025  0.2592
   84GLOH   H06 9353   4.240   2.287   2.210 -0.6128  2.5832  1.1583
   84GLOH   H07 9354   4.080   2.328   2.229  0.8960  1.0384 -0.8673
   84GLOH    O3 9355   4.121   2.259   2.039 -0.1665 -0.1828 -0.3188
   84GLOH   H01 9356   4.151   2.170   2.013  0.0075  0.8433 -3.9013
   85GLOH   H03 9357   3.970   2.484   0.332  0.7977 -2.1057  0.9316
   85GLOH    O1 9358   4.061   2.519   0.330 -0.0782  0.2348  0.2626
   85GLOH    C1 9359   4.102   2.494   0.197  0.1524  0.4206 -0.2003
   85GLOH   H02 9360   4.081   2.392   0.166 -2.0641  1.3438 -1.8743
   85GLOH   H08 9361   4.204   2.530   0.186 -1.0838  3.7087 -1.5901
   85GLOH    C2 9362   4.022   2.594   0.107 -1.3746  0.0325  0.5522
   85GLOH   H04 9363   4.037   2.697   0.143  2.2070  1.0723 -3.4409
   85GLOH    O2 9364   4.071   2.601  -0.030 -0.0023  0.2322 -0.1614
   85GLOH   H05 9365   4.167   2.593  -0.016  0.1908  2.5925 -0.0329
   85GLOH    C3 9366   3.875   2.566   0.101  1.5894  0.1553 -0.4021
   85GLOH   H06 9367   3.864   2.472   0.046 -1.1621  0.5320 -0.5717
   85GLOH   H07 9368   3.832   2.645   0.040 -2.4519 -0.3464  1.6441
   85GLOH    O3 9369   3.813   2.568   0.228 -0.0204 -0.3243  0.0079
   85GLOH   H01 9370   3.716   2.558   0.227 -0.0087 -1.0187  3.0954
   86GLOH   H03 9371   3.771   3.097   1.847 -1.1514  0.5173  0.4866
   86GLOH    O1 9372   3.680   3.084   1.812 -1.0184 -0.6033  0.5153
   86GLOH    C1 9373   3.587   3.081   1.920 -0.0050 -0.3533  0.0898
   86GLOH   H02 9374   3.507   3.007   1.912 -1.5334  0.9278  2.6175
   86GLOH   H08 9375   3.535   3.176   1.915  1.5459  0.5110  0.0399
   86GLOH    C2 9376   3.649   3.064   2.060  0.8185 -0.2518  0.0744
   86GLOH   H04 9377   3.713   3.150   2.083  0.5945 -0.7413  2.7372
   86GLOH    O2 9378   3.545   3.076   2.158  0.2703 -0.0699 -0.6410
   86GLOH   H05 9379   3.551   2.997   2.214 -1.2202 -0.0690 -0.4565
   86GLOH    C3 9380   3.723   2.933   2.082 -0.7546  0.3025 -0.3602
   86GLOH   H06 9381   3.664   2.845   2.057 -2.0592  0.1713  2.9134
   86GLOH   H07 9382   3.746   2.938   2.188 -2.9380  0.0667  0.1383
   86GLOH    O3 9383   3.856   2.943   2.025 -0.6902  0.1733 -0.2623
   86GLOH   H01 9384   3.906   3.003   2.083 -1.4793  0.3321  0.2652
   87GLOH   H03 9385   3.715   1.134   0.019 -0.8507 -1.0061 -0.2135
   87GLOH    O1 9386   3.692   1.164   0.109 -0.1582 -0.0139 -0.3593
   87GLOH    C1 9387   3.808   1.239   0.163 -0.4461  0.6079 -0.1183
   87GLOH   H02 9388   3.836   1.315   0.091  2.2673 -1.4757 -1.3920
   87GLOH   H08 9389   3.898   1.177   0.172 -1.8116 -1.5361 -0.8155
   87GLOH    C2 9390   3.788   1.307   0.302 -0.0896  0.0337  0.4659
   87GLOH   H04 9391   3.739   1.234   0.369  1.4854 -0.4471  1.1005
   87GLOH    O2 9392   3.904   1.362   0.376 -0.7440 -0.1669  0.5292
   87GLOH   H05 9393   3.871   1.412   0.452 -0.7495  0.2133  0.2806
   87GLOH    C3 9394   3.691   1.419   0.276 -0.7255 -0.1800 -0.0063
   87GLOH   H06 9395   3.727   1.496   0.208 -1.0635  0.4468  0.5171
   87GLOH   H07 9396   3.687   1.471   0.372  2.7273  2.1036 -0.9747
   87GLOH    O3 9397   3.560   1.379   0.225  0.3277  0.1033  0.0003
   87GLOH   H01 9398   3.569   1.319   0.149  2.5143  2.3628 -1.6158
   88GLOH   H03 9399   3.458   2.671   2.477  0.0769 -1.6676  0.5506
   88GLOH    O1 9400   3.361   2.682   2.480  0.2353  0.0235 -0.1165
   88GLOH    C1 9401   3.337   2.821   2.467  0.0488  0.5125  0.5503
   88GLOH   H02 9402   3.390   2.879   2.543 -0.4579  0.0014  1.2982
   88GLOH   H08 9403   3.231   2.835   2.490  0.3721  0.1612  2.2964
   88GLOH    C2 9404   3.382   2.888   2.331  0.8068 -1.0625 -0.0257
   88GLOH   H04 9405   3.375   2.996   2.353  1.7784 -1.2167  1.0693
   88GLOH    O2 9406   3.517   2.854   2.291  0.3797  0.0304  0.5193
   88GLOH   H05 9407   3.545   2.772   2.336  3.0668 -1.4080 -3.4393
   88GLOH    C3 9408   3.276   2.859   2.222  0.7234 -0.1611 -0.3401
   88GLOH   H06 9409   3.245   2.755   2.236 -0.7206  0.3868  0.6595
   88GLOH   H07 9410   3.322   2.868   2.123  0.0504  0.8807 -0.5632
   88GLOH    O3 9411   3.169   2.959   2.233 -0.1547  0.5164 -0.3910
   88GLOH   H01 9412   3.219   3.042   2.234  0.7203 -0.0055  2.1437
   89GLOH   H03 9413   3.128   1.777   0.732 -0.6402  0.2720  2.3246
   89GLOH    O1 9414   3.043   1.729   0.726 -0.3337 -0.0537 -0.1221
   89GLOH    C1 9415   3.023   1.633   0.825 -0.0383 -0.5235  0.4821
   89GLOH   H02 9416   3.039   1.683   0.921  1.5996  0.0166 -0.0681
   89GLOH   H08 9417   3.102   1.558   0.812  1.7272  1.4898 -0.6763
   89GLOH    C2 9418   2.887   1.557   0.815  0.3955  0.3184  0.3763
   89GLOH   H04 9419   2.897   1.471   0.747  0.5195  0.4375  0.2406
   89GLOH    O2 9420   2.861   1.514   0.947  0.2179  0.6403 -0.1002
   89GLOH   H05 9421   2.950   1.504   0.986 -0.2833  0.2000  0.9276
   89GLOH    C3 9422   2.781   1.656   0.759 -0.0154 -0.0382  0.3094
   89GLOH   H06 9423   2.817   1.703   0.668 -3.1449  1.4190 -0.2739
   89GLOH   H07 9424   2.778   1.741   0.826 -2.5123  0.1682 -0.0144
   89GLOH    O3 9425   2.648   1.599   0.743 -0.2483 -0.2685  0.3210
   89GLOH   H01 9426   2.593   1.638   0.814  1.0259  0.8523  0.6962
   90GLOH   H03 9427   3.177   0.478   0.647  0.6739 -1.6156 -1.3904
   90GLOH    O1 9428   3.104   0.479   0.581  0.0141  0.3550 -0.6871
   90GLOH    C1 9429   3.018   0.364   0.603 -0.0660  0.3392  0.2252
   90GLOH   H02 9430   2.923   0.372   0.552 -1.8637 -0.5375  3.2852
   90GLOH   H08 9431   2.996   0.351   0.709 -1.0618  1.6970  0.1975
   90GLOH    C2 9432   3.086   0.235   0.551  0.1151 -0.6454  0.7491
   90GLOH   H04 9433   3.188   0.229   0.593 -0.1487  1.5930  1.7343
   90GLOH    O2 9434   3.014   0.121   0.601  0.3389  0.0567 -0.3735
   90GLOH   H05 9435   2.924   0.128   0.564  0.6081 -0.0970 -1.0426
   90GLOH    C3 9436   3.122   0.229   0.402  0.1300  0.1805  0.1503
   90GLOH   H06 9437   3.033   0.203   0.344 -0.3937  1.7595  0.2139
   90GLOH   H07 9438   3.200   0.156   0.380  0.4263  0.3149  0.7557
   90GLOH    O3 9439   3.185   0.356   0.368 -0.0366 -0.6568  0.1292
   90GLOH   H01 9440   3.167   0.416   0.443  0.6499 -1.2661  0.7949
   91GLOH   H03 9441   3.568   3.592   1.083 -1.5015 -0.9297 -1.1870
   91GLOH    O1 9442   3.557   3.521   1.149  0.1174 -0.1452 -0.0211
   91GLOH    C1 9443   3.412   3.521   1.173  0.6024  0.4638 -0.7727
   91GLOH   H02 9444   3.402   3.594   1.254  0.4473  0.7784 -1.0747
   91GLOH   H08 9445   3.377   3.421   1.198 -0.3726  0.9700 -0.0697
   91GLOH    C2 9446   3.327   3.573   1.055 -0.5748  0.6125  0.4323
   91GLOH   H04 9447   3.334   3.505   0.969 -0.0885  0.7415  0.3644
   91GLOH    O2 9448   3.189   3.582   1.081  0.1224 -0.4118  0.0734
   91GLOH   H05 9449   3.157   3.630   1.158 -2.4275  0.4802 -1.4843
   91GLOH    C3 9450   3.390   3.714   1.026 -0.4945 -0.6937 -0.4644
   91GLOH   H06 9451   3.403   3.766   1.121  0.3696  0.4630 -1.1938
   91GLOH   H07 9452   3.333   3.785   0.965  3.2168  2.3735 -0.5587
   91GLOH    O3 9453   3.521   3.711   0.973  0.1031 -0.0138  0.7044
   91GLOH   H01 9454   3.524   3.638   0.908 -2.7622  0.4876 -0.0812
   92GLOH   H03 9455   3.936   3.209   1.993  2.6502 -1.8607  0.4784
   92GLOH    O1 9456   3.921   3.175   1.903  0.0794 -0.6060  0.3897
   92GLOH    C1 9457   3.913   3.295   1.813 -0.1071 -0.9307 -0.5826
   92GLOH   H02 9458   4.006   3.351   1.820 -0.9879  0.4627  0.2528
   92GLOH   H08 9459   3.839   3.370   1.838 -0.8683 -1.6853 -0.5265
   92GLOH    C2 9460   3.880   3.252   1.669  0.4789 -0.5648  0.1347
   92GLOH   H04 9461   3.778   3.211   1.665 -0.0228  0.6729  0.1738
   92GLOH    O2 9462   3.879   3.373   1.588  0.1453 -0.0810  0.0064
   92GLOH   H05 9463   3.835   3.367   1.502  1.0603 -0.4534 -0.4379
   92GLOH    C3 9464   3.987   3.141   1.630  0.0687  0.3277 -0.3673
   92GLOH   H06 9465   3.956   3.046   1.674 -1.6685 -0.0511 -2.3243
   92GLOH   H07 9466   4.076   3.178   1.681 -0.0467  0.5447 -0.3222
   92GLOH    O3 9467   4.006   3.117   1.489  0.4445 -0.4866  0.3545
   92GLOH   H01 9468   3.917   3.121   1.449 -0.0212 -2.4464  1.1176
   93GLOH   H03 9469   2.736   0.867   2.725 -0.9341  1.3869  2.3708
   93GLOH    O1 9470   2.791   0.802   2.773 -0.2024  0.0254 -0.2289
   93GLOH    C1 9471   2.823   0.884   2.889 -0.4084  0.0891 -0.0076
   93GLOH   H02 9472   2.899   0.955   2.855 -1.0464 -0.4049 -2.5796
   93GLOH   H08 9473   2.856   0.816   2.968 -2.7095  0.1654  1.0569
   93GLOH    C2 9474   2.705   0.961   2.944 -0.1049 -0.5375 -0.7905
   93GLOH   H04 9475   2.621   0.899   2.979  1.1729 -2.9477 -1.8415
   93GLOH    O2 9476   2.746   1.026   3.064  0.4988 -0.0637  0.1811
   93GLOH   H05 9477   2.752   0.957   3.132  0.7484  1.1427  1.4108
   93GLOH    C3 9478   2.654   1.062   2.839  0.0630 -0.1623 -0.4755
   93GLOH   H06 9479   2.718   1.150   2.842  0.2076 -0.3010  1.1635
   93GLOH   H07 9480   2.554   1.090   2.873 -0.6444  1.6201 -3.7924
   93GLOH    O3 9481   2.648   0.999   2.707 -0.0838 -0.9106 -0.0058
   93GLOH   H01 9482   2.632   1.071   2.644 -4.5458  0.1135  2.0664
   94GLOH   H03 9483   2.504   2.419   1.464  1.2119 -1.0373 -1.0783
   94GLOH    O1 9484   2.464   2.342   1.510 -0.0376  0.3523  0.1959
   94GLOH    C1 9485   2.570   2.288   1.591 -0.5240 -0.7429  1.0120
   94GLOH   H02 9486   2.562   2.328   1.692 -0.6959  0.3336  0.5881
   94GLOH   H08 9487   2.667   2.324   1.557 -0.4102  1.1995  3.2075
   94GLOH    C2 9488   2.568   2.139   1.592  0.4607  0.0322  0.1847
   94GLOH   H04 9489   2.598   2.098   1.494  0.3256  0.1063  0.1123
   94GLOH    O2 9490   2.669   2.098   1.676 -0.1288 -0.4153  0.2212
   94GLOH   H05 9491   2.757   2.121   1.639 -0.5296 -0.1186 -0.5701
   94GLOH    C3 9492   2.429   2.084   1.649  0.1292  0.4146  0.3404
   94GLOH   H06 9493   2.431   2.063   1.756 -1.4856  0.3255  0.3648
   94GLOH   H07 9494   2.412   1.986   1.604  2.2720  0.8368 -1.4880
   94GLOH    O3 9495   2.314   2.162   1.616  0.4215 -0.1512  0.6394
   94GLOH   H01 9496   2.351   2.236   1.565 -1.3468 -0.9478 -1.9178
   95GLOH   H03 9497   3.491   3.608   1.526  0.2983  0.6966 -0.7078
   95GLOH    O1 9498   3.455   3.685   1.573 -0.0765  0.1053 -0.0159
   95GLOH    C1 9499   3.497   3.670   1.710 -0.3733 -0.1036  0.1772
   95GLOH   H02 9500   3.603   3.648   1.714 -0.5812 -1.4580 -1.4467
   95GLOH   H08 9501   3.456   3.580   1.756  2.2284 -1.2905  0.2583
   95GLOH    C2 9502   3.471   3.789   1.797  0.5601  0.7566  0.2940
   95GLOH   H04 9503   3.368   3.827   1.804  0.3093  0.1772 -0.2754
   95GLOH    O2 9504   3.500   3.749   1.933 -0.4292  0.7697  1.0710
   95GLOH   H05 9505   3.433   3.680   1.952 -2.5688  3.0079  1.9356
   95GLOH    C3 9506   3.547   3.918   1.754  0.3406 -0.7703  0.3293
   95GLOH   H06 9507   3.518   3.999   1.822 -0.1169  1.3797 -2.3284
   95GLOH   H07 9508   3.504   3.946   1.657  2.3111 -0.1144 -0.3845
   95GLOH    O3 9509   3.689   3.915   1.740  0.1683 -0.9625  0.3556
   95GLOH   H01 9510   3.707   3.915   1.644 -1.7644  0.6553 -0.0363
   96GLOH   H03 9511   3.384   8.870   1.934  0.4322  0.2576  0.1987
   96GLOH    O1 9512   3.434   8.832   2.008 -0.7531 -0.5038  0.6250
   96GLOH    C1 9513   3.451   8.931   2.113 -0.3757 -0.3619 -0.3520
   96GLOH   H02 9514   3.456   8.878   2.209  1.0347  0.2865 -0.0571
   96GLOH   H08 9515   3.368   9.000   2.123  0.7513  0.8026  1.2942
   96GLOH    C2 9516   3.571   9.018   2.101 -0.2525 -0.0559 -0.1839
   96GLOH   H04 9517   3.581   9.074   2.006  3.3436 -1.8967 -0.9945
   96GLOH    O2 9518   3.572   9.105   2.218 -0.0149 -0.3236 -0.3650
   96GLOH   H05 9519   3.650   9.164   2.214 -1.4157  1.4920 -2.9091
   96GLOH    C3 9520   3.688   8.916   2.103 -0.2656  0.3267 -0.0900
   96GLOH   H06 9521   3.711   8.882   2.204 -2.3699 -3.5356 -0.8245
   96GLOH   H07 9522   3.771   8.975   2.065 -0.0913  1.8980  2.5540
   96GLOH    O3 9523   3.675   8.796   2.017 -0.1331 -0.9157  0.3227
   96GLOH   H01 9524   3.579   8.780   2.009 -0.6672  0.3706  3.3995
   97GLOH   H03 9525   4.550   4.056   0.413 -1.5445 -0.4655  0.5675
   97GLOH    O1 9526   4.604   3.977   0.395 -0.6326  0.4122 -0.6764
   97GLOH    C1 9527   4.534   3.882   0.317  0.5702  0.0999 -0.2456
   97GLOH   H02 9528   4.614   3.827   0.268  1.0797  0.4769  0.1657
   97GLOH   H08 9529   4.474   3.939   0.247  1.9720  2.9325  0.8127
   97GLOH    C2 9530   4.452   3.776   0.400  0.0289 -0.1310  0.6510
   97GLOH   H04 9531   4.363   3.823   0.443 -0.8136  0.6483 -1.8615
   97GLOH    O2 9532   4.395   3.667   0.324  0.1339  0.0689  0.3657
   97GLOH   H05 9533   4.310   3.697   0.287  0.9441  1.2548 -0.5481
   97GLOH    C3 9534   4.541   3.727   0.515 -0.6308  0.9279  0.0919
   97GLOH   H06 9535   4.477   3.665   0.578  0.9380  2.4649  3.3333
   97GLOH   H07 9536   4.580   3.810   0.575 -0.9319  0.3244  1.1297
   97GLOH    O3 9537   4.654   3.642   0.484  0.3256 -0.4300 -0.0361
   97GLOH   H01 9538   4.627   3.562   0.436 -1.2619  0.4690 -0.7104
   98GLOH   H03 9539   4.342   3.345   1.331  1.4396 -0.0017  0.7817
   98GLOH    O1 9540   4.378   3.366   1.243 -0.4206 -0.0904 -0.0184
   98GLOH    C1 9541   4.279   3.392   1.139 -0.5513  0.1194 -0.0730
   98GLOH   H02 9542   4.316   3.362   1.041  0.8043 -3.6560  1.5183
   98GLOH   H08 9543   4.263   3.500   1.139 -1.3348  0.0079 -0.5558
   98GLOH    C2 9544   4.143   3.339   1.177 -0.0122  0.2232 -0.8698
   98GLOH   H04 9545   4.147   3.231   1.198 -1.0001  0.2115 -0.7133
   98GLOH    O2 9546   4.086   3.391   1.296  0.2584 -0.3607  0.8271
   98GLOH   H05 9547   4.136   3.353   1.370  1.8629  1.4471  0.6929
   98GLOH    C3 9548   4.039   3.350   1.059  0.6952  0.0191  0.3297
   98GLOH   H06 9549   4.089   3.307   0.973 -0.4701 -1.9956  0.6176
   98GLOH   H07 9550   4.035   3.456   1.035  0.4764  0.0381  0.4416
   98GLOH    O3 9551   3.919   3.282   1.089 -0.4340  0.6708  0.7278
   98GLOH   H01 9552   3.855   3.305   1.019 -0.8247 -1.3564  0.4076
   99GLOH   H03 9553   3.758   0.331   0.058 -4.2696 -1.3274 -1.5344
   99GLOH    O1 9554   3.770   0.378  -0.027 -0.1627  0.1014 -0.2766
   99GLOH    C1 9555   3.726   0.512   0.010 -0.7170  0.2295  0.7916
   99GLOH   H02 9556   3.701   0.521   0.116 -2.1125  0.6100  0.4285
   99GLOH   H08 9557   3.635   0.533  -0.046 -0.2859  3.4869  1.2461
   99GLOH    C2 9558   3.837   0.609  -0.036  0.0190 -0.1051  0.3941
   99GLOH   H04 9559   3.924   0.600   0.031 -0.1629 -2.7792  0.3159
   99GLOH    O2 9560   3.877   0.578  -0.164 -0.0204 -0.5446  0.5513
   99GLOH   H05 9561   3.878   0.481  -0.175  1.6595 -0.0847 -5.3129
   99GLOH    C3 9562   3.793   0.758  -0.033 -0.4041 -0.3044 -0.0673
   99GLOH   H06 9563   3.703   0.773  -0.091 -0.8600 -2.2975  0.1019
   99GLOH   H07 9564   3.873   0.810  -0.086 -0.4781 -2.4946 -2.4143
   99GLOH    O3 9565   3.772   0.797   0.103 -0.3237 -0.2013  0.3752
   99GLOH   H01 9566   3.685   0.841   0.098  0.1055  0.3578 -3.3746
  100GLOH   H03 9567   3.478   0.089   0.185 -0.7386  0.6467 -1.6069
  100GLOH    O1 9568   3.574   0.099   0.178 -0.5888 -0.0822 -0.6574
  100GLOH    C1 9569   3.619   0.025   0.063  0.2532  0.0479 -0.4066
  100GLOH   H02 9570   3.701   0.082   0.018 -0.3735  2.8233  1.8732
  100GLOH   H08 9571   3.541   0.016  -0.013  1.7739 -0.4511 -1.9411
  100GLOH    C2 9572   3.664  -0.121   0.092 -0.0414  0.4764  0.2248
  100GLOH   H04 9573   3.584  -0.166   0.153  0.9559 -0.7712  0.6385
  100GLOH    O2 9574   3.663  -0.205  -0.018 -0.5672 -0.2122  0.2049
  100GLOH   H05 9575   3.676  -0.157  -0.102  2.3228 -1.1410  0.0469
  100GLOH    C3 9576   3.795  -0.138   0.173 -0.0485 -0.0521 -0.7877
  100GLOH   H06 9577   3.795  -0.077   0.263  0.7347  1.5151 -1.8241
  100GLOH   H07 9578   3.884  -0.101   0.122  1.6972 -2.6937  0.1972
  100GLOH    O3 9579   3.810  -0.276   0.213  0.0511 -0.4831 -0.5728
  100GLOH   H01 9580   3.789  -0.332   0.136  0.3658 -0.7979 -0.4365
  101GLOH   H03 9581   2.896   0.983   1.579 -0.2933 -1.8057 -0.2563
  101GLOH    O1 9582   2.854   1.038   1.510  0.3695 -0.4930  0.3460
  101GLOH    C1 9583   2.826   0.944   1.403  0.0917  0.7937 -0.0626
  101GLOH   H02 9584   2.752   0.872   1.436  0.1461  1.2491  1.0952
  101GLOH   H08 9585   2.918   0.893   1.374 -1.2235 -1.4463 -0.3544
  101GLOH    C2 9586   2.769   1.031   1.287 -0.2037 -0.2669 -0.4450
  101GLOH   H04 9587   2.827   1.118   1.254  0.5919 -0.3931  0.5992
  101GLOH    O2 9588   2.749   0.949   1.172  0.5387  0.1943 -0.4105
  101GLOH   H05 9589   2.709   0.865   1.203  1.8019 -0.6751 -1.0929
  101GLOH    C3 9590   2.633   1.095   1.321  0.2189  0.3466 -0.2122
  101GLOH   H06 9591   2.598   1.150   1.233 -0.0786  0.2042 -0.1817
  101GLOH   H07 9592   2.644   1.179   1.389 -0.0093  1.3908 -1.4316
  101GLOH    O3 9593   2.542   0.986   1.350  0.5158 -0.4874  0.4726
  101GLOH   H01 9594   2.474   0.987   1.280  3.3632  1.3459 -2.3847
  102GLOH   H03 9595   5.013   3.575   1.251  0.0140  0.0837 -0.3518
  102GLOH    O1 9596   4.994   3.503   1.313 -0.0655  0.3297 -0.0885
  102GLOH    C1 9597   4.901   3.565   1.397  0.0681 -0.3735 -0.8365
  102GLOH   H02 9598   4.807   3.572   1.342 -0.7197  0.9728  0.6421
  102GLOH   H08 9599   4.928   3.665   1.432 -1.1457 -0.4785  0.4554
  102GLOH    C2 9600   4.864   3.488   1.523  0.3186  0.2228 -0.7455
  102GLOH   H04 9601   4.821   3.566   1.586  2.2960  0.0905  0.7991
  102GLOH    O2 9602   4.767   3.380   1.504 -0.0561 -0.3461 -0.0513
  102GLOH   H05 9603   4.799   3.308   1.447 -0.2683 -1.1313  0.8104
  102GLOH    C3 9604   4.994   3.443   1.592  0.0177  0.0703 -0.0290
  102GLOH   H06 9605   4.961   3.385   1.679 -0.2763 -1.5036 -1.1684
  102GLOH   H07 9606   5.042   3.538   1.615  1.5356 -0.8579  0.7703
  102GLOH    O3 9607   5.069   3.351   1.511 -0.2449  0.0389 -0.6112
  102GLOH   H01 9608   5.065   3.389   1.422  0.8707 -0.3575 -0.8384
  103GLOH   H03 9609   3.159   2.064   0.991 -0.2627  0.3722  3.2066
  103GLOH    O1 9610   3.216   2.142   0.979 -1.0362  0.5567  0.3889
  103GLOH    C1 9611   3.357   2.101   0.988  0.0899 -0.0302 -0.1371
  103GLOH   H02 9612   3.385   2.012   0.932 -0.3411 -0.6619  0.6582
  103GLOH   H08 9613   3.378   2.070   1.090 -1.3146 -0.5509  0.0070
  103GLOH    C2 9614   3.448   2.224   0.961 -0.0454  0.2938 -0.7640
  103GLOH   H04 9615   3.426   2.299   1.039 -2.0567 -2.3636  1.3025
  103GLOH    O2 9616   3.584   2.193   0.978 -0.7081  0.0145  0.4931
  103GLOH   H05 9617   3.596   2.097   0.989 -1.4197 -0.1517 -0.1817
  103GLOH    C3 9618   3.414   2.278   0.817  0.2439 -0.4838 -0.2810
  103GLOH   H06 9619   3.483   2.360   0.794 -1.7947  2.0795  2.3798
  103GLOH   H07 9620   3.314   2.321   0.814  1.6718  3.1659  1.1461
  103GLOH    O3 9621   3.424   2.171   0.718  0.1982 -0.5785 -0.0953
  103GLOH   H01 9622   3.518   2.166   0.693  0.0500 -1.4874 -0.5037
  104GLOH   H03 9623   4.001   3.803   1.995 -1.9219  0.6242  0.3629
  104GLOH    O1 9624   4.044   3.803   2.083  0.6068  0.3371 -0.8275
  104GLOH    C1 9625   4.179   3.846   2.072  0.4626 -0.7071  0.0546
  104GLOH   H02 9626   4.178   3.952   2.047  1.0364 -0.1662  2.1990
  104GLOH   H08 9627   4.231   3.792   1.993  0.8871 -0.2191 -0.0025
  104GLOH    C2 9628   4.258   3.833   2.205 -0.5777 -0.4926  0.0699
  104GLOH   H04 9629   4.263   3.725   2.226 -2.7237 -1.2386 -2.9881
  104GLOH    O2 9630   4.396   3.876   2.194  0.0329  0.3204 -0.5311
  104GLOH   H05 9631   4.423   3.899   2.284 -0.4464 -1.0405 -0.0357
  104GLOH    C3 9632   4.196   3.904   2.327  0.6232  0.7385  0.0096
  104GLOH   H06 9633   4.089   3.886   2.320  0.3573  1.8979  0.9124
  104GLOH   H07 9634   4.210   4.012   2.316 -2.2302  1.2133  0.7230
  104GLOH    O3 9635   4.260   3.852   2.453  0.3802 -0.2361  0.2915
  104GLOH   H01 9636   4.230   3.759   2.460  0.8919 -0.3505  1.0239
  105GLOH   H03 9637   4.887   3.699   1.909  0.5887  0.0432 -1.9860
  105GLOH    O1 9638   4.802   3.659   1.882  0.1340 -0.3009 -0.1090
  105GLOH    C1 9639   4.746   3.754   1.790 -0.1789 -0.3511  0.3196
  105GLOH   H02 9640   4.670   3.715   1.724  0.8644  2.4144 -2.6682
  105GLOH   H08 9641   4.818   3.807   1.728 -0.6647  0.4029  0.3898
  105GLOH    C2 9642   4.683   3.881   1.861 -0.1209  0.1557  0.3440
  105GLOH   H04 9643   4.761   3.915   1.930  1.9826 -1.8282 -1.0030
  105GLOH    O2 9644   4.645   3.981   1.763 -0.0333 -0.0918  0.4849
  105GLOH   H05 9645   4.594   4.041   1.820 -2.3611 -0.4775 -1.1075
  105GLOH    C3 9646   4.562   3.844   1.952 -0.1423  0.2240 -0.0218
  105GLOH   H06 9647   4.605   3.808   2.046  1.5290  1.5083 -0.2689
  105GLOH   H07 9648   4.496   3.771   1.905 -0.0903  0.7956 -0.9735
  105GLOH    O3 9649   4.488   3.963   1.971 -0.0527  0.1097 -0.0929
  105GLOH   H01 9650   4.457   3.948   2.062  0.6627 -0.9926 -0.0339
  106GLOH   H03 9651   2.875   2.234   1.200  0.3362  0.6053  0.6220
  106GLOH    O1 9652   2.897   2.143   1.230  0.4880  0.4679  0.1042
  106GLOH    C1 9653   2.852   2.144   1.366 -0.0377  0.0617 -0.3158
  106GLOH   H02 9654   2.757   2.092   1.375  1.0033 -1.9454 -0.6250
  106GLOH   H08 9655   2.828   2.246   1.396  0.0118 -0.7193  2.5125
  106GLOH    C2 9656   2.963   2.086   1.462  0.6043 -0.4539 -0.3647
  106GLOH   H04 9657   3.045   2.160   1.462 -0.3537  0.6135 -0.4665
  106GLOH    O2 9658   2.913   2.074   1.594 -0.1731 -0.4545 -0.1208
  106GLOH   H05 9659   2.986   2.063   1.658 -0.5772 -1.2610  0.2149
  106GLOH    C3 9660   3.010   1.947   1.411  0.3755  0.2888 -0.2336
  106GLOH   H06 9661   2.924   1.882   1.395  0.2227  0.8463 -1.7536
  106GLOH   H07 9662   3.067   1.899   1.491 -0.9248 -1.7066 -0.4891
  106GLOH    O3 9663   3.095   1.969   1.295 -0.1675 -0.1910  0.3984
  106GLOH   H01 9664   3.053   2.037   1.240 -1.9488 -1.1118  0.5921
  107GLOH   H03 9665   3.932   3.666   2.690 -0.7148 -0.9445  1.8676
  107GLOH    O1 9666   3.871   3.740   2.672 -0.0385 -0.7774  0.2538
  107GLOH    C1 9667   3.932   3.842   2.593  0.3876  0.3979  0.2494
  107GLOH   H02 9668   4.033   3.817   2.560 -0.6274 -2.5520 -0.7867
  107GLOH   H08 9669   3.936   3.945   2.630 -0.1941 -0.3623  2.4960
  107GLOH    C2 9670   3.843   3.853   2.463 -0.0582 -0.1646  0.4373
  107GLOH   H04 9671   3.739   3.880   2.486  0.2386  2.6130 -1.1981
  107GLOH    O2 9672   3.887   3.964   2.386 -0.0945 -0.5771  0.1138
  107GLOH   H05 9673   3.836   3.977   2.304 -0.5588 -0.4642  0.4151
  107GLOH    C3 9674   3.839   3.717   2.389 -0.3001  0.1522  1.2830
  107GLOH   H06 9675   3.768   3.720   2.306  0.2435  1.5880  0.8380
  107GLOH   H07 9676   3.794   3.645   2.457 -0.1144 -1.1155  0.0906
  107GLOH    O3 9677   3.971   3.676   2.350  0.4086 -0.0905  0.4263
  107GLOH   H01 9678   3.984   3.693   2.255 -0.3802 -0.6756  0.2057
  108GLOH   H03 9679   3.397   1.215   1.078 -1.0707  2.0478  0.1392
  108GLOH    O1 9680   3.472   1.246   1.024 -0.3974  0.2747  0.0231
  108GLOH    C1 9681   3.431   1.314   0.905 -0.9933  0.1184  0.1122
  108GLOH   H02 9682   3.472   1.415   0.893  0.7433 -0.6399 -0.5053
  108GLOH   H08 9683   3.324   1.333   0.905 -0.4528  3.6474 -0.7112
  108GLOH    C2 9684   3.453   1.232   0.775 -0.5704 -0.2767 -0.9298
  108GLOH   H04 9685   3.403   1.134   0.777 -1.8138  0.3623  1.0501
  108GLOH    O2 9686   3.391   1.310   0.667 -0.1883 -0.0655 -0.4141
  108GLOH   H05 9687   3.415   1.403   0.677 -0.4689 -0.0054 -0.3009
  108GLOH    C3 9688   3.605   1.220   0.752  0.5010  0.2213  0.6686
  108GLOH   H06 9689   3.649   1.319   0.741  2.2245 -0.6041  0.0061
  108GLOH   H07 9690   3.637   1.156   0.670  1.3419  1.4089  0.0557
  108GLOH    O3 9691   3.663   1.174   0.874 -0.2829 -0.1129  0.0616
  108GLOH   H01 9692   3.590   1.175   0.939 -1.6086 -2.8216 -1.3165
  109GLOH   H03 9693   4.482   2.241   1.445 -0.7420 -2.0834  1.8868
  109GLOH    O1 9694   4.508   2.175   1.379  0.4038  0.2110  0.0039
  109GLOH    C1 9695   4.624   2.217   1.301  0.7862  0.5026 -0.2208
  109GLOH   H02 9696   4.604   2.210   1.194 -0.5366  1.7334 -0.0718
  109GLOH   H08 9697   4.707   2.151   1.326  2.1772  1.9996 -0.7788
  109GLOH    C2 9698   4.665   2.364   1.326 -0.1379 -0.5705  0.0156
  109GLOH   H04 9699   4.576   2.426   1.307  0.6670  0.8491  0.8198
  109GLOH    O2 9700   4.714   2.403   1.461 -0.4851  0.2766 -0.6705
  109GLOH   H05 9701   4.631   2.393   1.511  0.0898  2.0540  0.6565
  109GLOH    C3 9702   4.772   2.415   1.223  0.4896 -0.4510  0.2144
  109GLOH   H06 9703   4.851   2.340   1.218 -0.7161 -1.8711  2.0050
  109GLOH   H07 9704   4.821   2.505   1.260  0.7091 -0.5965  0.2835
  109GLOH    O3 9705   4.698   2.421   1.098 -0.1516  0.4599  0.1088
  109GLOH   H01 9706   4.708   2.515   1.072 -2.9502  0.2327 -1.9059
  110GLOH   H03 9707   3.482   0.726   1.580  0.8680  1.0547 -0.5906
  110GLOH    O1 9708   3.408   0.781   1.611  0.1932 -0.1764  0.0544
  110GLOH    C1 9709   3.455   0.870   1.714  0.4088 -0.2007  0.1790
  110GLOH   H02 9710   3.386   0.954   1.727  1.3405  0.6813 -0.5171
  110GLOH   H08 9711   3.547   0.917   1.679  0.1123  0.8320  0.7527
  110GLOH    C2 9712   3.475   0.793   1.845 -0.8872 -0.4867 -1.5995
  110GLOH   H04 9713   3.539   0.706   1.829  1.3761  1.1602 -1.6530
  110GLOH    O2 9714   3.515   0.881   1.958  0.5190  0.5350  0.1525
  110GLOH   H05 9715   3.582   0.939   1.919 -1.5892  3.9920  1.4727
  110GLOH    C3 9716   3.339   0.724   1.881  0.4035  0.1283  0.0638
  110GLOH   H06 9717   3.346   0.682   1.981 -0.4719 -0.6546 -0.1983
  110GLOH   H07 9718   3.327   0.644   1.807 -0.4303 -1.3961  1.8218
  110GLOH    O3 9719   3.215   0.802   1.867  0.0729 -0.5738  0.1334
  110GLOH   H01 9720   3.142   0.753   1.911  0.6661 -1.5124  0.0734
  111GLOH   H03 9721   4.594   1.251   0.891 -2.8336  0.9300 -0.1286
  111GLOH    O1 9722   4.604   1.273   0.797 -0.6589 -0.0173 -0.1523
  111GLOH    C1 9723   4.510   1.375   0.751  0.4827 -0.6399 -0.2812
  111GLOH   H02 9724   4.418   1.377   0.810 -0.8534  2.6019 -2.3599
  111GLOH   H08 9725   4.487   1.352   0.647 -0.3227  1.3924 -0.5614
  111GLOH    C2 9726   4.567   1.521   0.742 -0.0685 -0.3300  0.6023
  111GLOH   H04 9727   4.489   1.588   0.704  0.4328 -0.3245 -0.4373
  111GLOH    O2 9728   4.622   1.577   0.866  0.5862 -0.1289  0.0657
  111GLOH   H05 9729   4.550   1.607   0.925  0.3952  2.4923 -1.4361
  111GLOH    C3 9730   4.670   1.535   0.623  0.4971 -0.9623  0.0881
  111GLOH   H06 9731   4.758   1.477   0.653  1.8245  1.0306  0.1490
  111GLOH   H07 9732   4.705   1.638   0.622  0.1781 -0.8232  1.7939
  111GLOH    O3 9733   4.633   1.482   0.501 -0.7034  0.1129  1.2445
  111GLOH   H01 9734   4.702   1.416   0.483 -0.8590  0.5841 -1.2636
  112GLOH   H03 9735   3.953   2.809   2.444 -0.3740 -1.7705 -0.6290
  112GLOH    O1 9736   4.050   2.801   2.440 -0.1766 -0.2701  0.4653
  112GLOH    C1 9737   4.086   2.695   2.525  0.0917  0.2872 -0.3751
  112GLOH   H02 9738   4.010   2.617   2.530 -1.5936  1.8514 -1.0762
  112GLOH   H08 9739   4.086   2.728   2.629 -3.6867  1.1383 -0.5472
  112GLOH    C2 9740   4.219   2.630   2.495  0.0834  0.2673  0.5533
  112GLOH   H04 9741   4.295   2.709   2.503  0.6700 -0.2855  0.4176
  112GLOH    O2 9742   4.252   2.524   2.584  0.4488  0.1262 -0.5453
  112GLOH   H05 9743   4.271   2.560   2.673  2.8116 -0.1889 -0.8750
  112GLOH    C3 9744   4.214   2.561   2.359  0.6280 -0.6129 -0.5709
  112GLOH   H06 9745   4.122   2.505   2.341 -0.6568  1.7027 -1.3182
  112GLOH   H07 9746   4.292   2.484   2.355 -0.3589 -1.6263 -0.6213
  112GLOH    O3 9747   4.229   2.655   2.260  0.1369 -0.1377  0.4262
  112GLOH   H01 9748   4.171   2.732   2.278 -0.3614 -0.0618 -1.3771
  113GLOH   H03 9749   4.280   2.618   1.864 -3.0380 -0.2465 -0.1640
  113GLOH    O1 9750   4.284   2.700   1.812 -0.6833 -0.3521 -0.1976
  113GLOH    C1 9751   4.413   2.760   1.813  0.5998  0.1820  0.1497
  113GLOH   H02 9752   4.430   2.815   1.721  0.9956  0.5988  0.4640
  113GLOH   H08 9753   4.500   2.694   1.810  1.9777  1.9666  0.2677
  113GLOH    C2 9754   4.427   2.856   1.931 -0.0127  1.2529  0.4029
  113GLOH   H04 9755   4.395   2.810   2.025 -1.4297  0.7481 -0.3043
  113GLOH    O2 9756   4.566   2.885   1.943 -0.6506  0.3842  0.2618
  113GLOH   H05 9757   4.584   2.946   2.016 -1.0811 -2.8224  3.1718
  113GLOH    C3 9758   4.336   2.981   1.905 -0.1544 -0.3811  0.9506
  113GLOH   H06 9759   4.231   2.954   1.912 -0.6748  0.9753 -1.0695
  113GLOH   H07 9760   4.349   3.026   1.806 -0.3297  1.1206  1.6033
  113GLOH    O3 9761   4.354   3.088   2.002  0.1202 -0.0093  0.1318
  113GLOH   H01 9762   4.318   3.063   2.089  1.8501 -0.5339  0.7112
  114GLOH   H03 9763   2.352   0.871   1.803 -0.6333  0.0672 -0.9415
  114GLOH    O1 9764   2.327   0.958   1.840 -0.3356 -0.1515 -0.2157
  114GLOH    C1 9765   2.218   0.938   1.929  0.2636  0.8475 -0.7524
  114GLOH   H02 9766   2.164   1.032   1.919 -4.1985 -1.5150 -0.2969
  114GLOH   H08 9767   2.261   0.934   2.029  0.6118  0.1943 -0.9286
  114GLOH    C2 9768   2.122   0.809   1.921  0.0688  0.4175  0.1056
  114GLOH   H04 9769   2.067   0.841   1.832 -0.4968  0.3881  0.4446
  114GLOH    O2 9770   2.173   0.671   1.928 -0.0159  0.2940 -0.3158
  114GLOH   H05 9771   2.198   0.648   2.019  0.4075  1.3760 -0.1586
  114GLOH    C3 9772   2.030   0.842   2.040 -0.1424 -0.0589  0.0200
  114GLOH   H06 9773   1.954   0.764   2.035 -1.6333  1.4670 -1.7716
  114GLOH   H07 9774   1.992   0.939   2.008  0.5236 -0.5356 -2.2612
  114GLOH    O3 9775   2.105   0.848   2.164 -0.1500  0.3716 -0.0056
  114GLOH   H01 9776   2.097   0.765   2.214 -1.3709  0.2800 -0.3369
  115GLOH   H03 9777   5.156   3.479   2.233 -1.1208  1.1200  0.4971
  115GLOH    O1 9778   5.123   3.402   2.182  0.1552  0.5224  0.5518
  115GLOH    C1 9779   4.975   3.425   2.171  0.1254 -0.0062  0.1033
  115GLOH   H02 9780   4.956   3.502   2.096 -0.5078 -0.7137 -0.4680
  115GLOH   H08 9781   4.928   3.455   2.265 -0.3133 -1.2265  0.2872
  115GLOH    C2 9782   4.891   3.296   2.133 -0.2330  0.4896 -0.4059
  115GLOH   H04 9783   4.906   3.236   2.224 -1.2148  1.4553  0.4025
  115GLOH    O2 9784   4.754   3.335   2.108  0.3090 -0.5031  1.0758
  115GLOH   H05 9785   4.721   3.264   2.051  0.9964 -0.2346  0.3249
  115GLOH    C3 9786   4.948   3.227   2.008 -0.5112  0.0976  0.5512
  115GLOH   H06 9787   4.948   3.288   1.918 -0.1826  0.0767  0.5333
  115GLOH   H07 9788   4.878   3.147   1.985 -0.2924 -0.3701  1.4838
  115GLOH    O3 9789   5.079   3.175   2.030 -0.6820 -0.5574 -0.0547
  115GLOH   H01 9790   5.144   3.235   2.071  2.4637 -2.4516 -2.1043
  116GLOH   H03 9791   3.071   0.182   2.607  0.0218  0.2665 -0.6530
  116GLOH    O1 9792   3.151   0.216   2.652  0.0422 -0.2945 -0.2539
  116GLOH    C1 9793   3.155   0.357   2.607 -0.0479  0.1500  0.3220
  116GLOH   H02 9794   3.063   0.405   2.641 -0.6123  0.4140 -1.5549
  116GLOH   H08 9795   3.150   0.362   2.499 -3.7347  0.6592  0.4697
  116GLOH    C2 9796   3.281   0.434   2.654 -0.0761  0.3466  0.6619
  116GLOH   H04 9797   3.291   0.528   2.598  1.1575 -0.0789  0.1431
  116GLOH    O2 9798   3.272   0.476   2.790 -0.1076 -1.1947 -0.2189
  116GLOH   H05 9799   3.269   0.573   2.784 -1.7930 -1.2807 -0.9372
  116GLOH    C3 9800   3.414   0.353   2.633 -0.4890 -0.3109  0.2377
  116GLOH   H06 9801   3.398   0.260   2.687 -3.6679  0.3948  0.5964
  116GLOH   H07 9802   3.496   0.409   2.680  1.2229 -0.1779 -2.7754
  116GLOH    O3 9803   3.447   0.321   2.495 -0.0637 -0.1257  0.3235
  116GLOH   H01 9804   3.491   0.404   2.471 -1.8167  1.0168  0.9780
  117GLOH   H03 9805   3.271   1.956   2.759 -1.2292 -1.1237  0.4316
  117GLOH    O1 9806   3.282   1.876   2.704  0.5011 -0.3319 -0.4444
  117GLOH    C1 9807   3.214   1.896   2.579  0.1098 -0.1521  0.1530
  117GLOH   H02 9808   3.262   1.982   2.533  1.5507 -1.0133 -0.0011
  117GLOH   H08 9809   3.106   1.907   2.582  0.2075  1.7407 -1.7969
  117GLOH    C2 9810   3.244   1.791   2.468  0.3120  0.0346 -0.1563
  117GLOH   H04 9811   3.197   1.697   2.500  1.6563  0.4717  3.3177
  117GLOH    O2 9812   3.170   1.824   2.350  0.7492  0.4162 -0.2220
  117GLOH   H05 9813   3.196   1.916   2.332  1.1749  0.4636  0.5978
  117GLOH    C3 9814   3.395   1.780   2.440 -0.8843 -0.7231 -0.2116
  117GLOH   H06 9815   3.424   1.884   2.420 -0.5555 -1.1938 -2.3168
  117GLOH   H07 9816   3.405   1.739   2.340  1.3082  0.1953 -0.4107
  117GLOH    O3 9817   3.481   1.709   2.526 -0.5603  0.4238  0.6965
  117GLOH   H01 9818   3.467   1.739   2.618  1.4005 -1.2752  1.5873
  118GLOH   H03 9819   3.593   0.477   0.326  0.2626  1.0845 -1.3793
  118GLOH    O1 9820   3.665   0.498   0.388 -0.4637  0.0108 -0.1500
  118GLOH    C1 9821   3.714   0.366   0.425  0.1813 -0.2974 -0.9266
  118GLOH   H02 9822   3.639   0.288   0.427  1.3829 -1.5307 -2.6679
  118GLOH   H08 9823   3.766   0.357   0.520 -0.0249 -0.8473 -0.8676
  118GLOH    C2 9824   3.818   0.315   0.326  1.0123  0.7723  0.2826
  118GLOH   H04 9825   3.867   0.222   0.360 -1.0061 -0.3576  0.1458
  118GLOH    O2 9826   3.751   0.280   0.203 -0.7078  0.0339  0.0477
  118GLOH   H05 9827   3.688   0.211   0.229 -0.0778 -0.2916  0.7200
  118GLOH    C3 9828   3.928   0.416   0.289  0.3230  0.2949  0.0662
  118GLOH   H06 9829   3.893   0.519   0.291  1.1205  0.6608 -2.5816
  118GLOH   H07 9830   3.959   0.412   0.184 -1.3717 -0.0207 -0.4467
  118GLOH    O3 9831   4.038   0.409   0.380 -0.3482 -0.3615 -1.2024
  118GLOH   H01 9832   4.099   0.485   0.375 -1.7903  0.7188 -3.3107
  119GLOH   H03 9833   4.128   2.990   1.140 -0.9958  0.1530  0.4133
  119GLOH    O1 9834   4.147   2.961   1.049  0.0717  0.0856  0.6529
  119GLOH    C1 9835   4.274   3.022   1.013  0.4230 -0.1412  0.1908
  119GLOH   H02 9836   4.362   2.997   1.073  0.9650  0.1929 -0.4584
  119GLOH   H08 9837   4.279   3.130   1.029 -0.3387  0.1296 -1.3369
  119GLOH    C2 9838   4.308   3.007   0.857 -0.0653 -0.3746  0.9290
  119GLOH   H04 9839   4.222   3.048   0.803  0.8215  0.5563  0.2035
  119GLOH    O2 9840   4.429   3.078   0.824 -0.8201 -0.2862  0.1486
  119GLOH   H05 9841   4.494   3.006   0.824  0.5537  0.9355 -0.5527
  119GLOH    C3 9842   4.329   2.858   0.828 -0.0205 -0.3487  0.3686
  119GLOH   H06 9843   4.332   2.850   0.719  1.4585  0.1231  0.3669
  119GLOH   H07 9844   4.239   2.805   0.859  1.1190 -3.8654 -2.0272
  119GLOH    O3 9845   4.446   2.810   0.897 -0.5511  0.2733 -0.6899
  119GLOH   H01 9846   4.434   2.714   0.908 -2.7299  0.5550 -0.4383
  120GLOH   H03 9847   3.263   2.515   0.576  0.8965 -1.3206  1.1951
  120GLOH    O1 9848   3.334   2.554   0.521 -0.4148 -0.2736  0.2093
  120GLOH    C1 9849   3.390   2.674   0.565 -0.5206  0.7819 -0.4454
  120GLOH   H02 9850   3.317   2.746   0.601  0.4966  1.1691  0.8631
  120GLOH   H08 9851   3.438   2.731   0.486  2.0082  0.3983  0.7565
  120GLOH    C2 9852   3.492   2.660   0.682 -0.3976 -0.1867 -0.8017
  120GLOH   H04 9853   3.537   2.759   0.695 -0.6609 -0.1457 -0.2197
  120GLOH    O2 9854   3.421   2.617   0.801  0.1411 -0.1373  0.4046
  120GLOH   H05 9855   3.331   2.654   0.805 -0.7740 -2.1744 -0.6958
  120GLOH    C3 9856   3.610   2.574   0.651 -0.3512 -0.1023  0.4154
  120GLOH   H06 9857   3.653   2.541   0.746  0.5804 -2.5236 -0.7812
  120GLOH   H07 9858   3.685   2.633   0.598 -1.5523 -0.7408 -2.1178
  120GLOH    O3 9859   3.581   2.451   0.581  0.0618  0.4275  0.1324
  120GLOH   H01 9860   3.493   2.461   0.541 -0.0074  1.9104  0.6042
  121ACOH    H4 9861   2.824   1.048   1.020  0.7376  2.4868  1.4941
  121ACOH    O2 9862   2.896   1.069   0.958  0.4286  0.1095  0.2623
  121ACOH    C2 9863   2.862   1.171   0.876 -0.3228 -0.0136 -0.2376
  121ACOH    O1 9864   2.745   1.205   0.855  0.0300 -0.3841 -0.7519
  121ACOH    C1 9865   2.965   1.203   0.782  0.1508 -0.5597 -0.3454
  121ACOH    H1 9866   2.932   1.249   0.690  0.1127 -0.6162 -0.3597
  121ACOH    H2 9867   3.028   1.113   0.774 -0.0174 -0.9662  2.4098
  121ACOH    H3 9868   3.026   1.277   0.834 -0.4173 -0.5598  0.3208
  122ACOH    H4 9869   3.584   8.828   1.070  0.8547  1.2751  0.5232
  122ACOH    O2 9870   3.677   8.802   1.062  0.3409 -0.5274  0.1637
  122ACOH    C2 9871   3.723   8.797   1.189 -0.1619  0.2217  0.1867
  122ACOH    O1 9872   3.662   8.804   1.293  0.0598 -0.4157 -0.1905
  122ACOH    C1 9873   3.870   8.777   1.184 -1.2002 -0.4516 -0.0550
  122ACOH    H1 9874   3.927   8.843   1.249  1.0961 -3.5508  1.2024
  122ACOH    H2 9875   3.909   8.801   1.085  0.7101 -2.4745  0.1473
  122ACOH    H3 9876   3.887   8.672   1.210  2.8559  0.1379 -0.0461
  123ACOH    H4 9877   4.404   3.157   2.373  1.2804 -0.2990 -1.4777
  123ACOH    O2 9878   4.408   3.060   2.371 -0.6109 -0.4353  0.5313
  123ACOH    C2 9879   4.518   3.030   2.300  0.4420  0.7130  0.2137
  123ACOH    O1 9880   4.602   3.111   2.259 -0.6539 -0.0284 -0.2510
  123ACOH    C1 9881   4.531   2.886   2.268  0.0490  0.3345 -1.1021
  123ACOH    H1 9882   4.606   2.868   2.191 -0.0531  1.9378 -1.5846
  123ACOH    H2 9883   4.435   2.852   2.227  0.0284  1.9877 -2.5060
  123ACOH    H3 9884   4.547   2.842   2.366 -2.2488  1.9982  0.0561
  124ACOH    H4 9885   6.187   9.928   1.877  1.6879 -0.9772  0.9884
  124ACOH    O2 9886   6.196   9.994   1.948  0.1876  0.3837 -0.0457
  124ACOH    C2 9887   6.276  10.090   1.900  0.6677 -0.3850 -0.5778
  124ACOH    O1 9888   6.354  10.071   1.809  0.3683  0.1601  0.3083
  124ACOH    C1 9889   6.270  10.206   1.993 -0.0371  0.1219  0.3959
  124ACOH    H1 9890   6.194  10.201   2.070 -2.1269  1.0638 -1.5415
  124ACOH    H2 9891   6.255  10.299   1.938 -1.9689  0.4178  1.3868
  124ACOH    H3 9892   6.365  10.208   2.047  0.6129 -1.0572 -0.6521
  125ACOH    H4 9893   3.296   2.356   2.173 -0.6561 -1.5968 -0.4402
  125ACOH    O2 9894   3.326   2.317   2.257  0.0088  0.5260  0.3455
  125ACOH    C2 9895   3.444   2.364   2.283 -0.3249 -0.0629 -0.2125
  125ACOH    O1 9896   3.512   2.445   2.224 -0.5019 -0.1945  0.1447
  125ACOH    C1 9897   3.507   2.293   2.400  0.0834  0.2537  0.2385
  125ACOH    H1 9898   3.431   2.301   2.478 -0.3878 -1.1964 -0.0491
  125ACOH    H2 9899   3.604   2.331   2.432 -0.7062  1.6074  1.0580
  125ACOH    H3 9900   3.529   2.189   2.375  0.7575  0.7299 -1.1756
  126ACOH    H4 9901   3.667   9.454   0.172 -1.5957 -1.4228  2.5046
  126ACOH    O2 9902   3.722   9.374   0.171 -0.2930 -0.5535  0.3087
  126ACOH    C2 9903   3.825   9.380   0.097  0.1516 -0.6541 -0.3241
  126ACOH    O1 9904   3.836   9.471   0.020  0.3114 -0.0034  0.5015
  126ACOH    C1 9905   3.897   9.249   0.090 -0.7227 -0.4273 -0.0406
  126ACOH    H1 9906   4.005   9.259   0.085 -0.4632 -0.7009  3.7838
  126ACOH    H2 9907   3.867   9.191   0.003  0.6666  1.6749 -1.9719
  126ACOH    H3 9908   3.864   9.199   0.181  2.7631 -1.9911  0.4286
  127ACOH    H4 9909   4.766   4.023   0.405 -0.2575 -2.6732 -0.2600
  127ACOH    O2 9910   4.861   4.008   0.421  0.1963  0.4056  0.2913
  127ACOH    C2 9911   4.887   4.045   0.547 -1.3713 -0.5695  0.2176
  127ACOH    O1 9912   4.830   4.129   0.615 -0.2769 -0.2865 -0.0862
  127ACOH    C1 9913   5.013   3.981   0.596  0.3834 -0.1189  0.2403
  127ACOH    H1 9914   5.016   4.011   0.701 -0.3983 -1.1376  0.5560
  127ACOH    H2 9915   5.100   4.024   0.546  0.9553 -1.3230  0.1731
  127ACOH    H3 9916   5.005   3.874   0.576  0.8387  0.1575 -1.5557
  128ACOH    H4 9917   2.821   3.448   1.697 -0.7130  0.3247  1.3901
  128ACOH    O2 9918   2.788   3.538   1.685 -0.6386  0.1168 -0.4364
  128ACOH    C2 9919   2.842   3.631   1.769  0.2777 -0.9522  1.4837
  128ACOH    O1 9920   2.917   3.602   1.859 -0.0529  0.5497  0.1056
  128ACOH    C1 9921   2.770   3.761   1.758  0.4875 -0.2576 -0.9106
  128ACOH    H1 9922   2.805   3.830   1.681 -2.7095  0.5147 -1.7730
  128ACOH    H2 9923   2.765   3.814   1.853 -0.1524  0.1512 -1.1625
  128ACOH    H3 9924   2.664   3.737   1.744  0.0384  2.5755 -2.9294
  129ACOH    H4 9925   4.239   0.691   1.207 -1.5780  0.6479 -1.7867
  129ACOH    O2 9926   4.295   0.661   1.133  0.5913 -0.2977  0.1736
  129ACOH    C2 9927   4.359   0.551   1.171  0.1299  0.2250  0.3556
  129ACOH    O1 9928   4.393   0.538   1.288 -0.4608  0.2182  0.1987
  129ACOH    C1 9929   4.434   0.493   1.059  0.1925 -0.1367 -0.0197
  129ACOH    H1 9930   4.378   0.407   1.022  0.2609 -0.2950  0.2479
  129ACOH    H2 9931   4.535   0.467   1.090  0.4256  0.4472 -0.2734
  129ACOH    H3 9932   4.440   0.550   0.966  1.4333 -1.7058 -0.9291
  130ACOH    H4 9933   4.942   3.363   0.610  1.7019  1.6122 -0.9733
  130ACOH    O2 9934   4.971   3.317   0.530 -0.1112  0.3137 -0.8986
  130ACOH    C2 9935   4.859   3.307   0.456  0.2021  0.6420 -0.1644
  130ACOH    O1 9936   4.749   3.284   0.506 -0.0178  0.3320 -0.4170
  130ACOH    C1 9937   4.894   3.268   0.318 -0.5375 -0.2966 -0.3929
  130ACOH    H1 9938   4.991   3.313   0.297 -0.6984  0.3086  0.1470
  130ACOH    H2 9939   4.815   3.307   0.254  0.3780  3.8429  0.8397
  130ACOH    H3 9940   4.905   3.160   0.309  1.0512 -0.1450 -0.5229
  131ACOH    H4 9941   4.411   3.581   0.175 -0.0825 -2.4061  1.0452
  131ACOH    O2 9942   4.463   3.555   0.098  0.1758 -0.2521  0.4441
  131ACOH    C2 9943   4.588   3.514   0.140  0.1944  0.4625  0.2137
  131ACOH    O1 9944   4.614   3.496   0.253 -1.1836  0.1544 -0.3378
  131ACOH    C1 9945   4.687   3.526   0.037 -0.7275 -0.1542  0.1064
  131ACOH    H1 9946   4.782   3.564   0.075  0.1023 -2.2516  0.1919
  131ACOH    H2 9947   4.662   3.599  -0.040  0.6556 -1.2550 -1.4368
  131ACOH    H3 9948   4.710   3.427  -0.003  2.2602 -0.3153  2.0280
  132ACOH    H4 9949   3.279   2.544   2.503  0.9148  1.0870  1.4907
  132ACOH    O2 9950   3.276   2.453   2.539 -0.4194  0.5070 -0.0232
  132ACOH    C2 9951   3.143   2.427   2.535 -0.8325  0.3981  0.9373
  132ACOH    O1 9952   3.070   2.459   2.443 -0.0113  0.6552 -0.1463
  132ACOH    C1 9953   3.117   2.299   2.606 -0.4905 -0.2561  0.0590
  132ACOH    H1 9954   3.122   2.313   2.714  3.7642 -4.0289  0.5169
  132ACOH    H2 9955   3.204   2.234   2.590 -1.2200 -1.5101  1.0462
  132ACOH    H3 9956   3.027   2.250   2.568 -0.7190 -1.7733  2.4416
  133ACOH    H4 9957   3.218   8.974   0.482  0.7466  0.2621  0.6812
  133ACOH    O2 9958   3.248   8.884   0.504  0.0903 -0.1843 -0.2245
  133ACOH    C2 9959   3.375   8.899   0.535  0.3553 -0.4238 -0.7242
  133ACOH    O1 9960   3.450   8.984   0.504 -0.0588 -1.0912 -0.6351
  133ACOH    C1 9961   3.426   8.767   0.587  0.0189 -0.5682 -0.5526
  133ACOH    H1 9962   3.448   8.707   0.498  3.0205 -1.4118  0.7099
  133ACOH    H2 9963   3.334   8.724   0.627  0.4285 -0.9025  0.0170
  133ACOH    H3 9964   3.495   8.769   0.671  0.3652  1.4359 -0.8477
  134ACOH    H4 9965   4.518   1.700   2.777  0.1899 -0.5840 -1.2128
  134ACOH    O2 9966   4.570   1.639   2.721  0.4730 -0.5752 -0.9619
  134ACOH    C2 9967   4.693   1.678   2.698 -0.6361 -0.2911 -0.1719
  134ACOH    O1 9968   4.746   1.783   2.726 -0.4012 -0.3789  0.0868
  134ACOH    C1 9969   4.758   1.570   2.627 -0.9852  0.3667 -0.4203
  134ACOH    H1 9970   4.766   1.478   2.685 -2.0621  1.0481  0.8324
  134ACOH    H2 9971   4.858   1.610   2.607 -0.1135 -1.3605  0.3020
  134ACOH    H3 9972   4.703   1.555   2.534  1.2461  2.5482 -2.1796
  135ACOH    H4 9973   3.954   9.141   1.430 -0.8068  1.5181 -1.7138
  135ACOH    O2 9974   3.860   9.129   1.453 -0.3502 -0.1504 -0.6607
  135ACOH    C2 9975   3.855   9.034   1.556  0.8302 -0.4017 -1.1440
  135ACOH    O1 9976   3.932   8.952   1.591 -0.2586 -0.0155 -0.0149
  135ACOH    C1 9977   3.724   9.040   1.617  0.1890  0.7609 -0.1633
  135ACOH    H1 9978   3.711   9.135   1.669  1.5546  1.6196 -1.3422
  135ACOH    H2 9979   3.720   8.961   1.691  1.0027  0.1940 -0.7113
  135ACOH    H3 9980   3.645   9.032   1.542  0.8706 -0.8407 -0.7294
  136ACOH    H4 9981   5.117   3.787   2.446  0.8105 -2.1728 -1.0957
  136ACOH    O2 9982   5.199   3.767   2.495  0.3016  0.3334  0.8658
  136ACOH    C2 9983   5.248   3.665   2.427  0.1450  0.4273  0.3261
  136ACOH    O1 9984   5.196   3.607   2.334 -0.2401  0.3621 -0.5295
  136ACOH    C1 9985   5.381   3.623   2.480  0.7644  0.3800 -0.4013
  136ACOH    H1 9986   5.391   3.514   2.473 -1.1053  0.1141  0.6681
  136ACOH    H2 9987   5.376   3.661   2.582 -0.8549  0.1934 -0.4002
  136ACOH    H3 9988   5.462   3.672   2.427  3.1183 -1.5635  1.2704
  137ACOH    H4 9989   4.260   9.531   1.943 -0.4698  4.8310  2.0716
  137ACOH    O2 9990   4.187   9.488   1.990  0.3648  0.2478 -0.5561
  137ACOH    C2 9991   4.227   9.361   1.998 -0.1332  0.7534  0.8838
  137ACOH    O1 9992   4.271   9.281   1.913 -0.6721 -0.2887  0.0799
  137ACOH    C1 9993   4.193   9.305   2.135  0.1585 -0.2530 -0.0268
  137ACOH    H1 9994   4.274   9.279   2.203 -0.0528  0.4018  0.4788
  137ACOH    H2 9995   4.114   9.231   2.142  0.2123 -0.3503 -0.4380
  137ACOH    H3 9996   4.150   9.387   2.193  0.0837 -0.4058  0.1328
  138ACOH    H4 9997   2.640   2.448   2.408  1.7930  2.3057 -0.2619
  138ACOH    O2 9998   2.583   2.466   2.331 -0.0396 -0.5148  0.3556
  138ACOH    C2 9999   2.488   2.558   2.359 -0.7648 -0.1305 -0.2175
  138ACOH    O110000   2.458   2.609   2.468  0.4102 -1.5376  0.5449
  138ACOH    C110001   2.437   2.599   2.228 -0.5625 -0.7071 -0.1530
  138ACOH    H110002   2.344   2.652   2.243 -1.0790 -1.3528 -0.9967
  138ACOH    H210003   2.419   2.507   2.171 -0.5178  0.1344 -1.5628
  138ACOH    H310004   2.514   2.659   2.179 -0.0415 -0.1941  1.2730
  139ACOH    H410005   3.283   1.436   0.247 -0.4257  3.5326  0.0503
  139ACOH    O210006   3.264   1.427   0.152  0.1899 -0.3538  0.1856
  139ACOH    C210007   3.282   1.542   0.094  0.2406  0.5536 -0.7165
  139ACOH    O110008   3.329   1.644   0.142 -0.7071  0.1524  0.0495
  139ACOH    C110009   3.221   1.532  -0.040 -0.8744 -0.4612  0.2520
  139ACOH    H110010   3.119   1.496  -0.026 -1.3098  0.7684  0.3040
  139ACOH    H210011   3.276   1.459  -0.099  0.1744  0.6932 -0.2387
  139ACOH    H310012   3.219   1.625  -0.096 -0.9495  0.1090  1.1871
  140ACOH    H410013   4.133   4.464   1.372 -0.5149  0.3693 -0.6703
  140ACOH    O210014   4.083   4.543   1.346  0.1541  1.0512  0.0866
  140ACOH    C210015   4.159   4.616   1.266 -0.2232 -0.0706  0.1136
  140ACOH    O110016   4.274   4.598   1.240 -0.0787  0.5856 -0.4702
  140ACOH    C110017   4.067   4.708   1.190 -0.3230  0.2256 -0.5316
  140ACOH    H110018   4.015   4.765   1.266  0.9365 -0.8876  1.2037
  140ACOH    H210019   3.990   4.654   1.135 -0.3453 -0.4879  0.1825
  140ACOH    H310020   4.117   4.779   1.123  1.4456  0.5452  1.0726
  141ACOH    H410021   4.441   4.422   1.673  1.1250  1.4136 -1.3703
  141ACOH    O210022   4.425   4.492   1.739  0.0084 -0.3842  0.3331
  141ACOH    C210023   4.481   4.610   1.710  0.4675  0.0664  0.2826
  141ACOH    O110024   4.493   4.661   1.598  0.2290 -0.3871 -0.6102
  141ACOH    C110025   4.521   4.674   1.838 -0.0736  0.0504  0.4665
  141ACOH    H110026   4.558   4.771   1.805  0.5536 -1.2662 -2.8558
  141ACOH    H210027   4.599   4.626   1.897 -0.0107 -2.4524 -1.5603
  141ACOH    H310028   4.430   4.689   1.896  0.5511 -0.1909  1.5401
  142ACOH    H410029   3.754   4.047   1.817 -1.1972  0.1814  1.6275
  142ACOH    O210030   3.816   4.111   1.856  0.1076 -0.2517  0.3228
  142ACOH    C210031   3.899   4.167   1.767 -0.4041 -0.2144  0.1034
  142ACOH    O110032   3.907   4.136   1.647  0.3456 -0.4798 -0.3918
  142ACOH    C110033   3.998   4.262   1.834  0.5066  0.7246  0.0828
  142ACOH    H110034   4.091   4.274   1.778  0.0970 -0.9920 -0.9927
  142ACOH    H210035   4.004   4.226   1.937 -1.4720 -1.4699 -0.5263
  142ACOH    H310036   3.957   4.363   1.832 -1.1855  0.0613 -0.0462
  143ACOH    H410037   3.231   0.097   2.676 -2.3399 -1.5330  0.5200
  143ACOH    O210038   3.282   0.016   2.694  0.3275 -0.0487 -0.1783
  143ACOH    C210039   3.210  -0.087   2.641 -0.5338 -0.6842 -0.1086
  143ACOH    O110040   3.104  -0.081   2.590  0.0555 -0.2455  0.1409
  143ACOH    C110041   3.285  -0.214   2.623 -0.3171 -0.2433 -0.0442
  143ACOH    H110042   3.251  -0.279   2.703 -0.9488 -0.4471 -0.4747
  143ACOH    H210043   3.389  -0.183   2.624  0.2152 -1.9217 -1.3337
  143ACOH    H310044   3.269  -0.258   2.525  0.2261  0.5552 -0.4963
  144ACOH    H410045   5.053   3.027   2.091 -3.9202 -1.5179 -1.6681
  144ACOH    O210046   5.086   2.938   2.110  0.0991  0.2775  0.4031
  144ACOH    C210047   4.973   2.868   2.132  0.3603  0.7193  0.0500
  144ACOH    O110048   4.861   2.897   2.176 -0.3706 -0.2813 -0.5273
  144ACOH    C110049   4.981   2.725   2.085 -0.0113 -0.1815 -0.0215
  144ACOH    H110050   5.067   2.706   2.021  1.4187  0.9775  1.5032
  144ACOH    H210051   4.888   2.700   2.034  0.1422  0.2318 -0.5018
  144ACOH    H310052   4.984   2.651   2.165 -1.1739  1.0499  1.1803
  145ACOH    H410053   4.516   4.112   0.739  1.0076 -0.0908 -0.5675
  145ACOH    O210054   4.458   4.050   0.691  0.0984  0.2936  0.0466
  145ACOH    C210055   4.338   4.110   0.673 -0.0044 -1.7458  0.1167
  145ACOH    O110056   4.308   4.229   0.700 -0.2036  0.1135  0.1760
  145ACOH    C110057   4.257   4.017   0.597  0.3017 -0.1076 -0.7268
  145ACOH    H110058   4.154   4.045   0.619  0.8498  2.1401 -0.8640
  145ACOH    H210059   4.276   3.919   0.639  2.4070  1.5939  2.4563
  145ACOH    H310060   4.274   4.027   0.490  2.3059 -2.6464 -0.6881
  146ACOH    H410061   3.768   8.698   1.918  0.6789 -0.4381  1.6631
  146ACOH    O210062   3.849   8.670   1.873  0.1773  0.5456  0.1111
  146ACOH    C210063   3.830   8.660   1.744  0.2644 -0.1228  0.0912
  146ACOH    O110064   3.724   8.685   1.689  0.3147  0.8056 -0.1689
  146ACOH    C110065   3.945   8.577   1.688 -0.1300  0.6940 -0.1945
  146ACOH    H110066   3.956   8.486   1.748 -1.2950  1.7367  1.6570
  146ACOH    H210067   4.038   8.633   1.674 -2.0770  3.6350 -1.9783
  146ACOH    H310068   3.915   8.538   1.591 -0.2588  2.8762 -1.0629
  147ACOH    H410069   4.793   1.161   1.051 -1.0806 -0.5909 -1.0811
  147ACOH    O210070   4.859   1.101   1.013 -0.2783  0.1088 -0.8156
  147ACOH    C210071   4.959   1.176   0.950  0.0792  1.3762  0.1214
  147ACOH    O110072   4.976   1.297   0.949 -0.0120  0.1831 -0.2243
  147ACOH    C110073   5.057   1.081   0.894  0.3264 -0.6829 -1.0036
  147ACOH    H110074   5.158   1.106   0.927 -1.0663 -2.2576  5.2143
  147ACOH    H210075   5.057   1.079   0.785 -1.7881 -2.3243 -1.0047
  147ACOH    H310076   5.028   0.979   0.917 -0.8957  0.1475  1.4196
  148ACOH    H410077   2.613   1.511   0.597 -1.4630 -1.7523  1.3903
  148ACOH    O210078   2.570   1.485   0.513  0.5414 -0.3481 -0.1161
  148ACOH    C210079   2.503   1.369   0.543 -0.1735  0.1998 -0.7565
  148ACOH    O110080   2.546   1.288   0.623  0.1931 -0.1981  0.2868
  148ACOH    C110081   2.423   1.328   0.432 -0.6242 -0.2712  0.1439
  148ACOH    H110082   2.496   1.276   0.370  0.3485  0.9574  0.2378
  148ACOH    H210083   2.395   1.416   0.373  0.3588 -0.7238 -1.0218
  148ACOH    H310084   2.340   1.262   0.458  0.2074 -1.3531  0.0743
  149ACOH    H410085   3.641   4.389   1.454  0.6797  0.3550 -0.0802
  149ACOH    O210086   3.566   4.448   1.433  0.7354  0.3952 -0.1666
  149ACOH    C210087   3.484   4.383   1.348 -0.4121  0.3677 -0.6369
  149ACOH    O110088   3.520   4.309   1.260  0.1913  0.3154 -0.7463
  149ACOH    C110089   3.357   4.456   1.337 -0.5201  0.3611  0.4809
  149ACOH    H110090   3.366   4.515   1.246  0.4689 -2.0380 -1.0162
  149ACOH    H210091   3.337   4.531   1.414  1.2522 -0.4507  1.7482
  149ACOH    H310092   3.277   4.383   1.328  1.3613 -1.8713  1.4820
  150ACOH    H410093   4.207   3.991   2.561 -1.1489 -2.1009  0.5983
  150ACOH    O210094   4.163   4.053   2.622  0.0412 -0.7435  0.1044
  150ACOH    C210095   4.213   4.169   2.575 -1.3369  0.5614  0.3327
  150ACOH    O110096   4.318   4.176   2.513 -0.4550 -0.2523 -0.2837
  150ACOH    C110097   4.139   4.293   2.617  0.3763 -0.2103  0.4514
  150ACOH    H110098   4.038   4.278   2.656  0.2953 -0.2911  0.2110
  150ACOH    H210099   4.124   4.348   2.524  1.1610 -2.5440 -1.1127
  150ACOH    H310100   4.195   4.361   2.681  1.4775 -0.4943 -0.1855
  151ACOH    H410101   3.678   9.029   0.247  0.2157  1.0320 -0.2817
  151ACOH    O210102   3.588   9.006   0.216  0.3557 -0.4710  0.3942
  151ACOH    C210103   3.585   8.878   0.250 -0.3002 -0.1320  1.2563
  151ACOH    O110104   3.681   8.806   0.274  0.3705  0.2619 -0.2939
  151ACOH    C110105   3.457   8.821   0.217  0.3775  0.7102 -0.5141
  151ACOH    H110106   3.430   8.746   0.292  1.7368 -0.4931 -1.2086
  151ACOH    H210107   3.465   8.774   0.119  1.0650  0.1808 -0.2076
  151ACOH    H310108   3.376   8.894   0.222 -2.0058 -1.8067 -0.8619
  152SOL     OW10109   3.917   0.343   0.912 -0.1720 -0.0629  0.0256
  152SOL    HW110110   3.943   0.321   0.818  1.0907  2.9116 -0.3695
  152SOL    HW210111   3.855   0.420   0.913  0.6839  0.6375  1.6756
  153SOL     OW10112   2.945   3.638   2.491  0.3189  0.2167 -0.2197
  153SOL    HW110113   3.039   3.670   2.499  0.5171 -0.7020  1.4894
  153SOL    HW210114   2.907   3.666   2.403  1.5980  2.1044 -0.1886
  154SOL     OW10115   4.233   3.402   2.773  0.1060  0.3556  0.1891
  154SOL    HW110116   4.250   3.307   2.746  0.6702  1.1971 -2.6357
  154SOL    HW210117   4.319   3.445   2.800 -0.0593  0.2245  0.9270
  155SOL     OW10118   3.317   9.260   0.001  0.2403 -0.4495 -0.1854
  155SOL    HW110119   3.226   9.248  -0.039 -0.1776  0.1185  0.5614
  155SOL    HW210120   3.355   9.347  -0.029  0.0060 -0.1101  0.4687
  156SOL     OW10121   4.336   3.399   0.781 -0.5919 -0.1240  0.2730
  156SOL    HW110122   4.418   3.346   0.801  0.8764  1.6426 -0.8219
  156SOL    HW210123   4.323   3.404   0.682 -0.2913  2.0870  0.3173
  157SOL     OW10124   3.314   9.665   1.085  0.3514 -0.1415 -0.4958
  157SOL    HW110125   3.379   9.735   1.113 -0.8347  0.5566  0.5421
  157SOL    HW210126   3.343   9.576   1.120 -1.6020  0.8284  3.9067
  158SOL     OW10127   3.652   2.115   0.593  0.2873  0.6749 -0.3502
  158SOL    HW110128   3.631   2.155   0.503  0.5193  0.5340 -0.4685
  158SOL    HW210129   3.735   2.059   0.586 -0.2086 -0.0762 -0.2517
  159SOL     OW10130   3.898   3.678   1.539  0.5359  0.2147 -0.2255
  159SOL    HW110131   3.979   3.690   1.482  0.9921 -1.1874  0.0894
  159SOL    HW210132   3.841   3.605   1.500  1.2313 -1.2976  1.4726
  160SOL     OW10133   3.435   9.233   0.229 -0.7303 -0.4320 -0.3071
  160SOL    HW110134   3.517   9.176   0.226 -0.0752  0.5055 -0.4042
  160SOL    HW210135   3.398   9.242   0.137 -1.5079 -1.6672 -0.1167
  161SOL     OW10136   2.119   2.403   2.368  0.0964  0.0248 -0.4140
  161SOL    HW110137   2.113   2.402   2.268  2.1148  1.0379 -0.5704
  161SOL    HW210138   2.205   2.361   2.396  0.1385  0.9259  0.8436
  162SOL     OW10139   2.972   1.324   1.749 -0.3231  0.8727 -0.1198
  162SOL    HW110140   2.907   1.379   1.801 -1.8220  1.1348 -2.1862
  162SOL    HW210141   3.054   1.309   1.803 -1.2547  2.3159  1.7510
  163SOL     OW10142   4.658   3.165   1.898  1.0667  0.3111  0.0149
  163SOL    HW110143   4.578   3.107   1.912  1.2698 -0.3973 -1.6344
  163SOL    HW210144   4.710   3.131   1.820  1.5792  2.2998 -0.5209
  164SOL     OW10145   2.214   1.960   1.468 -0.5674  0.6408 -0.0585
  164SOL    HW110146   2.117   1.981   1.484 -0.0638  1.8622  1.5048
  164SOL    HW210147   2.271   2.034   1.504  1.1386 -1.9396  2.8172
  165SOL     OW10148   2.771   2.873   1.044  0.7029  0.2008  0.4234
  165SOL    HW110149   2.675   2.882   1.017  0.8819  2.0304  0.3492
  165SOL    HW210150   2.827   2.852   0.964  0.4690 -0.0808  0.3339
  166SOL     OW10151   2.889   1.295   1.494 -0.4108  0.3137 -0.3414
  166SOL    HW110152   2.862   1.200   1.484  2.2283 -0.5572  0.2095
  166SOL    HW210153   2.918   1.311   1.589  0.0988  1.3782 -0.6669
  167SOL     OW10154   3.543   0.067   0.453  0.6558 -0.5303  0.3167
  167SOL    HW110155   3.559   0.061   0.354 -0.2576  0.8865  0.0788
  167SOL    HW210156   3.480  -0.006   0.480 -0.4224  0.1045 -0.4408
  168SOL     OW10157   4.045   0.988   2.166  0.4432  0.3446  0.0851
  168SOL    HW110158   4.109   1.041   2.222  0.7361  0.3459 -0.2468
  168SOL    HW210159   4.097   0.921   2.113  0.3870  1.7127 -1.7383
  169SOL     OW10160   4.073   0.725   2.538  0.4096  0.5462  0.2767
  169SOL    HW110161   4.017   0.692   2.614  1.0367  1.4422  1.1400
  169SOL    HW210162   4.111   0.647   2.489  1.0275 -0.0591  1.6615
  170SOL     OW10163   2.191   2.374   2.111  0.3899 -0.8951 -0.0873
  170SOL    HW110164   2.237   2.437   2.049 -0.4730 -2.7929 -2.7887
  170SOL    HW210165   2.230   2.282   2.101  0.7173 -1.1058  2.7469
  171SOL     OW10166   3.130   9.166   1.882 -0.3528 -0.1836  0.8382
  171SOL    HW110167   3.106   9.262   1.894  0.5520 -0.0673  1.8474
  171SOL    HW210168   3.095   9.113   1.959  1.5950 -0.1894  1.7451
  172SOL     OW10169   2.688   3.246   1.900 -0.0041  0.4809 -0.1526
  172SOL    HW110170   2.664   3.163   1.849 -3.1378  0.8934  0.5471
  172SOL    HW210171   2.761   3.294   1.852  0.4972 -1.6591 -1.6259
  173SOL     OW10172   3.047   1.929   1.039 -0.1828 -0.1290  0.7458
  173SOL    HW110173   3.062   1.862   1.111 -0.6083  1.1463  2.0362
  173SOL    HW210174   2.954   1.964   1.045  0.1934  0.9528  0.4006
  174SOL     OW10175   3.876   2.402   2.638  0.6126 -0.3107 -0.1205
  174SOL    HW110176   3.973   2.406   2.611  0.8434 -1.1437  0.5870
  174SOL    HW210177   3.832   2.324   2.593  0.8159 -1.2581  1.3142
  175SOL     OW10178   3.188   2.827   0.862 -0.1695 -0.5432  0.2252
  175SOL    HW110179   3.224   2.838   0.955  1.0019 -1.1517 -0.1366
  175SOL    HW210180   3.245   2.878   0.798 -2.3437  1.7915  0.0942
  176SOL     OW10181   3.518   1.801   2.774  0.7155  0.0192  0.5530
  176SOL    HW110182   3.560   1.773   2.860  1.0449 -2.1952 -0.2891
  176SOL    HW210183   3.419   1.797   2.782  0.6375  3.3608  1.9347
  177SOL     OW10184   4.031   2.668   0.794  0.2745 -0.0061  0.1986
  177SOL    HW110185   4.037   2.577   0.754 -2.9081 -0.5277  0.7578
  177SOL    HW210186   3.992   2.662   0.886  1.6532  1.7791  0.9431
  178SOL     OW10187   3.629   9.939   2.642  0.0021  0.0826  0.4021
  178SOL    HW110188   3.599   9.899   2.555 -0.4602  1.2779  0.0083
  178SOL    HW210189   3.651  10.036   2.628  1.0535 -0.0134  1.3661
  179SOL     OW10190   3.461   2.730   1.943  0.6977  0.6778  0.8017
  179SOL    HW110191   3.415   2.707   2.028 -0.5218  0.0281 -0.0180
  179SOL    HW210192   3.533   2.662   1.925  0.1011  0.0665  0.6794
  180SOL     OW10193   2.638   0.414   2.793  0.5804  0.2346 -0.3766
  180SOL    HW110194   2.594   0.412   2.883 -0.0537 -0.0546 -0.6872
  180SOL    HW210195   2.670   0.322   2.770 -0.5892 -0.0121 -1.0821
  181SOL     OW10196   3.328   8.637   1.292  0.2846  0.4857  0.3487
  181SOL    HW110197   3.258   8.641   1.363  1.0027  1.2087  1.0160
  181SOL    HW210198   3.414   8.605   1.330  0.3355 -0.3837 -0.4711
  182SOL     OW10199   4.956   2.978   1.746  0.2064 -0.1649 -0.1968
  182SOL    HW110200   5.033   2.948   1.802 -0.7953 -0.9932  0.7391
  182SOL    HW210201   4.989   3.043   1.677  1.7849 -0.7117  0.0257
  183SOL     OW10202   3.410   1.778   1.612 -0.2620 -0.0407 -0.7200
  183SOL    HW110203   3.325   1.820   1.643 -0.9048  0.0971 -2.6200
  183SOL    HW210204   3.423   1.797   1.515  3.2861  2.2710  0.0734
  184SOL     OW10205   3.214   1.605   1.438  0.2034  0.7377  0.2990
  184SOL    HW110206   3.253   1.689   1.400  1.3452  0.4589  0.8459
  184SOL    HW210207   3.139   1.629   1.501 -1.0091  1.2386 -1.2893
  185SOL     OW10208   3.425   9.044   1.312  0.3820 -0.4380 -0.8914
  185SOL    HW110209   3.506   9.103   1.307  0.7334 -0.7578  0.9230
  185SOL    HW210210   3.430   8.974   1.241  1.4756 -0.1856 -1.0669
  186SOL     OW10211   3.919   2.422   1.941 -0.0295 -0.0359 -0.5011
  186SOL    HW110212   3.955   2.511   1.967 -1.1347 -0.0119  1.0465
  186SOL    HW210213   3.983   2.350   1.971 -0.5880  0.0812  1.0552
  187SOL     OW10214   3.083   0.533   2.250 -0.4716 -0.2252  0.0451
  187SOL    HW110215   3.042   0.443   2.266 -1.3347  0.2762  0.7114
  187SOL    HW210216   3.178   0.522   2.219 -0.8641 -1.3785 -0.7547
  188SOL     OW10217   3.117   3.415   2.233  0.1339 -0.0727 -0.0547
  188SOL    HW110218   3.048   3.368   2.287 -1.5492  0.1436 -1.9669
  188SOL    HW210219   3.202   3.363   2.234 -0.8435 -1.6956  0.1887
  189SOL     OW10220   3.890   9.514   1.451  0.8983  0.0705 -0.1396
  189SOL    HW110221   3.959   9.586   1.445  1.7433 -0.8066 -1.4069
  189SOL    HW210222   3.830   9.519   1.371  0.4316 -0.1045  0.1965
  190SOL     OW10223   3.757   9.713   0.991  0.2742  0.0007 -0.4831
  190SOL    HW110224   3.693   9.784   1.022 -0.0424 -1.8314  3.3523
  190SOL    HW210225   3.850   9.738   1.017 -0.0228 -1.6750  2.4569
  191SOL     OW10226   4.324   4.124   0.997 -0.7194 -0.2995 -0.5851
  191SOL    HW110227   4.240   4.076   0.971 -0.9244  1.1386 -2.7606
  191SOL    HW210228   4.306   4.222   1.003  0.0055 -0.3140  2.4543
  192SOL     OW10229   3.376   4.133   0.280  0.0837 -0.0224 -0.9976
  192SOL    HW110230   3.289   4.181   0.295  0.6187  0.9828 -1.0904
  192SOL    HW210231   3.449   4.200   0.267  0.6915 -0.8731 -1.9800
  193SOL     OW10232   3.218   3.048   0.408  0.2590  0.0978 -0.8841
  193SOL    HW110233   3.184   3.060   0.501  1.6656  0.1890 -0.3636
  193SOL    HW210234   3.200   3.131   0.355 -0.6540 -0.0012 -0.7242
  194SOL     OW10235   4.204   2.962   2.212 -0.0412  0.1632  0.3608
  194SOL    HW110236   4.258   2.978   2.294 -0.4434 -2.0337  1.0870
  194SOL    HW210237   4.111   2.996   2.226 -0.7102 -2.0801  1.6493
  195SOL     OW10238   3.242   1.219   1.149  0.4472 -0.0899  0.1928
  195SOL    HW110239   3.196   1.130   1.152  0.7260 -0.2118  1.0448
  195SOL    HW210240   3.217   1.273   1.229  1.1044  0.1750  0.2293
  196SOL     OW10241   3.073   9.133   1.621 -0.1896 -0.6094 -0.3239
  196SOL    HW110242   3.078   9.110   1.718 -0.1549  1.6354  0.2378
  196SOL    HW210243   3.165   9.140   1.583 -0.2156 -2.7489 -0.8723
  197SOL     OW10244   3.771   2.016   1.676 -0.4547 -0.5527 -0.1160
  197SOL    HW110245   3.725   1.946   1.731 -0.5725 -0.8659 -0.6071
  197SOL    HW210246   3.715   2.038   1.596 -0.6642  0.4980  0.3185
  198SOL     OW10247   3.807   4.342   1.483  0.0129 -0.3694  0.2391
  198SOL    HW110248   3.842   4.254   1.514 -0.4054 -0.1890  1.2418
  198SOL    HW210249   3.878   4.388   1.429 -0.1788 -1.7993 -1.2777
  199SOL     OW10250   2.436   0.185   1.676  0.3710  0.3236  0.4608
  199SOL    HW110251   2.525   0.193   1.720  0.6394 -2.0913  0.4509
  199SOL    HW210252   2.365   0.221   1.736  1.1400  0.3900  1.3388
  200SOL     OW10253   3.140   9.582   2.087  0.2333  0.1493 -0.5577
  200SOL    HW110254   3.226   9.583   2.138  0.2597  1.4633 -0.5997
  200SOL    HW210255   3.098   9.492   2.093  1.0089 -0.1488  0.4887
  201SOL     OW10256   3.144   3.753   1.296  0.4557  0.4577  0.7241
  201SOL    HW110257   3.226   3.764   1.353 -0.0541 -2.0591  2.0307
  201SOL    HW210258   3.063   3.758   1.354 -0.3116  1.9670 -0.4284
  202SOL     OW10259   4.246   1.372   2.480  0.3378 -0.0181  0.1893
  202SOL    HW110260   4.240   1.377   2.580 -0.7431 -1.0985  0.1850
  202SOL    HW210261   4.155   1.386   2.441  0.2598 -2.3348 -0.5204
  203SOL     OW10262   3.697   0.172   1.303  0.3372  0.0253  0.0598
  203SOL    HW110263   3.623   0.195   1.365 -0.0505  1.9131 -1.0587
  203SOL    HW210264   3.744   0.090   1.336 -0.9067  0.0256  1.9095
  204SOL     OW10265   2.982   9.385   0.616 -0.6088 -0.1047 -0.0609
  204SOL    HW110266   2.992   9.437   0.531  0.0614 -0.9473 -0.4970
  204SOL    HW210267   2.942   9.444   0.686 -1.9391  0.3517 -1.1923
  205SOL     OW10268   3.239   1.656   2.167 -0.2856  0.2597 -0.3529
  205SOL    HW110269   3.259   1.719   2.092 -1.5881 -0.0721 -0.9826
  205SOL    HW210270   3.186   1.704   2.237  1.8553  0.8778  0.8843
  206SOL     OW10271   3.385   3.916   0.625  0.3886  0.0119  0.1394
  206SOL    HW110272   3.285   3.918   0.624  0.3651 -0.9438 -0.1036
  206SOL    HW210273   3.419   3.876   0.539  0.8500 -3.6776  1.9661
  207SOL     OW10274   3.530   1.788   1.141  0.5587  0.0477 -0.5097
  207SOL    HW110275   3.558   1.828   1.053  0.5655  1.4293  0.1113
  207SOL    HW210276   3.611   1.771   1.196  0.4132  1.0780  0.0286
  208SOL     OW10277   2.453   1.749   0.887 -0.5181  0.1722 -0.3578
  208SOL    HW110278   2.458   1.849   0.881 -0.3549  0.2226  0.6303
  208SOL    HW210279   2.357   1.721   0.886 -0.5824  0.3767 -0.0633
  209SOL     OW10280   3.510   9.328   1.685  0.0554  0.3006 -0.2887
  209SOL    HW110281   3.485   9.246   1.632  0.8860  0.0369 -0.2769
  209SOL    HW210282   3.608   9.343   1.679 -0.1075  1.3525 -0.3488
  210SOL     OW10283   3.955   2.188   0.346  0.0898 -0.6173  0.0143
  210SOL    HW110284   3.875   2.221   0.295 -0.4306 -3.2257 -0.9443
  210SOL    HW210285   3.986   2.102   0.307  1.6093 -1.1055  2.2131
  211SOL     OW10286   4.132   2.964   1.309  0.2474  0.7627  0.9613
  211SOL    HW110287   4.102   3.015   1.390  1.5797 -1.5033  2.9544
  211SOL    HW210288   4.228   2.937   1.321 -0.0375 -1.0449 -0.6442
  212SOL     OW10289   3.064   9.586   1.052  0.1091  0.0978 -0.9062
  212SOL    HW110290   3.009   9.670   1.062  0.0563  0.1688 -1.7398
  212SOL    HW210291   3.159   9.611   1.032 -0.2648 -0.0388 -2.9626
  213SOL     OW10292   4.450   4.187   0.394 -0.4937 -0.4479 -0.0429
  213SOL    HW110293   4.511   4.261   0.425 -1.2464 -0.6598  2.0753
  213SOL    HW210294   4.389   4.222   0.322  1.3248  0.0806 -1.3561
  214SOL     OW10295   3.905   1.011   1.656  0.2142  1.1500  0.1811
  214SOL    HW110296   3.955   1.077   1.711  0.8976  0.7210  0.0801
  214SOL    HW210297   3.847   0.955   1.716 -1.5136  2.8165  0.1077
  215SOL     OW10298   3.619   2.009   2.635  0.1641  0.1442  0.2564
  215SOL    HW110299   3.596   1.925   2.685  0.3640  0.2465  0.5251
  215SOL    HW210300   3.626   1.989   2.538  1.7301 -0.4815  0.4816
  216SOL     OW10301   2.996   3.790   0.427  0.6655  0.4898  0.4594
  216SOL    HW110302   2.950   3.704   0.406  1.2025  0.1549  0.6456
  216SOL    HW210303   3.033   3.830   0.343 -0.0778  0.8268  0.2898
  217SOL     OW10304   3.143   9.329   0.853  0.8147  0.1761  0.3641
  217SOL    HW110305   3.066   9.345   0.792 -0.1096  0.6806  1.6401
  217SOL    HW210306   3.213   9.398   0.837  1.1853 -0.5197 -1.0773
  218SOL     OW10307   3.107   3.250   1.356  0.0761  0.4114 -0.2283
  218SOL    HW110308   3.128   3.333   1.407  2.0372 -0.3263  0.2011
  218SOL    HW210309   3.141   3.171   1.406 -0.6118 -0.5556 -1.2687
  219SOL     OW10310   3.019   0.613   1.918  0.2011  0.2680  0.1751
  219SOL    HW110311   2.961   0.632   1.997  0.0258  1.0152 -0.1230
  219SOL    HW210312   2.990   0.527   1.875 -0.5892  0.5543  0.1218
  220SOL     OW10313   2.402   2.014   1.267 -0.4689  0.3097 -0.2910
  220SOL    HW110314   2.467   1.940   1.247 -1.0527  0.4382 -2.7425
  220SOL    HW210315   2.325   1.977   1.320 -0.4103 -0.6783 -0.8891
  221SOL     OW10316   3.814   3.450   1.331  0.9520  0.6385 -0.2562
  221SOL    HW110317   3.804   3.526   1.267  0.4710  1.1032  0.3658
  221SOL    HW210318   3.901   3.404   1.315  0.5453  0.3488 -1.6793
  222SOL     OW10319   4.060   2.127   0.756  0.4755 -0.4990 -0.4827
  222SOL    HW110320   4.030   2.114   0.662 -2.1509 -0.7912  0.3605
  222SOL    HW210321   3.981   2.144   0.815  1.9870 -1.1352  1.8167
  223SOL     OW10322   3.760   3.333   0.896 -0.0501 -0.1341  0.2647
  223SOL    HW110323   3.685   3.398   0.883  0.5284  0.7723  1.4142
  223SOL    HW210324   3.826   3.343   0.821  0.1903  0.8439  0.5896
  224SOL     OW10325   4.165   2.268   0.497 -0.2086  0.4927 -0.0006
  224SOL    HW110326   4.085   2.247   0.442  0.5698 -0.1039 -0.9135
  224SOL    HW210327   4.237   2.305   0.438  0.3625  0.5610  0.7365
  225SOL     OW10328   3.002   2.310   0.827  0.0128  0.6001 -0.4861
  225SOL    HW110329   2.936   2.243   0.860  0.2097  0.7700  0.2515
  225SOL    HW210330   3.092   2.291   0.866 -0.4518  2.8122  1.7777
  226SOL     OW10331   2.406   2.828   1.961  0.3482 -0.2970 -0.3972
  226SOL    HW110332   2.409   2.728   1.959 -0.5085 -0.3919  1.5823
  226SOL    HW210333   2.488   2.863   2.005 -0.6559 -0.3015  1.5736
  227SOL     OW10334   2.138   2.152   1.849  0.2918  0.0614  0.0846
  227SOL    HW110335   2.201   2.154   1.772 -1.9915 -0.3217 -1.8371
  227SOL    HW210336   2.094   2.242   1.858  0.5959  0.1225  0.9837
  228SOL     OW10337   3.372   2.475   2.795 -0.2430 -0.3211 -0.1263
  228SOL    HW110338   3.284   2.499   2.837  0.5551  1.1284  0.7660
  228SOL    HW210339   3.357   2.434   2.706 -1.7167  3.2082 -1.5587
  229SOL     OW10340   3.752   3.420   2.340  0.6549  0.1271 -0.5172
  229SOL    HW110341   3.684   3.462   2.279  2.0884  1.0964 -1.4766
  229SOL    HW210342   3.721   3.428   2.435 -1.8380 -1.8276 -1.0916
  230SOL     OW10343   3.350   9.832   1.916 -0.8692  0.2104 -0.0477
  230SOL    HW110344   3.352   9.829   2.015 -2.3738  0.7872  0.0022
  230SOL    HW210345   3.284   9.765   1.882  0.4828 -0.8170 -0.7148
  231SOL     OW10346   2.862   2.416   1.158  0.1629 -0.1391  0.1493
  231SOL    HW110347   2.947   2.456   1.123 -0.4597 -0.2712 -1.5257
  231SOL    HW210348   2.805   2.387   1.082 -1.7107  0.5913  1.2543
  232SOL     OW10349   3.656   0.198   2.249 -0.1774  0.5445 -0.3093
  232SOL    HW110350   3.573   0.199   2.305 -0.3169  1.7932 -0.5334
  232SOL    HW210351   3.683   0.103   2.232 -1.1894  0.1362  0.3027
  233SOL     OW10352   2.680   0.258   2.444 -0.0927  0.4193  0.1497
  233SOL    HW110353   2.718   0.343   2.482  0.4008 -0.0556  0.7119
  233SOL    HW210354   2.623   0.281   2.365 -0.5219  1.3398  0.7170
  234SOL     OW10355   3.692   0.889   0.705 -0.0976  0.4469 -0.7066
  234SOL    HW110356   3.656   0.795   0.711  2.2388 -0.3794  1.1456
  234SOL    HW210357   3.738   0.912   0.791 -0.0835  3.0809 -1.3902
  235SOL     OW10358   4.068   4.017   0.975 -0.2826 -0.3232  0.1785
  235SOL    HW110359   4.003   3.996   1.048  1.0714  0.8888  1.7606
  235SOL    HW210360   4.040   4.101   0.928 -0.0227  0.0406  0.6726
  236SOL     OW10361   3.509   9.098   0.812  0.6302  0.2301 -0.0139
  236SOL    HW110362   3.494   9.091   0.714 -1.1956  1.1780  0.1699
  236SOL    HW210363   3.431   9.059   0.861  1.0833  0.6244  1.0528
  237SOL     OW10364   2.647   2.164   1.964  0.2411  0.2400 -0.4056
  237SOL    HW110365   2.661   2.098   1.890  1.5025  0.7522 -0.6404
  237SOL    HW210366   2.554   2.201   1.959  0.0639 -0.3195 -1.2509
  238SOL     OW10367   3.711   2.423   1.242  0.7309 -0.4805  0.1394
  238SOL    HW110368   3.642   2.468   1.184  0.9440 -0.1888  0.1085
  238SOL    HW210369   3.687   2.436   1.338 -1.4728 -3.8561  0.1176
  239SOL     OW10370   3.409   3.740   2.266 -0.0351  0.3449 -0.0343
  239SOL    HW110371   3.450   3.806   2.330 -1.7182 -0.7052  2.1885
  239SOL    HW210372   3.389   3.786   2.179 -1.9486  3.0202  1.7407
  240SOL     OW10373   3.843   1.232   1.135  0.1763  0.1004  0.2176
  240SOL    HW110374   3.896   1.219   1.051  0.9403 -1.1746  0.8852
  240SOL    HW210375   3.833   1.145   1.182 -0.0935  0.8351  1.5507
  241SOL     OW10376   3.111   3.870   0.643  0.0526 -0.3674 -0.0790
  241SOL    HW110377   3.099   3.784   0.691 -0.6633 -0.6662 -0.7771
  241SOL    HW210378   3.069   3.864   0.552 -2.0133  1.4646  0.7076
  242SOL     OW10379   3.865   2.221   0.931 -0.8756 -0.5878 -0.5517
  242SOL    HW110380   3.898   2.194   1.021  0.7057 -2.4759 -1.6465
  242SOL    HW210381   3.777   2.267   0.939  0.0305  0.7761  2.0947
  243SOL     OW10382   3.358   2.530   1.685  0.5558  0.0672 -0.5801
  243SOL    HW110383   3.291   2.498   1.752  0.2700  1.4236 -0.1937
  243SOL    HW210384   3.449   2.527   1.726  0.5879 -0.6654 -0.7014
  244SOL     OW10385   3.628   3.653   2.704 -0.2921 -0.2803 -0.0398
  244SOL    HW110386   3.594   3.745   2.720 -1.4560 -0.3523 -2.0668
  244SOL    HW210387   3.728   3.656   2.693  0.0250  0.3470  2.5673
  245SOL     OW10388   3.017   9.342   1.207  0.2588 -0.0411  0.2758
  245SOL    HW110389   2.942   9.367   1.146 -0.0684 -0.5867  0.4536
  245SOL    HW210390   3.091   9.409   1.198 -0.3508  0.6405  0.2871
  246SOL     OW10391   2.755   1.728   0.147 -0.6865  0.0462  0.0016
  246SOL    HW110392   2.759   1.665   0.069 -0.6565  0.2533 -0.1643
  246SOL    HW210393   2.838   1.721   0.201  0.6647  2.1205 -1.7058
  247SOL     OW10394   3.290   2.023   2.249  0.1662  0.2486  0.6346
  247SOL    HW110395   3.298   2.119   2.222 -2.7682  0.4164  0.2147
  247SOL    HW210396   3.302   1.964   2.170  0.6712  0.3289  0.6516
  248SOL     OW10397   4.557   3.146   1.597 -0.0811  0.1021 -0.1052
  248SOL    HW110398   4.571   3.234   1.552  0.4896  0.1813  0.2162
  248SOL    HW210399   4.467   3.144   1.641 -0.3915  0.2499 -0.7352
  249SOL     OW10400   3.937   1.277   2.236 -0.2050  0.2476  0.0548
  249SOL    HW110401   3.955   1.345   2.165 -2.9434  1.4605  0.4484
  249SOL    HW210402   3.916   1.189   2.194 -0.0899  0.5209 -0.5743
  250SOL     OW10403   3.670   1.053   1.824  0.0939  0.0735 -0.2316
  250SOL    HW110404   3.733   1.118   1.867  1.1370 -1.6373  0.9183
  250SOL    HW210405   3.629   1.094   1.743 -0.9559  2.9227  1.6845
  251SOL     OW10406   3.321   4.001   0.021  0.5474 -0.6642 -0.2890
  251SOL    HW110407   3.344   4.034   0.112  1.3360 -1.3398 -0.2406
  251SOL    HW210408   3.398   4.017  -0.041 -1.1873  2.8739 -1.6703
  252SOL     OW10409   3.355   3.550   2.008 -0.2047 -0.1893 -0.2817
  252SOL    HW110410   3.281   3.489   1.978  0.8009 -1.8043  0.4644
  252SOL    HW210411   3.406   3.507   2.082  1.0783  1.2005 -0.3345
  253SOL     OW10412   2.947   3.053   0.910 -0.3249  0.1470 -0.9835
  253SOL    HW110413   2.875   3.074   0.976  1.0106  1.1924  0.1710
  253SOL    HW210414   3.030   3.026   0.959  1.1665  2.4742 -2.1539
  254SOL     OW10415   3.382   8.905   1.557  0.4376  0.2249 -0.5666
  254SOL    HW110416   3.424   8.818   1.531 -0.6383 -0.5711  0.3282
  254SOL    HW210417   3.345   8.949   1.475 -0.8296 -1.1389 -0.7496
  255SOL     OW10418   3.629   4.205   0.604  0.0637  0.0215 -0.4014
  255SOL    HW110419   3.575   4.121   0.600 -0.5299  0.4408 -1.1135
  255SOL    HW210420   3.607   4.255   0.688 -1.8371  0.9889 -1.4598
  256SOL     OW10421   4.796   2.093   0.234 -0.3494  0.1324 -0.1580
  256SOL    HW110422   4.884   2.091   0.187  0.3069  0.7543  1.0261
  256SOL    HW210423   4.786   2.013   0.292 -0.9275 -0.3543 -0.9115
  257SOL     OW10424   3.808   1.064   2.756 -0.8347 -0.1267  0.3620
  257SOL    HW110425   3.775   1.003   2.683  0.5302  0.8087 -1.0818
  257SOL    HW210426   3.874   1.129   2.717 -0.2568  0.5382  2.4124
  258SOL     OW10427   3.865   2.985   2.758 -0.0440 -0.4123 -0.1960
  258SOL    HW110428   3.767   2.966   2.761 -0.2897  0.7095 -1.0993
  258SOL    HW210429   3.906   2.961   2.846 -0.9690 -1.7295 -0.1101
  259SOL     OW10430   3.278   0.281   1.308 -0.1417 -0.2720 -0.2131
  259SOL    HW110431   3.371   0.303   1.278 -0.2805  0.7481  0.0958
  259SOL    HW210432   3.223   0.255   1.229  0.0758  0.3093 -0.5635
  260SOL     OW10433   4.251   2.026   2.701 -0.6271 -0.5154 -0.6172
  260SOL    HW110434   4.325   1.977   2.656  1.6586  0.5706  1.8434
  260SOL    HW210435   4.191   1.961   2.747  0.0792 -1.2751 -0.7687
  261SOL     OW10436   3.256   9.331   1.098  0.0993  1.0383 -0.3510
  261SOL    HW110437   3.221   9.250   1.144  0.5335  1.2928  0.4436
  261SOL    HW210438   3.211   9.341   1.009  1.5031 -1.2173 -1.3705
  262SOL     OW10439   3.585   9.916   1.484 -0.5970 -0.2054  0.3514
  262SOL    HW110440   3.657   9.873   1.538  0.0588  0.1754 -0.2165
  262SOL    HW210441   3.516   9.955   1.546 -1.2123 -2.0642  0.8713
  263SOL     OW10442   3.707   3.291   0.142 -0.6484 -0.6472 -0.8797
  263SOL    HW110443   3.637   3.244   0.196 -0.5351 -2.2450 -2.0782
  263SOL    HW210444   3.769   3.339   0.203 -1.3244 -1.2796  0.3338
  264SOL     OW10445   2.935   2.801   2.264 -0.2411 -0.6008 -0.0897
  264SOL    HW110446   2.998   2.866   2.223 -0.8022  0.2178  0.3224
  264SOL    HW210447   2.926   2.720   2.206  1.7937 -1.0866  0.2378
  265SOL     OW10448   2.630   2.337   0.978  0.0288 -0.1971 -0.1014
  265SOL    HW110449   2.562   2.348   0.906  0.8403  1.8935 -0.5782
  265SOL    HW210450   2.584   2.306   1.061 -1.1559 -1.0832 -1.0597
  266SOL     OW10451   3.735   1.871   0.291 -0.7050  0.2602 -0.2737
  266SOL    HW110452   3.772   1.870   0.198  1.5826 -1.3056  0.6145
  266SOL    HW210453   3.648   1.820   0.292  0.3270 -1.5724 -1.1668
  267SOL     OW10454   4.703   2.855   1.707 -0.0386 -0.6124 -0.2651
  267SOL    HW110455   4.797   2.890   1.704  0.0610 -0.7473  0.9832
  267SOL    HW210456   4.668   2.860   1.800 -0.4153 -2.7575 -0.2450
  268SOL     OW10457   3.864   0.822   1.418  0.7760  0.8248 -0.6175
  268SOL    HW110458   3.883   0.878   1.499  1.7499  2.9258 -2.2465
  268SOL    HW210459   3.772   0.842   1.384  0.3808 -0.0300 -0.0600
  269SOL     OW10460   3.089   3.034   0.664  0.3101 -0.1041 -0.0086
  269SOL    HW110461   3.019   3.042   0.735  0.1478  0.6449 -0.2479
  269SOL    HW210462   3.050   2.986   0.585 -0.7937  2.6942 -1.2256
  270SOL     OW10463   2.297   0.027   2.417 -0.0296 -0.3009  0.1032
  270SOL    HW110464   2.358  -0.001   2.491 -1.1200 -3.5794 -0.1946
  270SOL    HW210465   2.215   0.071   2.456  0.1521 -0.5379  0.7582
  271SOL     OW10466   3.198   9.148   0.560  0.2592 -0.1065  0.1092
  271SOL    HW110467   3.127   9.181   0.621 -0.0988 -1.2095  0.3058
  271SOL    HW210468   3.288   9.174   0.595  0.1212 -1.6978  1.7306
  272SOL     OW10469   8.634   7.937   2.266 -0.1969  0.1273  0.2038
  272SOL    HW110470   8.656   7.997   2.343 -3.5635  0.1346  1.2442
  272SOL    HW210471   8.660   7.843   2.288 -2.9530 -0.2081  2.2290
  273SOL     OW10472   3.973   2.754   1.288 -0.5096 -0.2172  0.2469
  273SOL    HW110473   3.881   2.763   1.325 -0.6791  2.9154 -0.8190
  273SOL    HW210474   4.019   2.842   1.291  1.0423 -0.8607 -2.8329
  274SOL     OW10475   2.709   2.282   2.707  0.0439  0.5751 -0.0081
  274SOL    HW110476   2.700   2.190   2.744 -0.1695  0.7358  0.3471
  274SOL    HW210477   2.619   2.318   2.683  0.1492  0.6051 -0.3491
  275SOL     OW10478   4.353   1.119   0.910  0.0078 -0.4383 -0.1201
  275SOL    HW110479   4.358   1.024   0.941  0.6106 -0.7915 -1.2586
  275SOL    HW210480   4.291   1.125   0.831 -1.3298  0.4023  0.9638
  276SOL     OW10481   3.354   9.531   1.816 -0.2233 -0.1943 -0.1120
  276SOL    HW110482   3.255   9.525   1.804 -0.1198  2.5894 -3.1330
  276SOL    HW210483   3.399   9.466   1.755 -0.1417  0.4869 -0.7851
  277SOL     OW10484   2.788   2.414   0.654 -0.0704 -0.1187 -0.1732
  277SOL    HW110485   2.857   2.369   0.710 -0.2759  0.1925  0.3360
  277SOL    HW210486   2.704   2.359   0.653 -0.1282 -0.0358 -0.0194
  278SOL     OW10487   3.283   3.151   1.142  0.1365  0.7029 -0.4072
  278SOL    HW110488   3.356   3.217   1.160 -0.0938  0.7435  0.4023
  278SOL    HW210489   3.197   3.185   1.181  0.4853 -1.1187  2.0940
  279SOL     OW10490   2.903   2.045   2.703 -0.0122  0.7836  0.0923
  279SOL    HW110491   2.975   2.073   2.639 -2.3840  2.0881 -2.1064
  279SOL    HW210492   2.837   1.987   2.656  0.0438 -1.1708  2.3268
  280SOL     OW10493   4.522   4.512   1.362  0.2321  0.0039  0.4017
  280SOL    HW110494   4.548   4.543   1.454 -0.2715  1.0386  0.1946
  280SOL    HW210495   4.463   4.580   1.319  0.8709 -0.2496 -0.8895
  281SOL     OW10496   2.404   9.982   2.683  0.2076  0.0998  0.3270
  281SOL    HW110497   2.443   9.909   2.738  0.0989  0.8850  1.4679
  281SOL    HW210498   2.459  10.065   2.693 -0.8458  0.7735  0.7163
  282SOL     OW10499   3.883   3.708   1.120  0.2818 -0.0679  0.2491
  282SOL    HW110500   3.891   3.805   1.102  1.1865 -0.0398  0.7653
  282SOL    HW210501   3.952   3.680   1.187  0.6189 -1.2420 -0.5675
  283SOL     OW10502   3.833   2.261   2.388 -0.6204  0.2277 -0.2804
  283SOL    HW110503   3.833   2.351   2.346 -1.3242 -0.3175 -1.4880
  283SOL    HW210504   3.927   2.230   2.401 -0.3282  2.0058  2.1103
  284SOL     OW10505   2.876   3.486   0.873 -0.1803  0.2024  0.3412
  284SOL    HW110506   2.879   3.572   0.822  0.9715  1.2831  2.1689
  284SOL    HW210507   2.968   3.448   0.880 -0.8545 -1.8924 -1.5673
  285SOL     OW10508   3.644   0.270   1.751 -0.2322  0.1373  0.4246
  285SOL    HW110509   3.687   0.247   1.838 -1.4890 -1.3696  0.6627
  285SOL    HW210510   3.715   0.295   1.685  0.8105  0.1910  1.5523
  286SOL     OW10511   3.274   2.876   1.110 -0.5415  0.4521 -0.0816
  286SOL    HW110512   3.342   2.814   1.150 -0.7909  1.0540  1.3171
  286SOL    HW210513   3.307   2.970   1.117 -1.7994  0.8175  1.2567
  287SOL     OW10514   3.497   3.501   0.808  0.3297 -0.3207  0.8918
  287SOL    HW110515   3.422   3.447   0.768  0.9495 -2.4306  2.4640
  287SOL    HW210516   3.569   3.511   0.740 -0.5448  0.0662 -0.0020
  288SOL     OW10517   4.635   3.369   1.165 -0.6870  0.2163  0.2822
  288SOL    HW110518   4.540   3.382   1.194 -0.4286 -0.1843  1.3466
  288SOL    HW210519   4.673   3.288   1.211 -0.2190 -0.3709 -1.1124
  289SOL     OW10520   3.347   0.002   1.673  0.5127 -0.4906  0.0203
  289SOL    HW110521   3.345   0.100   1.696 -1.8154 -0.1324 -1.4566
  289SOL    HW210522   3.343  -0.052   1.757  0.4986  0.7066  0.8110
  290SOL     OW10523   2.957   0.282   2.297  0.3039  0.0951 -0.3149
  290SOL    HW110524   2.905   0.197   2.295  0.4021 -0.0010  0.8825
  290SOL    HW210525   2.897   0.357   2.326  0.9247 -0.1028  1.5638
  291SOL     OW10526   4.437   2.257   2.793  0.1732 -0.1426  0.2241
  291SOL    HW110527   4.511   2.273   2.728  0.5846  0.3036  0.8053
  291SOL    HW210528   4.380   2.182   2.759 -1.7911  2.4773 -2.5025
  292SOL     OW10529   3.791   3.313   0.461 -0.6235  0.8285  0.2423
  292SOL    HW110530   3.861   3.326   0.391 -1.1314  0.2473 -0.3804
  292SOL    HW210531   3.785   3.216   0.485  0.0678  1.1128  1.6466
  293SOL     OW10532   4.429   3.685   1.455  0.5691 -0.3021 -0.6787
  293SOL    HW110533   4.496   3.698   1.382  0.6956 -0.0032 -0.5114
  293SOL    HW210534   4.461   3.613   1.517  2.4361  2.1506  1.3355
  294SOL     OW10535   2.632   0.324   1.084  0.2151  0.0743  0.1587
  294SOL    HW110536   2.614   0.356   1.177  1.2782 -2.1039  1.1398
  294SOL    HW210537   2.551   0.277   1.050 -0.3420  1.2816 -0.2106
  295SOL     OW10538   2.442   0.763   1.011  0.5902 -0.4856 -0.4302
  295SOL    HW110539   2.432   0.685   0.949  0.3097  0.4845 -1.6203
  295SOL    HW210540   2.507   0.828   0.972 -0.7863  0.8737 -0.4717
  296SOL     OW10541   4.132   4.333   0.483  0.4111  0.5101 -0.4352
  296SOL    HW110542   4.196   4.373   0.418  0.4993 -0.3777 -0.9080
  296SOL    HW210543   4.174   4.329   0.573  0.7680  0.5636 -0.5985
  297SOL     OW10544   4.754   1.887   0.393  0.3987  0.3101 -0.0091
  297SOL    HW110545   4.700   1.804   0.378 -0.2451  0.9660 -1.3969
  297SOL    HW210546   4.726   1.930   0.479  0.8137 -0.9586  0.7680
  298SOL     OW10547   3.513   4.244   0.962 -0.5957 -0.6368  0.4288
  298SOL    HW110548   3.476   4.271   1.051 -1.0690 -0.9534  0.3273
  298SOL    HW210549   3.503   4.145   0.951 -0.6957 -0.5705 -0.0564
  299SOL     OW10550   2.986   2.605   2.057  0.8417  0.1214  0.0809
  299SOL    HW110551   2.964   2.516   2.016  1.5054 -0.4162  0.8569
  299SOL    HW210552   3.011   2.670   1.985  0.9029 -0.4890 -0.4528
  300SOL     OW10553   3.453   9.830   1.223 -0.6522  0.2883 -0.2685
  300SOL    HW110554   3.483   9.839   1.318  2.1254 -2.4529 -0.8131
  300SOL    HW210555   3.518   9.876   1.163 -0.2401 -1.3940 -1.1231
  301SOL     OW10556   2.724   3.009   1.319 -0.4377 -0.2462 -0.0156
  301SOL    HW110557   2.702   2.912   1.302  0.5355 -0.6965  1.2910
  301SOL    HW210558   2.751   3.052   1.233 -1.9832 -0.8306 -0.8277
  302SOL     OW10559   2.891   1.342   2.771  0.2759 -0.6529  0.7329
  302SOL    HW110560   2.798   1.366   2.800 -1.6633 -4.1488 -2.1531
  302SOL    HW210561   2.924   1.266   2.827 -0.4476 -2.3675 -1.1030
  303SOL     OW10562   4.497   2.333   0.930  0.0863  0.1624 -0.0635
  303SOL    HW110563   4.429   2.405   0.912  0.2466 -0.0673 -1.6110
  303SOL    HW210564   4.563   2.366   0.998 -0.8720  0.8179  0.5698
  304SOL     OW10565   3.962   2.395   1.161  0.1107  0.1338  0.4021
  304SOL    HW110566   3.938   2.406   1.065  2.7331  0.9452 -0.2059
  304SOL    HW210567   3.883   2.415   1.218 -2.0444 -2.2545 -1.6252
  305SOL     OW10568   3.995   2.697   2.031 -0.2630 -0.2810 -0.1297
  305SOL    HW110569   3.975   2.795   2.031  1.0641 -0.0006 -0.1706
  305SOL    HW210570   4.060   2.676   2.104 -0.8663 -1.1986  0.1454
  306SOL     OW10571   2.548   0.340   1.894 -0.1211 -0.2192 -0.3171
  306SOL    HW110572   2.575   0.409   1.827  2.1127  0.9384  1.7029
  306SOL    HW210573   2.455   0.357   1.924 -0.4965  0.3362 -1.7499
  307SOL     OW10574   3.559   3.517   2.190  0.5417 -0.3050 -0.5893
  307SOL    HW110575   3.607   3.557   2.112  1.1320 -1.4092 -0.8053
  307SOL    HW210576   3.517   3.590   2.245 -0.0469  0.4614 -2.0432
  308SOL     OW10577   2.506   0.314   1.384  0.5126 -0.5968  0.6309
  308SOL    HW110578   2.454   0.353   1.460  0.9900 -1.1635  1.2498
  308SOL    HW210579   2.531   0.220   1.406 -0.9728 -1.3943 -1.0152
  309SOL     OW10580   2.897   2.660   0.578  0.1509 -0.7311  0.1546
  309SOL    HW110581   2.838   2.582   0.597 -0.1540 -0.5333  0.0149
  309SOL    HW210582   2.890   2.685   0.481 -0.5602  0.1399  0.4274
  310SOL     OW10583   2.555   0.766   1.527  0.0471 -0.4667 -0.4730
  310SOL    HW110584   2.496   0.775   1.607  0.1374 -0.7427 -0.3735
  310SOL    HW210585   2.539   0.843   1.464 -1.0975 -1.0278 -0.8873
  311SOL     OW10586   3.308   9.397   1.363 -0.4802  0.0439 -0.0690
  311SOL    HW110587   3.253   9.380   1.281  0.9271 -3.2462 -0.3991
  311SOL    HW210588   3.397   9.435   1.337 -0.7581  0.8402  0.1136
  312SOL     OW10589   4.776   3.795   0.776 -0.1040  0.0554  0.0967
  312SOL    HW110590   4.686   3.798   0.819 -1.1158  5.0261 -2.0046
  312SOL    HW210591   4.769   3.748   0.688 -0.4099 -0.5521  0.4440
  313SOL     OW10592   3.098   3.629   0.739 -0.5100  0.1866  0.7199
  313SOL    HW110593   3.150   3.589   0.814  1.0700  2.2570  0.7773
  313SOL    HW210594   3.135   3.598   0.651 -2.0453 -1.8447  0.7590
  314SOL     OW10595   3.658   2.233   0.320  0.3907  0.5490  0.1875
  314SOL    HW110596   3.630   2.160   0.259  1.2191  1.1707 -0.9546
  314SOL    HW210597   3.618   2.320   0.291 -0.3788  0.6064  1.3809
  315SOL     OW10598   3.322   1.368   2.495  0.1534 -0.4699 -0.4590
  315SOL    HW110599   3.230   1.336   2.473  0.2222 -0.9627 -0.0376
  315SOL    HW210600   3.358   1.423   2.419 -0.8302  0.4678 -0.2527
  316SOL     OW10601   4.330   3.899   1.209  0.2673 -0.3497 -0.0715
  316SOL    HW110602   4.342   3.864   1.116 -0.2091 -2.5744  0.6717
  316SOL    HW210603   4.411   3.877   1.263  0.3418  0.5147  0.1764
  317SOL     OW10604   4.165   2.778   0.336 -0.0506  0.0516 -0.1015
  317SOL    HW110605   4.156   2.680   0.355  0.2395  0.2969  1.3751
  317SOL    HW210606   4.103   2.828   0.397 -0.4416  0.7652 -1.0880
  318SOL     OW10607   3.613   1.331   1.289 -0.7809  0.4311 -0.1820
  318SOL    HW110608   3.551   1.403   1.259 -0.2967  0.2593 -1.6381
  318SOL    HW210609   3.659   1.291   1.210  0.7033  0.1054  0.8170
  319SOL     OW10610   3.109   2.150   1.797 -0.1239  0.3513 -0.9271
  319SOL    HW110611   3.045   2.211   1.845 -0.0532 -1.1729  1.2094
  319SOL    HW210612   3.188   2.133   1.856  0.0566 -1.4339 -1.6614
  320SOL     OW10613   4.281   3.070   1.578 -0.5079  0.2634  0.0652
  320SOL    HW110614   4.314   3.008   1.507 -2.3441  0.6028 -1.1048
  320SOL    HW210615   4.184   3.054   1.594 -0.5849  1.6318  1.0080
  321SOL     OW10616   3.267   1.171   1.539  0.5008 -0.3520 -0.2830
  321SOL    HW110617   3.218   1.093   1.578  0.7569 -0.0506  0.6541
  321SOL    HW210618   3.205   1.223   1.480  0.0875 -0.7663 -0.2184
  322SOL     OW10619   4.582   3.289   0.880  0.2259  0.2156  0.2659
  322SOL    HW110620   4.594   3.339   0.965  1.3209 -2.1530  1.5747
  322SOL    HW210621   4.515   3.216   0.893 -1.1522  1.1248 -1.5160
  323SOL     OW10622   2.947   0.561   0.016 -0.0100  0.1371  0.0698
  323SOL    HW110623   2.963   0.600  -0.074  2.1829 -0.3748  0.2049
  323SOL    HW210624   2.965   0.462   0.014 -0.4967  0.0203  0.9270
  324SOL     OW10625   4.061   3.042   2.599 -0.1188 -0.2784 -0.2565
  324SOL    HW110626   4.054   2.982   2.519 -4.2581  0.8001 -0.8055
  324SOL    HW210627   3.985   3.026   2.661  1.5655  0.8055  2.1988
  325SOL     OW10628   3.080   1.510   1.086  0.2324  0.1497  0.4702
  325SOL    HW110629   3.036   1.573   1.151 -0.8578 -0.0461 -0.0559
  325SOL    HW210630   3.124   1.436   1.136 -0.6905 -0.0559  0.9964
  326SOL     OW10631   4.247   1.536   0.553  0.1470 -0.1630 -0.2549
  326SOL    HW110632   4.274   1.580   0.639  0.2777  1.3230 -1.0449
  326SOL    HW210633   4.224   1.440   0.571  2.6726 -0.5665  0.9979
  327SOL     OW10634   2.483   1.765   1.200  0.4791 -0.3450  0.4835
  327SOL    HW110635   2.430   1.720   1.271 -0.7753 -0.2396 -0.3745
  327SOL    HW210636   2.476   1.713   1.114  0.6937  0.3699  0.0268
  328SOL     OW10637   9.555   3.112   1.229  0.2370  0.1231  0.0951
  328SOL    HW110638   9.640   3.164   1.239  0.5010 -0.0241 -1.3148
  328SOL    HW210639   9.487   3.167   1.180  0.0467 -0.3309 -0.1553
  329SOL     OW10640   2.483   1.716   1.758 -0.3886  0.1600 -0.7392
  329SOL    HW110641   2.436   1.631   1.780 -1.9981  1.0983 -0.4482
  329SOL    HW210642   2.502   1.766   1.842  2.0000 -0.6374 -0.7759
  330SOL     OW10643   2.754   3.544   2.645  0.1717 -0.3062  0.3089
  330SOL    HW110644   2.673   3.515   2.593  0.2718  1.7230 -1.0336
  330SOL    HW210645   2.812   3.601   2.586  0.8614  1.1170  2.3289
  331SOL     OW10646   3.672   9.930   2.195  0.5065 -0.1527  0.0449
  331SOL    HW110647   3.762   9.926   2.151  0.3471 -0.5983 -0.2357
  331SOL    HW210648   3.653   9.844   2.242 -0.4795 -0.6632 -1.2748
  332SOL     OW10649   2.532   1.423   1.316  0.4887  0.2399 -0.4214
  332SOL    HW110650   2.444   1.464   1.342  0.5650 -0.6356  1.2345
  332SOL    HW210651   2.540   1.425   1.216 -0.4774  2.2276 -0.4898
  333SOL     OW10652   2.744   2.680   0.072  0.0512 -0.1985  0.3542
  333SOL    HW110653   2.753   2.583   0.094  0.7605  0.0076  0.9814
  333SOL    HW210654   2.755   2.694  -0.026  2.6998 -0.4317  0.5842
  334SOL     OW10655   9.445   5.235   0.536  0.3711  0.2620  0.2283
  334SOL    HW110656   9.448   5.172   0.613 -0.4949  0.6267  0.5573
  334SOL    HW210657   9.399   5.192   0.458  0.4154  0.2377  0.2149
  335SOL     OW10658   4.089   3.648   1.299 -0.4842 -0.3108  0.6582
  335SOL    HW110659   4.096   3.550   1.316 -0.1489 -0.2165  1.0731
  335SOL    HW210660   4.160   3.696   1.350 -0.4090  0.1157  0.1649
  336SOL     OW10661   2.460   2.547   1.841 -0.1290 -0.4116 -0.4373
  336SOL    HW110662   2.456   2.583   1.748  0.6102  0.8764  0.0119
  336SOL    HW210663   2.550   2.504   1.856 -0.5200 -1.2890 -0.5430
  337SOL     OW10664   4.213   1.815   1.787 -0.3105 -0.0412 -0.3068
  337SOL    HW110665   4.177   1.725   1.761 -0.0424 -0.6077  1.1948
  337SOL    HW210666   4.159   1.886   1.742  0.1414 -0.9519 -2.3508
  338SOL     OW10667   4.694   2.681   1.071  0.4172 -0.3418  0.1501
  338SOL    HW110668   4.714   2.741   0.993  0.4897 -0.7793 -0.1661
  338SOL    HW210669   4.701   2.734   1.156  0.6717  0.0524 -0.1148
  339SOL     OW10670   2.838   9.719   0.111  0.0814  0.0452 -0.4860
  339SOL    HW110671   2.884   9.679   0.032  0.1143  1.2189 -1.0800
  339SOL    HW210672   2.884   9.804   0.136 -0.7529  0.3684 -0.0384
  340SOL     OW10673   4.130   1.963   0.194 -0.6223 -0.4886  0.0802
  340SOL    HW110674   4.220   2.004   0.212 -0.2366 -0.2089 -2.2903
  340SOL    HW210675   4.111   1.893   0.262  1.2950 -0.3867  0.7464
  341SOL     OW10676   3.173   0.977   0.109  0.4772 -0.5209 -0.2206
  341SOL    HW110677   3.259   1.024   0.087  0.7245  0.0210  1.8394
  341SOL    HW210678   3.103   1.044   0.133 -0.7619 -0.9140 -2.5439
  342SOL     OW10679   3.170   9.271   0.314  0.3625  0.0879  0.1013
  342SOL    HW110680   3.264   9.264   0.283  0.4473  0.0920  0.3577
  342SOL    HW210681   3.162   9.235   0.407  0.0923 -0.0092  0.0430
  343SOL     OW10682   2.521   2.537   1.327  0.2258  0.1500  0.0912
  343SOL    HW110683   2.448   2.578   1.273 -0.7472 -2.3396 -0.5659
  343SOL    HW210684   2.604   2.529   1.270  0.9550  2.6612  0.7348
  344SOL     OW10685   3.499   9.423   1.138 -0.2287  0.1953  0.0914
  344SOL    HW110686   3.416   9.383   1.100 -0.7566  1.1902  0.1853
  344SOL    HW210687   3.536   9.362   1.208 -1.5581  0.3116  0.9083
  345SOL     OW10688   2.788   1.502   1.858  0.7061  1.1053  0.1430
  345SOL    HW110689   2.838   1.547   1.932  0.2278  1.0449  0.5104
  345SOL    HW210690   2.691   1.526   1.865  0.4034 -0.1748  0.4945
  346SOL     OW10691   3.938   1.833   2.010 -0.0017  0.4856  0.5194
  346SOL    HW110692   3.984   1.871   1.930 -1.3090  2.1802  0.5461
  346SOL    HW210693   3.990   1.754   2.044  1.6998  1.0442 -0.7122
  347SOL     OW10694   2.357   0.520   2.113 -0.2067 -0.3363  0.0377
  347SOL    HW110695   2.450   0.482   2.108  0.6828  1.8551 -1.0190
  347SOL    HW210696   2.315   0.492   2.199  0.6015 -3.1455 -0.4190
  348SOL     OW10697   2.849   9.760   1.022  0.7470  0.1390  0.3620
  348SOL    HW110698   2.855   9.807   0.934 -2.2729 -0.5143 -0.2444
  348SOL    HW210699   2.807   9.820   1.089  1.1651 -0.0851  0.8276
  349SOL     OW10700   3.688   0.214   2.621 -0.1475 -0.1039 -0.6455
  349SOL    HW110701   3.718   0.270   2.544  0.0803 -1.8097 -1.8127
  349SOL    HW210702   3.695   0.267   2.705 -0.4976  1.8178 -1.8030
  350SOL     OW10703   2.734   2.904   1.575 -0.4007 -0.0796 -0.1356
  350SOL    HW110704   2.725   2.957   1.491  3.7894 -0.5719 -1.0559
  350SOL    HW210705   2.667   2.934   1.642 -0.3733  3.9995 -1.8235
  351SOL     OW10706   4.031   3.325   0.300  0.7147 -0.4445 -0.7799
  351SOL    HW110707   4.059   3.270   0.221  1.4641 -0.6998 -0.3452
  351SOL    HW210708   4.112   3.347   0.355 -0.0421 -2.0456  1.0560
  352SOL     OW10709   4.158   3.512   2.006 -0.3927  0.7129  0.1597
  352SOL    HW110710   4.161   3.510   1.906  0.5561  0.2264  0.1916
  352SOL    HW210711   4.246   3.546   2.041  0.4506 -2.1322  0.9052
  353SOL     OW10712   5.094   3.697   1.180  0.4666  0.0265  0.0135
  353SOL    HW110713   5.024   3.712   1.109  0.3142 -0.7410 -0.0002
  353SOL    HW210714   5.179   3.741   1.152  0.8137 -1.4466 -1.3088
  354SOL     OW10715   2.539   2.048   0.946 -0.2280 -0.5482 -0.1268
  354SOL    HW110716   2.555   2.068   0.849 -0.2612  0.4974  0.0787
  354SOL    HW210717   2.532   2.134   0.997  1.4407 -1.1084  1.0776
  355SOL     OW10718   4.056   1.335   1.317  0.0655 -0.5929  0.3404
  355SOL    HW110719   3.965   1.295   1.304  0.5194 -1.2498 -0.9373
  355SOL    HW210720   4.062   1.376   1.408 -1.4250 -0.7560  0.5261
  356SOL     OW10721   2.757   2.505   1.749  1.3107 -0.0170 -0.4943
  356SOL    HW110722   2.762   2.525   1.651 -1.9242 -0.2602 -0.7657
  356SOL    HW210723   2.783   2.587   1.800  0.3402  1.0010 -1.5818
  357SOL     OW10724   3.316   9.181   1.511  0.3170 -0.6261  0.3248
  357SOL    HW110725   3.315   9.278   1.488  1.1823 -0.3597  1.3582
  357SOL    HW210726   3.359   9.129   1.437  2.5563  0.1405  1.0635
  358SOL     OW10727   3.013   0.128   1.490  0.1764 -0.1546  0.3377
  358SOL    HW110728   3.065   0.082   1.418 -0.8993 -0.8082 -0.0477
  358SOL    HW210729   2.964   0.206   1.451  1.9812  1.3445  0.9877
  359SOL     OW10730   3.745   1.920   1.026  0.3023  0.2658 -0.1499
  359SOL    HW110731   3.814   1.916   0.954  1.9320 -2.5522  1.4720
  359SOL    HW210732   3.787   1.949   1.112 -0.9119  0.3223  0.4373
  360SOL     OW10733   2.059   0.351   2.294  0.0485 -0.2109 -0.0070
  360SOL    HW110734   2.102   0.263   2.271  0.7343 -0.1789  1.1245
  360SOL    HW210735   1.968   0.355   2.252 -0.8789 -2.3717  1.6886
  361SOL     OW10736   3.289   3.184   2.614  0.4539  0.1257  0.7834
  361SOL    HW110737   3.328   3.123   2.683  1.2254 -0.5219 -0.2073
  361SOL    HW210738   3.358   3.206   2.546 -0.2569  0.8816  0.2944
  362SOL     OW10739   4.255   2.258   2.487  0.1057 -0.3107 -0.7469
  362SOL    HW110740   4.258   2.201   2.569  2.2823 -0.2675 -0.7762
  362SOL    HW210741   4.270   2.354   2.512 -1.0478 -0.0560 -0.9967
  363SOL     OW10742   2.772   0.359   1.622 -0.2647 -0.3022  0.1294
  363SOL    HW110743   2.769   0.295   1.545  0.7876 -0.9449  0.6177
  363SOL    HW210744   2.831   0.322   1.693 -0.0284  1.0119  0.6124
  364SOL     OW10745   4.193   3.598   2.514 -0.3447 -0.8544 -0.2072
  364SOL    HW110746   4.108   3.616   2.465 -0.4868 -0.0572  0.3333
  364SOL    HW210747   4.249   3.534   2.461 -1.4325 -1.6582 -0.3927
  365SOL     OW10748   3.839   9.050   0.401 -0.1019  0.6396  0.1906
  365SOL    HW110749   3.864   8.954   0.402 -0.4095  0.5512 -0.2880
  365SOL    HW210750   3.889   9.099   0.473  0.7084  0.2839 -0.1258
  366SOL     OW10751   3.865   4.376   0.423  0.5188 -0.0889 -0.2214
  366SOL    HW110752   3.952   4.333   0.447  1.1149  0.9117 -0.5539
  366SOL    HW210753   3.791   4.337   0.479  1.4506  0.2989  1.2867
  367SOL     OW10754   3.454   1.837   0.302  0.1537 -0.4790  0.1549
  367SOL    HW110755   3.380   1.879   0.354  1.1022  3.6430 -1.6816
  367SOL    HW210756   3.415   1.776   0.232 -1.4842  0.7849 -0.0671
  368SOL     OW10757   4.003   1.372   1.582  0.2339  0.7501 -0.1235
  368SOL    HW110758   3.908   1.379   1.554  1.0805 -0.1359 -3.4002
  368SOL    HW210759   4.011   1.307   1.658 -1.9694  2.2904  1.4748
  369SOL     OW10760   2.488   9.894   1.120  0.0943 -0.5386 -0.8025
  369SOL    HW110761   2.578   9.873   1.159  0.4015 -0.0007 -1.2065
  369SOL    HW210762   2.428   9.815   1.130 -0.0160 -0.1945  1.3057
  370SOL     OW10763   2.337   0.948   2.312 -0.3286  0.0849 -0.1330
  370SOL    HW110764   2.248   0.934   2.268  0.2913  0.5609 -1.5376
  370SOL    HW210765   2.364   0.864   2.358 -1.5096 -0.0634  0.3197
  371SOL     OW10766   3.761   2.653   2.663 -0.0143  0.2264 -0.3044
  371SOL    HW110767   3.694   2.647   2.737 -1.0909  0.7361 -1.2262
  371SOL    HW210768   3.832   2.583   2.677 -0.8967 -0.5236  0.5124
  372SOL     OW10769   4.906   3.118   1.349  0.0629  0.3966  0.0718
  372SOL    HW110770   4.996   3.086   1.380  0.4350  1.1385 -0.2308
  372SOL    HW210771   4.918   3.186   1.277 -0.7452  0.5843  0.1119
  373SOL     OW10772   3.480   3.879   0.369 -0.4298  0.2811  0.1827
  373SOL    HW110773   3.461   3.796   0.316 -2.8528  1.0096 -0.1183
  373SOL    HW210774   3.442   3.958   0.322  0.3870  1.3726  1.3323
  374SOL     OW10775   4.452   0.768   1.633  0.0456  0.2236 -0.2535
  374SOL    HW110776   4.513   0.725   1.566 -2.2616 -1.3885 -1.4161
  374SOL    HW210777   4.450   0.867   1.618  2.5172  0.3391 -0.0221
  375SOL     OW10778   4.400   1.860   2.525 -0.0665 -0.0358 -0.2399
  375SOL    HW110779   4.364   1.904   2.444 -1.8838 -0.9287  0.0588
  375SOL    HW210780   4.373   1.763   2.526  0.5461 -0.2101  1.0525
  376SOL     OW10781   3.336   8.982   1.828  0.3080 -0.0190  0.2256
  376SOL    HW110782   3.363   8.950   1.737  2.7043  0.9817  0.5174
  376SOL    HW210783   3.265   9.051   1.819 -0.2592 -0.7311 -0.8236
  377SOL     OW10784   3.327   9.803   2.207 -0.2930  0.1959 -0.6258
  377SOL    HW110785   3.258   9.875   2.202  0.3289  0.8873  0.4607
  377SOL    HW210786   3.412   9.840   2.245  0.3145 -0.9111 -0.8616
  378SOL     OW10787   2.376   2.154   2.003 -0.5061 -0.3547  0.8079
  378SOL    HW110788   2.395   2.082   2.071  2.9184 -2.1921 -1.9387
  378SOL    HW210789   2.304   2.122   1.941  1.1359 -1.5514 -0.5177
  379SOL     OW10790   3.765   9.273   2.193 -0.6913 -0.4386  0.3722
  379SOL    HW110791   3.808   9.344   2.248 -1.3099  0.0056  0.2890
  379SOL    HW210792   3.821   9.253   2.113 -1.7963  1.8514 -1.0242
  380SOL     OW10793   3.028   2.873   1.358  0.3121 -0.1025  0.6683
  380SOL    HW110794   3.074   2.860   1.270  2.1943 -0.0282  1.6177
  380SOL    HW210795   2.929   2.874   1.344  0.5741 -0.6285 -1.3716
  381SOL     OW10796   3.262   3.270   0.264  0.0080 -0.2099  0.7798
  381SOL    HW110797   3.241   3.325   0.345 -4.4552 -0.6089  0.0153
  381SOL    HW210798   3.228   3.317   0.182 -0.5084 -2.3649 -0.2677
  382SOL     OW10799   3.885   2.968   0.177 -0.1288  0.4455 -0.2285
  382SOL    HW110800   3.863   2.903   0.250  0.4890  0.1965 -0.2625
  382SOL    HW210801   3.906   3.057   0.217  1.4723 -0.0139  0.0018
  383SOL     OW10802   2.790   2.696   2.672 -0.1652 -0.1835  0.1877
  383SOL    HW110803   2.817   2.781   2.627  0.0900  0.2111  1.0757
  383SOL    HW210804   2.720   2.649   2.617  2.2481 -1.1903 -2.1178
  384SOL     OW10805   2.619   1.435   1.002 -0.0630  0.0287  0.2404
  384SOL    HW110806   2.709   1.460   0.968  0.6730 -1.5136  0.9782
  384SOL    HW210807   2.571   1.382   0.932  0.1873 -0.4088  0.3984
  385SOL     OW10808   4.052   2.417   0.722 -0.1728 -0.4767 -0.1189
  385SOL    HW110809   3.975   2.415   0.659  0.9385 -2.1771 -1.4756
  385SOL    HW210810   4.085   2.324   0.737  0.9374  0.1183  1.2916
  386SOL     OW10811   3.218   2.021   0.235  0.3001 -0.6700 -0.3776
  386SOL    HW110812   3.142   2.042   0.174  0.7866  0.7492 -0.5326
  386SOL    HW210813   3.291   2.088   0.220  0.7720 -0.8346  1.1418
  387SOL     OW10814   4.028   1.214   1.819  0.1897 -0.1994 -0.0553
  387SOL    HW110815   3.948   1.229   1.878 -0.1111 -0.7958 -0.3091
  387SOL    HW210816   4.111   1.215   1.875  0.1656  2.1054 -0.0171
  388SOL     OW10817   2.830   3.557   0.030  0.2539  0.3522  0.2840
  388SOL    HW110818   2.766   3.587  -0.040  0.9154  2.9895  0.7465
  388SOL    HW210819   2.908   3.511  -0.014  0.1058  0.9534 -0.6261
  389SOL     OW10820   3.346   2.160   1.434 -0.3978 -0.2416 -0.5181
  389SOL    HW110821   3.340   2.151   1.534 -3.1503 -3.0878 -0.8617
  389SOL    HW210822   3.299   2.243   1.405 -0.0120  0.3362  0.4851
  390SOL     OW10823   3.192   3.466   1.533  0.3319 -0.5998 -0.3118
  390SOL    HW110824   3.279   3.513   1.516 -0.1265  0.0741 -0.7994
  390SOL    HW210825   3.189   3.435   1.628  1.0354 -0.4885 -0.2481
  391SOL     OW10826   3.405   2.437   1.424  0.3987 -0.0945  0.0853
  391SOL    HW110827   3.366   2.481   1.505 -1.2101 -0.5086 -0.4422
  391SOL    HW210828   3.501   2.416   1.441 -0.0255 -0.5603  2.0616
  392SOL     OW10829   2.538   2.657   1.596  0.1873  0.3126  0.4102
  392SOL    HW110830   2.638   2.654   1.587  0.2516  0.0773  1.1739
  392SOL    HW210831   2.496   2.648   1.506  0.8021 -2.2778  0.3430
  393SOL     OW10832   2.716   3.218   1.480 -0.1688  0.0532  0.4947
  393SOL    HW110833   2.636   3.265   1.443 -1.8561 -2.6227  0.5962
  393SOL    HW210834   2.731   3.133   1.430  1.6335 -0.2697  1.5369
  394SOL     OW10835   3.767   3.140   1.364 -0.1044 -0.0793  0.1321
  394SOL    HW110836   3.737   3.045   1.356  2.3202 -0.7547 -1.4938
  394SOL    HW210837   3.731   3.193   1.287 -1.0963  0.2655  0.8088
  395SOL     OW10838   2.854   2.737   0.301 -0.6517  0.3610  0.0611
  395SOL    HW110839   2.797   2.733   0.219  0.0652 -0.9244 -0.3939
  395SOL    HW210840   2.943   2.776   0.278 -0.5526  0.2770  0.2945
  396SOL     OW10841   3.248   9.722   0.769 -0.4171  0.5422 -0.5045
  396SOL    HW110842   3.283   9.628   0.771  0.4802  0.7569 -3.9093
  396SOL    HW210843   3.220   9.749   0.862  1.5149 -2.2197  0.9442
  397SOL     OW10844   3.821   1.481   0.584 -0.3885 -0.5131 -0.1227
  397SOL    HW110845   3.727   1.501   0.609 -0.2715  0.2944 -0.3143
  397SOL    HW210846   3.877   1.475   0.667 -0.2689  0.7816 -0.1040
  398SOL     OW10847   4.351   2.614   2.821 -0.0676  0.5360 -0.6597
  398SOL    HW110848   4.421   2.548   2.850 -0.1796  0.0057 -1.6065
  398SOL    HW210849   4.363   2.699   2.874 -1.3442 -0.9981  2.1904
  399SOL     OW10850   3.455   0.942   2.702  0.0797  0.5626 -0.0069
  399SOL    HW110851   3.429   1.029   2.743 -1.5172  1.3590 -2.6020
  399SOL    HW210852   3.519   0.958   2.627 -1.2717 -0.3231 -1.3929
  400SOL     OW10853   3.414   0.400   1.656 -0.0625 -0.1307 -0.2250
  400SOL    HW110854   3.440   0.492   1.628  0.1364 -0.0317  0.2879
  400SOL    HW210855   3.496   0.347   1.677 -0.0934 -0.8292 -1.7509
  401SOL     OW10856   3.346   2.891   1.704  0.1635 -0.4481  0.4296
  401SOL    HW110857   3.387   2.810   1.747  0.0351 -0.5755  0.3098
  401SOL    HW210858   3.419   2.952   1.673  0.2602 -0.0684  1.3749
  402SOL     OW10859   3.972   1.648   0.181 -0.0898  0.3689  0.5102
  402SOL    HW110860   4.016   1.570   0.226 -0.3217  0.7007  1.3079
  402SOL    HW210861   4.024   1.673   0.099  2.1165  1.7495  2.2858
  403SOL     OW10862   4.217   1.881   1.355 -0.3761  0.1498  0.3756
  403SOL    HW110863   4.214   1.943   1.276  0.8095 -0.2161  0.0269
  403SOL    HW210864   4.290   1.910   1.417 -1.1283  0.2725  1.2129
  404SOL     OW10865   2.568   2.285   0.599  0.3307 -0.2079 -0.0346
  404SOL    HW110866   2.484   2.316   0.643 -0.5984 -1.4816 -0.8682
  404SOL    HW210867   2.575   2.185   0.606  1.6562 -0.1402 -0.1857
  405SOL     OW10868   2.964   1.604   1.616  0.1585  0.0367  0.6040
  405SOL    HW110869   2.906   1.598   1.534  1.3606  0.4420 -0.2951
  405SOL    HW210870   2.941   1.530   1.679 -0.4693 -0.5532 -0.3064
  406SOL     OW10871   3.949   3.493   2.760 -0.5796 -0.0127 -0.0887
  406SOL    HW110872   3.894   3.410   2.755 -0.4332 -0.2018  1.1190
  406SOL    HW210873   4.046   3.469   2.748 -0.6554  0.1663 -1.0763
  407SOL     OW10874   3.605   0.603   1.578 -0.1189  0.8432 -0.4866
  407SOL    HW110875   3.699   0.623   1.604  0.1610 -0.0636 -0.7920
  407SOL    HW210876   3.600   0.591   1.478 -0.1373 -1.3428 -0.2430
  408SOL     OW10877   2.839   0.885   0.392  0.3670  0.1990  0.4661
  408SOL    HW110878   2.795   0.919   0.475 -1.3386 -1.2171  0.1840
  408SOL    HW210879   2.888   0.800   0.413 -0.3498 -0.3422 -0.0392
  409SOL     OW10880   3.563   2.588   1.089 -0.3158  0.1634  0.0769
  409SOL    HW110881   3.547   2.572   0.992  0.1461  0.2268 -0.0095
  409SOL    HW210882   3.590   2.683   1.103  1.0497 -0.2192  0.0946
  410SOL     OW10883   3.786   3.253   2.753 -0.0630 -0.1725  0.0325
  410SOL    HW110884   3.820   3.159   2.760 -1.1622 -0.6865 -1.0892
  410SOL    HW210885   3.748   3.282   2.841  0.1037 -0.8629  0.3318
  411SOL     OW10886   5.109   3.071   1.523 -0.6938  0.1698 -0.0195
  411SOL    HW110887   5.115   3.168   1.543 -1.2858 -0.2493  2.2553
  411SOL    HW210888   5.192   3.024   1.555 -0.6170 -0.1606 -0.6757
  412SOL     OW10889   2.395   1.871   0.039 -0.5025  0.1310  0.3280
  412SOL    HW110890   2.338   1.864   0.121  1.5720 -1.6269  1.7013
  412SOL    HW210891   2.468   1.937   0.055 -1.2062  1.1855 -0.8161
  413SOL     OW10892   3.028   2.587   1.033  0.0813 -0.3580 -0.4628
  413SOL    HW110893   3.022   2.651   0.957 -0.1794  1.2813  0.9205
  413SOL    HW210894   3.114   2.600   1.081  0.3034 -1.4768 -0.5381
  414SOL     OW10895   3.529   2.064   0.146  0.0458 -0.1936 -0.0241
  414SOL    HW110896   3.612   2.032   0.100  3.2175  1.4054  4.2703
  414SOL    HW210897   3.512   2.008   0.227 -0.3230  2.4445  1.7718
  415SOL     OW10898   4.566   3.794   0.925  0.1123 -0.1838  0.0411
  415SOL    HW110899   4.471   3.795   0.893 -0.5337  0.8498  1.8908
  415SOL    HW210900   4.586   3.879   0.974  1.9879 -0.4134 -0.2818
  416SOL     OW10901   3.329   1.840   1.341 -0.3816 -0.0944 -0.4254
  416SOL    HW110902   3.390   1.814   1.266  0.8780 -0.2028  0.6175
  416SOL    HW210903   3.264   1.908   1.309  2.5226  2.6798 -0.6875
  417SOL     OW10904   4.471   2.191   1.657  0.7119 -0.0084  0.4168
  417SOL    HW110905   4.459   2.097   1.625  5.8449 -0.4078 -0.7393
  417SOL    HW210906   4.392   2.246   1.629 -3.5210 -4.3395  3.1391
  418SOL     OW10907   4.573   4.393   0.553  0.1182 -0.3268 -0.4192
  418SOL    HW110908   4.495   4.379   0.614 -1.0165  0.2247 -1.7266
  418SOL    HW210909   4.656   4.406   0.608 -1.1502  1.8642  1.0565
  419SOL     OW10910   3.763   0.215   1.979  0.1122 -0.4522 -0.5865
  419SOL    HW110911   3.703   0.263   2.043  0.9916  0.8849 -0.7482
  419SOL    HW210912   3.753   0.117   1.992  0.9024 -0.2152  2.1847
  420SOL     OW10913   3.416   0.081   2.391  0.4304 -0.1404  0.6656
  420SOL    HW110914   3.399   0.158   2.453  0.2670 -1.2782  2.0357
  420SOL    HW210915   3.331   0.029   2.379  0.5386 -0.1140 -0.2737
  421SOL     OW10916   2.659   0.695   1.220 -0.6421  0.2518 -0.0991
  421SOL    HW110917   2.631   0.683   1.315 -0.6630  0.2978 -0.0994
  421SOL    HW210918   2.616   0.624   1.164 -0.6144  0.2133 -0.0709
  422SOL     OW10919   4.144   2.682   1.086 -0.0919 -0.6707 -0.2227
  422SOL    HW110920   4.086   2.635   1.152  0.8947 -1.8377 -0.1686
  422SOL    HW210921   4.143   2.780   1.105 -0.2751 -0.9321  1.1655
  423SOL     OW10922   7.860   9.640   0.009  0.0631  0.0568  0.0829
  423SOL    HW110923   7.918   9.563  -0.018  1.6915  0.3827  2.5356
  423SOL    HW210924   7.858   9.707  -0.065  0.3770 -1.3311 -1.2175
  424SOL     OW10925   3.841   0.473   1.888  0.3094 -0.1895  0.0251
  424SOL    HW110926   3.847   0.376   1.909  0.4261 -0.4608 -1.2260
  424SOL    HW210927   3.818   0.524   1.971  2.2742 -1.0531  1.1215
  425SOL     OW10928   2.474   1.473   1.895  0.3053  0.2480 -0.3530
  425SOL    HW110929   2.491   1.433   1.805 -1.1869  1.5212 -1.2133
  425SOL    HW210930   2.461   1.400   1.962 -1.0498 -0.7154 -1.6450
  426SOL     OW10931   2.913   3.532   0.298 -0.2679  0.0741 -0.1727
  426SOL    HW110932   2.866   3.582   0.226 -0.7167  2.2124  1.5509
  426SOL    HW210933   2.866   3.446   0.316 -1.2168  0.3833 -1.1479
  427SOL     OW10934   4.137   0.960   1.112  0.4650  0.0248  0.0207
  427SOL    HW110935   4.189   0.879   1.085  0.8123  0.6053 -1.0631
  427SOL    HW210936   4.193   1.017   1.172  0.0658 -0.7367  1.1488
  428SOL     OW10937   4.353   9.616   1.832  0.0004 -0.3838 -0.0101
  428SOL    HW110938   4.303   9.698   1.804  0.2752 -0.3810 -0.4925
  428SOL    HW210939   4.450   9.627   1.812  0.1393 -0.5495  0.5663
  429SOL     OW10940   2.785   0.470   2.582 -1.0093 -0.2162  0.1629
  429SOL    HW110941   2.731   0.446   2.662 -1.7052  3.0929  0.7756
  429SOL    HW210942   2.841   0.550   2.603 -0.6606  0.2537 -2.4375
  430SOL     OW10943   4.496   1.453   1.796 -0.0887  0.4317  0.1847
  430SOL    HW110944   4.480   1.392   1.719  0.3311  0.7003 -0.1149
  430SOL    HW210945   4.551   1.531   1.767  0.9809 -0.0105  1.0054
  431SOL     OW10946   3.134   1.663   1.804  0.6213  0.9843 -0.2086
  431SOL    HW110947   3.085   1.660   1.718 -0.8400  0.0529  0.6416
  431SOL    HW210948   3.210   1.598   1.802 -0.1241  0.1092 -0.3711
  432SOL     OW10949   2.849   2.973   0.489  0.4465  0.0411  1.0217
  432SOL    HW110950   2.837   3.042   0.560  2.1993  1.2975  0.1448
  432SOL    HW210951   2.808   2.887   0.519 -0.4409  1.0400  2.7704
  433SOL     OW10952   3.122   1.359   1.359  0.2810 -0.3260 -0.3732
  433SOL    HW110953   3.159   1.446   1.393 -0.0796  0.1707 -1.2278
  433SOL    HW210954   3.024   1.355   1.380  0.2385 -0.4018 -0.5948
  434SOL     OW10955   3.099   0.335   0.087 -0.3438 -0.2471  0.5685
  434SOL    HW110956   3.164   0.377   0.022 -1.3057  1.5734  0.7691
  434SOL    HW210957   3.115   0.372   0.178 -1.5178  0.0712  0.6552
  435SOL     OW10958   4.041   4.383   0.156 -0.6539  0.4049  0.0172
  435SOL    HW110959   3.986   4.368   0.239  1.2803 -3.9079  0.6771
  435SOL    HW210960   3.981   4.402   0.079 -2.8216 -0.2617  1.4990
  436SOL     OW10961   4.077   1.725   0.444 -0.8768  0.2771  0.2470
  436SOL    HW110962   4.147   1.658   0.467 -0.1612 -0.2595 -3.1445
  436SOL    HW210963   4.030   1.697   0.360 -3.7080  1.7320  1.2672
  437SOL     OW10964   4.370   3.645   2.711  0.6482 -0.2124  0.2886
  437SOL    HW110965   4.351   3.672   2.805  2.0694 -0.1980  0.5686
  437SOL    HW210966   4.285   3.613   2.669 -0.6551  2.6785  0.5930
  438SOL     OW10967   2.851   3.342   0.496  0.4226 -0.1425 -0.3114
  438SOL    HW110968   2.777   3.342   0.564 -1.7558 -0.6662 -2.6177
  438SOL    HW210969   2.885   3.435   0.485  1.0331 -0.0916  1.7034
  439SOL     OW10970   2.782   2.440   2.494  0.3634 -0.1377  0.1792
  439SOL    HW110971   2.876   2.471   2.478  0.6564 -2.2291 -2.4909
  439SOL    HW210972   2.782   2.371   2.566  0.5518  1.4125  1.6998
  440SOL     OW10973   2.334   0.959   1.180  0.1545 -0.1757  0.0722
  440SOL    HW110974   2.267   0.894   1.215 -1.6766  1.2420 -0.7061
  440SOL    HW210975   2.381   0.920   1.101  0.1357 -1.1221  0.5264
  441SOL     OW10976   3.115   2.506   0.641  0.1413  0.2868  0.2940
  441SOL    HW110977   3.099   2.433   0.708 -1.7098 -0.3538 -0.8237
  441SOL    HW210978   3.030   2.558   0.627 -0.3624 -1.5355 -3.8485
  442SOL     OW10979   2.958   9.704   1.344 -0.0207  0.7820  0.1979
  442SOL    HW110980   3.005   9.648   1.412 -0.1486  0.8108  0.3098
  442SOL    HW210981   2.946   9.651   1.260 -0.4363  0.5310  0.4163
  443SOL     OW10982   4.405   1.272   1.139  0.2595  0.3556 -0.3526
  443SOL    HW110983   4.389   1.230   1.050  0.3026  0.3803 -0.3720
  443SOL    HW210984   4.339   1.236   1.206  0.7877 -0.3104 -0.1896
  444SOL     OW10985   4.025   0.625   2.162 -0.1815  0.8698  0.2829
  444SOL    HW110986   4.090   0.701   2.159  0.5078  0.2302 -2.3375
  444SOL    HW210987   4.066   0.545   2.118 -2.0386 -0.0935  0.2782
  445SOL     OW10988   3.643   1.480   2.752 -0.1534  0.2943  0.4800
  445SOL    HW110989   3.676   1.522   2.667 -1.2851 -0.1304 -0.1823
  445SOL    HW210990   3.591   1.397   2.730  1.0315 -0.8067  1.7011
  446SOL     OW10991   3.284   1.039   1.956  1.0449  0.0337  0.3951
  446SOL    HW110992   3.380   1.050   1.980  1.2214 -0.1182 -0.2365
  446SOL    HW210993   3.265   0.943   1.939  1.0128  0.1823 -0.4353
  447SOL     OW10994   3.617   3.412   2.586  0.3246  0.7504 -0.1868
  447SOL    HW110995   3.594   3.503   2.621 -3.5641 -0.6965  1.3881
  447SOL    HW210996   3.666   3.361   2.657  1.8787  1.3689 -0.8092
  448SOL     OW10997   3.756   1.688   0.032  0.2182  0.1889  0.4150
  448SOL    HW110998   3.715   1.613  -0.020  1.4594  0.3696 -0.8680
  448SOL    HW210999   3.843   1.659   0.071 -0.0040  0.5111  1.1717
  449SOL     OW11000   4.176   3.711   0.169  0.1731  0.0417  0.2400
  449SOL    HW111001   4.089   3.725   0.215  0.1410  2.1677 -0.4393
  449SOL    HW211002   4.185   3.775   0.093  1.6081 -1.2896 -0.7452
  450SOL     OW11003   3.379   2.131   2.788  0.2932  0.3661  0.0276
  450SOL    HW111004   3.453   2.142   2.721  0.0522  1.5570 -0.0595
  450SOL    HW211005   3.419   2.126   2.880  0.4427  1.8389  0.0507
  451SOL     OW11006   3.018   0.008   0.864 -0.1744 -0.2312  0.2754
  451SOL    HW111007   3.089   0.014   0.935  0.7120  0.1637 -0.6355
  451SOL    HW211008   3.042   0.068   0.788 -1.3070 -0.3811 -0.2094
  452SOL     OW11009   2.720   0.075   1.485 -0.4265 -0.1709  0.1812
  452SOL    HW111010   2.708   0.030   1.573  0.9648 -0.6884  0.1144
  452SOL    HW211011   2.719   0.007   1.412 -0.1572  0.1024 -0.0797
  453SOL     OW11012   3.510   3.973   0.869  0.4395 -0.3142  0.0253
  453SOL    HW111013   3.485   3.953   0.774 -1.0842  0.1537  0.3177
  453SOL    HW211014   3.484   3.897   0.928  0.0081  0.0337  0.2854
  454SOL     OW11015   4.270   2.470   1.907 -0.1253  0.2769 -0.2851
  454SOL    HW111016   4.330   2.450   1.985  0.4967  0.3476 -0.7416
  454SOL    HW211017   4.218   2.388   1.884  1.7508 -0.5962 -1.5648
  455SOL     OW11018   3.487   1.977   2.011 -0.0536 -0.8769 -0.1921
  455SOL    HW111019   3.542   1.953   2.091  0.2689 -0.0023 -0.1479
  455SOL    HW211020   3.515   1.920   1.934 -0.1907 -1.5472  0.2484
  456SOL     OW11021   2.850   2.773   1.779 -0.0446  0.1602  0.4230
  456SOL    HW111022   2.805   2.826   1.707 -0.1917 -1.7586 -0.9431
  456SOL    HW211023   2.866   2.831   1.858 -0.2095  2.2232 -1.0253
  457SOL     OW11024   4.800   1.295   0.428  0.8568  0.2510 -0.3476
  457SOL    HW111025   4.857   1.256   0.356  0.4407 -0.6411 -0.2055
  457SOL    HW211026   4.766   1.221   0.487  1.2906  0.9684  0.8308
  458SOL     OW11027   2.292   1.354   2.517 -0.2956  0.6457 -0.6915
  458SOL    HW111028   2.300   1.271   2.463  1.0816  1.2859 -1.4914
  458SOL    HW211029   2.340   1.429   2.472  0.9686  1.1801  1.4355
  459SOL     OW11030   7.843   2.504   1.106 -0.2574  0.4120  0.1871
  459SOL    HW111031   7.803   2.443   1.174 -1.3214  0.1262 -0.6912
  459SOL    HW211032   7.785   2.585   1.094  0.2387  0.7583  0.0526
  460SOL     OW11033   2.673   9.998   2.858 -0.3695  0.1756  0.1884
  460SOL    HW111034   2.675   9.966   2.953 -0.7308  1.8449  0.7669
  460SOL    HW211035   2.766  10.021   2.829 -0.5441  1.7566  0.8642
  461SOL     OW11036   2.849   3.209   2.103  0.1337  0.0316 -0.2632
  461SOL    HW111037   2.776   3.224   2.037 -1.2020 -1.9570  0.7401
  461SOL    HW211038   2.855   3.288   2.165  0.7826  1.4856 -2.1018
  462SOL     OW11039   4.437   4.309   1.532  0.8081 -0.4042  0.2528
  462SOL    HW111040   4.487   4.225   1.512  1.7908  0.0995  0.5736
  462SOL    HW211041   4.452   4.376   1.459 -0.7576 -0.8478 -0.4885
  463SOL     OW11042   3.911   3.542   0.159  0.2955 -0.5046 -0.3873
  463SOL    HW111043   3.917   3.524   0.060 -0.6885 -3.3739  0.0299
  463SOL    HW211044   3.989   3.500   0.205  1.0201  1.2626  0.0233
  464SOL     OW11045   2.401   1.363   2.766  0.3488  0.4907  0.0371
  464SOL    HW111046   2.356   1.366   2.677  1.0608  1.4312 -0.3032
  464SOL    HW211047   2.333   1.367   2.839 -0.3777 -2.3972 -0.4471
  465SOL     OW11048   2.794   0.514   0.232  0.0945  0.4950  0.0365
  465SOL    HW111049   2.854   0.551   0.302  0.6990  0.8831 -0.6723
  465SOL    HW211050   2.836   0.528   0.142 -2.8052  4.2573 -0.8444
  466SOL     OW11051   3.802   2.475   2.208 -0.4234 -0.0755 -0.0410
  466SOL    HW111052   3.704   2.475   2.186 -0.7301 -1.7098  1.2373
  466SOL    HW211053   3.854   2.446   2.127 -1.1950 -1.6008 -0.0103
  467SOL     OW11054   2.980   9.061   1.343 -0.2614  0.3558 -0.2327
  467SOL    HW111055   2.964   9.155   1.312 -1.6328 -0.1070 -0.9995
  467SOL    HW211056   2.987   9.059   1.443 -2.4229  0.9843 -0.0482
  468SOL     OW11057   3.713   4.604   0.151  0.2424 -0.4100 -0.1063
  468SOL    HW111058   3.727   4.654   0.237 -2.3747  0.0020  0.1180
  468SOL    HW211059   3.725   4.666   0.074  0.6298 -0.3150  0.0278
  469SOL     OW11060   3.791   3.952   0.964 -0.3732  0.5826  0.6804
  469SOL    HW111061   3.845   3.946   0.880 -1.8305  0.9527 -0.3031
  469SOL    HW211062   3.695   3.970   0.941 -0.9168 -0.0170  2.3924
  470SOL     OW11063   3.511   1.163   1.624 -0.0318 -0.1640  0.3337
  470SOL    HW111064   3.415   1.188   1.623 -0.3593 -1.3500  1.0254
  470SOL    HW211065   3.541   1.142   1.531 -1.0595 -2.0244  0.3907
  471SOL     OW11066   3.645   9.218   1.294  0.6152  0.3722 -0.7518
  471SOL    HW111067   3.667   9.165   1.212 -0.3197  0.0824 -0.8248
  471SOL    HW211068   3.729   9.246   1.339  1.1291 -0.8490 -0.9336
  472SOL     OW11069   2.659   9.673   1.550 -0.1182 -0.5404  0.1373
  472SOL    HW111070   2.689   9.604   1.484  1.6452 -0.0678  0.3907
  472SOL    HW211071   2.574   9.715   1.519 -0.7895 -2.2742 -0.4118
  473SOL     OW11072   2.362   1.751   1.429  0.3825  0.7800  0.0414
  473SOL    HW111073   2.419   1.740   1.511 -0.1895 -0.1417  0.3240
  473SOL    HW211074   2.303   1.830   1.439 -0.3043  0.1593  0.8873
  474SOL     OW11075   2.501   1.595   2.162 -0.1431  0.2913 -0.9432
  474SOL    HW111076   2.497   1.587   2.062  0.3963  0.0194 -0.9413
  474SOL    HW211077   2.563   1.669   2.186  1.0152 -0.7317 -0.7679
  475SOL     OW11078   4.471   3.226   0.585 -0.9686 -0.4002  0.5265
  475SOL    HW111079   4.462   3.149   0.647  0.1147  1.0038  2.4726
  475SOL    HW211080   4.565   3.230   0.549 -1.1055 -0.1709  0.1845
  476SOL     OW11081   3.913   1.246   0.876 -0.2430 -0.5997 -0.0865
  476SOL    HW111082   3.822   1.205   0.870  0.0803 -1.5330  1.2997
  476SOL    HW211083   3.905   1.346   0.875 -1.3913 -0.6585  1.3647
  477SOL     OW11084   4.066   9.060   1.855 -0.3445  0.5580 -0.3146
  477SOL    HW111085   4.065   8.969   1.813 -0.7854 -0.0174  0.9250
  477SOL    HW211086   4.160   9.095   1.857 -0.5025  1.2941 -3.2260
  478SOL     OW11087   3.520   8.667   1.479 -0.7906 -0.0858  0.0013
  478SOL    HW111088   3.556   8.628   1.564 -0.6101 -0.1372 -0.0956
  478SOL    HW211089   3.592   8.720   1.434 -1.0404  0.3644  0.1337
  479SOL     OW11090   3.241   9.047   0.914  0.7826 -0.1881 -0.1461
  479SOL    HW111091   3.170   9.028   0.983  1.4305  1.9214  1.1712
  479SOL    HW211092   3.213   9.126   0.859  0.1076 -2.0737 -2.6081
  480SOL     OW11093   2.517   2.423   0.155 -0.3746 -0.2103  0.2669
  480SOL    HW111094   2.565   2.428   0.242  0.0728  0.0230  0.0108
  480SOL    HW211095   2.559   2.487   0.090 -1.0668  0.0391  0.0572
  481SOL     OW11096   3.553   3.006   1.607  0.6418  0.1031 -0.4380
  481SOL    HW111097   3.625   3.024   1.675  0.5682 -0.5626 -0.1779
  481SOL    HW211098   3.558   3.074   1.535  0.6013  0.9409  0.3376
  482SOL     OW11099   3.623   0.641   0.644  0.4060  0.5035  0.9102
  482SOL    HW111100   3.533   0.598   0.635  1.0714 -0.9557  1.2056
  482SOL    HW211101   3.671   0.636   0.557  1.2285 -1.0428  1.4389
  483SOL     OW11102   3.015   3.473   2.729 -0.4493 -0.4570 -0.3639
  483SOL    HW111103   3.050   3.382   2.711  2.1155  0.6959 -1.5296
  483SOL    HW211104   2.960   3.504   2.651  0.4987 -0.1701 -0.9216
  484SOL     OW11105   4.661   3.647   1.159  0.2322  0.0320 -0.1602
  484SOL    HW111106   4.644   3.677   1.065  1.9187 -0.1890 -0.5499
  484SOL    HW211107   4.647   3.548   1.165  0.1838  0.0365 -0.2023
  485SOL     OW11108   4.399   1.756   0.017 -0.7790  0.0584  0.3322
  485SOL    HW111109   4.456   1.829   0.054  0.0999 -0.2500 -0.4040
  485SOL    HW211110   4.349   1.712   0.091  0.1374  0.1602  1.0124
  486SOL     OW11111   2.229   0.085   2.170  0.1765 -0.4771 -0.1354
  486SOL    HW111112   2.263   0.068   2.262 -1.6917  1.1082  0.8681
  486SOL    HW211113   2.268   0.017   2.108  3.1867 -0.2288  1.3825
  487SOL     OW11114   3.391   0.694   0.146  0.2448 -0.5520  0.0406
  487SOL    HW111115   3.434   0.784   0.141  1.4212 -1.0440  0.9148
  487SOL    HW211116   3.293   0.704   0.165  0.1025  0.5681 -1.2444
  488SOL     OW11117   3.720   2.274   1.843  0.4281 -0.7361  0.4634
  488SOL    HW111118   3.758   2.185   1.819 -0.7245 -0.6219 -1.9476
  488SOL    HW211119   3.793   2.336   1.869  1.4015 -1.8862  0.5148
  489SOL     OW11120   4.572   3.437   1.859 -0.5759  0.5382  0.2992
  489SOL    HW111121   4.555   3.339   1.858 -1.0696  0.6127  0.9886
  489SOL    HW211122   4.669   3.454   1.875 -0.6551  0.1715  1.1979
  490SOL     OW11123   4.341   2.082   0.944 -0.2526  0.2138  0.4239
  490SOL    HW111124   4.309   2.089   0.849 -1.6711 -1.5865  0.7580
  490SOL    HW211125   4.404   2.157   0.963 -0.7979  1.2187 -1.6167
  491SOL     OW11126   3.088   8.962   1.107  0.3163 -0.1087  0.1219
  491SOL    HW111127   3.020   8.894   1.079  0.4424  0.1456 -0.8333
  491SOL    HW211128   3.052   9.017   1.182  0.3213 -1.4180  1.1061
  492SOL     OW11129   2.455   2.970   1.683 -0.4968  0.1232  0.0577
  492SOL    HW111130   2.380   3.035   1.695 -2.0276 -1.3395 -1.3653
  492SOL    HW211131   2.456   2.907   1.760 -0.4439  0.4261  0.3055
  493SOL     OW11132   3.706   2.859   1.414 -0.5990 -0.2286 -0.6313
  493SOL    HW111133   3.754   2.831   1.497 -0.4206  0.1029 -0.6213
  493SOL    HW211134   3.610   2.876   1.435 -0.3935  0.5936 -0.3323
  494SOL     OW11135   3.355   1.381   0.398 -0.0170 -1.4823 -0.0044
  494SOL    HW111136   3.446   1.386   0.358 -0.4279  0.3321 -0.7578
  494SOL    HW211137   3.360   1.340   0.489  1.5513 -1.3223 -0.0163
  495SOL     OW11138   2.600   2.019   0.630 -0.4071  0.1000 -0.5323
  495SOL    HW111139   2.567   1.951   0.565 -2.3169 -0.0481  0.5718
  495SOL    HW211140   2.694   1.997   0.655 -0.3661 -1.0493 -1.6073
  496SOL     OW11141   3.437   3.020   0.718  0.3055  0.1851  0.0631
  496SOL    HW111142   3.403   3.113   0.727 -2.3723 -0.7009 -0.4488
  496SOL    HW211143   3.473   3.006   0.626 -0.9961  0.1956 -0.4559
  497SOL     OW11144   3.297   2.003   0.553 -0.2575  0.2086 -0.2370
  497SOL    HW111145   3.348   2.077   0.596  0.9688  1.1292 -3.1201
  497SOL    HW211146   3.209   2.037   0.520 -0.3595 -0.0071 -0.1893
  498SOL     OW11147   2.746   2.328   2.164 -0.4504 -0.1908  0.7213
  498SOL    HW111148   2.685   2.368   2.233 -2.2033 -0.7118 -0.4923
  498SOL    HW211149   2.691   2.292   2.088  1.4833  1.9396 -1.7958
  499SOL     OW11150   2.599   2.598   0.793 -0.1846 -0.1132  0.0087
  499SOL    HW111151   2.616   2.628   0.887  1.4516 -0.1284 -0.2646
  499SOL    HW211152   2.683   2.560   0.754 -0.9976 -0.6551 -1.2697
  500SOL     OW11153   3.913   1.889   2.475 -0.0697  0.0686  0.1487
  500SOL    HW111154   3.814   1.902   2.472 -0.0276  0.4125  0.2447
  500SOL    HW211155   3.958   1.969   2.437  0.1637 -0.2275 -0.1995
  501SOL     OW11156   3.201   0.790   2.228 -0.0912 -0.4450 -0.3088
  501SOL    HW111157   3.149   0.705   2.222  0.7027 -0.8070 -2.9948
  501SOL    HW211158   3.160   0.857   2.165 -0.4560  1.0307  1.4760
  502SOL     OW11159   2.999   1.698   0.266  0.9685  0.4679 -0.5443
  502SOL    HW111160   3.080   1.751   0.243  1.8457  0.1385  1.6444
  502SOL    HW211161   3.017   1.644   0.348 -0.7137 -1.3533 -1.3280
  503SOL     OW11162   3.881   4.032   0.699  0.1720 -0.3730 -0.0663
  503SOL    HW111163   3.818   4.097   0.657  0.2868 -0.5580 -0.5285
  503SOL    HW211164   3.890   3.952   0.640 -0.2596 -0.9757  0.6771
  504SOL     OW11165   4.267   1.072   0.329  0.2984 -0.1493 -0.1433
  504SOL    HW111166   4.179   1.065   0.283  0.6988 -1.7018 -0.7216
  504SOL    HW211167   4.315   1.153   0.296 -0.0793 -0.3981 -1.3345
  505SOL     OW11168   2.546   1.355   1.577  0.2699  0.6664 -0.5564
  505SOL    HW111169   2.522   1.357   1.480  1.1134  1.9397 -0.7578
  505SOL    HW211170   2.638   1.317   1.588 -0.1352 -0.2215 -0.1759
  506SOL     OW11171   3.545   2.493   0.308  0.0028  0.3755 -0.0517
  506SOL    HW111172   3.572   2.537   0.393  2.5860  1.8333 -1.5452
  506SOL    HW211173   3.473   2.547   0.263  0.8488  1.3305 -0.2831
  507SOL     OW11174   4.102   1.610   1.664  0.3906 -0.0591 -0.2117
  507SOL    HW111175   4.076   1.673   1.591  2.2836 -0.6119 -1.3953
  507SOL    HW211176   4.071   1.517   1.641 -0.6914  0.0852  0.6124
  508SOL     OW11177   4.590   4.057   1.509  0.3268  0.4344  0.0201
  508SOL    HW111178   4.618   4.012   1.593  1.1194 -0.5017 -0.7343
  508SOL    HW211179   4.613   3.999   1.431  0.8608  1.9072 -0.9326
  509SOL     OW11180   3.167   3.344   0.527 -0.1597  0.1421  0.3928
  509SOL    HW111181   3.194   3.307   0.616 -1.4345  0.3430  0.8665
  509SOL    HW211182   3.071   3.323   0.509  0.0782  0.1139 -0.9393
  510SOL     OW11183   2.712   2.364   0.361  0.2043  1.1097  0.4226
  510SOL    HW111184   2.639   2.360   0.429  2.1023  1.8390  2.5615
  510SOL    HW211185   2.776   2.437   0.384  1.0947  1.1401 -1.9577
  511SOL     OW11186   2.858   0.072   1.075  1.4194  0.5485  0.3342
  511SOL    HW111187   2.892   0.047   0.984 -2.8053 -3.0512 -0.4367
  511SOL    HW211188   2.809   0.159   1.070 -0.3679 -0.4998 -1.3477
  512SOL     OW11189   3.161   0.037   2.313 -0.6270 -0.3501  0.5461
  512SOL    HW111190   3.129   0.129   2.290 -0.4711  0.1674  2.3196
  512SOL    HW211191   3.118   0.007   2.397 -0.2990 -1.7130  0.2387
  513SOL     OW11192   4.376   2.052   0.262  0.4385  0.0565 -0.2709
  513SOL    HW111193   4.443   2.058   0.189  0.0955  0.7763 -0.5331
  513SOL    HW211194   4.422   2.039   0.350  0.9331  0.8565 -0.4129
  514SOL     OW11195   4.430   1.525   0.337  0.1005  0.0054  0.0044
  514SOL    HW111196   4.501   1.516   0.407 -0.8278  0.7149  1.0502
  514SOL    HW211197   4.340   1.518   0.380 -0.4754 -0.6023 -1.2731
  515SOL     OW11198   4.274   3.822   0.937  0.8274  0.3944  0.1454
  515SOL    HW111199   4.227   3.738   0.910  0.1230  0.1485  2.0204
  515SOL    HW211200   4.206   3.894   0.955  1.3920  1.1890 -0.8232
  516SOL     OW11201   4.269   2.600   0.557  0.9571  0.2512 -0.1229
  516SOL    HW111202   4.361   2.560   0.549  0.4207 -0.7488 -1.6159
  516SOL    HW211203   4.201   2.528   0.552  0.0762  0.9914  1.0494
  517SOL     OW11204   4.686   1.276   1.113 -0.8093 -0.1425 -0.3597
  517SOL    HW111205   4.738   1.347   1.161 -0.9935 -0.1721 -0.1133
  517SOL    HW211206   4.589   1.285   1.135 -0.6965 -1.2310  0.6689
  518SOL     OW11207   3.420   1.535   1.257 -0.0461 -0.8277 -0.0126
  518SOL    HW111208   3.337   1.556   1.310 -0.6603 -2.3809 -0.3199
  518SOL    HW211209   3.435   1.606   1.189 -1.4933 -0.8591 -0.3727
  519SOL     OW11210   2.271   2.390   1.023 -0.2721  0.5055 -0.1050
  519SOL    HW111211   2.179   2.382   1.063  0.0009 -0.0069  0.4229
  519SOL    HW211212   2.336   2.340   1.079  0.4093  1.2350 -0.2368
  520SOL     OW11213   3.180   1.870   1.967  0.2268  0.2154 -0.9430
  520SOL    HW111214   3.170   1.807   1.890  0.1843  2.3213 -2.6898
  520SOL    HW211215   3.090   1.907   1.991  0.2053 -0.6108  0.2916
  521SOL     OW11216   3.418   2.235   1.901 -0.5323  0.6801 -0.5610
  521SOL    HW111217   3.398   2.160   1.963 -0.6755  1.3223  0.1778
  521SOL    HW211218   3.516   2.236   1.880 -0.2951  1.1513  0.5602
  522SOL     OW11219   3.580   2.632   0.014 -0.5654  0.1861 -0.1700
  522SOL    HW111220   3.523   2.683   0.079  0.4043 -2.0015  2.5101
  522SOL    HW211221   3.526   2.557  -0.025  0.0231 -1.0320  1.3074
  523SOL     OW11222   3.591   4.298   0.252  0.3466 -0.1405  1.1076
  523SOL    HW111223   3.676   4.259   0.287  0.4269 -0.5846  0.4167
  523SOL    HW211224   3.611   4.361   0.177  0.0892 -0.0221  1.1352
  524SOL     OW11225   2.444   1.248   0.879 -0.4004 -0.6047 -0.1528
  524SOL    HW111226   2.477   1.222   0.788  2.2549 -1.0144  0.8774
  524SOL    HW211227   2.462   1.174   0.944 -0.7864  0.3235  1.0411
  525SOL     OW11228   4.789   1.525   1.059 -0.4065 -0.5284 -0.3549
  525SOL    HW111229   4.868   1.469   1.032 -0.0781  0.2466 -1.0024
  525SOL    HW211230   4.737   1.552   0.978 -0.1039  0.7893 -0.1157
  526SOL     OW11231   3.744   3.704   2.042  0.3005  0.0717  0.2467
  526SOL    HW111232   3.662   3.739   1.997 -0.4681 -2.7834 -0.6788
  526SOL    HW211233   3.812   3.677   1.973 -0.4705 -3.3457  0.7093
  527SOL     OW11234   3.510   3.003   0.426  0.9431 -0.4215  0.4140
  527SOL    HW111235   3.566   3.080   0.396 -1.2238  1.2623  0.4966
  527SOL    HW211236   3.416   3.015   0.392  0.8421 -3.6981 -0.6514
  528SOL     OW11237   3.809   0.745   0.432 -0.3667  0.4435  0.0074
  528SOL    HW111238   3.769   0.800   0.359 -4.0594  0.1480  1.7167
  528SOL    HW211239   3.797   0.648   0.412 -0.7145  0.3512  0.6496
  529SOL     OW11240   4.963   3.254   1.137 -0.4504  0.5425  0.6014
  529SOL    HW111241   4.960   3.353   1.149 -1.8337  0.7293 -1.0236
  529SOL    HW211242   5.013   3.232   1.053 -1.5560 -0.0448  0.0819
  530SOL     OW11243   3.175   9.808   1.580 -0.1448 -0.1024 -0.2192
  530SOL    HW111244   3.251   9.872   1.592 -1.7103  2.1693 -2.0697
  530SOL    HW211245   3.089   9.852   1.607 -0.9891 -2.2008  0.6268
  531SOL     OW11246   2.707   9.882   1.718 -0.8270  0.3243  0.7464
  531SOL    HW111247   2.807   9.885   1.716 -0.8661  0.8670 -0.5089
  531SOL    HW211248   2.675   9.798   1.673 -0.9979  1.2560 -0.8979
  532SOL     OW11249   2.757   9.902   1.263 -0.0627  0.0525  0.2448
  532SOL    HW111250   2.830   9.840   1.293  0.3994  0.7003  0.4806
  532SOL    HW211251   2.798   9.989   1.234 -0.8961  1.0977  2.1272
  533SOL     OW11252   3.362   9.483   0.773  0.6044 -0.0991 -0.0166
  533SOL    HW111253   3.453   9.484   0.812  1.7586  1.1505 -2.6039
  533SOL    HW211254   3.367   9.457   0.676 -1.5484  1.7045 -0.6735
  534SOL     OW11255   2.622   1.839   1.959  0.2258  0.2420 -0.5520
  534SOL    HW111256   2.689   1.818   2.030  0.0042  0.7314 -0.1995
  534SOL    HW211257   2.655   1.804   1.871  0.9143  0.4244 -0.3662
  535SOL     OW11258   2.514   2.126   0.141  0.0729 -0.0665 -0.2581
  535SOL    HW111259   2.597   2.109   0.194 -0.0577  2.4326  0.8376
  535SOL    HW211260   2.499   2.225   0.132 -3.5978 -0.4099  0.9621
  536SOL     OW11261   2.921   3.177   1.162  0.2186 -0.3816 -0.6176
  536SOL    HW111262   2.998   3.181   1.226  0.8263 -0.3710 -1.3532
  536SOL    HW211263   2.860   3.254   1.180  0.9604  0.2490 -0.7711
  537SOL     OW11264   2.879   1.664   2.043  0.2679 -0.8068 -0.3607
  537SOL    HW111265   2.872   1.626   2.135 -1.9766 -1.7318 -0.8783
  537SOL    HW211266   2.899   1.762   2.049  2.9605 -1.4102  1.0266
  538SOL     OW11267   2.735   9.412   1.445  0.1192 -0.2168  0.3338
  538SOL    HW111268   2.735   9.319   1.409  0.0367 -0.4623  0.9615
  538SOL    HW211269   2.802   9.419   1.519 -0.4946 -0.0212  0.8864
  539SOL     OW11270   3.693   2.030   2.377 -0.0130  0.3244 -0.2707
  539SOL    HW111271   3.710   1.968   2.301  0.0100 -0.7779  0.6288
  539SOL    HW211272   3.704   2.125   2.346  1.7263 -0.1719 -1.2074
  540SOL     OW11273   2.899   0.137   2.568  0.3694 -0.1922 -0.4202
  540SOL    HW111274   2.915   0.046   2.531  1.6906  0.4190 -1.4168
  540SOL    HW211275   2.826   0.182   2.518  1.8776  0.4774 -2.0738
  541SOL     OW11276   3.293   1.475   1.747  0.7480 -0.7225 -0.4583
  541SOL    HW111277   3.386   1.437   1.745  1.8817  1.6892  2.3935
  541SOL    HW211278   3.231   1.408   1.788  1.6325 -1.5345 -0.4086
  542SOL     OW11279   3.231   2.413   2.027 -0.1234  0.0258 -0.8694
  542SOL    HW111280   3.142   2.432   1.986 -0.6270  0.1295  0.2527
  542SOL    HW211281   3.288   2.362   1.962 -1.6386 -1.6223 -0.9132
  543SOL     OW11282   2.413   0.162   1.082 -0.1547  0.2285  0.2151
  543SOL    HW111283   2.346   0.189   1.150 -0.5407 -0.3720  0.0837
  543SOL    HW211284   2.425   0.062   1.085  0.0114  0.2248 -0.4197
  544SOL     OW11285   3.934   3.331   2.122 -0.3978 -0.9466 -0.2951
  544SOL    HW111286   3.997   3.395   2.079 -0.6378 -0.0300  0.6808
  544SOL    HW211287   3.877   3.380   2.188 -0.1200 -2.2916  0.9820
  545SOL     OW11288   3.865   2.407   0.481 -0.1490  0.0854 -0.2000
  545SOL    HW111289   3.776   2.414   0.527  0.7775  1.4772  1.4390
  545SOL    HW211290   3.878   2.314   0.448 -1.8350 -0.3582  0.3175
  546SOL     OW11291   3.492   3.233   2.439  0.2193 -0.4233  0.8844
  546SOL    HW111292   3.554   3.223   2.361 -0.8294  3.3154 -0.5120
  546SOL    HW211293   3.536   3.289   2.510 -1.3770  2.0801 -0.0302
  547SOL     OW11294   4.123   0.735   1.356 -0.8450 -0.7846  0.0246
  547SOL    HW111295   4.055   0.804   1.380 -0.9799 -0.0385 -2.3476
  547SOL    HW211296   4.162   0.696   1.440  0.2633  3.1645  1.4892
  548SOL     OW11297   2.537   2.934   0.916 -0.3596  0.0374 -0.4019
  548SOL    HW111298   2.448   2.978   0.916 -0.5687 -0.3880 -0.5259
  548SOL    HW211299   2.539   2.863   0.846 -0.0358 -0.1815 -0.1716
  549SOL     OW11300   3.940   3.846   0.241  0.1097 -0.3101  0.1278
  549SOL    HW111301   3.887   3.774   0.195 -0.6409  0.3223 -0.0066
  549SOL    HW211302   3.951   3.923   0.178 -1.3444  0.7699  1.1612
  550SOL     OW11303   4.324   4.499   0.768  0.0199  0.0464  0.0566
  550SOL    HW111304   4.307   4.562   0.692 -0.5874 -0.2102 -0.0154
  550SOL    HW211305   4.311   4.405   0.737  1.4190 -0.1474  0.0326
  551SOL     OW11306   4.570   2.002   2.675  0.5000 -0.1464 -0.4372
  551SOL    HW111307   4.518   1.962   2.599  0.2026  0.2459 -0.4415
  551SOL    HW211308   4.640   1.937   2.705  0.1869 -0.5696 -0.6121
  552SOL     OW11309   3.212   3.662   2.431 -0.5802  0.0117  0.2021
  552SOL    HW111310   3.254   3.576   2.461 -0.1983 -0.1076 -0.6836
  552SOL    HW211311   3.257   3.695   2.348 -0.3371  1.3688  0.8462
  553SOL     OW11312   3.402   9.424   2.619 -0.4204 -0.3281 -0.4179
  553SOL    HW111313   3.495   9.440   2.653 -0.8066  1.0415 -0.0020
  553SOL    HW211314   3.407   9.388   2.526  0.4933  0.8863 -0.8491
  554SOL     OW11315   4.578   1.955   0.082  0.4090 -0.2555 -0.2647
  554SOL    HW111316   4.659   1.982   0.135 -1.3322  2.0621  1.3631
  554SOL    HW211317   4.585   1.992  -0.011  0.9622  0.4613  0.0526
  555SOL     OW11318   3.138   2.770   2.854  0.5441 -0.9380 -0.2359
  555SOL    HW111319   3.117   2.807   2.945 -1.0391 -2.3121 -0.0038
  555SOL    HW211320   3.078   2.692   2.836  0.6962 -0.5420 -2.5640
  556SOL     OW11321   4.275   3.333   1.488  0.4804  0.2233 -0.1332
  556SOL    HW111322   4.313   3.391   1.560  0.4472  0.8305 -0.5997
  556SOL    HW211323   4.278   3.238   1.517 -0.0601  0.5193  0.8979
  557SOL     OW11324   3.534   9.577   0.138  0.3002 -0.4783 -0.1622
  557SOL    HW111325   3.548   9.671   0.107 -0.6467 -0.3142 -0.1106
  557SOL    HW211326   3.453   9.573   0.196 -0.3100 -1.5221 -1.0603
  558SOL     OW11327   2.413   2.399   0.795  0.1951  1.0047 -0.6860
  558SOL    HW111328   2.360   2.420   0.877  0.7181 -0.7277  0.1242
  558SOL    HW211329   2.474   2.475   0.774  1.4107  0.7242  1.6417
  559SOL     OW11330   4.185   1.661   2.693  0.2235  0.0722 -0.0812
  559SOL    HW111331   4.275   1.692   2.723  1.0227 -1.5353 -0.7914
  559SOL    HW211332   4.126   1.741   2.677  1.3713  1.1103  0.8110
  560SOL     OW11333   2.483   0.722   2.462  0.5235  0.0136  0.0523
  560SOL    HW111334   2.576   0.748   2.437  0.2767  0.8433 -0.0110
  560SOL    HW211335   2.480   0.703   2.560  0.8076 -0.2534  0.0135
  561SOL     OW11336   3.751   0.123   1.028 -0.0739  0.7904  0.0599
  561SOL    HW111337   3.806   0.172   0.960  0.8309 -1.1227 -0.6356
  561SOL    HW211338   3.765   0.165   1.118  2.9016  0.1194 -0.0230
  562SOL     OW11339   2.792   3.445   1.169 -0.1692 -0.2638 -0.4610
  562SOL    HW111340   2.812   3.506   1.245  0.6944 -1.3342  0.1858
  562SOL    HW211341   2.816   3.489   1.082 -0.7953  0.8096 -0.0864
  563SOL     OW11342   2.789   2.696   1.242 -0.5552 -0.3227  0.1926
  563SOL    HW111343   2.865   2.632   1.248  2.0241  2.8499  3.8774
  563SOL    HW211344   2.793   2.745   1.155  1.4622 -0.3787  0.2393
  564SOL     OW11345   3.016   9.357   2.055 -0.7835 -0.6582 -0.2240
  564SOL    HW111346   3.000   9.287   2.124 -1.2541 -1.6931 -1.3798
  564SOL    HW211347   2.934   9.370   2.000 -0.5142  0.3914 -0.3899
  565SOL     OW11348   2.831   3.818   2.287  0.3631  0.2155  0.3666
  565SOL    HW111349   2.845   3.914   2.260 -1.1863  0.8542  1.7673
  565SOL    HW211350   2.855   3.759   2.210  0.0265  1.8055 -1.0060
  566SOL     OW11351   2.890   9.585   0.792  0.1398  0.0596  0.7996
  566SOL    HW111352   2.927   9.665   0.746 -1.8254  0.8477  0.5115
  566SOL    HW211353   2.873   9.607   0.888  0.6074 -0.3594  0.9802
  567SOL     OW11354   4.598   1.502   1.421 -0.1533  0.1296  0.5386
  567SOL    HW111355   4.596   1.570   1.495  0.4808  1.7725 -0.9081
  567SOL    HW211356   4.603   1.550   1.333  0.5789 -1.8124 -0.4980
  568SOL     OW11357   3.424   9.540   0.404  0.4289  0.4594 -0.1090
  568SOL    HW111358   3.422   9.441   0.416 -0.0122  0.3336 -1.2428
  568SOL    HW211359   3.343   9.581   0.445  0.5662  0.3463  0.2769
  569SOL     OW11360   3.637   0.171   0.689 -0.4151 -0.2482  0.2411
  569SOL    HW111361   3.736   0.157   0.699 -0.2751  0.0025 -0.7420
  569SOL    HW211362   3.610   0.148   0.596 -1.3422 -0.6022  0.5918
  570SOL     OW11363   2.827   2.545   1.493 -0.3608 -0.0721 -0.4604
  570SOL    HW111364   2.927   2.547   1.493 -0.3494 -0.1616  0.8914
  570SOL    HW211365   2.793   2.613   1.428  0.5720  0.9345  0.0813
  571SOL     OW11366   3.463   0.359   0.639 -0.4062 -0.2938  0.4552
  571SOL    HW111367   3.446   0.341   0.541 -1.9107  2.0954  0.2242
  571SOL    HW211368   3.524   0.289   0.675  1.1880 -0.5276 -2.4963
  572SOL     OW11369   3.399   8.849   1.109 -0.0677  0.4090 -0.0308
  572SOL    HW111370   3.304   8.878   1.096  0.3400  1.3742 -0.9900
  572SOL    HW211371   3.401   8.754   1.141 -1.3039 -0.2098 -1.7217
  573SOL     OW11372   2.970   1.690   1.238 -0.7130  0.4485  0.1543
  573SOL    HW111373   2.916   1.755   1.184 -1.6664  1.5917  2.4407
  573SOL    HW211374   2.912   1.648   1.308  0.4084 -1.3367  0.0451
  574SOL     OW11375   3.024   1.540   0.499  0.0184  0.2689  0.2579
  574SOL    HW111376   2.973   1.557   0.582  1.1547  0.9497  0.8325
  574SOL    HW211377   3.038   1.441   0.488 -0.3146  0.1640  0.7606
  575SOL     OW11378   4.416   1.913   0.511  0.1011 -0.2984 -0.3595
  575SOL    HW111379   4.367   1.829   0.533  0.6632 -0.3240  0.8299
  575SOL    HW211380   4.378   1.989   0.564  0.2671 -0.0027 -0.6593
  576SOL     OW11381   4.249   0.572   1.557 -0.1238  0.0661 -0.7988
  576SOL    HW111382   4.317   0.626   1.608 -1.0087 -0.1547  0.6395
  576SOL    HW211383   4.295   0.516   1.489  1.0784  0.4384 -0.3035
  577SOL     OW11384   4.041   0.364   0.662 -0.1333 -0.5435  0.5739
  577SOL    HW111385   4.036   0.384   0.564  1.2793 -0.3016  0.5407
  577SOL    HW211386   4.039   0.450   0.714 -2.4058 -0.7262  0.8562
  578SOL     OW11387   4.078   3.534   1.716 -0.0743 -0.0878 -0.3546
  578SOL    HW111388   4.081   3.621   1.666 -1.0472 -0.4509 -1.0707
  578SOL    HW211389   4.009   3.475   1.675 -0.4591 -0.6340  1.0458
  579SOL     OW11390   2.960   2.352   1.925  0.0426  0.1124  0.5512
  579SOL    HW111391   2.921   2.332   2.015  0.6644 -0.6200  0.6655
  579SOL    HW211392   2.887   2.377   1.862 -0.3445  1.1468  1.3919
  580SOL     OW11393   2.984   0.671   2.638 -0.2375 -0.3992 -0.3930
  580SOL    HW111394   2.919   0.740   2.670  1.0633  0.6126  0.1216
  580SOL    HW211395   3.078   0.702   2.658  0.3402 -2.5878  0.4082
  581SOL     OW11396   3.478   0.728   2.207  0.0433 -0.1944  0.0737
  581SOL    HW111397   3.380   0.734   2.185 -0.6824 -0.3686  2.9488
  581SOL    HW211398   3.532   0.737   2.124 -2.4325 -0.3106 -1.6034
  582SOL     OW11399   2.937   2.976   1.942  0.2084 -0.2432 -0.1391
  582SOL    HW111400   3.031   2.990   1.911  0.1486  1.2235  0.3236
  582SOL    HW211401   2.914   3.045   2.010 -1.2565 -0.5108 -0.3552
  583SOL     OW11402   3.440   9.313   0.542 -0.6781  0.2379 -0.3460
  583SOL    HW111403   3.459   9.257   0.462  0.3548  2.2542 -1.5376
  583SOL    HW211404   3.526   9.351   0.577 -0.9702 -1.4245  2.3484
  584SOL     OW11405   3.475   2.764   0.259 -0.1381  0.3730  0.2286
  584SOL    HW111406   3.414   2.824   0.311  0.6373 -0.0271  1.6407
  584SOL    HW211407   3.569   2.777   0.290  0.0864 -1.3113  0.3118
  585SOL     OW11408   3.086   3.830   0.177  0.6222  0.0339  0.4575
  585SOL    HW111409   3.180   3.850   0.147  0.3310 -0.0370 -0.5023
  585SOL    HW211410   3.035   3.788   0.102 -0.7945  1.9455  0.2915
  586SOL     OW11411   3.533   2.848   1.168  0.8398  0.6313 -0.1670
  586SOL    HW111412   3.601   2.878   1.235  1.0768 -0.4505  0.0931
  586SOL    HW211413   3.571   2.858   1.076  2.7966 -3.3131  0.1034
  587SOL     OW11414   4.337   2.569   0.877  0.0634  0.4896  0.3320
  587SOL    HW111415   4.296   2.563   0.786  0.8604  1.8170 -0.1333
  587SOL    HW211416   4.268   2.600   0.943 -1.0797 -2.5318  0.6208
  588SOL     OW11417   2.786   9.435   1.914 -0.3977 -0.3347  0.3835
  588SOL    HW111418   2.777   9.416   1.816 -0.4113 -0.1005  0.3386
  588SOL    HW211419   2.716   9.501   1.942 -1.2125 -1.3816  0.8235
  589SOL     OW11420   2.781   1.565   1.435 -0.9869 -0.5089  1.0543
  589SOL    HW111421   2.817   1.473   1.417  0.0725  0.1568 -0.3075
  589SOL    HW211422   2.681   1.562   1.432 -0.9752 -1.6816  1.3469
  590SOL     OW11423   3.240   3.236   0.781  0.0564 -0.0169 -0.2467
  590SOL    HW111424   3.202   3.151   0.745 -0.7220  0.2595 -0.0717
  590SOL    HW211425   3.216   3.244   0.878 -0.8798  0.9853 -0.5586
  591SOL     OW11426   3.176   3.524   0.166 -0.0075  0.4136  0.3533
  591SOL    HW111427   3.100   3.526   0.231  0.0228  0.1155  0.3970
  591SOL    HW211428   3.139   3.521   0.073 -0.0543 -0.8040  0.4031
  592SOL     OW11429   3.108   9.556   1.564 -0.4797 -0.2690  0.4183
  592SOL    HW111430   3.173   9.508   1.505  0.3225  0.9551  0.2939
  592SOL    HW211431   3.149   9.641   1.598 -1.1332 -0.6556  2.2784
  593SOL     OW11432   4.393   2.141   0.633 -0.1704 -0.0202 -0.1922
  593SOL    HW111433   4.330   2.216   0.614 -0.4356 -0.0056  0.6861
  593SOL    HW211434   4.484   2.177   0.650 -0.3789  0.1420  0.6075
  594SOL     OW11435   3.027   9.252   0.081 -0.0541 -0.0026  0.0233
  594SOL    HW111436   2.928   9.250   0.089  0.0629  0.4299  1.8388
  594SOL    HW211437   3.067   9.275   0.169  1.7358 -1.8692 -0.2522
  595SOL     OW11438   2.648   2.851   2.124 -0.3758 -0.0186  0.0479
  595SOL    HW111439   2.742   2.882   2.107 -0.7829  1.5541  0.5443
  595SOL    HW211440   2.647   2.793   2.205  0.1961 -0.1224 -0.0167
  596SOL     OW11441   3.665   2.863   0.914 -0.0435 -0.4923  0.5295
  596SOL    HW111442   3.753   2.908   0.925  0.5765 -1.6000  0.1299
  596SOL    HW211443   3.612   2.911   0.844  0.3924 -0.0464  0.5029
  597SOL     OW11444   3.128   0.371   1.537  0.2176  0.0493 -0.7850
  597SOL    HW111445   3.213   0.386   1.486 -0.0988  1.5953 -0.8873
  597SOL    HW211446   3.105   0.274   1.535  2.0025 -0.3998 -0.7098
  598SOL     OW11447   3.777   0.531   1.369  0.0222  0.1915 -0.7483
  598SOL    HW111448   3.865   0.486   1.384 -0.9180 -1.3433  0.3500
  598SOL    HW211449   3.787   0.630   1.379  1.8535  0.1274 -1.8298
  599SOL     OW11450   4.526   3.483   1.604 -0.0870 -0.5052 -0.2124
  599SOL    HW111451   4.530   3.455   1.700 -1.4741 -0.7577 -0.2178
  599SOL    HW211452   4.601   3.440   1.554  0.0354 -1.1961  0.5477
  600SOL     OW11453   3.367   9.859   0.564 -0.0818 -0.4227 -0.6169
  600SOL    HW111454   3.393   9.779   0.510  0.4477 -1.0738  0.5955
  600SOL    HW211455   3.311   9.831   0.642 -1.0351  0.5372 -0.9451
  601SOL     OW11456   3.603   1.826   1.803  0.4066 -0.1723 -1.1702
  601SOL    HW111457   3.617   1.736   1.845 -0.6388  0.0587 -0.3113
  601SOL    HW211458   3.543   1.817   1.724 -1.3108  0.0404  0.0848
  602SOL     OW11459   2.927   2.785   0.821 -0.2064  0.1487 -0.0420
  602SOL    HW111460   2.915   2.748   0.729 -0.0226  0.7086 -0.2902
  602SOL    HW211461   3.020   2.821   0.831 -0.5181  0.9346  0.0624
  603SOL     OW11462   2.781   0.163   0.491 -0.6317  0.5004  0.5731
  603SOL    HW111463   2.719   0.224   0.442 -0.5367  0.0952 -0.0510
  603SOL    HW211464   2.775   0.071   0.453  2.8250  1.1647 -1.8216
  604SOL     OW11465   2.936   3.532   1.455 -0.8267 -0.6992 -0.6004
  604SOL    HW111466   3.030   3.507   1.477 -0.4299  0.3497 -1.0686
  604SOL    HW211467   2.876   3.506   1.531 -0.0060 -0.4199  0.1552
  605SOL     OW11468   2.479   2.264   1.199  0.1096  0.2650  0.1522
  605SOL    HW111469   2.485   2.321   1.280  0.6744  0.8227 -0.2786
  605SOL    HW211470   2.469   2.168   1.226  1.4417  0.3251  0.8814
  606SOL     OW11471   4.148   3.608   0.871 -0.0844  0.4567  0.3793
  606SOL    HW111472   4.214   3.544   0.830  0.2916  0.9164  0.2539
  606SOL    HW211473   4.055   3.582   0.845  0.1064  0.3263 -0.1854
  607SOL     OW11474   4.187   0.644   0.360  0.2153  0.1914 -0.4492
  607SOL    HW111475   4.141   0.695   0.433 -0.0402 -0.8116  0.0995
  607SOL    HW211476   4.279   0.682   0.346 -0.5214  1.7800 -1.0968
  608SOL     OW11477   4.042   1.881   2.842  0.5549  0.5561  0.2300
  608SOL    HW111478   4.072   1.928   2.925  0.6814  1.3889 -0.2829
  608SOL    HW211479   3.958   1.924   2.808  0.8181  0.5841 -0.3884
  609SOL     OW11480   3.628   9.792   1.891 -0.7194 -0.4364  0.7261
  609SOL    HW111481   3.618   9.693   1.879 -0.3436 -0.6404  2.0666
  609SOL    HW211482   3.539   9.832   1.911 -0.6855 -0.6728  1.3650
  610SOL     OW11483   2.763   2.110   0.279 -0.3597  0.1510 -0.3374
  610SOL    HW111484   2.788   2.043   0.348 -1.7434 -0.5611 -0.5202
  610SOL    HW211485   2.756   2.201   0.321 -0.0447 -0.0865  0.2209
  611SOL     OW11486   4.192   4.308   1.406 -0.3869  0.1914  0.1454
  611SOL    HW111487   4.282   4.306   1.447  0.5932  2.0619 -1.8004
  611SOL    HW211488   4.158   4.215   1.395  2.3110 -0.6943 -1.1965
  612SOL     OW11489   8.543   9.814   1.184 -0.1669 -0.9293 -0.2062
  612SOL    HW111490   8.503   9.896   1.226  0.4669 -0.9074  0.3704
  612SOL    HW211491   8.483   9.780   1.112 -1.9080 -1.6991  1.5539
  613SOL     OW11492   2.956   3.637   2.152  0.4482  0.4714  0.7003
  613SOL    HW111493   2.988   3.573   2.222 -0.2392 -0.0240  0.5747
  613SOL    HW211494   2.967   3.596   2.061  2.5093  1.6219  0.4206
  614SOL     OW11495   2.940   0.114   2.853  0.4995 -0.3449 -0.1348
  614SOL    HW111496   2.935   0.128   2.754  0.0521  1.9344  0.1782
  614SOL    HW211497   3.014   0.170   2.890  1.4719 -2.1470  0.6679
  615SOL     OW11498   3.884   1.913   0.543  0.5183 -0.5643 -0.0878
  615SOL    HW111499   3.820   1.898   0.468  2.5098 -0.4939 -1.8674
  615SOL    HW211500   3.975   1.880   0.516  1.5595  0.6358  1.8278
  616SOL     OW11501   2.105   0.632   2.302  0.2965 -0.2415  0.3853
  616SOL    HW111502   2.170   0.666   2.370  0.3561 -0.2870  0.3513
  616SOL    HW211503   2.057   0.552   2.337 -0.1710  0.1435  0.6424
  617SOL     OW11504   2.797   2.406   0.064 -0.1957  0.0796  0.4209
  617SOL    HW111505   2.749   2.349   0.131 -0.0943  0.4382  0.8010
  617SOL    HW211506   2.777   2.373  -0.029  0.3272 -0.9282  0.6630
  618SOL     OW11507   2.919   1.993   2.049  0.2240  0.2038  0.3235
  618SOL    HW111508   2.946   2.039   2.133 -0.6074  1.9962 -0.3587
  618SOL    HW211509   2.845   2.044   2.005  0.0317 -1.1968 -1.0256
  619SOL     OW11510   3.255   0.750   2.763  0.1022 -0.2633  0.4272
  619SOL    HW111511   3.300   0.801   2.690 -0.0128 -0.8474 -0.0591
  619SOL    HW211512   3.316   0.743   2.842  1.1696 -1.6790 -0.4906
  620SOL     OW11513   2.634   0.319   0.343 -0.7483  0.1879 -0.3282
  620SOL    HW111514   2.694   0.393   0.313 -0.8602  0.3079 -0.2560
  620SOL    HW211515   2.541   0.335   0.309 -0.9655  0.5298  0.4026
  621SOL     OW11516   2.670   3.365   0.720 -0.6604 -0.3821  0.3302
  621SOL    HW111517   2.587   3.419   0.704  0.4437  1.0066 -0.8629
  621SOL    HW211518   2.710   3.390   0.808  0.6525  1.8717 -0.8693
  622SOL     OW11519   3.084   3.355   1.012  0.0628 -0.2798 -0.0971
  622SOL    HW111520   3.007   3.304   1.051  1.0811 -0.9787  1.0419
  622SOL    HW211521   3.112   3.426   1.076  0.8764 -0.5436 -0.1549
  623SOL     OW11522   2.655   1.422   0.058  0.2826  0.3431 -0.0599
  623SOL    HW111523   2.661   1.365   0.139  0.2461 -0.4902 -0.6411
  623SOL    HW211524   2.560   1.432   0.030  0.3084  0.4896 -0.0966
  624SOL     OW11525   3.375   1.201   0.008  0.1476  0.0129  0.2686
  624SOL    HW111526   3.336   1.274   0.064  0.0996 -0.4462  0.8299
  624SOL    HW211527   3.419   1.241  -0.073 -2.1671  0.5022 -0.7933
  625SOL     OW11528   3.212   3.024   1.491  0.6057  0.7406  0.3817
  625SOL    HW111529   3.138   2.973   1.448  0.0655  0.0031  2.1239
  625SOL    HW211530   3.269   2.961   1.545  1.4795  1.5638  0.4392
  626SOL     OW11531   4.018   1.253   2.701  0.5854 -0.1744 -0.2829
  626SOL    HW111532   4.068   1.300   2.774  0.0830 -0.7858  0.4623
  626SOL    HW211533   4.007   1.315   2.623  1.5812  0.3110 -0.0463
  627SOL     OW11534   2.359   0.728   1.746 -0.1286  0.1811  0.6921
  627SOL    HW111535   2.432   0.659   1.745 -0.9670 -0.7460  1.9354
  627SOL    HW211536   2.281   0.692   1.797 -2.0062  0.6008 -1.8194
  628SOL     OW11537   2.932   1.525   2.571 -0.1975  0.6367  0.1845
  628SOL    HW111538   2.850   1.582   2.578 -0.5731  0.2061 -0.7301
  628SOL    HW211539   2.938   1.466   2.651  0.5026  2.3578  1.4455
  629SOL     OW11540   2.279   0.368   1.917 -0.2475 -0.0956 -0.5822
  629SOL    HW111541   2.187   0.341   1.890 -0.0871 -0.3553 -0.8857
  629SOL    HW211542   2.275   0.447   1.978 -0.5710  0.9974 -2.0043
  630SOL     OW11543   3.763   4.630   0.440  0.2475 -0.3245 -0.4189
  630SOL    HW111544   3.798   4.540   0.414  1.4379 -0.0479  0.1967
  630SOL    HW211545   3.680   4.620   0.494  0.4569 -1.0674 -0.2376
  631SOL     OW11546   4.074   0.987   0.115  0.2580  0.1083  0.1019
  631SOL    HW111547   4.022   1.020   0.036 -0.0270  0.5269  0.4629
  631SOL    HW211548   4.052   0.891   0.131 -0.4168  0.2842  0.2583
  632SOL     OW11549   3.807   2.926   2.471  0.3348 -0.4149  0.3740
  632SOL    HW111550   3.717   2.915   2.430  0.1391  0.0798  0.6623
  632SOL    HW211551   3.799   2.920   2.571  0.8219 -1.7444  0.3471
  633SOL     OW11552   2.855   9.991   2.304 -0.3472 -0.5491 -0.3620
  633SOL    HW111553   2.826   9.955   2.216  0.3880 -2.3172  0.0997
  633SOL    HW211554   2.905   9.920   2.354  0.4766  0.8936  0.8788
  634SOL     OW11555   3.765   3.960   2.159  0.3004  0.2371  0.1154
  634SOL    HW111556   3.784   3.866   2.130 -0.1769  0.5214 -1.1554
  634SOL    HW211557   3.766   4.020   2.079 -3.4759  0.6812  0.3255
  635SOL     OW11558   3.859   0.679   1.684 -0.2736 -0.4861  0.2503
  635SOL    HW111559   3.861   0.638   1.776  0.8726  0.6080  0.7227
  635SOL    HW211560   3.952   0.698   1.654 -0.7947  1.9904  0.1444
  636SOL     OW11561   3.738   1.971   2.861  0.0703 -0.0882 -0.4572
  636SOL    HW111562   3.735   1.871   2.865  0.7896 -0.1019 -0.2047
  636SOL    HW211563   3.705   2.001   2.771  0.5112 -0.5886 -0.7916
  637SOL     OW11564   2.623   0.425   2.156 -0.0437 -0.1802  0.3129
  637SOL    HW111565   2.706   0.479   2.168  0.6576 -1.0189 -0.6393
  637SOL    HW211566   2.632   0.368   2.074 -2.1038  0.7281 -0.6032
  638SOL     OW11567   4.584   3.875   1.266  0.1043 -0.3079 -0.6445
  638SOL    HW111568   4.592   3.935   1.187  1.7722 -0.5915 -0.7063
  638SOL    HW211569   4.615   3.783   1.241  0.9348 -0.3241  0.4107
  639SOL     OW11570   3.747   1.271   2.461  0.2988  0.2272 -0.3798
  639SOL    HW111571   3.703   1.356   2.432  0.1504  0.7995  1.4797
  639SOL    HW211572   3.821   1.249   2.397  1.0795  2.3708 -0.2518
  640SOL     OW11573   4.293   3.379   0.468  0.0576  0.6927 -0.3797
  640SOL    HW111574   4.353   3.301   0.487  0.6366  0.6539 -2.1971
  640SOL    HW211575   4.347   3.454   0.430 -0.8551  1.0703 -0.9670
  641SOL     OW11576   2.595   0.548   1.677  0.3337 -0.0469  0.1243
  641SOL    HW111577   2.567   0.609   1.602  0.2793  0.0876  0.2547
  641SOL    HW211578   2.673   0.494   1.648  0.2020 -0.1211 -0.0948
  642SOL     OW11579   3.619   2.664   2.428  0.3125  0.2376 -0.1098
  642SOL    HW111580   3.668   2.618   2.354 -1.8411 -1.6418 -0.4316
  642SOL    HW211581   3.666   2.649   2.515  0.5886 -1.0578 -0.4823
  643SOL     OW11582   2.919   2.026   0.776 -0.0202  0.2772 -0.5381
  643SOL    HW111583   2.989   1.979   0.831  0.7898  1.5306 -0.4957
  643SOL    HW211584   2.919   1.989   0.683  0.2893 -0.1339 -0.3746
  644SOL     OW11585   3.007   2.532   2.805  0.1435  0.1770  0.2944
  644SOL    HW111586   2.920   2.570   2.772  0.7886  1.1361 -0.3086
  644SOL    HW211587   2.988   2.451   2.860 -1.0269 -0.9982 -1.7481
  645SOL     OW11588   4.029   9.882   1.279  0.3142  0.1199 -0.6894
  645SOL    HW111589   4.072   9.972   1.274 -0.1327  0.1905 -3.9139
  645SOL    HW211590   4.074   9.820   1.216  0.2899 -1.8225  1.1527
  646SOL     OW11591   2.971   2.217   2.242 -0.3126 -0.0588 -0.0335
  646SOL    HW111592   3.041   2.287   2.251 -0.9445  0.4543  0.8542
  646SOL    HW211593   2.882   2.260   2.224 -0.8911 -0.5743  1.5760
  647SOL     OW11594   3.070   2.889   0.243  0.3096  0.0780  0.5068
  647SOL    HW111595   2.990   2.941   0.213 -0.0506 -0.4988  0.4392
  647SOL    HW211596   3.127   2.945   0.303  0.1161  0.6617  0.1488
  648SOL     OW11597   4.264   4.406   1.019  0.9063 -0.4842  0.1472
  648SOL    HW111598   4.227   4.474   1.083  1.3443 -0.7621  0.7020
  648SOL    HW211599   4.301   4.452   0.939 -0.6683 -0.2033 -0.4239
  649SOL     OW11600   4.122   4.662   0.635  0.3193 -0.0996  0.2035
  649SOL    HW111601   4.081   4.644   0.725  1.8871 -0.1415  0.9300
  649SOL    HW211602   4.065   4.622   0.564 -1.1941  0.3275  1.1439
  650SOL     OW11603   2.960   0.632   0.420 -0.4428  0.3357 -0.5678
  650SOL    HW111604   3.035   0.671   0.365  0.6913 -0.2920  0.4979
  650SOL    HW211605   2.999   0.583   0.498 -2.0437  2.5621  1.7084
  651SOL     OW11606   4.011   1.454   2.406  0.2764  0.0427 -0.0433
  651SOL    HW111607   3.984   1.549   2.389  0.7523  0.2531  0.3380
  651SOL    HW211608   3.959   1.393   2.347 -1.0598  0.4304  0.7095
  652SOL     OW11609   4.270   9.822   0.990 -0.0567  1.2189  0.1112
  652SOL    HW111610   4.298   9.916   0.973 -0.5726  0.9985 -2.0824
  652SOL    HW211611   4.202   9.794   0.922  0.9135 -1.0791  0.0280
  653SOL     OW11612   3.112   9.948   1.305  0.2561 -0.0521  0.8231
  653SOL    HW111613   3.082   9.859   1.339  0.6449 -1.0015 -1.2501
  653SOL    HW211614   3.209   9.960   1.324 -0.1132  0.5779  2.4076
  654SOL     OW11615   3.516   1.283   2.645  0.4767 -0.0990 -0.2467
  654SOL    HW111616   3.603   1.270   2.597  0.7222  0.3788  0.0708
  654SOL    HW211617   3.444   1.300   2.578  0.4092 -1.6493 -0.5842
  655SOL     OW11618   2.443   1.951   2.167  0.1364 -0.1179  0.0033
  655SOL    HW111619   2.404   1.860   2.175  0.3063 -0.1840  0.0901
  655SOL    HW211620   2.525   1.947   2.110  0.6624 -0.1788  0.7534
  656SOL     OW11621   3.541   0.946   0.196  0.6834  0.2952 -0.5273
  656SOL    HW111622   3.558   0.907   0.287  1.6927 -0.8705 -1.2045
  656SOL    HW211623   3.577   1.039   0.192 -0.3801  0.7761  0.6190
  657SOL     OW11624   4.119   0.407   1.734 -0.3449  0.7110  0.0968
  657SOL    HW111625   4.019   0.410   1.737 -0.2993  3.1327  0.1669
  657SOL    HW211626   4.151   0.460   1.655  0.9295  0.7223  0.6190
  658SOL     OW11627   3.424   0.411   0.263 -0.4433 -0.2874  0.0924
  658SOL    HW111628   3.337   0.366   0.281 -1.0683  1.5957  1.9121
  658SOL    HW211629   3.408   0.496   0.213  0.5038 -0.6873 -0.9214
  659SOL     OW11630   2.973   9.818   0.659 -0.6427 -0.2883 -0.0505
  659SOL    HW111631   2.950   9.899   0.712 -2.1590  0.3822 -1.6637
  659SOL    HW211632   3.072   9.803   0.662 -0.2340  2.1322 -0.4199
  660SOL     OW11633   4.269   2.141   1.210 -0.2405  0.3539 -0.4466
  660SOL    HW111634   4.330   2.211   1.247 -0.9457  1.5070 -1.4306
  660SOL    HW211635   4.291   2.126   1.114 -1.2094  0.4596 -0.6869
  661SOL     OW11636   2.884   1.546   2.294 -0.1150 -0.4382 -0.0658
  661SOL    HW111637   2.901   1.543   2.393 -1.2381 -0.1548  0.1470
  661SOL    HW211638   2.916   1.462   2.252  1.5856 -0.0046  0.3428
  662SOL     OW11639   2.940   0.509   0.947 -0.7975  0.8968 -0.1619
  662SOL    HW111640   2.851   0.478   0.912  1.1616 -3.9519 -1.1545
  662SOL    HW211641   2.934   0.520   1.047 -2.2044 -0.6948 -0.0349
  663SOL     OW11642   9.392   5.391   0.278  0.0181 -0.4544 -0.0953
  663SOL    HW111643   9.422   5.352   0.365  1.1434 -1.1471 -0.7635
  663SOL    HW211644   9.408   5.489   0.277 -1.7905 -0.1384  1.1913
  664SOL     OW11645   2.982   9.220   2.274  0.1441 -0.5078  0.3589
  664SOL    HW111646   3.003   9.123   2.288  1.0077 -0.2242  1.0468
  664SOL    HW211647   2.975   9.266   2.363 -1.2977 -0.1549  0.0753
  665SOL     OW11648   4.359   0.852   0.946 -0.1637 -0.1996  0.3677
  665SOL    HW111649   4.399   0.832   0.856 -1.1955 -0.9990  0.0736
  665SOL    HW211650   4.340   0.766   0.994 -0.3451  0.2074  1.0300
  666SOL     OW11651   4.065   9.566   1.085 -0.6832 -0.6672  0.1839
  666SOL    HW111652   4.125   9.541   1.161  0.4479  1.6261  0.0759
  666SOL    HW211653   4.121   9.589   1.005 -1.7711  0.0034 -0.3835
  667SOL     OW11654   4.090   2.019   1.667  0.2261  0.2203 -1.1315
  667SOL    HW111655   3.990   2.013   1.669  0.1975  0.8326 -0.0580
  667SOL    HW211656   4.119   2.072   1.588 -0.2949 -0.1069 -1.5446
  668SOL     OW11657   3.832   0.327   1.560 -0.6027  0.4042 -0.0950
  668SOL    HW111658   3.759   0.387   1.527 -1.6948 -1.4168 -1.0911
  668SOL    HW211659   3.919   0.354   1.518 -0.6807  2.5367  1.0465
  669SOL     OW11660   3.094   2.587   1.442  0.0634 -0.2630  0.1865
  669SOL    HW111661   3.089   2.686   1.431  0.2776 -0.2817 -0.0721
  669SOL    HW211662   3.138   2.547   1.362  0.4214 -0.5226  0.5131
  670SOL     OW11663   2.567   1.200   2.567  0.5454 -0.7936  0.4531
  670SOL    HW111664   2.538   1.197   2.472  0.3452 -1.3494  0.5267
  670SOL    HW211665   2.509   1.264   2.618  1.4044  0.3871 -0.0401
  671SOL     OW11666   2.454   9.887   1.584 -0.0959 -0.1073  0.1324
  671SOL    HW111667   2.475   9.985   1.576  2.2748 -0.6128 -0.1211
  671SOL    HW211668   2.484   9.854   1.674 -2.0586 -0.3515  0.7285
  672SOL     OW11669   3.287   2.550   1.173 -0.6448 -0.0563  0.4240
  672SOL    HW111670   3.362   2.553   1.107  0.8909  2.3033  2.1980
  672SOL    HW211671   3.322   2.523   1.263 -1.7151  1.9972  1.5005
  673SOL     OW11672   3.455   3.201   1.371  0.2765  0.1646  0.0175
  673SOL    HW111673   3.386   3.134   1.348  0.3790  0.2043 -0.4130
  673SOL    HW211674   3.519   3.211   1.295  2.1723 -1.6243  1.2962
  674SOL     OW11675   2.906   9.402   1.647  0.8628  0.3779  0.1328
  674SOL    HW111676   2.977   9.468   1.623 -0.1781  1.4956  0.0888
  674SOL    HW211677   2.942   9.309   1.636  1.1866  0.8371 -3.5464
  675SOL     OW11678   3.423   3.684   0.171  0.2664  0.8822  0.1034
  675SOL    HW111679   3.468   3.640   0.093 -2.7811  2.5140 -2.7006
  675SOL    HW211680   3.359   3.620   0.213 -0.0483  0.8107 -0.4690
  676SOL     OW11681   3.357   3.286   2.179  0.2606  0.0605 -0.2632
  676SOL    HW111682   3.408   3.200   2.169  0.3417  0.4390 -3.5831
  676SOL    HW211683   3.419   3.356   2.215  0.5716 -0.8531  1.0723
  677SOL     OW11684   3.805   2.772   0.388  0.2702 -0.3013  0.2438
  677SOL    HW111685   3.825   2.686   0.342  2.1761  0.1330  0.2241
  677SOL    HW211686   3.851   2.774   0.477  0.5734  0.8422  0.0741
  678SOL     OW11687   3.539   0.836   1.287 -0.7232  0.0475  0.7023
  678SOL    HW111688   3.534   0.935   1.301 -0.3140  0.0355  0.9427
  678SOL    HW211689   3.509   0.813   1.195  0.2054  0.5019  0.2773
  679SOL     OW11690   2.467   7.073   1.569  0.1553 -0.8535  0.6019
  679SOL    HW111691   2.497   7.157   1.525 -0.7608 -1.9824 -2.3519
  679SOL    HW211692   2.426   7.093   1.658 -0.7795  1.8928 -0.4148
  680SOL     OW11693   3.513   3.458   1.463 -0.6250  0.0861  0.4811
  680SOL    HW111694   3.590   3.462   1.400 -1.4211  0.9317 -0.4597
  680SOL    HW211695   3.472   3.367   1.461  0.1072 -0.2534  0.7080
  681SOL     OW11696   2.861   1.903   0.508  0.4196 -0.1174  0.4205
  681SOL    HW111697   2.787   1.851   0.466 -0.2890  0.0969  1.3963
  681SOL    HW211698   2.945   1.848   0.508 -0.7734 -2.0001  3.1390
  682SOL     OW11699   3.636   9.545   2.711  1.1597  0.3916  0.4856
  682SOL    HW111700   3.661   9.642   2.715  0.2188  0.6254  0.8203
  682SOL    HW211701   3.689   9.494   2.778  1.3827  0.7323  0.5712
  683SOL     OW11702   3.911   3.031   0.949 -0.4868 -0.1445 -0.9726
  683SOL    HW111703   3.894   3.106   1.013  1.5714  0.4156 -1.0605
  683SOL    HW211704   4.009   3.013   0.944 -0.9110 -2.4980 -1.3582
  684SOL     OW11705   3.638   9.471   0.876  0.1214 -0.0832  0.3166
  684SOL    HW111706   3.703   9.547   0.874  0.5899 -0.4873 -0.2684
  684SOL    HW211707   3.633   9.433   0.969  1.2197 -0.4657  0.2263
  685SOL     OW11708   4.116   2.786   1.598 -0.5164  0.3968 -0.0049
  685SOL    HW111709   4.145   2.719   1.530 -2.1085 -0.3507  0.0146
  685SOL    HW211710   4.179   2.784   1.676  0.0021 -0.4021 -0.4379
  686SOL     OW11711   4.091   3.286   2.460 -0.1187  0.6765 -0.2658
  686SOL    HW111712   4.065   3.206   2.514 -0.5267  2.4006  2.1943
  686SOL    HW211713   4.008   3.331   2.426  0.0972  0.2350 -1.3931
  687SOL     OW11714   2.628   1.790   0.392 -0.2967  0.2075 -0.1386
  687SOL    HW111715   2.629   1.757   0.297 -2.8000  0.1297 -0.1569
  687SOL    HW211716   2.660   1.717   0.452 -0.1623 -0.2564 -0.7613
  688SOL     OW11717   3.965   1.028   2.512  0.3548 -0.1517 -0.4039
  688SOL    HW111718   4.010   0.947   2.475 -0.1538  0.2610 -1.9594
  688SOL    HW211719   4.012   1.057   2.595  1.2947 -1.3049 -0.5157
  689SOL     OW11720   2.961   9.620   0.440  0.0091 -0.4955 -0.3354
  689SOL    HW111721   2.940   9.685   0.514 -1.0072  0.4969 -1.4793
  689SOL    HW211722   2.876   9.590   0.397  0.5362 -1.9050 -0.4145
  690SOL     OW11723   3.124   0.707   0.189 -0.0966 -0.0008  0.1298
  690SOL    HW111724   3.070   0.646   0.132 -0.2669  0.0073  0.2833
  690SOL    HW211725   3.119   0.801   0.153 -0.0626 -0.0263  0.0582
  691SOL     OW11726   2.268   1.949   0.977 -0.0143 -0.1958  0.1452
  691SOL    HW111727   2.306   1.893   1.051  0.5118 -0.9292 -0.6645
  691SOL    HW211728   2.319   2.034   0.969  0.5819 -0.5689 -0.0322
  692SOL     OW11729   4.463   2.418   0.154  0.4118 -0.6510 -0.2690
  692SOL    HW111730   4.554   2.405   0.193 -0.5216 -0.8135  1.9673
  692SOL    HW211731   4.442   2.344   0.090  1.5668 -0.9937 -0.2572
  693SOL     OW11732   4.062   1.578   1.947  0.0560  0.3783 -0.8724
  693SOL    HW111733   4.158   1.588   1.973  0.4059 -2.4224 -0.9565
  693SOL    HW211734   4.047   1.618   1.857  1.4910 -0.5134 -1.5264
  694SOL     OW11735   3.991   9.761   1.524 -0.5243 -0.2191 -0.4829
  694SOL    HW111736   3.919   9.785   1.588  0.3857 -1.0598  0.8846
  694SOL    HW211737   3.981   9.814   1.440 -0.9083  1.9185  0.8901
  695SOL     OW11738   3.104   2.601   1.742  0.0293  0.0306 -0.1490
  695SOL    HW111739   3.160   2.617   1.661  1.2393 -1.2751  0.4044
  695SOL    HW211740   3.048   2.682   1.760  1.3531  1.1750 -1.0225
  696SOL     OW11741   3.883   3.755   1.812  0.0659 -0.0184 -0.2175
  696SOL    HW111742   3.798   3.807   1.812  1.0931  1.6987  0.1402
  696SOL    HW211743   3.902   3.722   1.719 -1.2231 -0.8322 -0.2023
  697SOL     OW11744   3.971   3.074   2.238  0.9854  0.6333  0.5844
  697SOL    HW111745   3.917   3.051   2.319  0.9786  1.7301  0.8997
  697SOL    HW211746   3.960   3.171   2.217  1.4444  0.4778 -0.3921
  698SOL     OW11747   2.993   2.099   0.100 -0.2664  0.4034  0.3180
  698SOL    HW111748   2.910   2.084   0.154  0.3104 -0.1999  1.0558
  698SOL    HW211749   2.972   2.085   0.003 -1.6608  2.9858  0.2088
  699SOL     OW11750   3.517   1.503   1.540 -0.3333  0.5999  0.3267
  699SOL    HW111751   3.437   1.560   1.556 -0.8336  0.1328 -0.4862
  699SOL    HW211752   3.530   1.490   1.442 -0.0771 -0.4620  0.4916
  700SOL     OW11753   3.178   0.932   1.595 -0.0145  0.7835 -0.3081
  700SOL    HW111754   3.256   0.871   1.583 -0.8968 -0.5775  0.7491
  700SOL    HW211755   3.117   0.895   1.664 -0.5985  2.8521  0.3246
  701SOL     OW11756   3.488   1.094   1.350  0.7182  0.9740 -0.3992
  701SOL    HW111757   3.404   1.096   1.405  1.5239  1.3721  0.8452
  701SOL    HW211758   3.517   1.188   1.330 -0.9935  0.8610 -3.7834
  702SOL     OW11759   2.717   0.394   0.832 -0.4925 -0.2249 -0.3353
  702SOL    HW111760   2.698   0.352   0.921  1.0796  1.3713  0.7528
  702SOL    HW211761   2.671   0.340   0.761 -2.2390 -1.1893  1.4650
  703SOL     OW11762   3.594   3.269   1.154 -0.3689  0.0240  0.0054
  703SOL    HW111763   3.589   3.369   1.161  1.5943  0.0355  1.4632
  703SOL    HW211764   3.665   3.243   1.089 -0.3589 -0.4465  0.1991
  704SOL     OW11765   3.763   1.335   1.511 -0.3107 -0.5049 -0.1307
  704SOL    HW111766   3.698   1.344   1.436 -0.1826  2.0976 -0.0065
  704SOL    HW211767   3.714   1.314   1.596 -0.9198  0.4307 -0.2346
  705SOL     OW11768   4.111   0.810   1.655 -0.0003 -0.1696 -0.0008
  705SOL    HW111769   4.042   0.882   1.661  1.7230  1.3489  2.3610
  705SOL    HW211770   4.201   0.851   1.641  0.8596 -1.9583  0.1356
  706SOL     OW11771   2.879   3.118   0.263  0.6491  0.1641 -0.0080
  706SOL    HW111772   2.848   3.206   0.297 -2.9703 -1.1162  0.1671
  706SOL    HW211773   2.864   3.048   0.333  0.2044 -1.2031 -1.4535
  707SOL     OW11774   2.748   1.852   1.086  0.0295  0.5290  0.1569
  707SOL    HW111775   2.685   1.900   1.024  0.5000  0.7492 -0.1514
  707SOL    HW211776   2.699   1.777   1.130 -0.3220  0.3916 -0.4531
  10.00000  10.00000   2.87000
