chitosan Film  in water:acetic acid 2%
54082
    1CHTO  H203    1   5.912   6.530   5.116
    1CHTO   O82    2   5.936   6.449   5.076
    1CHTO  C123    3   6.058   6.466   5.002
    1CHTO  H227    4   6.138   6.498   5.071
    1CHTO   O77    5   6.085   6.332   4.952
    1CHTO  C118    6   6.209   6.316   4.880
    1CHTO  H222    7   6.294   6.346   4.943
    1CHTO  C125    8   6.220   6.163   4.846
    1CHTO   O84    9   6.348   6.127   4.793
    1CHTO  H205   10   6.360   6.165   4.709
    1CHTO  C114   11   6.204   6.405   4.753
    1CHTO  H218   12   6.123   6.370   4.690
    1CHTO  C116   13   6.174   6.554   4.790
    1CHTO  H220   14   6.262   6.596   4.844
    1CHTO   O79   15   6.161   6.629   4.668
    1CHTO  H201   16   6.151   6.720   4.687
    1CHTO  C120   17   6.044   6.565   4.880
    1CHTO  H224   18   5.959   6.534   4.815
    1CHTO   N21   19   6.018   6.705   4.924
    1CHTO  H211   20   6.053   6.775   4.850
    1CHTO  H212   21   5.912   6.718   4.942
    1CHTO   O75   22   6.330   6.387   4.687
    1CHTO  C112   23   6.317   6.391   4.523
    1CHTO  H216   24   6.250   6.474   4.494
    1CHTO   O73   25   6.265   6.264   4.480
    1CHTO  C113   26   6.236   6.259   4.340
    1CHTO  H217   27   6.168   6.342   4.312
    1CHTO  C124   28   6.162   6.128   4.312
    1CHTO   O83   29   6.043   6.113   4.390
    1CHTO  H204   30   6.002   6.031   4.370
    1CHTO  C109   31   6.369   6.270   4.260
    1CHTO  H213   32   6.430   6.182   4.286
    1CHTO  C110   33   6.445   6.401   4.300
    1CHTO  H214   34   6.390   6.486   4.260
    1CHTO   O78   35   6.574   6.401   4.237
    1CHTO  H200   36   6.626   6.328   4.267
    1CHTO  C111   37   6.457   6.414   4.455
    1CHTO  H215   38   6.525   6.335   4.492
    1CHTO   N19   39   6.515   6.544   4.499
    1CHTO  H207   40   6.454   6.626   4.464
    1CHTO  H208   41   6.615   6.555   4.461
    1CHTO   O74   42   6.346   6.270   4.115
    1CHTO  C115   43   6.378   6.129   4.042
    1CHTO  H219   44   6.392   6.048   4.114
    1CHTO   O76   45   6.256   6.081   3.953
    1CHTO  C122   46   6.256   6.140   3.822
    1CHTO  H226   47   6.256   6.248   3.835
    1CHTO  C126   48   6.120   6.106   3.750
    1CHTO   O85   49   6.099   5.965   3.733
    1CHTO  H206   50   6.018   5.951   3.688
    1CHTO  C121   51   6.382   6.094   3.738
    1CHTO  H225   52   6.354   6.006   3.676
    1CHTO   O81   53   6.417   6.199   3.646
    1CHTO  H202   54   6.445   6.276   3.693
    1CHTO  C119   55   6.503   6.055   3.829
    1CHTO  H223   56   6.481   5.954   3.864
    1CHTO  C117   57   6.511   6.145   3.958
    1CHTO  H221   58   6.521   6.252   3.940
    1CHTO   N20   59   6.631   6.109   4.041
    1CHTO  H209   60   6.637   6.174   4.127
    1CHTO  H210   61   6.624   6.006   4.073
    1CHTO   O80   62   6.637   6.032   3.744
    1CHTO  C103   63   6.687   5.885   3.714
    1CHTO  H190   64   6.714   5.835   3.807
    1CHTO  C101   65   6.589   5.792   3.631
    1CHTO  H188   66   6.550   5.849   3.547
    1CHTO   O68   67   6.468   5.750   3.723
    1CHTO  H168   68   6.499   5.698   3.795
    1CHTO   C99   69   6.666   5.664   3.574
    1CHTO  H186   70   6.701   5.602   3.660
    1CHTO   N17   71   6.581   5.575   3.488
    1CHTO  H174   72   6.494   5.542   3.544
    1CHTO  H175   73   6.551   5.627   3.399
    1CHTO   C97   74   6.794   5.710   3.500
    1CHTO  H184   75   6.764   5.770   3.413
    1CHTO   O64   76   6.877   5.784   3.591
    1CHTO  C104   77   6.821   5.909   3.633
    1CHTO  H191   78   6.800   5.974   3.548
    1CHTO  C108   79   6.925   5.982   3.719
    1CHTO   O71   80   7.041   6.017   3.642
    1CHTO  H171   81   7.103   6.061   3.697
    1CHTO   O62   82   6.879   5.600   3.457
    1CHTO   C91   83   6.981   5.635   3.362
    1CHTO  H178   84   6.993   5.743   3.362
    1CHTO   C92   85   6.933   5.597   3.217
    1CHTO  H179   86   6.832   5.636   3.200
    1CHTO   O66   87   7.017   5.666   3.124
    1CHTO  H166   88   6.984   5.656   3.036
    1CHTO   C93   89   6.943   5.442   3.187
    1CHTO  H180   90   6.944   5.432   3.078
    1CHTO   N16   91   6.825   5.364   3.230
    1CHTO  H172   92   6.851   5.291   3.306
    1CHTO  H173   93   6.746   5.429   3.266
    1CHTO   C94   94   7.079   5.383   3.244
    1CHTO  H181   95   7.062   5.319   3.331
    1CHTO   O61   96   7.171   5.485   3.286
    1CHTO   C95   97   7.122   5.568   3.393
    1CHTO  H182   98   7.114   5.508   3.484
    1CHTO  C106   99   7.230   5.679   3.424
    1CHTO   O69  100   7.354   5.621   3.466
    1CHTO  H169  101   7.345   5.581   3.550
    1CHTO   O63  102   7.147   5.305   3.131
    1CHTO   C96  103   7.171   5.157   3.165
    1CHTO  H183  104   7.076   5.117   3.201
    1CHTO   C98  105   7.279   5.133   3.275
    1CHTO  H185  106   7.254   5.188   3.367
    1CHTO   O67  107   7.273   4.994   3.310
    1CHTO  H167  108   7.330   4.976   3.383
    1CHTO  C102  109   7.427   5.167   3.224
    1CHTO  H189  110   7.494   5.101   3.281
    1CHTO   N18  111   7.473   5.305   3.253
    1CHTO  H176  112   7.475   5.321   3.360
    1CHTO  H177  113   7.407   5.377   3.206
    1CHTO  C105  114   7.441   5.131   3.072
    1CHTO  H192  115   7.421   5.221   3.012
    1CHTO   O65  116   7.345   5.032   3.031
    1CHTO  C100  117   7.210   5.083   3.029
    1CHTO  H187  118   7.204   5.155   2.946
    1CHTO  C107  119   7.113   4.968   2.996
    1CHTO   O70  120   6.980   5.017   2.974
    1CHTO  H170  121   6.924   4.946   2.951
    1CHTO   O57  122   7.595   5.089   3.051
    1CHTO   C85  123   7.644   4.954   3.037
    1CHTO  H157  124   7.567   4.899   2.979
    1CHTO   C83  125   7.650   4.883   3.177
    1CHTO  H155  126   7.547   4.861   3.208
    1CHTO   O56  127   7.704   4.973   3.275
    1CHTO  H135  128   7.699   4.936   3.360
    1CHTO   C81  129   7.729   4.749   3.166
    1CHTO  H153  130   7.679   4.687   3.092
    1CHTO   N14  131   7.728   4.667   3.290
    1CHTO  H141  132   7.680   4.720   3.371
    1CHTO  H142  133   7.676   4.575   3.274
    1CHTO   C79  134   7.875   4.779   3.115
    1CHTO  H151  135   7.928   4.684   3.110
    1CHTO   O52  136   7.865   4.829   2.978
    1CHTO   C86  137   7.785   4.952   2.965
    1CHTO  H158  138   7.851   5.031   3.005
    1CHTO   C90  139   7.767   4.985   2.815
    1CHTO   O60  140   7.893   5.003   2.749
    1CHTO  H138  141   7.878   5.022   2.659
    1CHTO   O50  142   7.950   4.871   3.197
    1CHTO   C73  143   8.072   4.933   3.240
    1CHTO  H145  144   8.135   4.956   3.153
    1CHTO   C74  145   8.151   4.839   3.336
    1CHTO  H146  146   8.170   4.746   3.280
    1CHTO   O54  147   8.280   4.897   3.362
    1CHTO  H133  148   8.271   4.978   3.408
    1CHTO   C75  149   8.064   4.813   3.466
    1CHTO  H147  150   7.973   4.760   3.436
    1CHTO   N13  151   8.130   4.724   3.564
    1CHTO  H139  152   8.222   4.768   3.599
    1CHTO  H140  153   8.065   4.709   3.650
    1CHTO   C76  154   8.019   4.952   3.531
    1CHTO  H148  155   8.108   5.001   3.573
    1CHTO   O49  156   7.958   5.041   3.431
    1CHTO   C77  157   8.041   5.066   3.316
    1CHTO  H149  158   8.135   5.111   3.347
    1CHTO   C88  159   7.973   5.170   3.226
    1CHTO   O58  160   7.958   5.301   3.295
    1CHTO  H136  161   7.897   5.293   3.366
    1CHTO   O51  162   7.903   4.928   3.640
    1CHTO   C78  163   7.868   5.060   3.722
    1CHTO  H150  164   7.904   5.151   3.669
    1CHTO   C80  165   7.933   5.055   3.862
    1CHTO  H152  166   7.902   4.961   3.913
    1CHTO   O55  167   8.076   5.051   3.842
    1CHTO  H134  168   8.101   4.968   3.805
    1CHTO   C84  169   7.891   5.180   3.950
    1CHTO  H156  170   7.933   5.269   3.904
    1CHTO   N15  171   7.947   5.173   4.090
    1CHTO  H143  172   7.910   5.087   4.141
    1CHTO  H144  173   7.919   5.261   4.145
    1CHTO   C87  174   7.737   5.195   3.952
    1CHTO  H159  175   7.691   5.114   4.008
    1CHTO   O53  176   7.684   5.195   3.804
    1CHTO   C82  177   7.715   5.073   3.736
    1CHTO  H154  178   7.674   4.988   3.790
    1CHTO   C89  179   7.647   5.075   3.596
    1CHTO   O59  180   7.504   5.078   3.607
    1CHTO  H137  181   7.476   5.160   3.643
    1CHTO   O45  182   7.695   5.339   4.023
    1CHTO   C67  183   7.563   5.387   3.990
    1CHTO  H124  184   7.502   5.309   3.944
    1CHTO   C65  185   7.491   5.439   4.118
    1CHTO  H122  186   7.498   5.358   4.191
    1CHTO   O44  187   7.353   5.467   4.090
    1CHTO  H102  188   7.308   5.387   4.068
    1CHTO   C63  189   7.573   5.558   4.178
    1CHTO  H120  190   7.676   5.525   4.194
    1CHTO   N11  191   7.533   5.601   4.316
    1CHTO  H108  192   7.441   5.555   4.345
    1CHTO  H109  193   7.610   5.577   4.387
    1CHTO   C61  194   7.583   5.676   4.072
    1CHTO  H118  195   7.665   5.739   4.109
    1CHTO   O40  196   7.622   5.631   3.939
    1CHTO   C68  197   7.576   5.502   3.882
    1CHTO  H125  198   7.655   5.471   3.811
    1CHTO   C72  199   7.448   5.524   3.799
    1CHTO   O48  200   7.406   5.406   3.729
    1CHTO  H105  201   7.326   5.424   3.683
    1CHTO   O38  202   7.462   5.755   4.059
    1CHTO   C55  203   7.485   5.897   4.040
    1CHTO  H112  204   7.584   5.912   3.994
    1CHTO   C56  205   7.470   5.977   4.176
    1CHTO  H113  206   7.369   5.954   4.216
    1CHTO   O42  207   7.564   5.927   4.272
    1CHTO  H100  208   7.550   5.967   4.356
    1CHTO   C57  209   7.488   6.132   4.154
    1CHTO  H114  210   7.593   6.148   4.128
    1CHTO   N10  211   7.460   6.214   4.275
    1CHTO  H106  212   7.385   6.167   4.336
    1CHTO  H107  213   7.551   6.226   4.333
    1CHTO   C58  214   7.401   6.181   4.036
    1CHTO  H115  215   7.293   6.183   4.067
    1CHTO   O37  216   7.415   6.098   3.919
    1CHTO   C59  217   7.384   5.959   3.938
    1CHTO  H116  218   7.282   5.948   3.974
    1CHTO   C70  219   7.392   5.890   3.800
    1CHTO   O46  220   7.520   5.900   3.737
    1CHTO  H103  221   7.537   5.989   3.713
    1CHTO   O39  222   7.449   6.329   3.989
    1CHTO   C60  223   7.344   6.409   3.932
    1CHTO  H117  224   7.268   6.344   3.888
    1CHTO   C62  225   7.276   6.498   4.040
    1CHTO  H119  226   7.232   6.428   4.115
    1CHTO   O43  227   7.376   6.578   4.107
    1CHTO  H101  228   7.415   6.638   4.047
    1CHTO   C66  229   7.158   6.584   3.973
    1CHTO  H123  230   7.087   6.516   3.928
    1CHTO   N12  231   7.081   6.664   4.071
    1CHTO  H110  232   7.034   6.599   4.143
    1CHTO  H111  233   7.146   6.735   4.120
    1CHTO   C69  234   7.216   6.671   3.857
    1CHTO  H126  235   7.287   6.746   3.897
    1CHTO   O41  236   7.290   6.578   3.756
    1CHTO   C64  237   7.400   6.496   3.816
    1CHTO  H121  238   7.479   6.564   3.857
    1CHTO   C71  239   7.463   6.409   3.705
    1CHTO   O47  240   7.525   6.491   3.606
    1CHTO  H104  241   7.563   6.436   3.539
    1CHTO   O34  242   7.101   6.747   3.780
    1CHTO   C49  243   7.115   6.839   3.658
    1CHTO   H91  244   7.203   6.901   3.675
    1CHTO   C47  245   6.989   6.927   3.649
    1CHTO   H89  246   7.007   7.001   3.568
    1CHTO   O33  247   6.974   6.998   3.773
    1CHTO   H70  248   7.043   7.060   3.784
    1CHTO   C45  249   6.863   6.834   3.611
    1CHTO   H87  250   6.855   6.754   3.686
    1CHTO    N8  251   6.735   6.910   3.612
    1CHTO   H75  252   6.736   6.985   3.534
    1CHTO   H76  253   6.652   6.842   3.596
    1CHTO   C43  254   6.891   6.760   3.471
    1CHTO   H85  255   6.807   6.692   3.455
    1CHTO   O29  256   7.017   6.689   3.477
    1CHTO   C50  257   7.133   6.758   3.526
    1CHTO   H92  258   7.210   6.682   3.545
    1CHTO   C54  259   7.199   6.846   3.416
    1CHTO   O36  260   7.243   6.766   3.305
    1CHTO   H72  261   7.283   6.822   3.240
    1CHTO   O27  262   6.889   6.849   3.358
    1CHTO   C37  263   6.910   6.856   3.216
    1CHTO   H79  264   7.015   6.881   3.194
    1CHTO   C38  265   6.880   6.720   3.146
    1CHTO   H80  266   6.779   6.687   3.177
    1CHTO   O31  267   6.976   6.623   3.193
    1CHTO   H68  268   6.961   6.604   3.284
    1CHTO   C39  269   6.886   6.730   2.989
    1CHTO   H81  270   6.991   6.741   2.962
    1CHTO    N7  271   6.836   6.604   2.922
    1CHTO   H73  272   6.913   6.563   2.858
    1CHTO   H74  273   6.746   6.622   2.866
    1CHTO   C40  274   6.810   6.859   2.935
    1CHTO   H82  275   6.703   6.840   2.938
    1CHTO   O26  276   6.847   6.975   3.011
    1CHTO   C41  277   6.819   6.965   3.154
    1CHTO   H83  278   6.713   6.939   3.170
    1CHTO   C52  279   6.844   7.103   3.219
    1CHTO   O35  280   6.753   7.209   3.165
    1CHTO   H71  281   6.665   7.191   3.192
    1CHTO   O28  282   6.840   6.887   2.796
    1CHTO   C42  283   6.967   6.939   2.743
    1CHTO   H84  284   7.042   6.915   2.818
    1CHTO   C44  285   6.975   7.094   2.719
    1CHTO   H86  286   6.900   7.121   2.645
    1CHTO   O32  287   6.942   7.163   2.840
    1CHTO   H69  288   7.005   7.144   2.907
    1CHTO   C48  289   7.117   7.139   2.663
    1CHTO   H90  290   7.189   7.128   2.744
    1CHTO    N9  291   7.119   7.285   2.626
    1CHTO   H77  292   7.196   7.336   2.680
    1CHTO   H78  293   7.133   7.298   2.519
    1CHTO   C51  294   7.164   7.046   2.544
    1CHTO   H93  295   7.105   7.071   2.455
    1CHTO   O30  296   7.149   6.908   2.580
    1CHTO   C46  297   7.011   6.869   2.611
    1CHTO   H88  298   6.946   6.902   2.530
    1CHTO   C53  299   7.007   6.715   2.619
    1CHTO   O72  300   7.034   6.656   2.491
    1CHTO  H199  301   7.030   6.562   2.498
    1CHTO   O22  302   7.305   7.056   2.518
    1CHTO   C31  303   7.363   7.133   2.406
    1CHTO   H59  304   7.285   7.206   2.374
    1CHTO   C29  305   7.487   7.214   2.449
    1CHTO   H57  306   7.560   7.141   2.489
    1CHTO   O21  307   7.451   7.299   2.559
    1CHTO   H37  308   7.527   7.338   2.596
    1CHTO   C27  309   7.554   7.294   2.330
    1CHTO   H55  310   7.485   7.374   2.300
    1CHTO    N5  311   7.684   7.354   2.368
    1CHTO   H43  312   7.756   7.277   2.391
    1CHTO   H44  313   7.721   7.417   2.287
    1CHTO   C25  314   7.569   7.200   2.204
    1CHTO   H53  315   7.645   7.123   2.224
    1CHTO   O17  316   7.442   7.134   2.175
    1CHTO   C32  317   7.397   7.047   2.279
    1CHTO   H60  318   7.475   6.975   2.305
    1CHTO   C36  319   7.276   6.970   2.221
    1CHTO   O25  320   7.243   6.856   2.301
    1CHTO   H40  321   7.169   6.812   2.264
    1CHTO   O15  322   7.611   7.283   2.079
    1CHTO   C19  323   7.614   7.274   1.934
    1CHTO   H47  324   7.662   7.368   1.904
    1CHTO   C20  325   7.699   7.155   1.878
    1CHTO   H48  326   7.662   7.058   1.915
    1CHTO   O19  327   7.833   7.172   1.927
    1CHTO   H35  328   7.837   7.156   2.019
    1CHTO   C21  329   7.698   7.151   1.720
    1CHTO   H49  330   7.754   7.236   1.683
    1CHTO    N4  331   7.764   7.030   1.664
    1CHTO   H41  332   7.868   7.028   1.694
    1CHTO   H42  333   7.715   6.941   1.700
    1CHTO   C22  334   7.552   7.166   1.668
    1CHTO   H50  335   7.496   7.076   1.693
    1CHTO   O14  336   7.488   7.281   1.727
    1CHTO   C23  337   7.473   7.273   1.869
    1CHTO   H51  338   7.417   7.181   1.893
    1CHTO   C34  339   7.389   7.393   1.916
    1CHTO   O23  340   7.257   7.389   1.861
    1CHTO   H38  341   7.260   7.405   1.768
    1CHTO   O16  342   7.544   7.198   1.528
    1CHTO   C24  343   7.477   7.084   1.437
    1CHTO   H52  344   7.484   6.985   1.483
    1CHTO   C26  345   7.549   7.084   1.301
    1CHTO   H54  346   7.546   7.188   1.259
    1CHTO   O20  347   7.687   7.050   1.324
    1CHTO   H36  348   7.736   7.059   1.245
    1CHTO   C30  349   7.483   6.987   1.199
    1CHTO   H58  350   7.502   6.884   1.229
    1CHTO    N6  351   7.541   7.001   1.062
    1CHTO   H45  352   7.529   7.102   1.027
    1CHTO   H46  353   7.646   6.977   1.065
    1CHTO   C33  354   7.327   7.003   1.198
    1CHTO   H61  355   7.300   7.098   1.148
    1CHTO   O18  356   7.276   7.006   1.332
    1CHTO   C28  357   7.325   7.112   1.414
    1CHTO   H56  358   7.314   7.208   1.365
    1CHTO   C35  359   7.244   7.112   1.546
    1CHTO   O24  360   7.104   7.134   1.526
    1CHTO   H39  361   7.090   7.221   1.496
    1CHTO    O9  362   7.266   6.899   1.120
    1CHTO   C13  363   7.128   6.938   1.051
    1CHTO   H26  364   7.147   7.025   0.985
    1CHTO   C11  365   7.017   6.969   1.161
    1CHTO   H24  366   7.044   7.064   1.211
    1CHTO    O8  367   7.014   6.865   1.261
    1CHTO    H3  368   7.095   6.864   1.308
    1CHTO    C9  369   6.882   6.988   1.087
    1CHTO   H22  370   6.900   7.066   1.012
    1CHTO    N2  371   6.775   7.046   1.173
    1CHTO   H10  372   6.749   6.976   1.251
    1CHTO   H11  373   6.809   7.139   1.215
    1CHTO    C7  374   6.843   6.854   1.011
    1CHTO   H20  375   6.813   6.890   0.910
    1CHTO    O4  376   6.955   6.763   0.997
    1CHTO   C14  377   7.078   6.821   0.953
    1CHTO   H27  378   7.062   6.864   0.852
    1CHTO   C18  379   7.184   6.708   0.937
    1CHTO   O13  380   7.140   6.606   0.847
    1CHTO    H7  381   7.207   6.540   0.840
    1CHTO    O2  382   6.718   6.769   1.076
    1CHTO    C1  383   6.660   6.678   0.981
    1CHTO   H14  384   6.728   6.667   0.895
    1CHTO    C2  385   6.518   6.724   0.928
    1CHTO   H15  386   6.454   6.738   1.017
    1CHTO    O6  387   6.535   6.850   0.860
    1CHTO    H1  388   6.451   6.884   0.834
    1CHTO    C3  389   6.457   6.612   0.831
    1CHTO   H16  390   6.517   6.608   0.740
    1CHTO    N1  391   6.316   6.646   0.789
    1CHTO    H8  392   6.246   6.570   0.822
    1CHTO    H9  393   6.311   6.655   0.681
    1CHTO    C4  394   6.468   6.469   0.897
    1CHTO   H17  395   6.395   6.461   0.977
    1CHTO    O1  396   6.600   6.442   0.948
    1CHTO    C5  397   6.647   6.537   1.045
    1CHTO   H18  398   6.575   6.543   1.127
    1CHTO   C16  399   6.782   6.483   1.101
    1CHTO   O11  400   6.881   6.465   0.999
    1CHTO    H5  401   6.960   6.433   1.037
    1CHTO    O3  402   6.447   6.366   0.798
    1CHTO    C6  403   6.387   6.243   0.849
    1CHTO   H19  404   6.398   6.232   0.957
    1CHTO    C8  405   6.234   6.242   0.815
    1CHTO   H21  406   6.222   6.267   0.710
    1CHTO    O7  407   6.171   6.344   0.896
    1CHTO    H2  408   6.179   6.324   0.987
    1CHTO   C12  409   6.169   6.101   0.842
    1CHTO   H25  410   6.164   6.091   0.952
    1CHTO    N3  411   6.027   6.094   0.792
    1CHTO   H12  412   5.967   6.168   0.843
    1CHTO   H13  413   6.025   6.110   0.686
    1CHTO   C15  414   6.259   5.985   0.786
    1CHTO   H28  415   6.256   5.980   0.677
    1CHTO   O10  416   6.221   5.850   0.844
    1CHTO    H4  417   6.134   5.827   0.816
    1CHTO    O5  418   6.395   5.999   0.830
    1CHTO   C10  419   6.457   6.120   0.784
    1CHTO   H23  420   6.447   6.125   0.676
    1CHTO   C17  421   6.607   6.115   0.817
    1CHTO   O12  422   6.673   6.012   0.743
    1CHTO    H6  423   6.764   6.012   0.765
    2CHTO  H203  424   6.237   4.721   6.200
    2CHTO   O82  425   6.167   4.783   6.212
    2CHTO  C123  426   6.094   4.802   6.090
    2CHTO  H227  427   6.011   4.872   6.109
    2CHTO   O77  428   6.192   4.865   6.001
    2CHTO  C118  429   6.140   4.900   5.871
    2CHTO  H222  430   6.053   4.966   5.886
    2CHTO  C125  431   6.252   4.980   5.795
    2CHTO   O84  432   6.373   4.904   5.780
    2CHTO  H205  433   6.437   4.956   5.736
    2CHTO  C114  434   6.096   4.772   5.796
    2CHTO  H218  435   6.182   4.706   5.788
    2CHTO  C116  436   5.990   4.694   5.880
    2CHTO  H220  437   5.896   4.752   5.885
    2CHTO   O79  438   5.958   4.572   5.810
    2CHTO  H201  439   6.033   4.516   5.806
    2CHTO  C120  440   6.042   4.667   6.027
    2CHTO  H224  441   6.125   4.594   6.019
    2CHTO   N21  442   5.936   4.605   6.112
    2CHTO  H211  443   5.982   4.543   6.188
    2CHTO  H212  444   5.873   4.680   6.156
    2CHTO   O75  445   6.055   4.809   5.663
    2CHTO  C112  446   5.932   4.925   5.644
    2CHTO  H216  447   5.964   5.018   5.694
    2CHTO   O73  448   5.812   4.873   5.702
    2CHTO  C113  449   5.710   4.973   5.713
    2CHTO  H217  450   5.750   5.061   5.768
    2CHTO  C124  451   5.594   4.916   5.797
    2CHTO   O83  452   5.635   4.879   5.929
    2CHTO  H204  453   5.657   4.955   5.979
    2CHTO  C109  454   5.662   5.015   5.572
    2CHTO  H213  455   5.608   4.930   5.530
    2CHTO  C110  456   5.782   5.052   5.478
    2CHTO  H214  457   5.813   5.154   5.501
    2CHTO   O78  458   5.736   5.056   5.342
    2CHTO  H200  459   5.674   5.126   5.330
    2CHTO  C111  460   5.903   4.955   5.492
    2CHTO  H215  461   5.878   4.860   5.443
    2CHTO   N19  462   6.026   5.007   5.426
    2CHTO  H207  463   6.106   4.935   5.435
    2CHTO  H208  464   6.056   5.100   5.470
    2CHTO   O74  465   5.570   5.128   5.584
    2CHTO  C115  466   5.450   5.125   5.482
    2CHTO  H219  467   5.474   5.066   5.393
    2CHTO   O76  468   5.322   5.055   5.544
    2CHTO  C122  469   5.270   5.128   5.656
    2CHTO  H226  470   5.344   5.121   5.736
    2CHTO  C126  471   5.142   5.055   5.711
    2CHTO   O85  472   5.037   5.048   5.614
    2CHTO  H206  473   5.003   5.134   5.598
    2CHTO  C121  474   5.241   5.280   5.622
    2CHTO  H225  475   5.133   5.302   5.641
    2CHTO   O81  476   5.316   5.366   5.709
    2CHTO  H202  477   5.408   5.354   5.696
    2CHTO  C119  478   5.271   5.312   5.473
    2CHTO  H223  479   5.208   5.245   5.415
    2CHTO  C117  480   5.421   5.276   5.439
    2CHTO  H221  481   5.495   5.335   5.493
    2CHTO   N20  482   5.450   5.300   5.294
    2CHTO  H209  483   5.487   5.211   5.246
    2CHTO  H210  484   5.522   5.381   5.283
    2CHTO   O80  485   5.217   5.455   5.427
    2CHTO  C103  486   5.096   5.464   5.323
    2CHTO  H190  487   5.116   5.399   5.238
    2CHTO  C101  488   4.952   5.432   5.379
    2CHTO  H188  489   4.934   5.494   5.467
    2CHTO   O68  490   4.945   5.284   5.421
    2CHTO  H168  491   5.006   5.267   5.490
    2CHTO   C99  492   4.840   5.469   5.269
    2CHTO  H186  493   4.854   5.405   5.180
    2CHTO   N17  494   4.698   5.447   5.316
    2CHTO  H174  495   4.639   5.537   5.307
    2CHTO  H175  496   4.697   5.410   5.417
    2CHTO   C97  497   4.863   5.615   5.220
    2CHTO  H184  498   4.842   5.683   5.304
    2CHTO   O64  499   4.997   5.630   5.171
    2CHTO  C104  500   5.099   5.612   5.270
    2CHTO  H191  501   5.085   5.680   5.355
    2CHTO  C108  502   5.234   5.647   5.209
    2CHTO   O71  503   5.237   5.786   5.175
    2CHTO  H171  504   5.321   5.807   5.138
    2CHTO   O62  505   4.780   5.648   5.106
    2CHTO   C91  506   4.743   5.787   5.092
    2CHTO  H178  507   4.720   5.825   5.192
    2CHTO   C92  508   4.608   5.793   5.013
    2CHTO  H179  509   4.537   5.720   5.054
    2CHTO   O66  510   4.548   5.922   5.035
    2CHTO  H166  511   4.523   5.931   5.125
    2CHTO   C93  512   4.626   5.776   4.857
    2CHTO  H180  513   4.532   5.812   4.811
    2CHTO   N16  514   4.637   5.634   4.815
    2CHTO  H172  515   4.732   5.615   4.767
    2CHTO  H173  516   4.556   5.608   4.748
    2CHTO   C94  517   4.746   5.864   4.803
    2CHTO  H181  518   4.829   5.803   4.766
    2CHTO   O61  519   4.804   5.949   4.905
    2CHTO   C95  520   4.853   5.880   5.022
    2CHTO  H182  521   4.938   5.819   4.992
    2CHTO  C106  522   4.908   5.990   5.119
    2CHTO   O69  523   4.965   5.933   5.237
    2CHTO  H169  524   4.999   6.001   5.292
    2CHTO   O63  525   4.691   5.954   4.683
    2CHTO   C96  526   4.620   6.092   4.722
    2CHTO  H183  527   4.619   6.099   4.831
    2CHTO   C98  528   4.472   6.102   4.674
    2CHTO  H185  529   4.462   6.055   4.575
    2CHTO   O67  530   4.393   6.021   4.763
    2CHTO  H167  531   4.304   6.020   4.735
    2CHTO  C102  532   4.423   6.254   4.670
    2CHTO  H189  533   4.437   6.293   4.772
    2CHTO   N18  534   4.279   6.277   4.638
    2CHTO  H176  535   4.255   6.235   4.542
    2CHTO  H177  536   4.217   6.232   4.714
    2CHTO  C105  537   4.515   6.334   4.573
    2CHTO  H192  538   4.471   6.335   4.473
    2CHTO   O65  539   4.648   6.280   4.556
    2CHTO  C100  540   4.710   6.210   4.665
    2CHTO  H187  541   4.803   6.166   4.625
    2CHTO  C107  542   4.755   6.311   4.775
    2CHTO   O70  543   4.830   6.248   4.880
    2CHTO  H170  544   4.774   6.191   4.929
    2CHTO   O57  545   4.521   6.483   4.632
    2CHTO   C85  546   4.523   6.594   4.542
    2CHTO  H157  547   4.433   6.582   4.477
    2CHTO   C83  548   4.647   6.585   4.446
    2CHTO  H155  549   4.637   6.495   4.386
    2CHTO   O56  550   4.767   6.570   4.524
    2CHTO  H135  551   4.765   6.489   4.572
    2CHTO   C81  552   4.647   6.708   4.351
    2CHTO  H153  553   4.552   6.710   4.298
    2CHTO   N14  554   4.749   6.699   4.244
    2CHTO  H141  555   4.739   6.781   4.176
    2CHTO  H142  556   4.736   6.607   4.189
    2CHTO   C79  557   4.658   6.840   4.436
    2CHTO  H151  558   4.652   6.924   4.366
    2CHTO   O52  559   4.542   6.851   4.525
    2CHTO   C86  560   4.523   6.736   4.614
    2CHTO  H158  561   4.606   6.744   4.688
    2CHTO   C90  562   4.392   6.759   4.695
    2CHTO   O60  563   4.374   6.663   4.799
    2CHTO  H138  564   4.439   6.675   4.866
    2CHTO   O50  565   4.778   6.852   4.514
    2CHTO   C73  566   4.880   6.952   4.528
    2CHTO  H145  567   4.839   7.052   4.505
    2CHTO   C74  568   4.998   6.923   4.430
    2CHTO  H146  569   4.956   6.920   4.328
    2CHTO   O54  570   5.088   7.035   4.433
    2CHTO  H133  571   5.128   7.043   4.517
    2CHTO   C75  572   5.066   6.785   4.469
    2CHTO  H147  573   4.991   6.705   4.457
    2CHTO   N13  574   5.181   6.746   4.383
    2CHTO  H139  575   5.161   6.652   4.335
    2CHTO  H140  576   5.199   6.821   4.307
    2CHTO   C76  577   5.106   6.787   4.624
    2CHTO  H148  578   5.186   6.860   4.637
    2CHTO   O49  579   4.992   6.825   4.708
    2CHTO   C77  580   4.934   6.952   4.674
    2CHTO  H149  581   5.008   7.031   4.684
    2CHTO   C88  582   4.823   6.985   4.775
    2CHTO   O58  583   4.878   6.998   4.914
    2CHTO  H136  584   4.910   6.915   4.944
    2CHTO   O51  585   5.146   6.642   4.677
    2CHTO   C78  586   5.239   6.653   4.804
    2CHTO  H150  587   5.236   6.756   4.846
    2CHTO   C80  588   5.384   6.617   4.768
    2CHTO  H152  589   5.387   6.514   4.728
    2CHTO   O55  590   5.427   6.707   4.663
    2CHTO  H134  591   5.430   6.795   4.694
    2CHTO   C84  592   5.477   6.626   4.897
    2CHTO  H156  593   5.475   6.730   4.931
    2CHTO   N15  594   5.621   6.593   4.869
    2CHTO  H143  595   5.653   6.507   4.925
    2CHTO  H144  596   5.637   6.575   4.765
    2CHTO   C87  597   5.417   6.538   5.009
    2CHTO  H159  598   5.427   6.433   4.982
    2CHTO   O53  599   5.268   6.573   5.031
    2CHTO   C82  600   5.187   6.558   4.914
    2CHTO  H154  601   5.191   6.454   4.879
    2CHTO   C89  602   5.039   6.587   4.951
    2CHTO   O59  603   5.021   6.719   5.004
    2CHTO  H137  604   4.931   6.732   5.025
    2CHTO   O45  605   5.490   6.565   5.151
    2CHTO   C67  606   5.491   6.450   5.238
    2CHTO  H124  607   5.417   6.378   5.202
    2CHTO   C65  608   5.632   6.382   5.235
    2CHTO  H122  609   5.702   6.460   5.204
    2CHTO   O44  610   5.628   6.281   5.133
    2CHTO  H102  611   5.577   6.207   5.162
    2CHTO   C63  612   5.683   6.339   5.378
    2CHTO  H120  613   5.711   6.430   5.433
    2CHTO   N11  614   5.811   6.262   5.383
    2CHTO  H108  615   5.887   6.313   5.328
    2CHTO  H109  616   5.796   6.165   5.340
    2CHTO   C61  617   5.564   6.275   5.458
    2CHTO  H118  618   5.601   6.257   5.560
    2CHTO   O40  619   5.450   6.365   5.470
    2CHTO   C68  620   5.447   6.485   5.386
    2CHTO  H125  621   5.515   6.562   5.430
    2CHTO   C72  622   5.303   6.543   5.393
    2CHTO   O48  623   5.291   6.671   5.332
    2CHTO  H105  624   5.202   6.701   5.338
    2CHTO   O38  625   5.518   6.152   5.397
    2CHTO   C55  626   5.459   6.057   5.488
    2CHTO  H112  627   5.429   6.106   5.582
    2CHTO   C56  628   5.559   5.936   5.512
    2CHTO  H113  629   5.583   5.893   5.414
    2CHTO   O42  630   5.682   5.986   5.567
    2CHTO  H100  631   5.745   5.917   5.574
    2CHTO   C57  632   5.493   5.828   5.607
    2CHTO  H114  633   5.486   5.874   5.706
    2CHTO   N10  634   5.573   5.704   5.622
    2CHTO  H106  635   5.642   5.714   5.705
    2CHTO  H107  636   5.629   5.683   5.532
    2CHTO   C58  637   5.349   5.792   5.560
    2CHTO  H115  638   5.355   5.727   5.470
    2CHTO   O37  639   5.272   5.909   5.527
    2CHTO   C59  640   5.328   5.997   5.429
    2CHTO  H116  641   5.348   5.942   5.337
    2CHTO   C70  642   5.223   6.105   5.400
    2CHTO   O46  643   5.253   6.184   5.284
    2CHTO  H103  644   5.244   6.132   5.207
    2CHTO   O39  645   5.271   5.707   5.688
    2CHTO   C60  646   5.133   5.737   5.717
    2CHTO  H117  647   5.089   5.795   5.637
    2CHTO   C62  648   5.051   5.605   5.733
    2CHTO  H119  649   5.064   5.550   5.637
    2CHTO   O43  650   5.106   5.525   5.839
    2CHTO  H101  651   5.060   5.443   5.844
    2CHTO   C66  652   4.897   5.643   5.753
    2CHTO  H123  653   4.867   5.708   5.671
    2CHTO   N12  654   4.807   5.525   5.749
    2CHTO  H110  655   4.736   5.534   5.668
    2CHTO  H111  656   4.863   5.433   5.741
    2CHTO   C69  657   4.880   5.723   5.885
    2CHTO  H126  658   4.904   5.659   5.972
    2CHTO   O41  659   4.976   5.848   5.884
    2CHTO   C64  660   5.121   5.821   5.848
    2CHTO  H121  661   5.169   5.765   5.931
    2CHTO   C71  662   5.194   5.957   5.838
    2CHTO   O47  663   5.128   6.048   5.748
    2CHTO  H104  664   5.045   6.074   5.784
    2CHTO   O34  665   4.725   5.777   5.904
    2CHTO   C49  666   4.642   5.913   5.880
    2CHTO   H91  667   4.590   5.935   5.974
    2CHTO   C47  668   4.540   5.892   5.766
    2CHTO   H89  669   4.479   5.985   5.761
    2CHTO   O33  670   4.454   5.783   5.802
    2CHTO   H70  671   4.502   5.702   5.804
    2CHTO   C45  672   4.618   5.870   5.627
    2CHTO   H87  673   4.677   5.778   5.638
    2CHTO    N8  674   4.524   5.848   5.514
    2CHTO   H75  675   4.578   5.819   5.426
    2CHTO   H76  676   4.469   5.939   5.495
    2CHTO   C43  677   4.728   5.986   5.600
    2CHTO   H85  678   4.791   5.947   5.520
    2CHTO   O29  679   4.804   6.017   5.718
    2CHTO   C50  680   4.736   6.031   5.845
    2CHTO   H92  681   4.813   6.035   5.924
    2CHTO   C54  682   4.664   6.168   5.860
    2CHTO   O36  683   4.757   6.277   5.859
    2CHTO   H72  684   4.809   6.276   5.937
    2CHTO   O27  685   4.671   6.108   5.549
    2CHTO   C37  686   4.714   6.186   5.436
    2CHTO   H79  687   4.788   6.130   5.376
    2CHTO   C38  688   4.594   6.217   5.342
    2CHTO   H80  689   4.511   6.254   5.404
    2CHTO   O31  690   4.554   6.091   5.283
    2CHTO   H68  691   4.475   6.103   5.233
    2CHTO   C39  692   4.629   6.324   5.231
    2CHTO   H81  693   4.703   6.279   5.165
    2CHTO    N7  694   4.510   6.361   5.146
    2CHTO   H73  695   4.487   6.466   5.155
    2CHTO   H74  696   4.528   6.336   5.043
    2CHTO   C40  697   4.696   6.448   5.299
    2CHTO   H82  698   4.623   6.496   5.365
    2CHTO   O26  699   4.812   6.405   5.372
    2CHTO   C41  700   4.781   6.319   5.485
    2CHTO   H83  701   4.713   6.370   5.554
    2CHTO   C52  702   4.914   6.292   5.559
    2CHTO   O35  703   4.974   6.416   5.616
    2CHTO   H71  704   4.920   6.449   5.684
    2CHTO   O28  705   4.747   6.546   5.206
    2CHTO   C42  706   4.754   6.687   5.245
    2CHTO   H84  707   4.810   6.733   5.164
    2CHTO   C44  708   4.835   6.718   5.376
    2CHTO   H86  709   4.795   6.655   5.457
    2CHTO   O32  710   4.971   6.677   5.351
    2CHTO   H69  711   5.022   6.686   5.429
    2CHTO   C48  712   4.824   6.869   5.422
    2CHTO   H90  713   4.874   6.932   5.348
    2CHTO    N9  714   4.894   6.894   5.552
    2CHTO   H77  715   4.886   6.998   5.579
    2CHTO   H78  716   4.851   6.832   5.630
    2CHTO   C51  717   4.671   6.907   5.426
    2CHTO   H93  718   4.621   6.837   5.493
    2CHTO   O30  719   4.623   6.896   5.291
    2CHTO   C46  720   4.613   6.754   5.248
    2CHTO   H88  721   4.549   6.701   5.319
    2CHTO   C53  722   4.545   6.752   5.108
    2CHTO   O72  723   4.618   6.826   5.010
    2CHTO  H199  724   4.617   6.918   5.031
    2CHTO   O22  725   4.644   7.043   5.466
    2CHTO   C31  726   4.508   7.083   5.511
    2CHTO   H59  727   4.514   7.192   5.531
    2CHTO   C29  728   4.397   7.062   5.405
    2CHTO   H57  729   4.399   6.956   5.376
    2CHTO   O21  730   4.434   7.136   5.287
    2CHTO   H37  731   4.429   7.229   5.303
    2CHTO   C27  732   4.253   7.098   5.457
    2CHTO   H55  733   4.249   7.207   5.476
    2CHTO    N5  734   4.145   7.063   5.361
    2CHTO   H43  735   4.093   7.152   5.328
    2CHTO   H44  736   4.184   7.008   5.277
    2CHTO   C25  737   4.231   7.027   5.595
    2CHTO   H53  738   4.233   6.918   5.580
    2CHTO   O17  739   4.337   7.063   5.688
    2CHTO   C32  740   4.467   7.017   5.646
    2CHTO   H60  741   4.464   6.908   5.634
    2CHTO   C36  742   4.568   7.051   5.758
    2CHTO   O25  743   4.536   6.984   5.881
    2CHTO   H40  744   4.550   6.892   5.872
    2CHTO   O15  745   4.094   7.066   5.661
    2CHTO   C19  746   4.033   7.013   5.782
    2CHTO   H47  747   3.927   7.044   5.773
    2CHTO   C20  748   4.038   6.858   5.796
    2CHTO   H48  749   4.142   6.821   5.801
    2CHTO   O19  750   3.977   6.804   5.677
    2CHTO   H35  751   3.985   6.710   5.676
    2CHTO   C21  752   3.962   6.809   5.926
    2CHTO   H49  753   3.856   6.832   5.914
    2CHTO    N4  754   3.972   6.663   5.948
    2CHTO   H41  755   3.918   6.635   6.037
    2CHTO   H42  756   3.931   6.610   5.864
    2CHTO   C22  757   4.011   6.891   6.049
    2CHTO   H50  758   4.113   6.861   6.073
    2CHTO   O14  759   4.007   7.032   6.024
    2CHTO   C23  760   4.086   7.078   5.913
    2CHTO   H51  761   4.191   7.050   5.933
    2CHTO   C34  762   4.077   7.231   5.907
    2CHTO   O23  763   4.140   7.290   6.021
    2CHTO   H38  764   4.134   7.384   6.015
    2CHTO   O16  765   3.924   6.873   6.162
    2CHTO   C24  766   3.989   6.917   6.301
    2CHTO   H52  767   4.078   6.979   6.286
    2CHTO   C26  768   4.026   6.791   6.380
    2CHTO   H54  769   3.935   6.726   6.387
    2CHTO   O20  770   4.126   6.718   6.307
    2CHTO   H36  771   4.205   6.768   6.299
    2CHTO   C30  772   4.074   6.824   6.525
    2CHTO   H58  773   4.175   6.869   6.520
    2CHTO    N6  774   4.088   6.701   6.607
    2CHTO   H45  775   4.160   6.634   6.562
    2CHTO   H46  776   4.122   6.726   6.707
    2CHTO   C33  777   3.983   6.931   6.594
    2CHTO   H61  778   3.888   6.884   6.625
    2CHTO   O18  779   3.953   7.040   6.505
    2CHTO   C28  780   3.888   7.001   6.383
    2CHTO   H56  781   3.800   6.940   6.404
    2CHTO   C35  782   3.840   7.127   6.306
    2CHTO   O24  783   3.945   7.216   6.268
    2CHTO   H39  784   3.909   7.289   6.221
    2CHTO    O9  785   4.045   6.978   6.716
    2CHTO   C13  786   3.956   7.082   0.053
    2CHTO   H26  787   3.849   7.070   0.022
    2CHTO   C11  788   4.008   7.230   0.026
    2CHTO   H24  789   3.969   7.263   6.677
    2CHTO    O8  790   4.152   7.232   0.018
    2CHTO    H3  791   4.190   7.204   0.100
    2CHTO    C9  792   3.953   7.322   0.138
    2CHTO   H22  793   3.845   7.303   0.141
    2CHTO    N2  794   3.963   7.467   0.108
    2CHTO   H10  795   3.911   7.524   0.183
    2CHTO   H11  796   4.067   7.496   0.103
    2CHTO    C7  797   4.015   7.277   0.277
    2CHTO   H20  798   3.935   7.300   0.350
    2CHTO    O4  799   4.046   7.136   0.282
    2CHTO   C14  800   3.959   7.048   0.209
    2CHTO   H27  801   3.856   7.060   0.250
    2CHTO   C18  802   4.002   6.903   0.241
    2CHTO   O13  803   3.915   6.807   0.180
    2CHTO    H7  804   3.831   6.810   0.220
    2CHTO    O2  805   4.152   7.358   0.316
    2CHTO    C1  806   4.168   7.373   0.458
    2CHTO   H14  807   4.106   7.298   0.511
    2CHTO    C2  808   4.127   7.517   0.510
    2CHTO   H15  809   4.186   7.590   0.451
    2CHTO    O6  810   3.987   7.538   0.485
    2CHTO    H1  811   3.971   7.544   0.393
    2CHTO    C3  812   4.162   7.532   0.666
    2CHTO   H16  813   4.097   7.464   0.722
    2CHTO    N1  814   4.136   7.671   0.717
    2CHTO    H8  815   4.032   7.696   0.704
    2CHTO    H9  816   4.162   7.677   0.822
    2CHTO    C4  817   4.310   7.483   0.694
    2CHTO   H17  818   4.380   7.556   0.651
    2CHTO    O1  819   4.334   7.352   0.640
    2CHTO    C5  820   4.315   7.343   0.497
    2CHTO   H18  821   4.379   7.417   0.449
    2CHTO   C16  822   4.361   7.202   0.451
    2CHTO   O11  823   4.286   7.096   0.511
    2CHTO    H5  824   4.304   7.092   0.603
    2CHTO    O3  825   4.332   7.469   0.836
    2CHTO    C6  826   4.469   7.494   0.882
    2CHTO   H19  827   4.543   7.487   0.802
    2CHTO    C8  828   4.477   7.637   0.946
    2CHTO   H21  829   4.395   7.648   1.017
    2CHTO    O7  830   4.460   7.733   0.839
    2CHTO    H2  831   4.372   7.729   0.805
    2CHTO   C12  832   4.614   7.660   1.022
    2CHTO   H25  833   4.692   7.667   0.943
    2CHTO    N3  834   4.615   7.792   1.094
    2CHTO   H12  835   4.536   7.794   1.169
    2CHTO   H13  836   4.711   7.808   1.141
    2CHTO   C15  837   4.645   7.538   1.114
    2CHTO   H28  838   4.577   7.532   1.199
    2CHTO   O10  839   4.792   7.538   1.166
    2CHTO    H4  840   4.803   7.470   1.230
    2CHTO    O5  841   4.639   7.415   1.038
    2CHTO   C10  842   4.508   7.387   0.989
    2CHTO   H23  843   4.437   7.389   1.072
    2CHTO   C17  844   4.510   7.243   0.933
    2CHTO   O12  845   4.380   7.194   0.902
    2CHTO    H6  846   4.331   7.181   0.982
    3CHTO  H203  847   6.188   3.496   3.464
    3CHTO   O82  848   6.179   3.558   3.394
    3CHTO  C123  849   6.120   3.494   3.279
    3CHTO  H227  850   6.021   3.455   3.308
    3CHTO   O77  851   6.104   3.604   3.185
    3CHTO  C118  852   6.035   3.568   3.065
    3CHTO  H222  853   5.938   3.523   3.090
    3CHTO  C125  854   6.008   3.700   2.982
    3CHTO   O84  855   6.128   3.770   2.948
    3CHTO  H205  856   6.178   3.719   2.887
    3CHTO  C114  857   6.119   3.467   2.985
    3CHTO  H218  858   6.214   3.514   2.958
    3CHTO  C116  859   6.154   3.342   3.073
    3CHTO  H220  860   6.062   3.281   3.086
    3CHTO   O79  861   6.249   3.260   3.003
    3CHTO  H201  862   6.329   3.306   2.988
    3CHTO  C120  863   6.211   3.383   3.216
    3CHTO  H224  864   6.313   3.423   3.199
    3CHTO   N21  865   6.227   3.265   3.306
    3CHTO  H211  866   6.217   3.294   3.409
    3CHTO  H212  867   6.154   3.189   3.282
    3CHTO   O75  868   6.042   3.440   2.866
    3CHTO  C112  869   6.120   3.354   2.750
    3CHTO  H216  870   6.123   3.248   2.782
    3CHTO   O73  871   6.251   3.409   2.736
    3CHTO  C113  872   6.337   3.327   2.656
    3CHTO  H217  873   6.338   3.223   2.697
    3CHTO  C124  874   6.479   3.382   2.667
    3CHTO   O83  875   6.532   3.376   2.800
    3CHTO  H204  876   6.485   3.435   2.855
    3CHTO  C109  877   6.285   3.324   2.510
    3CHTO  H213  878   6.299   3.426   2.469
    3CHTO  C110  879   6.134   3.284   2.505
    3CHTO  H214  880   6.127   3.177   2.525
    3CHTO   O78  881   6.085   3.305   2.371
    3CHTO  H200  882   6.126   3.245   2.311
    3CHTO  C111  883   6.049   3.362   2.610
    3CHTO  H215  884   6.044   3.468   2.580
    3CHTO   N19  885   5.908   3.314   2.618
    3CHTO  H207  886   5.854   3.372   2.691
    3CHTO  H208  887   5.860   3.324   2.522
    3CHTO   O74  888   6.364   3.230   2.431
    3CHTO  C115  889   6.457   3.292   2.319
    3CHTO  H219  890   6.463   3.401   2.327
    3CHTO   O76  891   6.608   3.241   2.331
    3CHTO  C122  892   6.615   3.097   2.335
    3CHTO  H226  893   6.586   3.066   2.435
    3CHTO  C126  894   6.765   3.055   2.319
    3CHTO   O85  895   6.785   2.914   2.337
    3CHTO  H206  896   6.744   2.867   2.267
    3CHTO  C121  897   6.522   3.029   2.225
    3CHTO  H225  898   6.579   2.948   2.175
    3CHTO   O81  899   6.411   2.965   2.290
    3CHTO  H202  900   6.356   3.029   2.331
    3CHTO  C119  901   6.478   3.132   2.116
    3CHTO  H223  902   6.572   3.174   2.081
    3CHTO  C117  903   6.395   3.250   2.179
    3CHTO  H221  904   6.291   3.226   2.201
    3CHTO   N20  905   6.387   3.367   2.085
    3CHTO  H209  906   6.486   3.405   2.065
    3CHTO  H210  907   6.339   3.337   1.993
    3CHTO   O80  908   6.419   3.070   1.980
    3CHTO  C103  909   6.325   2.945   1.984
    3CHTO  H190  910   6.339   2.888   2.075
    3CHTO  C101  911   6.171   2.972   1.965
    3CHTO  H188  912   6.156   3.032   1.876
    3CHTO   O68  913   6.119   3.052   2.087
    3CHTO  H168  914   6.029   3.075   2.075
    3CHTO   C99  915   6.093   2.833   1.946
    3CHTO  H186  916   6.105   2.771   2.039
    3CHTO   N17  917   5.945   2.847   1.923
    3CHTO  H174  918   5.927   2.900   1.830
    3CHTO  H175  919   5.899   2.898   2.006
    3CHTO   C97  920   6.161   2.751   1.833
    3CHTO  H184  921   6.144   2.804   1.737
    3CHTO   O64  922   6.300   2.733   1.860
    3CHTO  C104  923   6.376   2.855   1.865
    3CHTO  H191  924   6.368   2.911   1.772
    3CHTO  C108  925   6.524   2.821   1.882
    3CHTO   O71  926   6.574   2.747   1.770
    3CHTO  H171  927   6.536   2.661   1.770
    3CHTO   O62  928   6.115   2.615   1.825
    3CHTO   C91  929   6.090   2.560   1.694
    3CHTO  H178  930   6.025   2.629   1.639
    3CHTO   C92  931   6.008   2.429   1.716
    3CHTO  H179  932   6.071   2.359   1.773
    3CHTO   O66  933   5.894   2.456   1.800
    3CHTO  H166  934   5.836   2.518   1.758
    3CHTO   C93  935   5.961   2.364   1.580
    3CHTO  H180  936   5.873   2.422   1.549
    3CHTO   N16  937   5.912   2.225   1.596
    3CHTO  H172  938   5.829   2.222   1.665
    3CHTO  H173  939   5.882   2.185   1.500
    3CHTO   C94  940   6.071   2.376   1.467
    3CHTO  H181  941   6.089   2.280   1.417
    3CHTO   O61  942   6.202   2.412   1.518
    3CHTO   C95  943   6.218   2.523   1.609
    3CHTO  H182  944   6.296   2.497   1.681
    3CHTO  C106  945   6.279   2.647   1.530
    3CHTO   O69  946   6.196   2.695   1.424
    3CHTO  H169  947   6.237   2.767   1.383
    3CHTO   O63  948   6.024   2.482   1.358
    3CHTO   C96  949   5.888   2.445   1.274
    3CHTO  H183  950   5.811   2.416   1.346
    3CHTO   C98  951   5.902   2.329   1.171
    3CHTO  H185  952   5.994   2.344   1.111
    3CHTO   O67  953   5.924   2.207   1.243
    3CHTO  H167  954   6.007   2.209   1.287
    3CHTO  C102  955   5.774   2.313   1.074
    3CHTO  H189  956   5.694   2.273   1.137
    3CHTO   N18  957   5.790   2.215   0.963
    3CHTO  H176  958   5.809   2.117   1.003
    3CHTO  H177  959   5.873   2.245   0.900
    3CHTO  C105  960   5.729   2.452   1.023
    3CHTO  H192  961   5.802   2.490   0.951
    3CHTO   O65  962   5.715   2.547   1.130
    3CHTO  C100  963   5.836   2.575   1.202
    3CHTO  H187  964   5.912   2.610   1.131
    3CHTO  C107  965   5.803   2.691   1.300
    3CHTO   O70  966   5.920   2.751   1.355
    3CHTO  H170  967   5.967   2.797   1.288
    3CHTO   O57  968   5.582   2.435   0.953
    3CHTO   C85  969   5.547   2.509   0.835
    3CHTO  H157  970   5.613   2.470   0.755
    3CHTO   C83  971   5.583   2.661   0.850
    3CHTO  H155  972   5.691   2.669   0.860
    3CHTO   O56  973   5.526   2.712   0.972
    3CHTO  H135  974   5.554   2.800   0.987
    3CHTO   C81  975   5.539   2.737   0.722
    3CHTO  H153  976   5.586   2.689   0.636
    3CHTO   N14  977   5.588   2.877   0.717
    3CHTO  H141  978   5.695   2.879   0.728
    3CHTO  H142  979   5.561   2.922   0.624
    3CHTO   C79  980   5.383   2.725   0.706
    3CHTO  H151  981   5.356   2.776   0.613
    3CHTO   O52  982   5.347   2.584   0.688
    3CHTO   C86  983   5.393   2.495   0.795
    3CHTO  H158  984   5.327   2.519   0.882
    3CHTO   C90  985   5.357   2.350   0.754
    3CHTO   O60  986   5.378   2.255   0.860
    3CHTO  H138  987   5.470   2.247   0.877
    3CHTO   O50  988   5.307   2.781   0.814
    3CHTO   C73  989   5.188   2.861   0.818
    3CHTO  H145  990   5.116   2.826   0.743
    3CHTO   C74  991   5.223   3.010   0.788
    3CHTO  H146  992   5.272   3.013   0.690
    3CHTO   O54  993   5.099   3.083   0.773
    3CHTO  H133  994   5.117   3.172   0.749
    3CHTO   C75  995   5.316   3.066   0.903
    3CHTO  H147  996   5.409   3.008   0.903
    3CHTO   N13  997   5.359   3.207   0.883
    3CHTO  H139  998   5.272   3.271   0.878
    3CHTO  H140  999   5.414   3.216   0.791
    3CHTO   C76 1000   5.246   3.043   1.044
    3CHTO  H148 1001   5.156   3.104   1.048
    3CHTO   O49 1002   5.210   2.902   1.062
    3CHTO   C77 1003   5.122   2.851   0.960
    3CHTO  H149 1004   5.029   2.907   0.960
    3CHTO   C88 1005   5.085   2.707   0.997
    3CHTO   O58 1006   4.984   2.650   0.901
    3CHTO  H136 1007   4.902   2.695   0.909
    3CHTO   O51 1008   5.348   3.075   1.165
    3CHTO   C78 1009   5.275   3.085   1.306
    3CHTO  H150 1010   5.182   3.024   1.306
    3CHTO   C80 1011   5.239   3.231   1.337
    3CHTO  H152 1012   5.331   3.293   1.329
    3CHTO   O55 1013   5.146   3.275   1.236
    3CHTO  H134 1014   5.128   3.366   1.246
    3CHTO   C84 1015   5.177   3.245   1.483
    3CHTO  H156 1016   5.082   3.193   1.484
    3CHTO   N15 1017   5.148   3.388   1.519
    3CHTO  H143 1018   5.105   3.393   1.616
    3CHTO  H144 1019   5.239   3.445   1.518
    3CHTO   C87 1020   5.270   3.178   1.586
    3CHTO  H159 1021   5.362   3.236   1.595
    3CHTO   O53 1022   5.302   3.033   1.542
    3CHTO   C82 1023   5.368   3.027   1.414
    3CHTO  H154 1024   5.462   3.082   1.418
    3CHTO   C89 1025   5.402   2.880   1.383
    3CHTO   O59 1026   5.496   2.826   1.477
    3CHTO  H137 1027   5.580   2.865   1.464
    3CHTO   O45 1028   5.198   3.170   1.732
    3CHTO   C67 1029   5.290   3.160   1.842
    3CHTO  H124 1030   5.382   3.110   1.809
    3CHTO   C65 1031   5.328   3.300   1.902
    3CHTO  H122 1032   5.302   3.374   1.826
    3CHTO   O44 1033   5.470   3.303   1.926
    3CHTO  H102 1034   5.496   3.390   1.950
    3CHTO   C63 1035   5.240   3.333   2.028
    3CHTO  H120 1036   5.135   3.321   2.001
    3CHTO   N11 1037   5.242   3.475   2.077
    3CHTO  H108 1038   5.316   3.531   2.025
    3CHTO  H109 1039   5.261   3.479   2.182
    3CHTO   C61 1040   5.272   3.224   2.139
    3CHTO  H118 1041   5.187   3.224   2.209
    3CHTO   O40 1042   5.282   3.089   2.085
    3CHTO   C68 1043   5.226   3.066   1.953
    3CHTO  H125 1044   5.117   3.085   1.958
    3CHTO   C72 1045   5.244   2.916   1.918
    3CHTO   O48 1046   5.380   2.873   1.917
    3CHTO  H105 1047   5.415   2.874   2.004
    3CHTO   O38 1048   5.396   3.249   2.209
    3CHTO   C55 1049   5.416   3.170   2.328
    3CHTO  H112 1050   5.355   3.079   2.324
    3CHTO   C56 1051   5.384   3.257   2.457
    3CHTO  H113 1052   5.448   3.347   2.453
    3CHTO   O42 1053   5.248   3.303   2.451
    3CHTO  H100 1054   5.231   3.361   2.523
    3CHTO   C57 1055   5.412   3.173   2.588
    3CHTO  H114 1056   5.336   3.096   2.593
    3CHTO   N10 1057   5.400   3.253   2.713
    3CHTO  H106 1058   5.494   3.300   2.738
    3CHTO  H107 1059   5.324   3.329   2.702
    3CHTO   C58 1060   5.551   3.104   2.580
    3CHTO  H115 1061   5.632   3.180   2.594
    3CHTO   O37 1062   5.571   3.036   2.455
    3CHTO   C59 1063   5.564   3.121   2.339
    3CHTO  H116 1064   5.633   3.205   2.350
    3CHTO   C70 1065   5.608   3.037   2.218
    3CHTO   O46 1066   5.627   3.114   2.100
    3CHTO  H103 1067   5.656   3.059   2.030
    3CHTO   O39 1068   5.564   2.988   2.694
    3CHTO   C60 1069   5.698   2.940   2.711
    3CHTO  H117 1070   5.758   2.966   2.623
    3CHTO   C62 1071   5.765   3.005   2.835
    3CHTO  H119 1072   5.760   3.114   2.819
    3CHTO   O43 1073   5.691   2.973   2.954
    3CHTO  H101 1074   5.606   3.013   2.951
    3CHTO   C66 1075   5.918   2.959   2.841
    3CHTO  H123 1076   5.967   2.990   2.748
    3CHTO   N12 1077   5.994   3.026   2.950
    3CHTO  H110 1078   5.993   3.133   2.934
    3CHTO  H111 1079   5.951   3.001   3.045
    3CHTO   C69 1080   5.930   2.804   2.849
    3CHTO  H126 1081   5.897   2.769   2.950
    3CHTO   O41 1082   5.842   2.733   2.738
    3CHTO   C64 1083   5.700   2.785   2.722
    3CHTO  H121 1084   5.641   2.755   2.811
    3CHTO   C71 1085   5.636   2.719   2.598
    3CHTO   O47 1086   5.710   2.744   2.478
    3CHTO  H104 1087   5.793   2.700   2.481
    3CHTO   O34 1088   6.079   2.761   2.828
    3CHTO   C49 1089   6.190   2.715   2.732
    3CHTO   H91 1090   6.281   2.712   2.791
    3CHTO   C47 1091   6.207   2.815   2.615
    3CHTO   H89 1092   6.300   2.785   2.562
    3CHTO   O33 1093   6.225   2.947   2.670
    3CHTO   H70 1094   6.306   2.952   2.716
    3CHTO   C45 1095   6.082   2.804   2.514
    3CHTO   H87 1096   5.990   2.822   2.571
    3CHTO    N8 1097   6.088   2.903   2.403
    3CHTO   H75 1098   6.095   3.003   2.444
    3CHTO   H76 1099   5.999   2.895   2.342
    3CHTO   C43 1100   6.070   2.653   2.460
    3CHTO   H85 1101   5.979   2.649   2.400
    3CHTO   O29 1102   6.064   2.561   2.571
    3CHTO   C50 1103   6.160   2.572   2.678
    3CHTO   H92 1104   6.118   2.515   2.762
    3CHTO   C54 1105   6.292   2.496   2.648
    3CHTO   O36 1106   6.269   2.356   2.633
    3CHTO   H72 1107   6.350   2.312   2.615
    3CHTO   O27 1108   6.177   2.617   2.371
    3CHTO   C37 1109   6.229   2.504   2.299
    3CHTO   H79 1110   6.270   2.430   2.370
    3CHTO   C38 1111   6.119   2.430   2.217
    3CHTO   H80 1112   6.072   2.503   2.148
    3CHTO   O31 1113   6.020   2.382   2.310
    3CHTO   H68 1114   5.972   2.454   2.347
    3CHTO   C39 1115   6.181   2.311   2.134
    3CHTO   H81 1116   6.217   2.237   2.207
    3CHTO    N7 1117   6.082   2.241   2.046
    3CHTO   H73 1118   6.042   2.310   1.974
    3CHTO   H74 1119   6.129   2.158   1.996
    3CHTO   C40 1120   6.308   2.359   2.052
    3CHTO   H82 1121   6.278   2.416   1.964
    3CHTO   O26 1122   6.399   2.433   2.135
    3CHTO   C41 1123   6.343   2.549   2.204
    3CHTO   H83 1124   6.303   2.620   2.130
    3CHTO   C52 1125   6.457   2.619   2.282
    3CHTO   O35 1126   6.564   2.669   2.194
    3CHTO   H71 1127   6.609   2.597   2.154
    3CHTO   O28 1128   6.389   2.246   2.012
    3CHTO   C42 1129   6.470   2.244   1.891
    3CHTO   H84 1130   6.539   2.161   1.909
    3CHTO   C44 1131   6.560   2.369   1.860
    3CHTO   H86 1132   6.495   2.456   1.848
    3CHTO   O32 1133   6.643   2.389   1.976
    3CHTO   H69 1134   6.693   2.467   1.967
    3CHTO   C48 1135   6.644   2.350   1.728
    3CHTO   H90 1136   6.713   2.267   1.745
    3CHTO    N9 1137   6.731   2.468   1.695
    3CHTO   H77 1138   6.786   2.449   1.604
    3CHTO   H78 1139   6.798   2.488   1.776
    3CHTO   C51 1140   6.547   2.311   1.610
    3CHTO   H93 1141   6.477   2.394   1.595
    3CHTO   O30 1142   6.479   2.190   1.646
    3CHTO   C46 1143   6.387   2.206   1.765
    3CHTO   H88 1144   6.314   2.284   1.744
    3CHTO   C53 1145   6.314   2.071   1.784
    3CHTO   O72 1146   6.231   2.041   1.671
    3CHTO  H199 1147   6.157   2.100   1.669
    3CHTO   O22 1148   6.615   2.280   1.486
    3CHTO   C31 1149   6.546   2.274   1.356
    3CHTO   H59 1150   6.623   2.240   1.282
    3CHTO   C29 1151   6.430   2.171   1.350
    3CHTO   H57 1152   6.356   2.198   1.427
    3CHTO   O21 1153   6.482   2.042   1.385
    3CHTO   H37 1154   6.511   2.041   1.475
    3CHTO   C27 1155   6.358   2.169   1.209
    3CHTO   H55 1156   6.430   2.132   1.134
    3CHTO    N5 1157   6.238   2.081   1.207
    3CHTO   H43 1158   6.266   1.980   1.232
    3CHTO   H44 1159   6.164   2.117   1.277
    3CHTO   C25 1160   6.322   2.316   1.168
    3CHTO   H53 1161   6.246   2.356   1.238
    3CHTO   O17 1162   6.440   2.401   1.173
    3CHTO   C32 1163   6.496   2.413   1.305
    3CHTO   H60 1164   6.420   2.450   1.373
    3CHTO   C36 1165   6.612   2.516   1.299
    3CHTO   O25 1166   6.564   2.647   1.267
    3CHTO   H40 1167   6.534   2.649   1.179
    3CHTO   O15 1168   6.265   2.322   1.024
    3CHTO   C19 1169   6.236   2.396   0.902
    3CHTO   H47 1170   6.334   2.432   0.869
    3CHTO   C20 1171   6.174   2.308   0.789
    3CHTO   H48 1172   6.079   2.262   0.821
    3CHTO   O19 1173   6.268   2.201   0.764
    3CHTO   H35 1174   6.233   2.140   0.703
    3CHTO   C21 1175   6.148   2.392   0.658
    3CHTO   H49 1176   6.244   2.421   0.616
    3CHTO    N4 1177   6.078   2.314   0.552
    3CHTO   H41 1178   5.983   2.279   0.588
    3CHTO   H42 1179   6.139   2.229   0.522
    3CHTO   C22 1180   6.073   2.523   0.693
    3CHTO   H50 1181   5.969   2.500   0.719
    3CHTO   O14 1182   6.137   2.594   0.800
    3CHTO   C23 1183   6.147   2.522   0.924
    3CHTO   H51 1184   6.045   2.496   0.955
    3CHTO   C34 1185   6.207   2.616   1.029
    3CHTO   O23 1186   6.121   2.728   1.054
    3CHTO   H38 1187   6.044   2.699   1.099
    3CHTO   O16 1188   6.079   2.616   0.583
    3CHTO   C24 1189   5.955   2.710   0.566
    3CHTO   H52 1190   5.883   2.698   0.647
    3CHTO   C26 1191   5.888   2.678   0.431
    3CHTO   H54 1192   5.968   2.672   0.353
    3CHTO   O20 1193   5.827   2.549   0.440
    3CHTO   H36 1194   5.892   2.482   0.447
    3CHTO   C30 1195   5.784   2.786   0.386
    3CHTO   H58 1196   5.693   2.777   0.447
    3CHTO    N6 1197   5.741   2.766   0.244
    3CHTO   H45 1198   5.790   2.681   0.200
    3CHTO   H46 1199   5.634   2.752   0.239
    3CHTO   C33 1200   5.838   2.931   0.409
    3CHTO   H61 1201   5.919   2.952   0.338
    3CHTO   O18 1202   5.890   2.941   0.543
    3CHTO   C28 1203   6.003   2.857   0.570
    3CHTO   H56 1204   6.080   2.871   0.495
    3CHTO   C35 1205   6.061   2.897   0.708
    3CHTO   O24 1206   5.968   2.884   0.816
    3CHTO   H39 1207   6.010   2.910   0.896
    3CHTO    O9 1208   5.737   3.032   0.385
    3CHTO   C13 1209   5.782   3.197   0.361
    3CHTO   H26 1210   5.715   3.234   0.281
    3CHTO   C11 1211   5.935   3.219   0.324
    3CHTO   H24 1212   5.954   3.167   0.229
    3CHTO    O8 1213   6.024   3.165   0.422
    3CHTO    H3 1214   6.013   3.072   0.428
    3CHTO    C9 1215   5.954   3.372   0.301
    3CHTO   H22 1216   5.878   3.400   0.226
    3CHTO    N2 1217   6.084   3.408   0.239
    3CHTO   H10 1218   6.097   3.355   0.146
    3CHTO   H11 1219   6.165   3.386   0.307
    3CHTO    C7 1220   5.923   3.448   0.435
    3CHTO   H20 1221   5.930   3.556   0.408
    3CHTO    O4 1222   5.790   3.420   0.483
    3CHTO   C14 1223   5.739   3.285   0.487
    3CHTO   H27 1224   5.629   3.295   0.484
    3CHTO   C18 1225   5.774   3.221   0.624
    3CHTO   O13 1226   5.711   3.290   0.732
    3CHTO    H7 1227   5.733   3.249   0.813
    3CHTO    O2 1228   6.032   3.413   0.553
    3CHTO    C1 1229   6.027   3.483   0.678
    3CHTO   H14 1230   5.937   3.449   0.734
    3CHTO    C2 1231   6.023   3.642   0.668
    3CHTO   H15 1232   6.096   3.669   0.590
    3CHTO    O6 1233   5.891   3.682   0.626
    3CHTO    H1 1234   5.875   3.654   0.538
    3CHTO    C3 1235   6.062   3.714   0.806
    3CHTO   H16 1236   5.980   3.698   0.878
    3CHTO    N1 1237   6.078   3.862   0.789
    3CHTO    H8 1238   6.010   3.915   0.854
    3CHTO    H9 1239   6.180   3.893   0.810
    3CHTO    C4 1240   6.188   3.644   0.869
    3CHTO   H17 1241   6.273   3.659   0.803
    3CHTO    O1 1242   6.163   3.504   0.886
    3CHTO    C5 1243   6.150   3.434   0.760
    3CHTO   H18 1244   6.239   3.452   0.700
    3CHTO   C16 1245   6.140   3.283   0.791
    3CHTO   O11 1246   6.261   3.232   0.848
    3CHTO    H5 1247   6.272   3.267   0.935
    3CHTO    O3 1248   6.217   3.693   1.002
    3CHTO    C6 1249   6.359   3.687   1.039
    3CHTO   H19 1250   6.415   3.613   0.981
    3CHTO    C8 1251   6.428   3.826   1.017
    3CHTO   H21 1252   6.368   3.902   1.066
    3CHTO    O7 1253   6.429   3.850   0.875
    3CHTO    H2 1254   6.463   3.936   0.857
    3CHTO   C12 1255   6.575   3.827   1.077
    3CHTO   H25 1256   6.635   3.758   1.014
    3CHTO    N3 1257   6.638   3.962   1.065
    3CHTO   H12 1258   6.739   3.960   1.103
    3CHTO   H13 1259   6.579   4.036   1.119
    3CHTO   C15 1260   6.573   3.771   1.224
    3CHTO   H28 1261   6.526   3.841   1.293
    3CHTO   O10 1262   6.715   3.736   1.276
    3CHTO    H4 1263   6.711   3.717   1.368
    3CHTO    O5 1264   6.508   3.644   1.231
    3CHTO   C10 1265   6.371   3.645   1.188
    3CHTO   H23 1266   6.316   3.717   1.250
    3CHTO   C17 1267   6.309   3.507   1.217
    3CHTO   O12 1268   6.380   3.402   1.151
    3CHTO    H6 1269   6.340   3.319   1.172
    4CHTO  H203 1270   6.940   7.216   2.265
    4CHTO   O82 1271   7.023   7.257   2.274
    4CHTO  C123 1272   7.012   7.398   2.247
    4CHTO  H227 1273   6.941   7.442   2.319
    4CHTO   O77 1274   7.147   7.447   2.274
    4CHTO  C118 1275   7.162   7.589   2.259
    4CHTO  H222 1276   7.090   7.642   2.324
    4CHTO  C125 1277   7.308   7.627   2.305
    4CHTO   O84 1278   7.330   7.596   2.443
    4CHTO  H205 1279   7.278   7.653   2.497
    4CHTO  C114 1280   7.137   7.628   2.112
    4CHTO  H218 1281   7.209   7.574   2.050
    4CHTO  C116 1282   6.995   7.583   2.067
    4CHTO  H220 1283   6.919   7.645   2.121
    4CHTO   O79 1284   6.981   7.613   1.927
    4CHTO  H201 1285   6.893   7.594   1.899
    4CHTO  C120 1286   6.971   7.430   2.098
    4CHTO  H224 1287   7.037   7.373   2.028
    4CHTO   N21 1288   6.831   7.388   2.070
    4CHTO  H211 1289   6.829   7.283   2.043
    4CHTO  H212 1290   6.789   7.447   1.991
    4CHTO   O75 1291   7.159   7.770   2.103
    4CHTO  C112 1292   7.260   7.810   1.978
    4CHTO  H216 1293   7.234   7.749   1.890
    4CHTO   O73 1294   7.394   7.785   2.023
    4CHTO  C113 1295   7.495   7.806   1.923
    4CHTO  H217 1296   7.473   7.741   1.835
    4CHTO  C124 1297   7.630   7.763   1.981
    4CHTO   O83 1298   7.636   7.623   2.012
    4CHTO  H204 1299   7.635   7.573   1.933
    4CHTO  C109 1300   7.497   7.955   1.880
    4CHTO  H213 1301   7.532   8.013   1.967
    4CHTO  C110 1302   7.355   8.003   1.837
    4CHTO  H214 1303   7.331   7.957   1.740
    4CHTO   O78 1304   7.358   8.145   1.814
    4CHTO  H200 1305   7.378   8.191   1.894
    4CHTO  C111 1306   7.246   7.963   1.941
    4CHTO  H215 1307   7.262   8.021   2.032
    4CHTO   N19 1308   7.107   7.991   1.895
    4CHTO  H207 1309   7.095   8.098   1.879
    4CHTO  H208 1310   7.086   7.938   1.804
    4CHTO   O74 1311   7.593   7.973   1.770
    4CHTO  C115 1312   7.684   8.102   1.784
    4CHTO  H219 1313   7.636   8.179   1.845
    4CHTO   O76 1314   7.820   8.070   1.857
    4CHTO  C122 1315   7.895   7.967   1.789
    4CHTO  H226 1316   7.845   7.872   1.809
    4CHTO  C126 1317   8.036   7.955   1.856
    4CHTO   O85 1318   8.112   8.076   1.848
    4CHTO  H206 1319   8.196   8.064   1.888
    4CHTO  C121 1320   7.907   7.990   1.632
    4CHTO  H225 1321   8.013   7.980   1.602
    4CHTO   O81 1322   7.832   7.890   1.562
    4CHTO  H202 1323   7.869   7.805   1.578
    4CHTO  C119 1324   7.857   8.132   1.592
    4CHTO  H223 1325   7.921   8.201   1.647
    4CHTO  C117 1326   7.708   8.158   1.637
    4CHTO  H221 1327   7.633   8.108   1.575
    4CHTO   N20 1328   7.675   8.304   1.627
    4CHTO  H209 1329   7.736   8.361   1.695
    4CHTO  H210 1330   7.570   8.320   1.648
    4CHTO   O80 1331   7.894   8.169   1.441
    4CHTO  C103 1332   8.004   8.280   1.410
    4CHTO  H190 1333   7.968   8.378   1.440
    4CHTO  C101 1334   8.149   8.257   1.470
    4CHTO  H188 1335   8.179   8.154   1.452
    4CHTO   O68 1336   8.146   8.282   1.625
    4CHTO  H168 1337   8.123   8.371   1.643
    4CHTO   C99 1338   8.258   8.353   1.401
    4CHTO  H186 1339   8.235   8.458   1.429
    4CHTO   N17 1340   8.399   8.326   1.446
    4CHTO  H174 1341   8.438   8.412   1.499
    4CHTO  H175 1342   8.463   8.300   1.362
    4CHTO   C97 1343   8.243   8.348   1.246
    4CHTO  H184 1344   8.275   8.248   1.212
    4CHTO   O64 1345   8.108   8.378   1.207
    4CHTO  C104 1346   8.013   8.280   1.252
    4CHTO  H191 1347   8.043   8.180   1.219
    4CHTO  C108 1348   7.878   8.308   1.185
    4CHTO   O71 1349   7.822   8.435   1.221
    4CHTO  H171 1350   7.740   8.447   1.177
    4CHTO   O62 1351   8.321   8.452   1.182
    4CHTO   C91 1352   8.380   8.418   1.055
    4CHTO  H178 1353   8.415   8.314   1.061
    4CHTO   C92 1354   8.510   8.504   1.038
    4CHTO  H179 1355   8.573   8.495   1.128
    4CHTO   O66 1356   8.588   8.448   0.931
    4CHTO  H166 1357   8.541   8.449   0.850
    4CHTO   C93 1358   8.479   8.655   1.003
    4CHTO  H180 1359   8.568   8.695   0.952
    4CHTO   N16 1360   8.461   8.742   1.122
    4CHTO  H172 1361   8.379   8.705   1.182
    4CHTO  H173 1362   8.552   8.744   1.180
    4CHTO   C94 1363   8.355   8.666   0.905
    4CHTO  H181 1364   8.263   8.693   0.957
    4CHTO   O61 1365   8.329   8.540   0.839
    4CHTO   C95 1366   8.284   8.437   0.929
    4CHTO  H182 1367   8.184   8.463   0.964
    4CHTO  C106 1368   8.269   8.304   0.847
    4CHTO   O69 1369   8.206   8.202   0.924
    4CHTO  H169 1370   8.198   8.124   0.872
    4CHTO   O63 1371   8.389   8.774   0.798
    4CHTO   C96 1372   8.271   8.812   0.705
    4CHTO  H183 1373   8.192   8.737   0.716
    4CHTO   C98 1374   8.311   8.817   0.556
    4CHTO  H185 1375   8.392   8.889   0.542
    4CHTO   O67 1376   8.366   8.689   0.521
    4CHTO  H167 1377   8.398   8.690   0.433
    4CHTO  C102 1378   8.185   8.853   0.462
    4CHTO  H189 1379   8.126   8.760   0.456
    4CHTO   N18 1380   8.220   8.887   0.322
    4CHTO  H176 1381   8.130   8.907   0.266
    4CHTO  H177 1382   8.273   8.805   0.276
    4CHTO  C105 1383   8.096   8.961   0.531
    4CHTO  H192 1384   8.068   9.038   0.458
    4CHTO   O65 1385   8.159   9.031   0.641
    4CHTO  C100 1386   8.214   8.953   0.749
    4CHTO  H187 1387   8.298   9.011   0.789
    4CHTO  C107 1388   8.110   8.939   0.863
    4CHTO   O70 1389   8.076   9.068   0.917
    4CHTO  H170 1390   8.012   9.057   0.985
    4CHTO   O57 1391   7.967   8.881   0.575
    4CHTO   C85 1392   7.839   8.919   0.521
    4CHTO  H157 1393   7.858   8.954   0.417
    4CHTO   C83 1394   7.784   9.044   0.597
    4CHTO  H155 1395   7.851   9.128   0.578
    4CHTO   O56 1396   7.790   9.020   0.739
    4CHTO  H135 1397   7.766   9.097   0.786
    4CHTO   C81 1398   7.642   9.080   0.544
    4CHTO  H153 1399   7.651   9.102   0.437
    4CHTO   N14 1400   7.588   9.206   0.602
    4CHTO  H141 1401   7.573   9.194   0.707
    4CHTO  H142 1402   7.657   9.287   0.585
    4CHTO   C79 1403   7.545   8.957   0.561
    4CHTO  H151 1404   7.451   8.984   0.513
    4CHTO   O52 1405   7.597   8.842   0.488
    4CHTO   C86 1406   7.733   8.803   0.525
    4CHTO  H158 1407   7.723   8.761   0.627
    4CHTO   C90 1408   7.779   8.685   0.435
    4CHTO   O60 1409   7.694   8.571   0.453
    4CHTO  H138 1410   7.724   8.502   0.397
    4CHTO   O50 1411   7.518   8.920   0.697
    4CHTO   C73 1412   7.433   8.862   0.797
    4CHTO  H145 1413   7.335   8.912   0.797
    4CHTO   C74 1414   7.500   8.880   0.936
    4CHTO  H146 1415   7.521   8.987   0.949
    4CHTO   O54 1416   7.403   8.846   1.037
    4CHTO  H133 1417   7.439   8.861   1.123
    4CHTO   C75 1418   7.632   8.793   0.942
    4CHTO  H147 1419   7.702   8.830   0.867
    4CHTO   N13 1420   7.704   8.803   1.072
    4CHTO  H139 1421   7.732   8.906   1.090
    4CHTO  H140 1422   7.794   8.743   1.069
    4CHTO   C76 1423   7.599   8.641   0.903
    4CHTO  H148 1424   7.530   8.602   0.978
    4CHTO   O49 1425   7.534   8.637   0.772
    4CHTO   C77 1426   7.410   8.709   0.771
    4CHTO  H149 1427   7.345   8.671   0.850
    4CHTO   C88 1428   7.334   8.682   0.641
    4CHTO   O58 1429   7.288   8.545   0.637
    4CHTO  H136 1430   7.242   8.530   0.557
    4CHTO   O51 1431   7.734   8.554   0.894
    4CHTO   C78 1432   7.734   8.424   0.802
    4CHTO  H150 1433   7.693   8.447   0.701
    4CHTO   C80 1434   7.649   8.311   0.865
    4CHTO  H152 1435   7.677   8.301   0.973
    4CHTO   O55 1436   7.510   8.351   0.860
    4CHTO  H134 1437   7.495   8.423   0.919
    4CHTO   C84 1438   7.671   8.172   0.792
    4CHTO  H156 1439   7.631   8.181   0.691
    4CHTO   N15 1440   7.597   8.059   0.858
    4CHTO  H143 1441   7.628   8.048   0.959
    4CHTO  H144 1442   7.491   8.078   0.855
    4CHTO   C87 1443   7.822   8.143   0.782
    4CHTO  H159 1444   7.865   8.132   0.882
    4CHTO   O53 1445   7.888   8.260   0.709
    4CHTO   C82 1446   7.881   8.382   0.784
    4CHTO  H154 1447   7.930   8.369   0.881
    4CHTO   C89 1448   7.962   8.488   0.706
    4CHTO   O59 1449   7.983   8.608   0.781
    4CHTO  H137 1450   8.041   8.591   0.853
    4CHTO   O45 1451   7.853   8.010   0.696
    4CHTO   C67 1452   7.992   7.975   0.687
    4CHTO  H124 1453   8.054   8.064   0.676
    4CHTO   C65 1454   8.039   7.895   0.812
    4CHTO  H122 1455   8.009   7.954   0.898
    4CHTO   O44 1456   8.182   7.881   0.812
    4CHTO  H102 1457   8.211   7.842   0.892
    4CHTO   C63 1458   7.957   7.762   0.820
    4CHTO  H120 1459   7.851   7.787   0.822
    4CHTO   N11 1460   7.970   7.686   0.949
    4CHTO  H108 1461   8.068   7.645   0.957
    4CHTO  H109 1462   7.898   7.607   0.952
    4CHTO   C61 1463   7.979   7.675   0.690
    4CHTO  H118 1464   7.893   7.606   0.689
    4CHTO   O40 1465   7.972   7.751   0.565
    4CHTO   C68 1466   8.013   7.892   0.555
    4CHTO  H125 1467   7.945   7.936   0.479
    4CHTO   C72 1468   8.156   7.903   0.498
    4CHTO   O48 1469   8.165   7.858   0.363
    4CHTO  H105 1470   8.117   7.916   0.306
    4CHTO   O38 1471   8.102   7.598   0.688
    4CHTO   C55 1472   8.092   7.474   0.613
    4CHTO  H112 1473   8.020   7.487   0.531
    4CHTO   C56 1474   8.052   7.352   0.707
    4CHTO  H113 1475   8.129   7.345   0.786
    4CHTO   O42 1476   7.928   7.378   0.774
    4CHTO  H100 1477   7.909   7.309   0.835
    4CHTO   C57 1478   8.046   7.218   0.623
    4CHTO  H114 1479   7.959   7.227   0.558
    4CHTO   N10 1480   8.023   7.096   0.706
    4CHTO  H106 1481   7.963   7.120   0.792
    4CHTO  H107 1482   8.117   7.055   0.739
    4CHTO   C58 1483   8.173   7.202   0.535
    4CHTO  H115 1484   8.260   7.177   0.601
    4CHTO   O37 1485   8.204   7.322   0.462
    4CHTO   C59 1486   8.226   7.437   0.545
    4CHTO  H116 1487   8.302   7.415   0.620
    4CHTO   C70 1488   8.279   7.551   0.457
    4CHTO   O46 1489   8.409   7.522   0.404
    4CHTO  H103 1490   8.439   7.594   0.352
    4CHTO   O39 1491   8.155   7.078   0.421
    4CHTO   C60 1492   8.055   7.093   0.319
    4CHTO  H117 1493   7.969   7.148   0.359
    4CHTO   C62 1494   8.108   7.172   0.194
    4CHTO  H119 1495   8.130   7.275   0.228
    4CHTO   O43 1496   8.230   7.110   0.147
    4CHTO  H101 1497   8.298   7.122   0.210
    4CHTO   C66 1498   7.994   7.178   0.079
    4CHTO  H123 1499   7.908   7.230   0.120
    4CHTO   N12 1500   8.035   7.256   6.709
    4CHTO  H110 1501   8.059   7.357   6.738
    4CHTO  H111 1502   7.956   7.255   6.635
    4CHTO   C69 1503   7.951   7.033   0.043
    4CHTO  H126 1504   8.040   6.977   0.006
    4CHTO   O41 1505   7.898   6.967   0.172
    4CHTO   C64 1506   8.004   6.953   0.276
    4CHTO  H121 1507   8.089   6.895   0.235
    4CHTO   C71 1508   7.945   6.874   0.395
    4CHTO   O47 1509   7.911   6.740   0.356
    4CHTO  H104 1510   7.880   6.693   0.430
    4CHTO   O34 1511   7.835   7.026   6.678
    4CHTO   C49 1512   7.834   6.885   6.599
    4CHTO   H91 1513   7.938   6.865   6.572
    4CHTO   C47 1514   7.748   6.897   6.472
    4CHTO   H89 1515   7.765   6.803   6.414
    4CHTO   O33 1516   7.798   7.008   6.395
    4CHTO   H70 1517   7.752   7.012   6.313
    4CHTO   C45 1518   7.592   6.909   6.512
    4CHTO   H87 1519   7.581   6.996   6.579
    4CHTO    N8 1520   7.504   6.929   6.394
    4CHTO   H75 1521   7.535   7.016   6.339
    4CHTO   H76 1522   7.509   6.842   6.330
    4CHTO   C43 1523   7.549   6.783   6.601
    4CHTO   H85 1524   7.447   6.803   6.635
    4CHTO   O29 1525   7.639   6.767   6.712
    4CHTO   C50 1526   7.782   6.769   6.688
    4CHTO   H92 1527   7.830   6.777   0.038
    4CHTO   C54 1528   7.834   6.632   6.638
    4CHTO   O36 1529   7.811   6.528   6.734
    4CHTO   H72 1530   7.719   6.509   6.738
    4CHTO   O27 1531   7.541   6.659   6.527
    4CHTO   C37 1532   7.489   6.545   6.458
    4CHTO   H79 1533   7.452   6.575   6.358
    4CHTO   C38 1534   7.603   6.441   6.436
    4CHTO   H80 1535   7.659   6.431   6.530
    4CHTO   O31 1536   7.690   6.496   6.336
    4CHTO   H68 1537   7.765   6.441   6.325
    4CHTO   C39 1538   7.548   6.299   6.395
    4CHTO   H81 1539   7.503   6.308   6.296
    4CHTO    N7 1540   7.658   6.196   6.385
    4CHTO   H73 1541   7.730   6.226   6.311
    4CHTO   H74 1542   7.616   6.100   6.358
    4CHTO   C40 1543   7.436   6.257   6.497
    4CHTO   H82 1544   7.480   6.253   6.596
    4CHTO   O26 1545   7.330   6.354   6.489
    4CHTO   C41 1546   7.370   6.486   6.539
    4CHTO   H83 1547   7.398   6.478   6.645
    4CHTO   C52 1548   7.247   6.579   6.531
    4CHTO   O35 1549   7.138   6.536   6.615
    4CHTO   H71 1550   7.066   6.596   6.606
    4CHTO   O28 1551   7.379   6.128   6.467
    4CHTO   C42 1552   7.295   6.052   6.561
    4CHTO   H84 1553   7.298   5.950   6.521
    4CHTO   C44 1554   7.144   6.092   6.563
    4CHTO   H86 1555   7.136   6.196   6.596
    4CHTO   O32 1556   7.096   6.083   6.427
    4CHTO   H69 1557   7.134   6.151   6.374
    4CHTO   C48 1558   7.061   6.002   6.662
    4CHTO   H90 1559   7.064   5.899   6.626
    4CHTO    N9 1560   6.915   6.039   6.666
    4CHTO   H77 1561   6.904   6.141   6.701
    4CHTO   H78 1562   6.861   5.972   6.731
    4CHTO   C51 1563   7.129   6.007   0.056
    4CHTO   H93 1564   7.127   6.111   0.089
    4CHTO   O30 1565   7.262   5.958   0.044
    4CHTO   C46 1566   7.351   6.045   6.707
    4CHTO   H88 1567   7.353   6.145   0.002
    4CHTO   C53 1568   7.493   5.983   6.711
    4CHTO   O72 1569   7.548   5.987   0.095
    4CHTO  H199 1570   7.501   5.927   0.151
    4CHTO   O22 1571   7.064   5.922   0.152
    4CHTO   C31 1572   7.104   5.915   0.294
    4CHTO   H59 1573   7.212   5.886   0.295
    4CHTO   C29 1574   7.093   6.049   0.372
    4CHTO   H57 1575   6.993   6.090   0.351
    4CHTO   O21 1576   7.189   6.142   0.320
    4CHTO   H37 1577   7.171   6.161   0.230
    4CHTO   C27 1578   7.109   6.031   0.529
    4CHTO   H55 1579   7.213   6.003   0.551
    4CHTO    N5 1580   7.078   6.157   0.603
    4CHTO   H43 1581   7.095   6.142   0.708
    4CHTO   H44 1582   7.142   6.237   0.567
    4CHTO   C25 1583   7.018   5.913   0.577
    4CHTO   H53 1584   6.913   5.937   0.553
    4CHTO   O17 1585   7.058   5.793   0.506
    4CHTO   C32 1586   7.028   5.799   0.366
    4CHTO   H60 1587   6.920   5.813   0.352
    4CHTO   C36 1588   7.066   5.662   0.303
    4CHTO   O25 1589   6.992   5.556   0.363
    4CHTO   H40 1590   7.018   5.474   0.325
    4CHTO   O15 1591   7.028   5.883   0.731
    4CHTO   C19 1592   7.124   5.858   0.837
    4CHTO   H47 1593   7.070   5.793   0.906
    4CHTO   C20 1594   7.254   5.784   0.790
    4CHTO   H48 1595   7.306   5.840   0.711
    4CHTO   O19 1596   7.213   5.657   0.736
    4CHTO   H35 1597   7.167   5.670   0.655
    4CHTO   C21 1598   7.354   5.764   0.911
    4CHTO   H49 1599   7.308   5.698   0.984
    4CHTO    N4 1600   7.482   5.700   0.870
    4CHTO   H41 1601   7.532   5.760   0.795
    4CHTO   H42 1602   7.463   5.602   0.829
    4CHTO   C22 1603   7.377   5.901   0.981
    4CHTO   H50 1604   7.425   5.968   0.910
    4CHTO   O14 1605   7.251   5.956   1.023
    4CHTO   C23 1606   7.160   5.987   0.917
    4CHTO   H51 1607   7.208   6.063   0.854
    4CHTO   C34 1608   7.035   6.051   0.978
    4CHTO   O23 1609   7.064   6.177   1.040
    4CHTO   H38 1610   7.117   6.164   1.116
    4CHTO   O16 1611   7.455   5.889   1.101
    4CHTO   C24 1612   7.512   6.030   1.153
    4CHTO   H52 1613   7.456   6.114   1.113
    4CHTO   C26 1614   7.660   6.042   1.113
    4CHTO   H54 1615   7.713   5.948   1.141
    4CHTO   O20 1616   7.665   6.054   0.969
    4CHTO   H36 1617   7.754   6.052   0.940
    4CHTO   C30 1618   7.730   6.162   1.184
    4CHTO   H58 1619   7.689   6.257   1.147
    4CHTO    N6 1620   7.876   6.165   1.154
    4CHTO   H45 1621   7.924   6.075   1.191
    4CHTO   H46 1622   7.922   6.251   1.202
    4CHTO   C33 1623   7.700   6.157   1.337
    4CHTO   H61 1624   7.743   6.065   1.380
    4CHTO   O18 1625   7.558   6.154   1.355
    4CHTO   C28 1626   7.495   6.035   1.307
    4CHTO   H56 1627   7.542   5.946   1.351
    4CHTO   C35 1628   7.346   6.037   1.347
    4CHTO   O24 1629   7.327   6.037   1.488
    4CHTO   H39 1630   7.236   6.040   1.508
    4CHTO    O9 1631   7.760   6.266   1.410
    4CHTO   C13 1632   7.785   6.232   1.570
    4CHTO   H26 1633   7.846   6.139   1.575
    4CHTO   C11 1634   7.646   6.217   1.645
    4CHTO   H24 1635   7.600   6.122   1.612
    4CHTO    O8 1636   7.559   6.325   1.608
    4CHTO    H3 1637   7.538   6.320   1.516
    4CHTO    C9 1638   7.673   6.210   1.798
    4CHTO   H22 1639   7.743   6.127   1.812
    4CHTO    N2 1640   7.552   6.169   1.875
    4CHTO   H10 1641   7.513   6.076   1.835
    4CHTO   H11 1642   7.477   6.247   1.870
    4CHTO    C7 1643   7.745   6.344   1.846
    4CHTO   H20 1644   7.829   6.306   1.909
    4CHTO    O4 1645   7.800   6.421   1.737
    4CHTO   C14 1646   7.875   6.345   1.641
    4CHTO   H27 1647   7.959   6.295   1.694
    4CHTO   C18 1648   7.938   6.444   1.540
    4CHTO   O13 1649   8.029   6.378   1.452
    4CHTO    H7 1650   8.066   6.440   1.393
    4CHTO    O2 1651   7.648   6.444   1.938
    4CHTO    C1 1652   7.696   6.473   2.070
    4CHTO   H14 1653   7.805   6.498   2.065
    4CHTO    C2 1654   7.676   6.355   2.176
    4CHTO   H15 1655   7.571   6.323   2.166
    4CHTO    O6 1656   7.763   6.246   2.142
    4CHTO    H1 1657   7.745   6.172   2.197
    4CHTO    C3 1658   7.704   6.405   2.326
    4CHTO   H16 1659   7.811   6.428   2.336
    4CHTO    N1 1660   7.671   6.300   2.429
    4CHTO    H8 1661   7.733   6.213   2.413
    4CHTO    H9 1662   7.567   6.273   2.422
    4CHTO    C4 1663   7.629   6.541   2.353
    4CHTO   H17 1664   7.521   6.523   2.352
    4CHTO    O1 1665   7.665   6.637   2.253
    4CHTO    C5 1666   7.624   6.602   2.120
    4CHTO   H18 1667   7.516   6.583   2.118
    4CHTO   C16 1668   7.654   6.723   2.028
    4CHTO   O11 1669   7.584   6.840   2.071
    4CHTO    H5 1670   7.603   6.911   2.013
    4CHTO    O3 1671   7.670   6.601   2.478
    4CHTO    C6 1672   7.574   6.697   2.534
    4CHTO   H19 1673   7.498   6.729   2.463
    4CHTO    C8 1674   7.502   6.633   2.658
    4CHTO   H21 1675   7.578   6.594   2.726
    4CHTO    O7 1676   7.420   6.525   2.609
    4CHTO    H2 1677   7.475   6.454   2.579
    4CHTO   C12 1678   7.415   6.741   2.734
    4CHTO   H25 1679   7.331   6.767   2.666
    4CHTO    N3 1680   7.353   6.684   2.859
    4CHTO   H12 1681   7.289   6.601   2.833
    4CHTO   H13 1682   7.295   6.761   2.909
    4CHTO   C15 1683   7.500   6.871   2.760
    4CHTO   H28 1684   7.577   6.853   2.835
    4CHTO   O10 1685   7.413   6.992   2.804
    4CHTO    H4 1686   7.468   7.063   2.829
    4CHTO    O5 1687   7.559   6.919   2.638
    4CHTO   C10 1688   7.650   6.825   2.579
    4CHTO   H23 1689   7.726   6.798   2.653
    4CHTO   C17 1690   7.723   6.892   2.462
    4CHTO   O12 1691   7.804   7.002   2.506
    4CHTO    H6 1692   7.877   6.969   2.555
    5CHTO  H203 1693   7.499   4.026   3.315
    5CHTO   O82 1694   7.478   3.962   3.380
    5CHTO  C123 1695   7.483   4.019   3.512
    5CHTO  H227 1696   7.576   4.079   3.521
    5CHTO   O77 1697   7.367   4.107   3.516
    5CHTO  C118 1698   7.360   4.188   3.635
    5CHTO  H222 1699   7.452   4.248   3.645
    5CHTO  C125 1700   7.238   4.286   3.619
    5CHTO   O84 1701   7.256   4.374   3.508
    5CHTO  H205 1702   7.180   4.430   3.500
    5CHTO  C114 1703   7.342   4.097   3.758
    5CHTO  H218 1704   7.246   4.046   3.750
    5CHTO  C116 1705   7.452   3.987   3.765
    5CHTO  H220 1706   7.548   4.034   3.795
    5CHTO   O79 1707   7.419   3.896   3.872
    5CHTO  H201 1708   7.339   3.850   3.852
    5CHTO  C120 1709   7.472   3.912   3.626
    5CHTO  H224 1710   7.382   3.851   3.610
    5CHTO   N21 1711   7.588   3.819   3.631
    5CHTO  H211 1712   7.632   3.808   3.532
    5CHTO  H212 1713   7.557   3.723   3.669
    5CHTO   O75 1714   7.343   4.186   3.872
    5CHTO  C112 1715   7.212   4.169   3.971
    5CHTO  H216 1716   7.185   4.062   3.976
    5CHTO   O73 1717   7.107   4.248   3.915
    5CHTO  C113 1718   6.983   4.247   3.988
    5CHTO  H217 1719   6.947   4.142   3.995
    5CHTO  C124 1720   6.879   4.327   3.908
    5CHTO   O83 1721   6.919   4.462   3.886
    5CHTO  H204 1722   6.854   4.506   3.836
    5CHTO  C109 1723   7.004   4.305   4.131
    5CHTO  H213 1724   7.036   4.409   4.118
    5CHTO  C110 1725   7.116   4.224   4.203
    5CHTO  H214 1726   7.080   4.123   4.222
    5CHTO   O78 1727   7.141   4.286   4.331
    5CHTO  H200 1728   7.202   4.234   4.381
    5CHTO  C111 1729   7.246   4.220   4.117
    5CHTO  H215 1730   7.285   4.323   4.107
    5CHTO   N19 1731   7.355   4.137   4.175
    5CHTO  H207 1732   7.443   4.198   4.192
    5CHTO  H208 1733   7.324   4.092   4.268
    5CHTO   O74 1734   6.877   4.304   4.203
    5CHTO  C115 1735   6.861   4.423   4.311
    5CHTO  H219 1736   6.934   4.415   4.391
    5CHTO   O76 1737   6.889   4.570   4.244
    5CHTO  C122 1738   6.783   4.621   4.162
    5CHTO  H226 1739   6.784   4.564   4.069
    5CHTO  C126 1740   6.817   4.769   4.122
    5CHTO   O85 1741   6.931   4.780   4.036
    5CHTO  H206 1742   7.008   4.754   4.083
    5CHTO  C121 1743   6.639   4.611   4.229
    5CHTO  H225 1744   6.594   4.713   4.233
    5CHTO   O81 1745   6.554   4.531   4.146
    5CHTO  H202 1746   6.541   4.573   4.062
    5CHTO  C119 1747   6.647   4.554   4.374
    5CHTO  H223 1748   6.716   4.621   4.426
    5CHTO  C117 1749   6.715   4.412   4.373
    5CHTO  H221 1750   6.663   4.337   4.312
    5CHTO   N20 1751   6.721   4.354   4.511
    5CHTO  H209 1752   6.621   4.346   4.552
    5CHTO  H210 1753   6.766   4.256   4.507
    5CHTO   O80 1754   6.510   4.575   4.463
    5CHTO  C103 1755   6.368   4.541   4.402
    5CHTO  H190 1756   6.365   4.561   4.295
    5CHTO  C101 1757   6.317   4.395   4.428
    5CHTO  H188 1758   6.338   4.368   4.532
    5CHTO   O68 1759   6.398   4.299   4.338
    5CHTO  H168 1760   6.376   4.210   4.358
    5CHTO   C99 1761   6.159   4.382   4.404
    5CHTO  H186 1762   6.139   4.402   4.297
    5CHTO   N17 1763   6.104   4.246   4.435
    5CHTO  H174 1764   6.155   4.171   4.376
    5CHTO  H175 1765   6.115   4.225   4.540
    5CHTO   C97 1766   6.086   4.494   4.483
    5CHTO  H184 1767   6.112   4.478   4.589
    5CHTO   O64 1768   6.135   4.621   4.435
    5CHTO  C104 1769   6.272   4.647   4.471
    5CHTO  H191 1770   6.287   4.644   4.579
    5CHTO  C108 1771   6.304   4.791   4.427
    5CHTO   O71 1772   6.427   4.840   4.481
    5CHTO  H171 1773   6.419   4.851   4.574
    5CHTO   O62 1774   5.941   4.489   4.476
    5CHTO   C91 1775   5.862   4.556   4.376
    5CHTO  H178 1776   5.894   4.660   4.374
    5CHTO   C92 1777   5.713   4.556   4.427
    5CHTO  H179 1778   5.709   4.597   4.529
    5CHTO   O66 1779   5.639   4.649   4.347
    5CHTO  H166 1780   5.668   4.736   4.362
    5CHTO   C93 1781   5.643   4.414   4.416
    5CHTO  H180 1782   5.535   4.432   4.402
    5CHTO   N16 1783   5.654   4.333   4.540
    5CHTO  H172 1784   5.610   4.387   4.623
    5CHTO  H173 1785   5.604   4.239   4.527
    5CHTO   C94 1786   5.698   4.334   4.292
    5CHTO  H181 1787   5.782   4.270   4.318
    5CHTO   O61 1788   5.746   4.425   4.191
    5CHTO   C95 1789   5.867   4.493   4.228
    5CHTO  H182 1790   5.949   4.422   4.222
    5CHTO  C106 1791   5.895   4.603   4.120
    5CHTO   O69 1792   6.020   4.668   4.143
    5CHTO  H169 1793   6.015   4.721   4.220
    5CHTO   O63 1794   5.582   4.244   4.230
    5CHTO   C96 1795   5.626   4.158   4.101
    5CHTO  H183 1796   5.691   4.221   4.040
    5CHTO   C98 1797   5.505   4.115   4.012
    5CHTO  H185 1798   5.437   4.200   3.997
    5CHTO   O67 1799   5.553   4.081   3.881
    5CHTO  H167 1800   5.586   4.157   3.837
    5CHTO  C102 1801   5.427   3.988   4.069
    5CHTO  H189 1802   5.355   3.960   3.990
    5CHTO   N18 1803   5.343   4.014   4.189
    5CHTO  H176 1804   5.378   3.956   4.273
    5CHTO  H177 1805   5.240   3.990   4.168
    5CHTO  C105 1806   5.527   3.871   4.087
    5CHTO  H192 1807   5.502   3.813   4.177
    5CHTO   O65 1808   5.667   3.905   4.093
    5CHTO  C100 1809   5.710   4.031   4.149
    5CHTO  H187 1810   5.703   4.023   4.258
    5CHTO  C107 1811   5.861   4.039   4.112
    5CHTO   O70 1812   5.925   4.159   4.156
    5CHTO  H170 1813   6.015   4.158   4.131
    5CHTO   O57 1814   5.502   3.783   3.959
    5CHTO   C85 1815   5.510   3.639   3.960
    5CHTO  H157 1816   5.437   3.606   4.036
    5CHTO   C83 1817   5.650   3.591   4.011
    5CHTO  H155 1818   5.660   3.619   4.116
    5CHTO   O56 1819   5.755   3.661   3.941
    5CHTO  H135 1820   5.750   3.753   3.959
    5CHTO   C81 1821   5.660   3.436   3.999
    5CHTO  H153 1822   5.580   3.392   4.059
    5CHTO   N14 1823   5.784   3.380   4.060
    5CHTO  H141 1824   5.870   3.412   4.004
    5CHTO  H142 1825   5.780   3.273   4.059
    5CHTO   C79 1826   5.639   3.392   3.850
    5CHTO  H151 1827   5.641   3.283   3.848
    5CHTO   O52 1828   5.506   3.433   3.805
    5CHTO   C86 1829   5.479   3.576   3.817
    5CHTO  H158 1830   5.543   3.623   3.738
    5CHTO   C90 1831   5.333   3.601   3.773
    5CHTO   O60 1832   5.303   3.740   3.758
    5CHTO  H138 1833   5.214   3.750   3.732
    5CHTO   O50 1834   5.739   3.442   3.760
    5CHTO   C73 1835   5.805   3.434   3.633
    5CHTO  H145 1836   5.731   3.433   3.552
    5CHTO   C74 1837   5.891   3.304   3.625
    5CHTO  H146 1838   5.822   3.219   3.640
    5CHTO   O54 1839   5.940   3.293   3.490
    5CHTO  H133 1840   5.988   3.213   3.480
    5CHTO   C75 1841   6.004   3.309   3.735
    5CHTO  H147 1842   5.956   3.307   3.834
    5CHTO   N13 1843   6.094   3.191   3.735
    5CHTO  H139 1844   6.146   3.184   3.640
    5CHTO  H140 1845   6.167   3.200   3.813
    5CHTO   C76 1846   6.085   3.447   3.725
    5CHTO  H148 1847   6.145   3.444   3.634
    5CHTO   O49 1848   5.996   3.563   3.720
    5CHTO   C77 1849   5.897   3.558   3.616
    5CHTO  H149 1850   5.946   3.553   3.518
    5CHTO   C88 1851   5.821   3.691   3.618
    5CHTO   O58 1852   5.725   3.699   3.516
    5CHTO  H136 1853   5.682   3.783   3.520
    5CHTO   O51 1854   6.171   3.468   3.856
    5CHTO   C78 1855   6.265   3.595   3.852
    5CHTO  H150 1856   6.221   3.675   3.788
    5CHTO   C80 1857   6.402   3.555   3.794
    5CHTO  H152 1858   6.437   3.463   3.846
    5CHTO   O55 1859   6.381   3.523   3.655
    5CHTO  H134 1860   6.459   3.488   3.617
    5CHTO   C84 1861   6.510   3.669   3.811
    5CHTO  H156 1862   6.479   3.754   3.749
    5CHTO   N15 1863   6.646   3.626   3.762
    5CHTO  H143 1864   6.718   3.628   3.841
    5CHTO  H144 1865   6.679   3.691   3.683
    5CHTO   C87 1866   6.512   3.715   3.958
    5CHTO  H159 1867   6.544   3.632   4.022
    5CHTO   O53 1868   6.370   3.760   3.996
    5CHTO   C82 1869   6.277   3.651   3.995
    5CHTO  H154 1870   6.308   3.574   4.065
    5CHTO   C89 1871   6.142   3.708   4.046
    5CHTO   O59 1872   6.047   3.606   4.076
    5CHTO  H137 1873   6.074   3.557   4.151
    5CHTO   O45 1874   6.611   3.841   3.981
    5CHTO   C67 1875   6.621   3.880   4.119
    5CHTO  H124 1876   6.525   3.866   4.167
    5CHTO   C65 1877   6.729   3.794   4.195
    5CHTO  H122 1878   6.794   3.753   4.118
    5CHTO   O44 1879   6.657   3.686   4.257
    5CHTO  H102 1880   6.718   3.624   4.293
    5CHTO   C63 1881   6.823   3.881   4.287
    5CHTO  H120 1882   6.890   3.939   4.223
    5CHTO   N11 1883   6.921   3.806   4.374
    5CHTO  H108 1884   7.021   3.820   4.339
    5CHTO  H109 1885   6.898   3.701   4.374
    5CHTO   C61 1886   6.734   3.984   4.365
    5CHTO  H118 1887   6.802   4.047   4.425
    5CHTO   O40 1888   6.663   4.073   4.274
    5CHTO   C68 1889   6.652   4.035   4.132
    5CHTO  H125 1890   6.748   4.060   4.081
    5CHTO   C72 1891   6.543   4.125   4.069
    5CHTO   O48 1892   6.531   4.109   3.927
    5CHTO  H105 1893   6.498   4.024   3.907
    5CHTO   O38 1894   6.639   3.917   4.451
    5CHTO   C55 1895   6.562   4.000   4.539
    5CHTO  H112 1896   6.565   4.105   4.507
    5CHTO   C56 1897   6.612   3.982   4.689
    5CHTO  H113 1898   6.611   3.874   4.710
    5CHTO   O42 1899   6.749   4.024   4.700
    5CHTO  H100 1900   6.757   4.115   4.679
    5CHTO   C57 1901   6.518   4.060   4.790
    5CHTO  H114 1902   6.538   4.166   4.776
    5CHTO   N10 1903   6.548   4.028   4.932
    5CHTO  H106 1904   6.523   4.112   4.995
    5CHTO  H107 1905   6.493   3.941   4.965
    5CHTO   C58 1906   6.368   4.033   4.758
    5CHTO  H115 1907   6.343   3.928   4.788
    5CHTO   O37 1908   6.339   4.050   4.618
    5CHTO   C59 1909   6.412   3.959   4.535
    5CHTO  H116 1910   6.400   3.857   4.571
    5CHTO   C70 1911   6.357   3.965   4.392
    5CHTO   O46 1912   6.223   3.917   4.383
    5CHTO  H103 1913   6.193   3.923   4.295
    5CHTO   O39 1914   6.271   4.140   4.842
    5CHTO   C60 1915   6.130   4.133   4.814
    5CHTO  H117 1916   6.113   4.172   4.714
    5CHTO   C62 1917   6.073   3.988   4.819
    5CHTO  H119 1918   6.122   3.932   4.736
    5CHTO   O43 1919   6.109   3.928   4.944
    5CHTO  H101 1920   6.202   3.914   4.948
    5CHTO   C66 1921   5.915   3.990   4.792
    5CHTO  H123 1922   5.896   4.038   4.695
    5CHTO   N12 1923   5.857   3.854   4.782
    5CHTO  H110 1924   5.874   3.800   4.874
    5CHTO  H111 1925   5.899   3.802   4.698
    5CHTO   C69 1926   5.846   4.077   4.901
    5CHTO  H126 1927   5.870   4.035   5.002
    5CHTO   O41 1928   5.901   4.218   4.890
    5CHTO   C64 1929   6.053   4.227   4.912
    5CHTO  H121 1930   6.078   4.198   5.017
    5CHTO   C71 1931   6.095   4.374   4.892
    5CHTO   O47 1932   6.031   4.461   4.986
    5CHTO  H104 1933   6.064   4.444   5.072
    5CHTO   O34 1934   5.688   4.083   4.885
    5CHTO   C49 1935   5.607   4.071   5.015
    5CHTO   H91 1936   5.645   3.984   5.068
    5CHTO   C47 1937   5.458   4.049   4.979
    5CHTO   H89 1938   5.406   4.026   5.074
    5CHTO   O33 1939   5.449   3.934   4.893
    5CHTO   H70 1940   5.472   3.856   4.940
    5CHTO   C45 1941   5.400   4.184   4.914
    5CHTO   H87 1942   5.465   4.213   4.830
    5CHTO    N8 1943   5.262   4.168   4.862
    5CHTO   H75 1944   5.259   4.090   4.788
    5CHTO   H76 1945   5.195   4.144   4.943
    5CHTO   C43 1946   5.413   4.303   5.022
    5CHTO   H85 1947   5.379   4.394   4.972
    5CHTO   O29 1948   5.550   4.315   5.065
    5CHTO   C50 1949   5.623   4.197   5.105
    5CHTO   H92 1950   5.729   4.224   5.104
    5CHTO   C54 1951   5.598   4.162   5.254
    5CHTO   O36 1952   5.641   4.268   5.341
    5CHTO   H72 1953   5.735   4.274   5.339
    5CHTO   O27 1954   5.327   4.285   5.136
    5CHTO   C37 1955   5.230   4.364   5.207
    5CHTO   H79 1956   5.277   4.459   5.238
    5CHTO   C38 1957   5.108   4.401   5.115
    5CHTO   H80 1958   5.082   4.311   5.057
    5CHTO   O31 1959   5.152   4.503   5.024
    5CHTO   H68 1960   5.214   4.467   4.963
    5CHTO   C39 1961   4.980   4.449   5.194
    5CHTO   H81 1962   5.001   4.549   5.232
    5CHTO    N7 1963   4.858   4.460   5.107
    5CHTO   H73 1964   4.875   4.532   5.028
    5CHTO   H74 1965   4.834   4.364   5.065
    5CHTO   C40 1966   4.954   4.357   5.319
    5CHTO   H82 1967   4.930   4.256   5.283
    5CHTO   O26 1968   5.074   4.358   5.399
    5CHTO   C41 1969   5.184   4.288   5.334
    5CHTO   H83 1970   5.151   4.186   5.307
    5CHTO   C52 1971   5.297   4.273   5.438
    5CHTO   O35 1972   5.256   4.196   5.556
    5CHTO   H71 1973   5.328   4.190   5.616
    5CHTO   O28 1974   4.844   4.399   5.403
    5CHTO   C42 1975   4.819   4.348   5.539
    5CHTO   H84 1976   4.711   4.354   5.548
    5CHTO   C44 1977   4.877   4.440   5.653
    5CHTO   H86 1978   4.982   4.459   5.632
    5CHTO   O32 1979   4.806   4.565   5.644
    5CHTO   H69 1980   4.843   4.627   5.704
    5CHTO   C48 1981   4.867   4.375   5.797
    5CHTO   H90 1982   4.761   4.367   5.824
    5CHTO    N9 1983   4.931   4.460   5.904
    5CHTO   H77 1984   4.857   4.490   5.978
    5CHTO   H78 1985   4.978   4.548   5.861
    5CHTO   C51 1986   4.929   4.232   5.788
    5CHTO   H93 1987   5.030   4.244   5.747
    5CHTO   O30 1988   4.844   4.156   5.702
    5CHTO   C46 1989   4.858   4.198   5.559
    5CHTO   H88 1990   4.962   4.182   5.530
    5CHTO   C53 1991   4.767   4.105   5.475
    5CHTO   O72 1992   4.813   3.970   5.481
    5CHTO  H199 1993   4.754   3.915   5.431
    5CHTO   O22 1994   4.933   4.156   5.911
    5CHTO   C31 1995   5.048   4.066   5.934
    5CHTO   H59 1996   5.018   4.001   6.019
    5CHTO   C29 1997   5.080   3.972   5.814
    5CHTO   H57 1998   5.078   4.034   5.723
    5CHTO   O21 1999   4.971   3.880   5.801
    5CHTO   H37 2000   4.970   3.819   5.872
    5CHTO   C27 2001   5.221   3.902   5.822
    5CHTO   H55 2002   5.219   3.827   5.903
    5CHTO    N5 2003   5.256   3.833   5.696
    5CHTO   H43 2004   5.351   3.782   5.706
    5CHTO   H44 2005   5.261   3.904   5.614
    5CHTO   C25 2006   5.328   4.010   5.861
    5CHTO   H53 2007   5.325   4.090   5.786
    5CHTO   O17 2008   5.290   4.064   5.991
    5CHTO   C32 2009   5.173   4.146   5.984
    5CHTO   H60 2010   5.191   4.231   5.917
    5CHTO   C36 2011   5.146   4.202   6.127
    5CHTO   O25 2012   5.257   4.278   6.176
    5CHTO   H40 2013   5.330   4.221   6.193
    5CHTO   O15 2014   5.476   3.956   5.871
    5CHTO   C19 2015   5.588   4.047   5.855
    5CHTO   H47 2016   5.545   4.137   5.807
    5CHTO   C20 2017   5.657   4.092   5.988
    5CHTO   H48 2018   5.700   4.006   6.042
    5CHTO   O19 2019   5.555   4.149   6.073
    5CHTO   H35 2020   5.519   4.226   6.034
    5CHTO   C21 2021   5.773   4.196   5.962
    5CHTO   H49 2022   5.727   4.290   5.928
    5CHTO    N4 2023   5.851   4.229   6.084
    5CHTO   H41 2024   5.927   4.302   6.060
    5CHTO   H42 2025   5.785   4.270   6.159
    5CHTO   C22 2026   5.865   4.149   5.846
    5CHTO   H50 2027   5.933   4.071   5.882
    5CHTO   O14 2028   5.791   4.100   5.733
    5CHTO   C23 2029   5.698   3.995   5.759
    5CHTO   H51 2030   5.754   3.911   5.802
    5CHTO   C34 2031   5.640   3.952   5.624
    5CHTO   O23 2032   5.581   3.822   5.633
    5CHTO   H38 2033   5.545   3.799   5.550
    5CHTO   O16 2034   5.937   4.261   5.791
    5CHTO   C24 2035   6.073   4.223   5.719
    5CHTO   H52 2036   6.084   4.116   5.705
    5CHTO   C26 2037   6.190   4.276   5.805
    5CHTO   H54 2038   6.170   4.384   5.828
    5CHTO   O20 2039   6.188   4.203   5.929
    5CHTO   H36 2040   6.252   4.239   5.988
    5CHTO   C30 2041   6.327   4.265   5.731
    5CHTO   H58 2042   6.355   4.159   5.722
    5CHTO    N6 2043   6.435   4.330   5.810
    5CHTO   H45 2044   6.444   4.283   5.906
    5CHTO   H46 2045   6.529   4.321   5.757
    5CHTO   C33 2046   6.316   4.322   5.586
    5CHTO   H61 2047   6.299   4.431   5.592
    5CHTO   O18 2048   6.205   4.262   5.519
    5CHTO   C28 2049   6.076   4.288   5.577
    5CHTO   H56 2050   6.059   4.395   5.587
    5CHTO   C35 2051   5.968   4.226   5.486
    5CHTO   O24 2052   5.967   4.282   5.355
    5CHTO   H39 2053   5.900   4.240   5.303
    5CHTO    O9 2054   6.438   4.308   5.510
    5CHTO   C13 2055   6.475   4.153   5.464
    5CHTO   H26 2056   6.390   4.087   5.490
    5CHTO   C11 2057   6.609   4.108   5.539
    5CHTO   H24 2058   6.584   4.084   5.643
    5CHTO    O8 2059   6.705   4.216   5.540
    5CHTO    H3 2060   6.673   4.288   5.590
    5CHTO    C9 2061   6.663   3.981   5.468
    5CHTO   H22 2062   6.578   3.911   5.464
    5CHTO    N2 2063   6.766   3.907   5.545
    5CHTO   H10 2064   6.799   3.964   5.631
    5CHTO   H11 2065   6.850   3.882   5.482
    5CHTO    C7 2066   6.702   4.018   5.318
    5CHTO   H20 2067   6.673   3.928   5.260
    5CHTO    O4 2068   6.630   4.132   5.267
    5CHTO   C14 2069   6.492   4.140   5.306
    5CHTO   H27 2070   6.442   4.046   5.273
    5CHTO   C18 2071   6.427   4.255   5.225
    5CHTO   O13 2072   6.284   4.252   5.236
    5CHTO    H7 2073   6.258   4.274   5.323
    5CHTO    O2 2074   6.862   4.046   5.296
    5CHTO    C1 2075   6.912   4.000   5.169
    5CHTO   H14 2076   6.827   3.987   5.098
    5CHTO    C2 2077   6.991   3.863   5.179
    5CHTO   H15 2078   7.067   3.877   5.257
    5CHTO    O6 2079   6.899   3.761   5.220
    5CHTO    H1 2080   6.945   3.681   5.235
    5CHTO    C3 2081   7.061   3.828   5.038
    5CHTO   H16 2082   6.981   3.804   4.966
    5CHTO    N1 2083   7.150   3.707   5.050
    5CHTO    H8 2084   7.253   3.732   5.027
    5CHTO    H9 2085   7.116   3.630   4.983
    5CHTO    C4 2086   7.135   3.954   4.979
    5CHTO   H17 2087   7.226   3.972   5.037
    5CHTO    O1 2088   7.052   4.070   4.980
    5CHTO    C5 2089   7.004   4.110   5.109
    5CHTO   H18 2090   7.089   4.123   5.176
    5CHTO   C16 2091   6.931   4.245   5.092
    5CHTO   O11 2092   6.819   4.238   5.004
    5CHTO    H5 2093   6.751   4.187   5.043
    5CHTO    O3 2094   7.167   3.934   4.839
    5CHTO    C6 2095   7.285   4.007   4.792
    5CHTO   H19 2096   7.318   4.084   4.861
    5CHTO    C8 2097   7.403   3.906   4.772
    5CHTO   H21 2098   7.368   3.825   4.707
    5CHTO    O7 2099   7.436   3.852   4.902
    5CHTO    H2 2100   7.469   3.919   4.958
    5CHTO   C12 2101   7.526   3.976   4.703
    5CHTO   H25 2102   7.566   4.050   4.777
    5CHTO    N3 2103   7.637   3.878   4.677
    5CHTO   H12 2104   7.602   3.801   4.610
    5CHTO   H13 2105   7.722   3.929   4.635
    5CHTO   C15 2106   7.479   4.054   4.575
    5CHTO   H28 2107   7.448   3.985   4.496
    5CHTO   O10 2108   7.587   4.150   4.520
    5CHTO    H4 2109   7.661   4.102   4.489
    5CHTO    O5 2110   7.373   4.144   4.607
    5CHTO   C10 2111   7.254   4.079   4.656
    5CHTO   H23 2112   7.219   4.008   4.582
    5CHTO   C17 2113   7.148   4.190   4.669
    5CHTO   O12 2114   7.017   4.137   4.691
    5CHTO    H6 2115   7.012   4.099   4.777
    6CHTO  H203 2116   7.628   5.514   1.767
    6CHTO   O82 2117   7.547   5.468   1.755
    6CHTO  C123 2118   7.451   5.553   1.692
    6CHTO  H227 2119   7.491   5.586   1.594
    6CHTO   O77 2120   7.336   5.466   1.672
    6CHTO  C118 2121   7.232   5.526   1.592
    6CHTO  H222 2122   7.273   5.560   1.496
    6CHTO  C125 2123   7.122   5.417   1.565
    6CHTO   O84 2124   7.176   5.305   1.494
    6CHTO  H205 2125   7.108   5.242   1.479
    6CHTO  C114 2126   7.173   5.647   1.666
    6CHTO  H218 2127   7.123   5.612   1.757
    6CHTO  C116 2128   7.284   5.749   1.708
    6CHTO  H220 2129   7.320   5.802   1.617
    6CHTO   O79 2130   7.225   5.849   1.792
    6CHTO  H201 2131   7.287   5.916   1.812
    6CHTO  C120 2132   7.406   5.676   1.779
    6CHTO  H224 2133   7.369   5.641   1.878
    6CHTO   N21 2134   7.519   5.770   1.805
    6CHTO  H211 2135   7.575   5.737   1.892
    6CHTO  H212 2136   7.483   5.870   1.820
    6CHTO   O75 2137   7.079   5.704   1.574
    6CHTO  C112 2138   6.936   5.744   1.636
    6CHTO  H216 2139   6.949   5.774   1.741
    6CHTO   O73 2140   6.851   5.629   1.624
    6CHTO  C113 2141   6.714   5.647   1.664
    6CHTO  H217 2142   6.712   5.676   1.771
    6CHTO  C124 2143   6.641   5.512   1.652
    6CHTO   O83 2144   6.644   5.456   1.520
    6CHTO  H204 2145   6.600   5.374   1.520
    6CHTO  C109 2146   6.647   5.758   1.578
    6CHTO  H213 2147   6.652   5.724   1.473
    6CHTO  C110 2148   6.728   5.890   1.592
    6CHTO  H214 2149   6.722   5.925   1.695
    6CHTO   O78 2150   6.667   5.990   1.508
    6CHTO  H200 2151   6.582   6.014   1.542
    6CHTO  C111 2152   6.877   5.866   1.553
    6CHTO  H215 2153   6.881   5.839   1.447
    6CHTO   N19 2154   6.963   5.986   1.570
    6CHTO  H207 2155   7.064   5.964   1.541
    6CHTO  H208 2156   6.925   6.067   1.510
    6CHTO   O74 2157   6.506   5.775   1.613
    6CHTO  C115 2158   6.471   5.839   1.759
    6CHTO  H219 2159   6.561   5.852   1.819
    6CHTO   O76 2160   6.408   5.981   1.746
    6CHTO  C122 2161   6.298   5.981   1.655
    6CHTO  H226 2162   6.339   5.976   1.554
    6CHTO  C126 2163   6.224   6.120   1.664
    6CHTO   O85 2164   6.307   6.229   1.623
    6CHTO  H206 2165   6.259   6.309   1.631
    6CHTO  C121 2166   6.196   5.861   1.677
    6CHTO  H225 2167   6.092   5.901   1.678
    6CHTO   O81 2168   6.206   5.769   1.567
    6CHTO  H202 2169   6.180   5.811   1.487
    6CHTO  C119 2170   6.221   5.786   1.812
    6CHTO  H223 2171   6.197   5.859   1.889
    6CHTO  C117 2172   6.372   5.740   1.831
    6CHTO  H221 2173   6.394   5.643   1.787
    6CHTO   N20 2174   6.405   5.725   1.976
    6CHTO  H209 2175   6.504   5.684   1.987
    6CHTO  H210 2176   6.398   5.820   2.026
    6CHTO   O80 2177   6.113   5.674   1.839
    6CHTO  C103 2178   6.056   5.652   1.984
    6CHTO  H190 2179   6.135   5.661   2.059
    6CHTO  C101 2180   5.935   5.745   2.025
    6CHTO  H188 2181   5.865   5.750   1.942
    6CHTO   O68 2182   5.989   5.888   2.051
    6CHTO  H168 2183   5.918   5.947   2.068
    6CHTO   C99 2184   5.857   5.685   2.152
    6CHTO  H186 2185   5.925   5.683   2.240
    6CHTO   N17 2186   5.735   5.764   2.193
    6CHTO  H174 2187   5.764   5.865   2.217
    6CHTO  H175 2188   5.662   5.762   2.113
    6CHTO   C97 2189   5.821   5.537   2.122
    6CHTO  H184 2190   5.757   5.535   2.032
    6CHTO   O64 2191   5.943   5.464   2.102
    6CHTO  C104 2192   6.012   5.500   1.981
    6CHTO  H191 2193   5.950   5.482   1.893
    6CHTO  C108 2194   6.134   5.408   1.967
    6CHTO   O71 2195   6.094   5.271   1.952
    6CHTO  H171 2196   6.170   5.217   1.944
    6CHTO   O62 2197   5.759   5.465   2.230
    6CHTO   C91 2198   5.685   5.349   2.186
    6CHTO  H178 2199   5.719   5.322   2.086
    6CHTO   C92 2200   5.533   5.388   2.173
    6CHTO  H179 2201   5.523   5.494   2.146
    6CHTO   O66 2202   5.477   5.314   2.064
    6CHTO  H166 2203   5.514   5.343   1.982
    6CHTO   C93 2204   5.448   5.354   2.301
    6CHTO  H180 2205   5.343   5.370   2.274
    6CHTO   N16 2206   5.470   5.446   2.415
    6CHTO  H172 2207   5.407   5.418   2.498
    6CHTO  H173 2208   5.574   5.443   2.445
    6CHTO   C94 2209   5.467   5.201   2.340
    6CHTO  H181 2210   5.479   5.187   2.448
    6CHTO   O61 2211   5.583   5.140   2.278
    6CHTO   C95 2212   5.702   5.220   2.277
    6CHTO  H182 2213   5.726   5.250   2.379
    6CHTO  C106 2214   5.821   5.129   2.227
    6CHTO   O69 2215   5.947   5.196   2.242
    6CHTO  H169 2216   5.968   5.205   2.333
    6CHTO   O63 2217   5.336   5.126   2.292
    6CHTO   C96 2218   5.344   4.970   2.287
    6CHTO  H183 2219   5.435   4.937   2.336
    6CHTO   C98 2220   5.343   4.912   2.143
    6CHTO  H185 2221   5.251   4.945   2.091
    6CHTO   O67 2222   5.451   4.970   2.069
    6CHTO  H167 2223   5.448   4.943   1.979
    6CHTO  C102 2224   5.354   4.752   2.142
    6CHTO  H189 2225   5.462   4.730   2.152
    6CHTO   N18 2226   5.313   4.686   2.016
    6CHTO  H176 2227   5.210   4.710   1.994
    6CHTO  H177 2228   5.377   4.719   1.935
    6CHTO  C105 2229   5.283   4.692   2.268
    6CHTO  H192 2230   5.235   4.598   2.242
    6CHTO   O65 2231   5.182   4.777   2.326
    6CHTO  C100 2232   5.221   4.911   2.365
    6CHTO  H187 2233   5.134   4.975   2.344
    6CHTO  C107 2234   5.244   4.919   2.518
    6CHTO   O70 2235   5.124   4.890   2.591
    6CHTO  H170 2236   5.102   4.800   2.581
    6CHTO   O57 2237   5.401   4.665   2.366
    6CHTO   C85 2238   5.425   4.533   2.417
    6CHTO  H157 2239   5.410   4.463   2.332
    6CHTO   C83 2240   5.314   4.494   2.522
    6CHTO  H155 2241   5.220   4.478   2.468
    6CHTO   O56 2242   5.291   4.605   2.611
    6CHTO  H135 2243   5.217   4.588   2.666
    6CHTO   C81 2244   5.353   4.362   2.595
    6CHTO  H153 2245   5.362   4.283   2.521
    6CHTO   N14 2246   5.248   4.313   2.688
    6CHTO  H141 2247   5.155   4.302   2.636
    6CHTO  H142 2248   5.276   4.218   2.729
    6CHTO   C79 2249   5.493   4.380   2.665
    6CHTO  H151 2250   5.517   4.286   2.714
    6CHTO   O52 2251   5.593   4.400   2.560
    6CHTO   C86 2252   5.569   4.520   2.480
    6CHTO  H158 2253   5.589   4.605   2.549
    6CHTO   C90 2254   5.676   4.531   2.368
    6CHTO   O60 2255   5.808   4.544   2.423
    6CHTO  H138 2256   5.817   4.627   2.466
    6CHTO   O50 2257   5.500   4.487   2.761
    6CHTO   C73 2258   5.561   4.541   2.879
    6CHTO  H145 2259   5.566   4.464   2.957
    6CHTO   C74 2260   5.475   4.660   2.934
    6CHTO  H146 2261   5.372   4.623   2.946
    6CHTO   O54 2262   5.522   4.690   3.067
    6CHTO  H133 2263   5.501   4.621   3.126
    6CHTO   C75 2264   5.483   4.784   2.836
    6CHTO  H147 2265   5.439   4.755   2.740
    6CHTO   N13 2266   5.405   4.902   2.881
    6CHTO  H139 2267   5.443   4.937   2.976
    6CHTO  H140 2268   5.412   4.981   2.809
    6CHTO   C76 2269   5.636   4.821   2.808
    6CHTO  H148 2270   5.681   4.856   2.901
    6CHTO   O49 2271   5.707   4.703   2.760
    6CHTO   C77 2272   5.706   4.593   2.852
    6CHTO  H149 2273   5.751   4.624   2.946
    6CHTO   C88 2274   5.799   4.483   2.797
    6CHTO   O58 2275   5.937   4.530   2.781
    6CHTO  H136 2276   5.975   4.547   2.865
    6CHTO   O51 2277   5.651   4.930   2.687
    6CHTO   C78 2278   5.774   5.033   2.710
    6CHTO  H150 2279   5.825   5.013   2.807
    6CHTO   C80 2280   5.721   5.178   2.711
    6CHTO  H152 2281   5.669   5.197   2.614
    6CHTO   O55 2282   5.624   5.187   2.817
    6CHTO  H134 2283   5.583   5.272   2.815
    6CHTO   C84 2284   5.839   5.281   2.729
    6CHTO  H156 2285   5.882   5.265   2.828
    6CHTO   N15 2286   5.794   5.424   2.726
    6CHTO  H143 2287   5.724   5.442   2.805
    6CHTO  H144 2288   5.747   5.446   2.632
    6CHTO   C87 2289   5.951   5.256   2.624
    6CHTO  H159 2290   5.918   5.287   2.525
    6CHTO   O53 2291   5.989   5.104   2.623
    6CHTO   C82 2292   5.878   5.017   2.598
    6CHTO  H154 2293   5.833   5.040   2.501
    6CHTO   C89 2294   5.930   4.872   2.590
    6CHTO   O59 2295   6.019   4.853   2.479
    6CHTO  H137 2296   5.970   4.858   2.398
    6CHTO   O45 2297   6.085   5.338   2.665
    6CHTO   C67 2298   6.181   5.354   2.560
    6CHTO  H124 2299   6.162   5.281   2.480
    6CHTO   C65 2300   6.176   5.499   2.499
    6CHTO  H122 2301   6.092   5.550   2.547
    6CHTO   O44 2302   6.150   5.488   2.358
    6CHTO  H102 2303   6.065   5.449   2.343
    6CHTO   C63 2304   6.304   5.583   2.538
    6CHTO  H120 2305   6.310   5.588   2.647
    6CHTO   N11 2306   6.301   5.728   2.501
    6CHTO  H108 2307   6.212   5.774   2.539
    6CHTO  H109 2308   6.386   5.778   2.543
    6CHTO   C61 2309   6.432   5.505   2.488
    6CHTO  H118 2310   6.519   5.551   2.537
    6CHTO   O40 2311   6.432   5.364   2.526
    6CHTO   C68 2312   6.325   5.319   2.615
    6CHTO  H125 2313   6.339   5.369   2.713
    6CHTO   C72 2314   6.339   5.167   2.640
    6CHTO   O48 2315   6.454   5.137   2.720
    6CHTO  H105 2316   6.459   5.044   2.733
    6CHTO   O38 2317   6.446   5.510   2.345
    6CHTO   C55 2318   6.573   5.476   2.286
    6CHTO  H112 2319   6.630   5.412   2.355
    6CHTO   C56 2320   6.652   5.610   2.251
    6CHTO  H113 2321   6.578   5.680   2.209
    6CHTO   O42 2322   6.698   5.672   2.373
    6CHTO  H100 2323   6.759   5.615   2.417
    6CHTO   C57 2324   6.771   5.588   2.149
    6CHTO  H114 2325   6.853   5.542   2.205
    6CHTO   N10 2326   6.823   5.715   2.092
    6CHTO  H106 2327   6.812   5.796   2.162
    6CHTO  H107 2328   6.927   5.704   2.066
    6CHTO   C58 2329   6.729   5.491   2.035
    6CHTO  H115 2330   6.652   5.540   1.972
    6CHTO   O37 2331   6.673   5.370   2.090
    6CHTO   C59 2332   6.549   5.391   2.158
    6CHTO  H116 2333   6.477   5.440   2.091
    6CHTO   C70 2334   6.493   5.252   2.193
    6CHTO   O46 2335   6.361   5.257   2.247
    6CHTO  H103 2336   6.300   5.283   2.180
    6CHTO   O39 2337   6.862   5.451   1.937
    6CHTO   C60 2338   6.922   5.321   1.957
    6CHTO  H117 2339   6.906   5.290   2.060
    6CHTO   C62 2340   6.857   5.215   1.863
    6CHTO  H119 2341   6.750   5.209   1.892
    6CHTO   O43 2342   6.864   5.260   1.726
    6CHTO  H101 2343   6.953   5.267   1.699
    6CHTO   C66 2344   6.926   5.072   1.887
    6CHTO  H123 2345   6.916   5.045   1.992
    6CHTO   N12 2346   6.860   4.963   1.811
    6CHTO  H110 2347   6.865   4.983   1.705
    6CHTO  H111 2348   6.905   4.868   1.835
    6CHTO   C69 2349   7.077   5.084   1.855
    6CHTO  H126 2350   7.092   5.114   1.749
    6CHTO   O41 2351   7.139   5.192   1.950
    6CHTO   C64 2352   7.076   5.329   1.936
    6CHTO  H121 2353   7.097   5.370   1.836
    6CHTO   C71 2354   7.143   5.421   2.041
    6CHTO   O47 2355   7.120   5.560   2.016
    6CHTO  H104 2356   7.166   5.586   1.938
    6CHTO   O34 2357   7.155   4.947   1.878
    6CHTO   C49 2358   7.278   4.895   1.798
    6CHTO   H91 2359   7.240   4.856   1.704
    6CHTO   C47 2360   7.345   4.783   1.879
    6CHTO   H89 2361   7.426   4.745   1.813
    6CHTO   O33 2362   7.253   4.676   1.903
    6CHTO   H70 2363   7.297   4.603   1.943
    6CHTO   C45 2364   7.405   4.841   2.018
    6CHTO   H87 2365   7.328   4.830   2.096
    6CHTO    N8 2366   7.522   4.758   2.058
    6CHTO   H75 2367   7.601   4.768   1.984
    6CHTO   H76 2368   7.493   4.655   2.067
    6CHTO   C43 2369   7.431   5.000   2.007
    6CHTO   H85 2370   7.334   5.046   2.026
    6CHTO   O29 2371   7.481   5.032   1.876
    6CHTO   C50 2372   7.386   5.006   1.770
    6CHTO   H92 2373   7.335   5.100   1.746
    6CHTO   C54 2374   7.469   4.977   1.641
    6CHTO   O36 2375   7.387   4.964   1.525
    6CHTO   H72 2376   7.349   5.047   1.503
    6CHTO   O27 2377   7.515   5.053   2.111
    6CHTO   C37 2378   7.587   5.174   2.141
    6CHTO   H79 2379   7.673   5.184   2.073
    6CHTO   C38 2380   7.499   5.302   2.125
    6CHTO   H80 2381   7.406   5.287   2.183
    6CHTO   O31 2382   7.464   5.314   1.986
    6CHTO   H68 2383   7.541   5.328   1.934
    6CHTO   C39 2384   7.573   5.431   2.178
    6CHTO   H81 2385   7.658   5.449   2.111
    6CHTO    N7 2386   7.488   5.555   2.175
    6CHTO   H73 2387   7.546   5.640   2.209
    6CHTO   H74 2388   7.401   5.542   2.237
    6CHTO   C40 2389   7.631   5.405   2.322
    6CHTO   H82 2390   7.549   5.396   2.393
    6CHTO   O26 2391   7.714   5.287   2.320
    6CHTO   C41 2392   7.641   5.166   2.287
    6CHTO   H83 2393   7.557   5.152   2.356
    6CHTO   C52 2394   7.737   5.046   2.305
    6CHTO   O35 2395   7.780   5.030   2.444
    6CHTO   H71 2396   7.838   4.957   2.451
    6CHTO   O28 2397   7.723   5.508   2.364
    6CHTO   C42 2398   7.749   5.544   2.504
    6CHTO   H84 2399   7.858   5.544   2.510
    6CHTO   C44 2400   7.700   5.445   2.617
    6CHTO   H86 2401   7.593   5.427   2.604
    6CHTO   O32 2402   7.770   5.321   2.596
    6CHTO   H69 2403   7.737   5.255   2.654
    6CHTO   C48 2404   7.724   5.500   2.763
    6CHTO   H90 2405   7.831   5.503   2.781
    6CHTO    N9 2406   7.665   5.408   2.868
    6CHTO   H77 2407   7.742   5.376   2.936
    6CHTO   H78 2408   7.585   5.457   2.921
    6CHTO   C51 2409   7.670   5.648   2.773
    6CHTO   H93 2410   7.562   5.646   2.755
    6CHTO   O30 2411   7.738   5.727   2.676
    6CHTO   C46 2412   7.702   5.690   2.534
    6CHTO   H88 2413   7.593   5.696   2.522
    6CHTO   C53 2414   7.771   5.790   2.440
    6CHTO   O72 2415   7.727   5.924   2.466
    6CHTO  H199 2416   7.771   5.983   2.408
    6CHTO   O22 2417   7.699   5.709   2.900
    6CHTO   C31 2418   7.622   5.825   2.951
    6CHTO   H59 2419   7.666   5.848   3.051
    6CHTO   C29 2420   7.633   5.953   2.866
    6CHTO   H57 2421   7.591   5.931   2.766
    6CHTO   O21 2422   7.773   5.983   2.846
    6CHTO   H37 2423   7.813   6.008   2.927
    6CHTO   C27 2424   7.553   6.073   2.930
    6CHTO   H55 2425   7.599   6.098   3.026
    6CHTO    N5 2426   7.553   6.195   2.845
    6CHTO   H43 2427   7.604   6.276   2.896
    6CHTO   H44 2428   7.453   6.225   2.817
    6CHTO   C25 2429   7.406   6.026   2.964
    6CHTO   H53 2430   7.351   6.008   2.870
    6CHTO   O17 2431   7.407   5.903   3.042
    6CHTO   C32 2432   7.472   5.792   2.978
    6CHTO   H60 2433   7.423   5.773   2.882
    6CHTO   C36 2434   7.455   5.669   3.069
    6CHTO   O25 2435   7.318   5.626   3.071
    6CHTO   H40 2436   7.310   5.551   3.126
    6CHTO   O15 2437   7.332   6.131   3.047
    6CHTO   C19 2438   7.195   6.164   3.086
    6CHTO   H47 2439   7.157   6.221   3.000
    6CHTO   C20 2440   7.102   6.041   3.110
    6CHTO   H48 2441   7.141   5.974   3.188
    6CHTO   O19 2442   7.098   5.966   2.987
    6CHTO   H35 2443   7.050   5.887   2.999
    6CHTO   C21 2444   6.956   6.087   3.153
    6CHTO   H49 2445   6.910   6.137   3.068
    6CHTO    N4 2446   6.867   5.973   3.188
    6CHTO   H41 2447   6.907   5.919   3.272
    6CHTO   H42 2448   6.768   6.009   3.213
    6CHTO   C22 2449   6.966   6.191   3.267
    6CHTO   H50 2450   7.003   6.142   3.357
    6CHTO   O14 2451   7.053   6.299   3.230
    6CHTO   C23 2452   7.189   6.259   3.209
    6CHTO   H51 2453   7.225   6.210   3.300
    6CHTO   C34 2454   7.274   6.385   3.187
    6CHTO   O23 2455   7.280   6.463   3.307
    6CHTO   H38 2456   7.332   6.540   3.292
    6CHTO   O16 2457   6.838   6.252   3.292
    6CHTO   C24 2458   6.826   6.371   3.401
    6CHTO   H52 2459   6.876   6.462   3.368
    6CHTO   C26 2460   6.885   6.330   3.539
    6CHTO   H54 2461   6.850   6.226   3.562
    6CHTO   O20 2462   7.029   6.328   3.530
    6CHTO   H36 2463   7.057   6.258   3.474
    6CHTO   C30 2464   6.839   6.424   3.655
    6CHTO   H58 2465   6.888   6.521   3.647
    6CHTO    N6 2466   6.877   6.369   3.789
    6CHTO   H45 2467   6.985   6.359   3.794
    6CHTO   H46 2468   6.845   6.437   3.867
    6CHTO   C33 2469   6.685   6.450   3.645
    6CHTO   H61 2470   6.632   6.354   3.657
    6CHTO   O18 2471   6.657   6.501   3.514
    6CHTO   C28 2472   6.675   6.404   3.411
    6CHTO   H56 2473   6.620   6.312   3.433
    6CHTO   C35 2474   6.623   6.461   3.277
    6CHTO   O24 2475   6.483   6.493   3.281
    6CHTO   H39 2476   6.433   6.415   3.289
    6CHTO    O9 2477   6.634   6.537   3.748
    6CHTO   C13 2478   6.477   6.508   3.777
    6CHTO   H26 2479   6.465   6.400   3.793
    6CHTO   C11 2480   6.388   6.560   3.656
    6CHTO   H24 2481   6.418   6.505   3.565
    6CHTO    O8 2482   6.416   6.700   3.635
    6CHTO    H3 2483   6.370   6.731   3.559
    6CHTO    C9 2484   6.240   6.525   3.686
    6CHTO   H22 2485   6.236   6.415   3.686
    6CHTO    N2 2486   6.149   6.563   3.575
    6CHTO   H10 2487   6.142   6.671   3.568
    6CHTO   H11 2488   6.051   6.520   3.592
    6CHTO    C7 2489   6.201   6.574   3.832
    6CHTO   H20 2490   6.186   6.479   3.888
    6CHTO    O4 2491   6.306   6.650   3.895
    6CHTO   C14 2492   6.428   6.575   3.914
    6CHTO   H27 2493   6.408   6.495   3.988
    6CHTO   C18 2494   6.531   6.671   3.979
    6CHTO   O13 2495   6.648   6.602   4.024
    6CHTO    H7 2496   6.707   6.663   4.063
    6CHTO    O2 2497   6.061   6.662   3.841
    6CHTO    C1 2498   5.992   6.661   3.968
    6CHTO   H14 2499   5.907   6.730   3.959
    6CHTO    C2 2500   6.080   6.704   4.093
    6CHTO   H15 2501   6.164   6.633   4.098
    6CHTO    O6 2502   6.131   6.837   4.071
    6CHTO    H1 2503   6.060   6.898   4.064
    6CHTO    C3 2504   5.994   6.695   4.228
    6CHTO   H16 2505   5.919   6.775   4.226
    6CHTO    N1 2506   6.081   6.718   4.349
    6CHTO    H8 2507   6.044   6.803   4.406
    6CHTO    H9 2508   6.084   6.631   4.412
    6CHTO    C4 2509   5.914   6.559   4.235
    6CHTO   H17 2510   5.983   6.478   4.259
    6CHTO    O1 2511   5.845   6.531   4.113
    6CHTO    C5 2512   5.929   6.521   3.996
    6CHTO   H18 2513   6.009   6.450   4.015
    6CHTO   C16 2514   5.842   6.471   3.878
    6CHTO   O11 2515   5.796   6.337   3.902
    6CHTO    H5 2516   5.744   6.309   3.829
    6CHTO    O3 2517   5.810   6.568   4.335
    6CHTO    C6 2518   5.757   6.440   4.381
    6CHTO   H19 2519   5.782   6.358   4.314
    6CHTO    C8 2520   5.814   6.405   4.522
    6CHTO   H21 2521   5.794   6.489   4.589
    6CHTO    O7 2522   5.957   6.388   4.507
    6CHTO    H2 2523   5.998   6.470   4.489
    6CHTO   C12 2524   5.745   6.275   4.579
    6CHTO   H25 2525   5.776   6.191   4.513
    6CHTO    N3 2526   5.794   6.242   4.717
    6CHTO   H12 2527   5.745   6.153   4.753
    6CHTO   H13 2528   5.901   6.227   4.716
    6CHTO   C15 2529   5.589   6.290   4.570
    6CHTO   H28 2530   5.551   6.365   4.640
    6CHTO   O10 2531   5.515   6.158   4.592
    6CHTO    H4 2532   5.529   6.128   4.680
    6CHTO    O5 2533   5.548   6.323   4.436
    6CHTO   C10 2534   5.602   6.447   4.388
    6CHTO   H23 2535   5.571   6.528   4.455
    6CHTO   C17 2536   5.541   6.476   4.250
    6CHTO   O12 2537   5.398   6.493   4.257
    6CHTO    H6 2538   5.378   6.573   4.301
    7CHTO  H203 2539   5.432   3.388   4.412
    7CHTO   O82 2540   5.473   3.469   4.433
    7CHTO  C123 2541   5.613   3.463   4.403
    7CHTO  H227 2542   5.625   3.440   4.296
    7CHTO   O77 2543   5.658   3.599   4.430
    7CHTO  C118 2544   5.796   3.623   4.398
    7CHTO  H222 2545   5.817   3.592   4.294
    7CHTO  C125 2546   5.818   3.778   4.410
    7CHTO   O84 2547   5.943   3.819   4.356
    7CHTO  H205 2548   5.953   3.912   4.365
    7CHTO  C114 2549   5.883   3.541   4.496
    7CHTO  H218 2550   5.863   3.576   4.597
    7CHTO  C116 2551   5.847   3.389   4.489
    7CHTO  H220 2552   5.891   3.346   4.396
    7CHTO   O79 2553   5.913   3.323   4.599
    7CHTO  H201 2554   5.902   3.230   4.592
    7CHTO  C120 2555   5.691   3.362   4.494
    7CHTO  H224 2556   5.661   3.376   4.600
    7CHTO   N21 2557   5.658   3.220   4.462
    7CHTO  H211 2558   5.645   3.208   4.355
    7CHTO  H212 2559   5.735   3.153   4.499
    7CHTO   O75 2560   6.019   3.573   4.459
    7CHTO  C112 2561   6.138   3.529   4.567
    7CHTO  H216 2562   6.144   3.419   4.571
    7CHTO   O73 2563   6.104   3.585   4.695
    7CHTO  C113 2564   6.190   3.539   4.801
    7CHTO  H217 2565   6.182   3.429   4.807
    7CHTO  C124 2566   6.134   3.596   4.932
    7CHTO   O83 2567   6.197   3.544   5.049
    7CHTO  H204 2568   6.176   3.454   5.059
    7CHTO  C109 2569   6.338   3.582   4.776
    7CHTO  H213 2570   6.342   3.691   4.789
    7CHTO  C110 2571   6.384   3.544   4.631
    7CHTO  H214 2572   6.398   3.436   4.627
    7CHTO   O78 2573   6.511   3.605   4.605
    7CHTO  H200 2574   6.577   3.568   4.661
    7CHTO  C111 2575   6.278   3.587   4.525
    7CHTO  H215 2576   6.270   3.696   4.526
    7CHTO   N19 2577   6.312   3.547   4.386
    7CHTO  H207 2578   6.321   3.634   4.323
    7CHTO  H208 2579   6.404   3.491   4.383
    7CHTO   O74 2580   6.424   3.519   4.877
    7CHTO  C115 2581   6.553   3.600   4.912
    7CHTO  H219 2582   6.572   3.679   4.839
    7CHTO   O76 2583   6.539   3.676   5.052
    7CHTO  C122 2584   6.532   3.588   5.165
    7CHTO  H226 2585   6.441   3.527   5.157
    7CHTO  C126 2586   6.515   3.673   5.296
    7CHTO   O85 2587   6.397   3.753   5.296
    7CHTO  H206 2588   6.404   3.820   5.231
    7CHTO  C121 2589   6.659   3.495   5.172
    7CHTO  H225 2590   6.749   3.559   5.181
    7CHTO   O81 2591   6.655   3.410   5.287
    7CHTO  H202 2592   6.658   3.461   5.366
    7CHTO  C119 2593   6.669   3.412   5.041
    7CHTO  H223 2594   6.763   3.356   5.048
    7CHTO  C117 2595   6.674   3.499   4.910
    7CHTO  H221 2596   6.661   3.443   4.817
    7CHTO   N20 2597   6.804   3.572   4.892
    7CHTO  H209 2598   6.820   3.639   4.975
    7CHTO  H210 2599   6.885   3.500   4.886
    7CHTO   O80 2600   6.565   3.297   5.032
    7CHTO  C103 2601   6.615   3.139   5.024
    7CHTO  H190 2602   6.539   3.081   4.972
    7CHTO  C101 2603   6.754   3.108   4.956
    7CHTO  H188 2604   6.832   3.165   5.005
    7CHTO   O68 2605   6.747   3.151   4.808
    7CHTO  H168 2606   6.735   3.244   4.802
    7CHTO   C99 2607   6.789   2.953   4.972
    7CHTO  H186 2608   6.711   2.892   4.921
    7CHTO   N17 2609   6.922   2.913   4.913
    7CHTO  H174 2610   6.976   3.000   4.878
    7CHTO  H175 2611   6.908   2.841   4.834
    7CHTO   C97 2612   6.780   2.913   5.123
    7CHTO  H184 2613   6.862   2.965   5.177
    7CHTO   O64 2614   6.651   2.948   5.175
    7CHTO  C104 2615   6.619   3.088   5.173
    7CHTO  H191 2616   6.690   3.147   5.230
    7CHTO  C108 2617   6.482   3.109   5.240
    7CHTO   O71 2618   6.483   3.066   5.376
    7CHTO  H171 2619   6.398   3.081   5.414
    7CHTO   O62 2620   6.790   2.770   5.143
    7CHTO   C91 2621   6.828   2.726   5.274
    7CHTO  H178 2622   6.901   2.798   5.313
    7CHTO   C92 2623   6.905   2.590   5.262
    7CHTO  H179 2624   6.981   2.598   5.183
    7CHTO   O66 2625   6.980   2.568   5.383
    7CHTO  H166 2626   6.922   2.564   5.457
    7CHTO   C93 2627   6.810   2.466   5.240
    7CHTO  H180 2628   6.870   2.377   5.265
    7CHTO   N16 2629   6.772   2.447   5.097
    7CHTO  H172 2630   6.665   2.455   5.084
    7CHTO  H173 2631   6.807   2.351   5.061
    7CHTO   C94 2632   6.685   2.473   5.336
    7CHTO  H181 2633   6.592   2.491   5.282
    7CHTO   O61 2634   6.697   2.579   5.433
    7CHTO   C95 2635   6.707   2.711   5.378
    7CHTO  H182 2636   6.614   2.735   5.327
    7CHTO  C106 2637   6.721   2.813   5.496
    7CHTO   O69 2638   6.602   2.814   5.576
    7CHTO  H169 2639   6.613   2.875   5.647
    7CHTO   O63 2640   6.676   2.338   5.413
    7CHTO   C96 2641   6.539   2.314   5.485
    7CHTO  H183 2642   6.460   2.341   5.415
    7CHTO   C98 2643   6.518   2.397   5.616
    7CHTO  H185 2644   6.525   2.505   5.595
    7CHTO   O67 2645   6.383   2.376   5.662
    7CHTO  H167 2646   6.322   2.412   5.602
    7CHTO  C102 2647   6.618   2.353   5.733
    7CHTO  H189 2648   6.568   2.378   5.827
    7CHTO   N18 2649   6.747   2.426   5.736
    7CHTO  H176 2650   6.808   2.392   5.818
    7CHTO  H177 2651   6.729   2.532   5.747
    7CHTO  C105 2652   6.639   2.198   5.728
    7CHTO  H192 2653   6.734   2.175   5.677
    7CHTO   O65 2654   6.535   2.129   5.658
    7CHTO  C100 2655   6.531   2.158   5.517
    7CHTO  H187 2656   6.616   2.107   5.470
    7CHTO  C107 2657   6.403   2.095   5.457
    7CHTO   O70 2658   6.403   1.952   5.472
    7CHTO  H170 2659   6.325   1.917   5.434
    7CHTO   O57 2660   6.646   2.153   5.876
    7CHTO   C85 2661   6.687   2.018   5.903
    7CHTO  H157 2662   6.740   1.981   5.812
    7CHTO   C83 2663   6.561   1.928   5.917
    7CHTO  H155 2664   6.508   1.928   5.822
    7CHTO   O56 2665   6.471   1.985   6.014
    7CHTO  H135 2666   6.391   1.935   6.016
    7CHTO   C81 2667   6.606   1.782   5.949
    7CHTO  H153 2668   6.674   1.750   5.869
    7CHTO   N14 2669   6.495   1.683   5.945
    7CHTO  H141 2670   6.400   1.731   5.934
    7CHTO  H142 2671   6.509   1.614   5.865
    7CHTO   C79 2672   6.686   1.780   6.084
    7CHTO  H151 2673   6.723   1.679   6.099
    7CHTO   O52 2674   6.804   1.866   6.074
    7CHTO   C86 2675   6.778   2.004   6.033
    7CHTO  H158 2676   6.731   2.052   6.121
    7CHTO   C90 2677   6.915   2.075   6.014
    7CHTO   O60 2678   6.901   2.216   5.993
    7CHTO  H138 2679   6.871   2.258   6.071
    7CHTO   O50 2680   6.610   1.819   6.200
    7CHTO   C73 2681   6.613   1.760   6.331
    7CHTO  H145 2682   6.713   1.718   6.351
    7CHTO   C74 2683   6.508   1.645   6.340
    7CHTO  H146 2684   6.533   1.571   6.262
    7CHTO   O54 2685   6.524   1.578   6.467
    7CHTO  H133 2686   6.465   1.506   6.473
    7CHTO   C75 2687   6.364   1.707   6.319
    7CHTO  H147 2688   6.360   1.753   6.219
    7CHTO   N13 2689   6.255   1.606   6.319
    7CHTO  H139 2690   6.160   1.654   6.302
    7CHTO  H140 2691   6.252   1.556   6.415
    7CHTO   C76 2692   6.341   1.824   6.425
    7CHTO  H148 2693   6.336   1.780   6.525
    7CHTO   O49 2694   6.450   1.923   6.421
    7CHTO   C77 2695   6.581   1.868   6.438
    7CHTO  H149 2696   6.589   1.823   6.537
    7CHTO   C88 2697   6.686   1.980   6.435
    7CHTO   O58 2698   6.669   2.073   6.548
    7CHTO  H136 2699   6.692   2.030   6.628
    7CHTO   O51 2700   6.212   1.908   6.388
    7CHTO   C78 2701   6.126   1.947   6.512
    7CHTO  H150 2702   6.180   1.930   6.607
    7CHTO   C80 2703   5.996   1.863   6.514
    7CHTO  H152 2704   5.950   1.867   6.413
    7CHTO   O55 2705   6.032   1.726   6.540
    7CHTO  H134 2706   6.070   1.718   6.626
    7CHTO   C84 2707   5.892   1.916   6.620
    7CHTO  H156 2708   5.933   1.899   6.719
    7CHTO   N15 2709   5.760   1.845   6.616
    7CHTO  H143 2710   5.740   1.797   6.710
    7CHTO  H144 2711   5.759   1.770   6.538
    7CHTO   C87 2712   5.873   2.068   6.600
    7CHTO  H159 2713   5.832   2.086   6.501
    7CHTO   O53 2714   6.009   2.136   6.613
    7CHTO   C82 2715   6.096   2.098   6.505
    7CHTO  H154 2716   6.050   2.123   6.410
    7CHTO   C89 2717   6.228   2.179   6.515
    7CHTO   O59 2718   6.204   2.321   6.506
    7CHTO  H137 2719   6.176   2.343   6.420
    7CHTO   O45 2720   5.778   2.132   6.711
    7CHTO   C67 2721   5.728   2.261   6.673
    7CHTO  H124 2722   5.808   2.316   6.624
    7CHTO   C65 2723   5.607   2.248   6.573
    7CHTO  H122 2724   5.565   2.148   6.589
    7CHTO   O44 2725   5.662   2.255   6.440
    7CHTO  H102 2726   5.597   2.234   6.377
    7CHTO   C63 2727   5.489   2.347   6.606
    7CHTO  H120 2728   5.437   2.310   6.694
    7CHTO   N11 2729   5.378   2.353   6.505
    7CHTO  H108 2730   5.405   2.301   6.416
    7CHTO  H109 2731   5.354   2.455   6.481
    7CHTO   C61 2732   5.550   2.486   6.646
    7CHTO  H118 2733   5.466   2.551   6.673
    7CHTO   O40 2734   5.635   2.478   0.015
    7CHTO   C68 2735   5.691   2.348   0.052
    7CHTO  H125 2736   5.616   2.294   0.115
    7CHTO   C72 2737   5.813   2.376   0.142
    7CHTO   O48 2738   5.873   2.259   0.198
    7CHTO  H105 2739   5.946   2.283   0.251
    7CHTO   O38 2740   5.627   2.545   6.540
    7CHTO   C55 2741   5.646   2.687   6.550
    7CHTO  H112 2742   5.638   2.720   6.655
    7CHTO   C56 2743   5.541   2.761   6.457
    7CHTO  H113 2744   5.550   2.716   6.356
    7CHTO   O42 2745   5.407   2.733   6.502
    7CHTO  H100 2746   5.388   2.642   6.492
    7CHTO   C57 2747   5.568   2.916   6.451
    7CHTO  H114 2748   5.541   2.957   6.549
    7CHTO   N10 2749   5.484   2.986   6.350
    7CHTO  H106 2750   5.534   3.075   6.314
    7CHTO  H107 2751   5.463   2.921   6.267
    7CHTO   C58 2752   5.719   2.943   6.426
    7CHTO  H115 2753   5.745   2.913   6.322
    7CHTO   O37 2754   5.802   2.870   6.518
    7CHTO   C59 2755   5.790   2.727   6.505
    7CHTO  H116 2756   5.809   2.697   6.402
    7CHTO   C70 2757   5.899   2.666   6.595
    7CHTO   O46 2758   5.922   2.528   6.569
    7CHTO  H103 2759   5.961   2.518   6.484
    7CHTO   O39 2760   5.752   3.097   6.451
    7CHTO   C60 2761   5.874   3.144   6.391
    7CHTO  H117 2762   5.954   3.074   6.413
    7CHTO   C62 2763   5.862   3.157   6.236
    7CHTO  H119 2764   5.849   3.054   6.196
    7CHTO   O43 2765   5.745   3.234   6.201
    7CHTO  H101 2766   5.753   3.321   6.234
    7CHTO   C66 2767   5.999   3.218   6.178
    7CHTO  H123 2768   6.082   3.156   6.211
    7CHTO   N12 2769   6.003   3.217   6.030
    7CHTO  H110 2770   5.997   3.115   5.994
    7CHTO  H111 2771   5.923   3.277   5.990
    7CHTO   C69 2772   6.018   3.360   6.239
    7CHTO  H126 2773   5.930   3.424   6.215
    7CHTO   O41 2774   6.031   3.344   6.392
    7CHTO   C64 2775   5.912   3.279   6.456
    7CHTO  H121 2776   5.826   3.347   6.445
    7CHTO   C71 2777   5.939   3.263   6.608
    7CHTO   O47 2778   6.055   3.183   6.634
    7CHTO  H104 2779   6.067   3.175   6.726
    7CHTO   O34 2780   6.145   3.433   6.188
    7CHTO   C49 2781   6.288   3.478   6.176
    7CHTO   H91 2782   6.287   3.566   6.111
    7CHTO   C47 2783   6.372   3.367   6.110
    7CHTO   H89 2784   6.471   3.414   6.095
    7CHTO   O33 2785   6.319   3.333   5.981
    7CHTO   H70 2786   6.377   3.275   5.936
    7CHTO   C45 2787   6.383   3.237   6.207
    7CHTO   H87 2788   6.296   3.173   6.188
    7CHTO    N8 2789   6.505   3.162   6.169
    7CHTO   H75 2790   6.593   3.220   6.192
    7CHTO   H76 2791   6.508   3.068   6.223
    7CHTO   C43 2792   6.370   3.280   6.362
    7CHTO   H85 2793   6.264   3.278   6.384
    7CHTO   O29 2794   6.426   3.411   6.381
    7CHTO   C50 2795   6.352   3.515   6.314
    7CHTO   H92 2796   6.271   3.548   6.381
    7CHTO   C54 2797   6.443   3.640   6.303
    7CHTO   O36 2798   6.477   3.692   6.432
    7CHTO   H72 2799   6.401   3.729   6.472
    7CHTO   O27 2800   6.427   3.187   6.456
    7CHTO   C37 2801   6.399   3.078   6.545
    7CHTO   H79 2802   6.312   3.103   6.608
    7CHTO   C38 2803   6.362   2.949   6.465
    7CHTO   H80 2804   6.437   2.935   6.386
    7CHTO   O31 2805   6.234   2.973   6.404
    7CHTO   H68 2806   6.212   2.902   6.347
    7CHTO   C39 2807   6.361   2.821   6.558
    7CHTO   H81 2808   6.278   2.832   6.629
    7CHTO    N7 2809   6.338   2.694   6.482
    7CHTO   H73 2810   6.336   2.610   6.550
    7CHTO   H74 2811   6.244   2.699   6.428
    7CHTO   C40 2812   6.494   2.815   6.642
    7CHTO   H82 2813   6.578   2.803   6.573
    7CHTO   O26 2814   6.505   2.936   6.719
    7CHTO   C41 2815   6.522   3.055   6.637
    7CHTO   H83 2816   6.612   3.043   6.574
    7CHTO   C52 2817   6.549   3.175   6.731
    7CHTO   O35 2818   6.438   3.198   0.080
    7CHTO   H71 2819   6.459   3.272   0.134
    7CHTO   O28 2820   6.498   2.709   6.739
    7CHTO   C42 2821   6.626   2.651   0.032
    7CHTO   H84 2822   6.600   2.586   0.115
    7CHTO   C44 2823   6.732   2.753   0.088
    7CHTO   H86 2824   6.747   2.832   0.014
    7CHTO   O32 2825   6.675   2.813   0.205
    7CHTO   H69 2826   6.663   2.749   0.273
    7CHTO   C48 2827   6.873   2.687   0.117
    7CHTO   H90 2828   6.863   2.620   0.202
    7CHTO    N9 2829   6.976   2.789   0.157
    7CHTO   H77 2830   7.071   2.740   0.176
    7CHTO   H78 2831   6.943   2.842   0.245
    7CHTO   C51 2832   6.917   2.602   6.740
    7CHTO   H93 2833   6.926   2.671   6.655
    7CHTO   O30 2834   6.817   2.503   6.718
    7CHTO   C46 2835   6.688   2.560   6.669
    7CHTO   H88 2836   6.708   2.620   6.580
    7CHTO   C53 2837   6.595   2.443   6.634
    7CHTO   O72 2838   6.649   2.368   6.525
    7CHTO  H199 2839   6.590   2.297   6.504
    7CHTO   O22 2840   7.040   2.529   0.011
    7CHTO   C31 2841   7.121   2.487   6.643
    7CHTO   H59 2842   7.207   2.430   6.685
    7CHTO   C29 2843   7.049   2.392   6.544
    7CHTO   H57 2844   6.959   2.443   6.508
    7CHTO   O21 2845   7.006   2.275   6.617
    7CHTO   H37 2846   6.940   2.298   6.679
    7CHTO   C27 2847   7.140   2.354   6.419
    7CHTO   H55 2848   7.225   2.295   6.454
    7CHTO    N5 2849   7.066   2.275   6.317
    7CHTO   H43 2850   6.983   2.331   6.279
    7CHTO   H44 2851   7.032   2.182   6.360
    7CHTO   C25 2852   7.197   2.486   6.356
    7CHTO   H53 2853   7.114   2.547   6.317
    7CHTO   O17 2854   7.268   2.562   6.458
    7CHTO   C32 2855   7.185   2.607   6.566
    7CHTO   H60 2856   7.104   2.668   6.524
    7CHTO   C36 2857   7.269   2.699   6.657
    7CHTO   O25 2858   7.381   2.632   6.716
    7CHTO   H40 2859   7.443   2.609   6.649
    7CHTO   O15 2860   7.300   2.458   6.238
    7CHTO   C19 2861   7.334   2.517   6.109
    7CHTO   H47 2862   7.440   2.493   6.096
    7CHTO   C20 2863   7.256   2.456   5.988
    7CHTO   H48 2864   7.147   2.472   5.997
    7CHTO   O19 2865   7.281   2.314   5.990
    7CHTO   H35 2866   7.229   2.271   5.924
    7CHTO   C21 2867   7.303   2.521   5.850
    7CHTO   H49 2868   7.408   2.496   5.835
    7CHTO    N4 2869   7.229   2.468   5.732
    7CHTO   H41 2870   7.176   2.547   5.681
    7CHTO   H42 2871   7.160   2.390   5.760
    7CHTO   C22 2872   7.294   2.675   5.863
    7CHTO   H50 2873   7.188   2.701   5.873
    7CHTO   O14 2874   7.367   2.722   5.977
    7CHTO   C23 2875   7.323   2.672   6.104
    7CHTO   H51 2876   7.219   2.706   6.119
    7CHTO   C34 2877   7.407   2.741   6.213
    7CHTO   O23 2878   7.546   2.712   6.201
    7CHTO   H38 2879   7.594   2.754   6.270
    7CHTO   O16 2880   7.353   2.746   5.752
    7CHTO   C24 2881   7.274   2.886   5.717
    7CHTO   H52 2882   7.195   2.907   5.789
    7CHTO   C26 2883   7.211   2.874   5.577
    7CHTO   H54 2884   7.292   2.851   5.503
    7CHTO   O20 2885   7.118   2.764   5.579
    7CHTO   H36 2886   7.085   2.749   5.492
    7CHTO   C30 2887   7.142   3.008   5.535
    7CHTO   H58 2888   7.054   3.025   5.599
    7CHTO    N6 2889   7.091   3.002   5.396
    7CHTO   H45 2890   7.173   2.987   5.327
    7CHTO   H46 2891   7.041   3.095   5.371
    7CHTO   C33 2892   7.238   3.130   5.558
    7CHTO   H61 2893   7.318   3.128   5.483
    7CHTO   O18 2894   7.297   3.125   5.689
    7CHTO   C28 2895   7.371   3.006   5.720
    7CHTO   H56 2896   7.450   2.990   5.646
    7CHTO   C35 2897   7.438   3.024   5.858
    7CHTO   O24 2898   7.344   3.045   5.964
    7CHTO   H39 2899   7.390   3.054   6.046
    7CHTO    O9 2900   7.167   3.254   5.537
    7CHTO   C13 2901   7.241   3.362   5.442
    7CHTO   H26 2902   7.275   3.309   5.350
    7CHTO   C11 2903   7.363   3.429   5.519
    7CHTO   H24 2904   7.447   3.357   5.518
    7CHTO    O8 2905   7.327   3.453   5.657
    7CHTO    H3 2906   7.402   3.483   5.705
    7CHTO    C9 2907   7.404   3.559   5.445
    7CHTO   H22 2908   7.418   3.529   5.340
    7CHTO    N2 2909   7.537   3.611   5.487
    7CHTO   H10 2910   7.608   3.605   5.405
    7CHTO   H11 2911   7.529   3.713   5.522
    7CHTO    C7 2912   7.284   3.662   5.451
    7CHTO   H20 2913   7.290   3.717   5.354
    7CHTO    O4 2914   7.155   3.598   5.462
    7CHTO   C14 2915   7.139   3.474   5.390
    7CHTO   H27 2916   7.160   3.494   5.283
    7CHTO   C18 2917   6.990   3.434   5.401
    7CHTO   O13 2918   6.960   3.322   5.317
    7CHTO    H7 2919   7.002   3.245   5.350
    7CHTO    O2 2920   7.297   3.771   5.575
    7CHTO    C1 2921   7.193   3.870   5.580
    7CHTO   H14 2922   7.102   3.831   5.529
    7CHTO    C2 2923   7.233   4.008   5.512
    7CHTO   H15 2924   7.326   4.041   5.561
    7CHTO    O6 2925   7.256   3.985   5.372
    7CHTO    H1 2926   7.334   3.933   5.360
    7CHTO    C3 2927   7.117   4.116   5.536
    7CHTO   H16 2928   7.026   4.083   5.484
    7CHTO    N1 2929   7.152   4.252   5.481
    7CHTO    H8 2930   7.171   4.244   5.375
    7CHTO    H9 2931   7.072   4.321   5.499
    7CHTO    C4 2932   7.079   4.121   5.689
    7CHTO   H17 2933   7.163   4.163   5.745
    7CHTO    O1 2934   7.047   3.990   5.738
    7CHTO    C5 2935   7.154   3.894   5.728
    7CHTO   H18 2936   7.242   3.933   5.780
    7CHTO   C16 2937   7.109   3.763   5.800
    7CHTO   O11 2938   6.994   3.703   5.739
    7CHTO    H5 2939   7.016   3.671   5.654
    7CHTO    O3 2940   6.960   4.199   5.712
    7CHTO    C6 2941   6.948   4.254   5.847
    7CHTO   H19 2942   7.020   4.210   5.917
    7CHTO    C8 2943   6.972   4.409   5.845
    7CHTO   H21 2944   6.904   4.453   5.773
    7CHTO    O7 2945   7.108   4.432   5.803
    7CHTO    H2 2946   7.118   4.409   5.712
    7CHTO   C12 2947   6.944   4.471   5.988
    7CHTO   H25 2948   7.026   4.433   6.054
    7CHTO    N3 2949   6.956   4.621   5.988
    7CHTO   H12 2950   7.055   4.650   5.958
    7CHTO   H13 2951   6.882   4.663   5.921
    7CHTO   C15 2952   6.807   4.420   6.045
    7CHTO   H28 2953   6.722   4.467   5.995
    7CHTO   O10 2954   6.795   4.444   6.198
    7CHTO    H4 2955   6.868   4.407   6.243
    7CHTO    O5 2956   6.795   4.277   6.037
    7CHTO   C10 2957   6.807   4.225   5.904
    7CHTO   H23 2958   6.732   4.273   5.840
    7CHTO   C17 2959   6.775   4.075   5.909
    7CHTO   O12 2960   6.638   4.052   5.944
    7CHTO    H6 2961   6.622   3.960   5.949
    8CHTO  H203 2962   8.035   7.266   1.275
    8CHTO   O82 2963   8.027   7.328   1.345
    8CHTO  C123 2964   7.889   7.360   1.367
    8CHTO  H227 2965   7.835   7.268   1.394
    8CHTO   O77 2966   7.894   7.450   1.482
    8CHTO  C118 2967   7.766   7.490   1.530
    8CHTO  H222 2968   7.704   7.401   1.552
    8CHTO  C125 2969   7.786   7.570   1.664
    8CHTO   O84 2970   7.840   7.485   1.766
    8CHTO  H205 2971   7.776   7.422   1.792
    8CHTO  C114 2972   7.694   7.575   1.424
    8CHTO  H218 2973   7.754   7.663   1.404
    8CHTO  C116 2974   7.681   7.495   1.290
    8CHTO  H220 2975   7.607   7.413   1.304
    8CHTO   O79 2976   7.627   7.581   1.188
    8CHTO  H201 2977   7.539   7.605   1.209
    8CHTO  C120 2978   7.821   7.434   1.245
    8CHTO  H224 2979   7.884   7.520   1.215
    8CHTO   N21 2980   7.809   7.345   1.126
    8CHTO  H211 2981   7.729   7.379   1.062
    8CHTO  H212 2982   7.790   7.243   1.157
    8CHTO   O75 2983   7.570   7.612   1.486
    8CHTO  C112 2984   7.483   7.730   1.412
    8CHTO  H216 2985   7.437   7.688   1.321
    8CHTO   O73 2986   7.573   7.838   1.381
    8CHTO  C113 2987   7.513   7.939   1.299
    8CHTO  H217 2988   7.473   7.893   1.206
    8CHTO  C124 2989   7.623   8.038   1.258
    8CHTO   O83 2990   7.727   7.976   1.181
    8CHTO  H204 2991   7.776   7.917   1.235
    8CHTO  C109 2992   7.397   8.010   1.376
    8CHTO  H213 2993   7.443   8.068   1.457
    8CHTO  C110 2994   7.298   7.904   1.433
    8CHTO  H214 2995   7.240   7.863   1.349
    8CHTO   O78 2996   7.205   7.971   1.520
    8CHTO  H200 2997   7.149   8.029   1.471
    8CHTO  C111 2998   7.371   7.787   1.506
    8CHTO  H215 2999   7.420   7.827   1.596
    8CHTO   N19 3000   7.280   7.679   1.551
    8CHTO  H207 3001   7.336   7.602   1.601
    8CHTO  H208 3002   7.205   7.719   1.618
    8CHTO   O74 3003   7.325   8.101   1.287
    8CHTO  C115 3004   7.336   8.263   1.319
    8CHTO  H219 3005   7.359   8.283   1.424
    8CHTO   O76 3006   7.454   8.330   1.237
    8CHTO  C122 3007   7.457   8.473   1.229
    8CHTO  H226 3008   7.535   8.498   1.157
    8CHTO  C126 3009   7.505   8.534   1.366
    8CHTO   O85 3010   7.521   8.676   1.359
    8CHTO  H206 3011   7.551   8.709   1.442
    8CHTO  C121 3012   7.319   8.532   1.181
    8CHTO  H225 3013   7.326   8.643   1.186
    8CHTO   O81 3014   7.296   8.496   1.044
    8CHTO  H202 3015   7.361   8.535   0.988
    8CHTO  C119 3016   7.201   8.484   1.270
    8CHTO  H223 3017   7.218   8.527   1.369
    8CHTO  C117 3018   7.195   8.327   1.284
    8CHTO  H221 3019   7.164   8.274   1.194
    8CHTO   N20 3020   7.096   8.287   1.390
    8CHTO  H209 3021   7.058   8.373   1.443
    8CHTO  H210 3022   7.014   8.232   1.345
    8CHTO   O80 3023   7.057   8.554   1.229
    8CHTO  C103 3024   7.031   8.715   1.252
    8CHTO  H190 3025   6.924   8.731   1.270
    8CHTO  C101 3026   7.109   8.786   1.368
    8CHTO  H188 3027   7.217   8.773   1.352
    8CHTO   O68 3028   7.070   8.719   1.503
    8CHTO  H168 3029   7.120   8.757   1.573
    8CHTO   C99 3030   7.077   8.943   1.365
    8CHTO  H186 3031   6.967   8.957   1.379
    8CHTO   N17 3032   7.144   9.022   1.473
    8CHTO  H174 3033   7.071   9.062   1.542
    8CHTO  H175 3034   7.217   8.962   1.525
    8CHTO   C97 3035   7.109   9.001   1.224
    8CHTO  H184 3036   7.218   8.995   1.208
    8CHTO   O64 3037   7.036   8.927   1.124
    8CHTO  C104 3038   7.066   8.786   1.116
    8CHTO  H191 3039   7.171   8.770   1.093
    8CHTO  C108 3040   6.987   8.724   1.000
    8CHTO   O71 3041   7.030   8.777   0.874
    8CHTO  H171 3042   6.981   8.738   0.805
    8CHTO   O62 3043   7.060   9.136   1.207
    8CHTO   C91 3044   7.146   9.235   1.145
    8CHTO  H178 3045   7.249   9.198   1.145
    8CHTO   C92 3046   7.146   9.364   1.234
    8CHTO  H179 3047   7.042   9.387   1.262
    8CHTO   O66 3048   7.211   9.330   1.358
    8CHTO  H166 3049   7.204   9.402   1.419
    8CHTO   C93 3050   7.215   9.489   1.167
    8CHTO  H180 3051   7.323   9.469   1.166
    8CHTO   N16 3052   7.198   9.614   1.246
    8CHTO  H172 3053   7.094   9.640   1.255
    8CHTO  H173 3054   7.253   9.695   1.199
    8CHTO   C94 3055   7.165   9.508   1.020
    8CHTO  H181 3056   7.059   9.534   1.015
    8CHTO   O61 3057   7.182   9.386   0.947
    8CHTO   C95 3058   7.107   9.273   0.996
    8CHTO  H182 3059   7.001   9.297   0.991
    8CHTO  C106 3060   7.131   9.155   0.896
    8CHTO   O69 3061   7.271   9.127   0.883
    8CHTO  H169 3062   7.314   9.197   0.837
    8CHTO   O63 3063   7.254   9.621   0.943
    8CHTO   C96 3064   7.220   9.641   0.790
    8CHTO  H183 3065   7.127   9.586   0.770
    8CHTO   C98 3066   7.328   9.585   0.694
    8CHTO  H185 3067   7.428   9.620   0.725
    8CHTO   O67 3068   7.331   9.442   0.709
    8CHTO  H167 3069   7.363   9.418   0.793
    8CHTO  C102 3070   7.299   9.627   0.543
    8CHTO  H189 3071   7.202   9.581   0.518
    8CHTO   N18 3072   7.394   9.574   0.441
    8CHTO  H176 3073   7.392   9.466   0.442
    8CHTO  H177 3074   7.494   9.608   0.463
    8CHTO  C105 3075   7.285   9.781   0.531
    8CHTO  H192 3076   7.377   9.824   0.490
    8CHTO   O65 3077   7.262   9.854   0.654
    8CHTO  C100 3078   7.193   9.795   0.766
    8CHTO  H187 3079   7.231   9.848   0.854
    8CHTO  C107 3080   7.042   9.827   0.761
    8CHTO   O70 3081   6.977   9.770   0.646
    8CHTO  H170 3082   6.886   9.793   0.647
    8CHTO   O57 3083   7.165   9.801   0.426
    8CHTO   C85 3084   7.169   9.912   0.336
    8CHTO  H157 3085   7.276   9.928   0.311
    8CHTO   C83 3086   7.123   0.041   0.410
    8CHTO  H155 3087   7.193   0.060   0.492
    8CHTO   O56 3088   6.995   0.018   0.472
    8CHTO  H135 3089   6.929   0.003   0.407
    8CHTO   C81 3090   7.125   0.162   0.313
    8CHTO  H153 3091   7.226   0.170   0.272
    8CHTO   N14 3092   7.102   0.292   0.380
    8CHTO  H141 3093   7.002   0.295   0.420
    8CHTO  H142 3094   7.114   0.372   0.311
    8CHTO   C79 3095   7.026   0.134   0.193
    8CHTO  H151 3096   7.037   0.217   0.123
    8CHTO   O52 3097   7.066   0.012   0.122
    8CHTO   C86 3098   7.081   9.892   0.205
    8CHTO  H158 3099   6.977   9.862   0.230
    8CHTO   C90 3100   7.138   9.780   0.114
    8CHTO   O60 3101   7.142   9.653   0.179
    8CHTO  H138 3102   7.176   9.589   0.119
    8CHTO   O50 3103   6.888   0.125   0.233
    8CHTO   C73 3104   6.767   0.160   0.164
    8CHTO  H145 3105   6.780   0.146   0.055
    8CHTO   C74 3106   6.730   0.309   0.191
    8CHTO  H146 3107   6.815   0.370   0.158
    8CHTO   O54 3108   6.620   0.343   0.104
    8CHTO  H133 3109   6.598   0.434   0.114
    8CHTO   C75 3110   6.698   0.328   0.344
    8CHTO  H147 3111   6.788   0.301   0.402
    8CHTO   N13 3112   6.666   0.468   0.381
    8CHTO  H139 3113   6.566   0.477   0.420
    8CHTO  H140 3114   6.736   0.504   0.455
    8CHTO   C76 3115   6.583   0.225   0.387
    8CHTO  H148 3116   6.492   0.251   0.333
    8CHTO   O49 3117   6.623   0.088   0.352
    8CHTO   C77 3118   6.651   0.067   0.213
    8CHTO  H149 3119   6.562   0.088   0.154
    8CHTO   C88 3120   6.682   9.918   0.195
    8CHTO   O58 3121   6.712   9.885   0.054
    8CHTO  H136 3122   6.793   9.925   0.029
    8CHTO   O51 3123   6.561   0.224   0.547
    8CHTO   C78 3124   6.455   0.114   0.593
    8CHTO  H150 3125   6.427   0.047   0.509
    8CHTO   C80 3126   6.328   0.182   0.648
    8CHTO  H152 3127   6.356   0.250   0.731
    8CHTO   O55 3128   6.271   0.262   0.543
    8CHTO  H134 3129   6.243   0.208   0.471
    8CHTO   C84 3130   6.224   0.074   0.702
    8CHTO  H156 3131   6.192   0.014   0.616
    8CHTO   N15 3132   6.100   0.134   0.763
    8CHTO  H143 3133   6.104   0.241   0.759
    8CHTO  H144 3134   6.013   0.100   0.711
    8CHTO   C87 3135   6.296   9.980   0.802
    8CHTO  H159 3136   6.323   0.036   0.892
    8CHTO   O53 3137   6.422   9.923   0.735
    8CHTO   C82 3138   6.518   0.024   0.702
    8CHTO  H154 3139   6.544   0.082   0.791
    8CHTO   C89 3140   6.646   9.952   0.656
    8CHTO   O59 3141   6.757   0.041   0.645
    8CHTO  H137 3142   6.745   0.099   0.572
    8CHTO   O45 3143   6.203   9.853   0.843
    8CHTO   C67 3144   6.268   9.764   0.936
    8CHTO  H124 3145   6.373   9.755   0.909
    8CHTO   C65 3146   6.259   9.819   1.083
    8CHTO  H122 3147   6.171   9.883   1.087
    8CHTO   O44 3148   6.377   9.900   1.102
    8CHTO  H102 3149   6.371   9.946   1.183
    8CHTO   C63 3150   6.231   9.706   1.190
    8CHTO  H120 3151   6.126   9.678   1.184
    8CHTO   N11 3152   6.245   9.746   1.334
    8CHTO  H108 3153   6.149   9.752   1.381
    8CHTO  H109 3154   6.295   9.841   1.342
    8CHTO   C61 3155   6.312   9.577   1.152
    8CHTO  H118 3156   6.281   9.499   1.224
    8CHTO   O40 3157   6.276   9.527   1.019
    8CHTO   C68 3158   6.210   9.618   0.925
    8CHTO  H125 3159   6.100   9.618   0.945
    8CHTO   C72 3160   6.229   9.563   0.781
    8CHTO   O48 3161   6.173   9.432   0.764
    8CHTO  H105 3162   6.188   9.403   0.676
    8CHTO   O38 3163   6.455   9.597   1.159
    8CHTO   C55 3164   6.533   9.477   1.142
    8CHTO  H112 3165   6.475   9.400   1.088
    8CHTO   C56 3166   6.588   9.423   1.280
    8CHTO  H113 3167   6.656   9.499   1.322
    8CHTO   O42 3168   6.480   9.407   1.375
    8CHTO  H100 3169   6.443   9.491   1.396
    8CHTO   C57 3170   6.663   9.287   1.256
    8CHTO  H114 3171   6.585   9.215   1.231
    8CHTO   N10 3172   6.734   9.232   1.375
    8CHTO  H106 3173   6.667   9.169   1.432
    8CHTO  H107 3174   6.769   9.312   1.438
    8CHTO   C58 3175   6.762   9.295   1.135
    8CHTO  H115 3176   6.859   9.335   1.170
    8CHTO   O37 3177   6.718   9.375   1.024
    8CHTO   C59 3178   6.658   9.503   1.054
    8CHTO  H116 3179   6.730   9.566   1.106
    8CHTO   C70 3180   6.620   9.572   0.922
    8CHTO   O46 3181   6.735   9.611   0.846
    8CHTO  H103 3182   6.781   9.680   0.890
    8CHTO   O39 3183   6.783   9.137   1.073
    8CHTO   C60 3184   6.675   9.095   0.987
    8CHTO  H117 3185   6.588   9.159   1.005
    8CHTO   C62 3186   6.713   9.109   0.837
    8CHTO  H119 3187   6.749   9.213   0.823
    8CHTO   O43 3188   6.823   9.021   0.805
    8CHTO  H101 3189   6.798   8.931   0.815
    8CHTO   C66 3190   6.583   9.085   0.747
    8CHTO  H123 3191   6.506   9.157   0.777
    8CHTO   N12 3192   6.607   9.111   0.602
    8CHTO  H110 3193   6.641   9.213   0.588
    8CHTO  H111 3194   6.516   9.093   0.546
    8CHTO   C69 3195   6.525   8.944   0.772
    8CHTO  H126 3196   6.592   8.866   0.730
    8CHTO   O41 3197   6.506   8.917   0.931
    8CHTO   C64 3198   6.629   8.950   1.017
    8CHTO  H121 3199   6.712   8.879   0.992
    8CHTO   C71 3200   6.592   8.931   1.166
    8CHTO   O47 3201   6.558   8.795   1.195
    8CHTO  H104 3202   6.532   8.788   1.285
    8CHTO   O34 3203   6.382   8.930   0.701
    8CHTO   C49 3204   6.292   8.817   0.736
    8CHTO   H91 3205   6.351   8.746   0.793
    8CHTO   C47 3206   6.240   8.753   0.605
    8CHTO   H89 3207   6.183   8.663   0.638
    8CHTO   O33 3208   6.351   8.709   0.525
    8CHTO   H70 3209   6.320   8.660   0.451
    8CHTO   C45 3210   6.145   8.855   0.524
    8CHTO   H87 3211   6.209   8.918   0.460
    8CHTO    N8 3212   6.055   8.776   0.436
    8CHTO   H75 3213   5.952   8.801   0.454
    8CHTO   H76 3214   6.079   8.794   0.332
    8CHTO   C43 3215   6.073   8.959   0.626
    8CHTO   H85 3216   6.143   9.042   0.636
    8CHTO   O29 3217   6.047   8.894   0.751
    8CHTO   C50 3218   6.168   8.860   0.822
    8CHTO   H92 3219   6.198   8.949   0.880
    8CHTO   C54 3220   6.135   8.757   0.933
    8CHTO   O36 3221   6.081   8.636   0.877
    8CHTO   H72 3222   6.064   8.575   0.947
    8CHTO   O27 3223   5.953   9.019   0.574
    8CHTO   C37 3224   5.860   9.125   0.599
    8CHTO   H79 3225   5.758   9.084   0.610
    8CHTO   C38 3226   5.891   9.200   0.732
    8CHTO   H80 3227   5.998   9.227   0.732
    8CHTO   O31 3228   5.867   9.109   0.840
    8CHTO   H68 3229   5.893   9.147   0.922
    8CHTO   C39 3230   5.805   9.331   0.747
    8CHTO   H81 3231   5.701   9.300   0.761
    8CHTO    N7 3232   5.841   9.413   0.868
    8CHTO   H73 3233   5.829   9.354   0.958
    8CHTO   H74 3234   5.779   9.501   0.873
    8CHTO   C40 3235   5.810   9.417   0.615
    8CHTO   H82 3236   5.909   9.461   0.603
    8CHTO   O26 3237   5.773   9.336   0.502
    8CHTO   C41 3238   5.862   9.223   0.479
    8CHTO   H83 3239   5.964   9.260   0.465
    8CHTO   C52 3240   5.818   9.153   0.348
    8CHTO   O35 3241   5.678   9.105   0.350
    8CHTO   H71 3242   5.657   9.065   0.268
    8CHTO   O28 3243   5.712   9.523   0.617
    8CHTO   C42 3244   5.708   9.633   0.521
    8CHTO   H84 3245   5.627   9.697   0.559
    8CHTO   C44 3246   5.668   9.598   0.374
    8CHTO   H86 3247   5.749   9.540   0.329
    8CHTO   O32 3248   5.550   9.516   0.380
    8CHTO   H69 3249   5.570   9.432   0.416
    8CHTO   C48 3250   5.647   9.729   0.289
    8CHTO   H90 3251   5.563   9.783   0.333
    8CHTO    N9 3252   5.605   9.702   0.146
    8CHTO   H77 3253   5.679   9.740   0.076
    8CHTO   H78 3254   5.588   9.597   0.130
    8CHTO   C51 3255   5.774   9.821   0.299
    8CHTO   H93 3256   5.855   9.774   0.242
    8CHTO   O30 3257   5.811   9.844   0.436
    8CHTO   C46 3258   5.837   9.721   0.517
    8CHTO   H88 3259   5.917   9.665   0.470
    8CHTO   C53 3260   5.881   9.767   0.659
    8CHTO   O72 3261   5.782   9.848   0.724
    8CHTO  H199 3262   5.707   9.795   0.745
    8CHTO   O22 3263   5.747   9.954   0.250
    8CHTO   C31 3264   5.851   0.038   0.186
    8CHTO   H59 3265   5.810   0.141   0.187
    8CHTO   C29 3266   5.986   0.043   0.261
    8CHTO   H57 3267   6.018   9.939   0.279
    8CHTO   O21 3268   5.963   0.102   0.390
    8CHTO   H37 3269   5.907   0.048   0.442
    8CHTO   C27 3270   6.098   0.117   0.178
    8CHTO   H55 3271   6.069   0.222   0.166
    8CHTO    N5 3272   6.231   0.112   0.245
    8CHTO   H43 3273   6.265   0.212   0.267
    8CHTO   H44 3274   6.304   0.060   0.185
    8CHTO   C25 3275   6.102   0.052   0.035
    8CHTO   H53 3276   6.118   9.944   0.047
    8CHTO   O17 3277   5.973   0.072   6.719
    8CHTO   C32 3278   5.867  10.000   0.035
    8CHTO   H60 3279   5.887   9.893   0.028
    8CHTO   C36 3280   5.735   0.027   6.707
    8CHTO   O25 3281   5.701   0.166   6.703
    8CHTO   H40 3282   5.622   0.178   6.654
    8CHTO   O15 3283   6.215   0.112   6.693
    8CHTO   C19 3284   6.316   0.078   6.594
    8CHTO   H47 3285   6.259   0.036   6.511
    8CHTO   C20 3286   6.396   0.202   6.543
    8CHTO   H48 3287   6.446   0.255   6.626
    8CHTO   O19 3288   6.299   0.291   6.485
    8CHTO   H35 3289   6.340   0.372   6.459
    8CHTO   C21 3290   6.507   0.162   6.437
    8CHTO   H49 3291   6.457   0.125   6.347
    8CHTO    N4 3292   6.592   0.276   6.395
    8CHTO   H41 3293   6.641   0.319   6.480
    8CHTO   H42 3294   6.531   0.352   6.347
    8CHTO   C22 3295   6.591   0.044   6.493
    8CHTO   H50 3296   6.649   0.079   6.578
    8CHTO   O14 3297   6.505   9.936   6.532
    8CHTO   C23 3298   6.415   9.966   6.640
    8CHTO   H51 3299   6.476   9.998   6.726
    8CHTO   C34 3300   6.344   9.836   6.677
    8CHTO   O23 3301   6.436   9.738   6.729
    8CHTO   H38 3302   6.469   9.765   0.064
    8CHTO   O16 3303   6.677   9.986   6.392
    8CHTO   C24 3304   6.788   9.888   6.453
    8CHTO   H52 3305   6.766   9.860   6.556
    8CHTO   C26 3306   6.925   9.958   6.448
    8CHTO   H54 3307   6.942   9.995   6.344
    8CHTO   O20 3308   6.921   0.073   6.536
    8CHTO   H36 3309   6.864   0.138   6.500
    8CHTO   C30 3310   7.041   9.861   6.486
    8CHTO   H58 3311   7.036   9.837   6.593
    8CHTO    N6 3312   7.175   9.924   6.465
    8CHTO   H45 3313   7.253   9.855   6.492
    8CHTO   H46 3314   7.183   0.013   6.526
    8CHTO   C33 3315   7.028   9.725   6.410
    8CHTO   H61 3316   7.047   9.740   6.302
    8CHTO   O18 3317   6.895   9.674   6.426
    8CHTO   C28 3318   6.792   9.757   6.371
    8CHTO   H56 3319   6.813   9.781   6.267
    8CHTO   C35 3320   6.657   9.682   6.380
    8CHTO   O24 3321   6.657   9.561   6.303
    8CHTO   H39 3322   6.573   9.519   6.310
    8CHTO    O9 3323   7.127   9.629   6.453
    8CHTO   C13 3324   7.110   9.481   6.385
    8CHTO   H26 3325   7.062   9.494   6.286
    8CHTO   C11 3326   7.023   9.390   6.482
    8CHTO   H24 3327   6.918   9.422   6.474
    8CHTO    O8 3328   7.065   9.408   6.618
    8CHTO    H3 3329   7.048   9.497   6.645
    8CHTO    C9 3330   7.034   9.242   6.434
    8CHTO   H22 3331   7.004   9.243   6.329
    8CHTO    N2 3332   6.936   9.152   6.499
    8CHTO   H10 3333   6.958   9.143   6.604
    8CHTO   H11 3334   6.836   9.190   6.485
    8CHTO    C7 3335   7.186   9.194   6.442
    8CHTO   H20 3336   7.197   9.136   6.348
    8CHTO    O4 3337   7.279   9.304   6.443
    8CHTO   C14 3338   7.252   9.414   6.355
    8CHTO   H27 3339   7.251   9.375   6.250
    8CHTO   C18 3340   7.370   9.513   6.364
    8CHTO   O13 3341   7.493   9.452   6.322
    8CHTO    H7 3342   7.563   9.514   6.331
    8CHTO    O2 3343   7.221   9.098   6.571
    8CHTO    C1 3344   7.322   8.996   6.555
    8CHTO   H14 3345   7.370   8.983   6.654
    8CHTO    C2 3346   7.438   9.023   6.448
    8CHTO   H15 3347   7.389   9.048   6.353
    8CHTO    O6 3348   7.515   9.136   6.493
    8CHTO    H1 3349   7.577   9.161   6.428
    8CHTO    C3 3350   7.532   8.894   6.428
    8CHTO   H16 3351   7.592   8.880   6.519
    8CHTO    N1 3352   7.628   8.912   6.314
    8CHTO    H8 3353   7.691   8.997   6.332
    8CHTO    H9 3354   7.689   8.823   6.303
    8CHTO    C4 3355   7.444   8.764   6.413
    8CHTO   H17 3356   7.391   8.768   6.318
    8CHTO    O1 3357   7.350   8.754   6.521
    8CHTO    C5 3358   7.253   8.860   6.524
    8CHTO   H18 3359   7.203   8.869   6.427
    8CHTO   C16 3360   7.147   8.824   6.631
    8CHTO   O11 3361   7.077   8.705   6.595
    8CHTO    H5 3362   7.135   8.631   6.601
    8CHTO    O3 3363   7.523   8.644   6.422
    8CHTO    C6 3364   7.461   8.526   6.361
    8CHTO   H19 3365   7.353   8.537   6.349
    8CHTO    C8 3366   7.523   8.499   6.220
    8CHTO   H21 3367   7.631   8.493   6.230
    8CHTO    O7 3368   7.489   8.611   6.135
    8CHTO    H2 3369   7.396   8.616   6.122
    8CHTO   C12 3370   7.470   8.362   6.160
    8CHTO   H25 3371   7.362   8.377   6.139
    8CHTO    N3 3372   7.534   8.330   6.027
    8CHTO   H12 3373   7.603   8.408   5.997
    8CHTO   H13 3374   7.584   8.235   6.030
    8CHTO   C15 3375   7.485   8.248   6.267
    8CHTO   H28 3376   7.590   8.223   6.283
    8CHTO   O10 3377   7.407   8.120   6.229
    8CHTO    H4 3378   7.429   8.050   6.288
    8CHTO    O5 3379   7.423   8.286   6.391
    8CHTO   C10 3380   7.483   8.401   6.452
    8CHTO   H23 3381   7.590   8.382   6.463
    8CHTO   C17 3382   7.427   8.419   6.594
    8CHTO   O12 3383   7.285   8.438   6.596
    8CHTO    H6 3384   7.264   8.520   6.557
    9CHTO  H203 3385   7.059   5.151   4.990
    9CHTO   O82 3386   7.080   5.064   4.961
    9CHTO  C123 3387   7.215   5.060   4.913
    9CHTO  H227 3388   7.283   5.087   4.996
    9CHTO   O77 3389   7.233   4.919   4.879
    9CHTO  C118 3390   7.364   4.885   4.831
    9CHTO  H222 3391   7.441   4.918   4.903
    9CHTO  C125 3392   7.372   4.729   4.816
    9CHTO   O84 3393   7.362   4.666   4.944
    9CHTO  H205 3394   7.367   4.573   4.934
    9CHTO  C114 3395   7.388   4.957   4.697
    9CHTO  H218 3396   7.310   4.927   4.627
    9CHTO  C116 3397   7.376   5.112   4.717
    9CHTO  H220 3398   7.461   5.147   4.780
    9CHTO   O79 3399   7.391   5.177   4.589
    9CHTO  H201 3400   7.478   5.165   4.556
    9CHTO  C120 3401   7.239   5.150   4.786
    9CHTO  H224 3402   7.159   5.131   4.712
    9CHTO   N21 3403   7.232   5.295   4.821
    9CHTO  H211 3404   7.191   5.351   4.738
    9CHTO  H212 3405   7.329   5.332   4.848
    9CHTO   O75 3406   7.518   4.916   4.650
    9CHTO  C112 3407   7.518   4.861   4.493
    9CHTO  H216 3408   7.431   4.902   4.440
    9CHTO   O73 3409   7.515   4.717   4.498
    9CHTO  C113 3410   7.512   4.654   4.369
    9CHTO  H217 3411   7.424   4.692   4.313
    9CHTO  C124 3412   7.493   4.503   4.388
    9CHTO   O83 3413   7.368   4.470   4.450
    9CHTO  H204 3414   7.361   4.377   4.459
    9CHTO  C109 3415   7.642   4.686   4.290
    9CHTO  H213 3416   7.725   4.643   4.347
    9CHTO  C110 3417   7.658   4.841   4.278
    9CHTO  H214 3418   7.579   4.879   4.214
    9CHTO   O78 3419   7.783   4.871   4.213
    9CHTO  H200 3420   7.856   4.839   4.264
    9CHTO  C111 3421   7.649   4.908   4.419
    9CHTO  H215 3422   7.736   4.876   4.479
    9CHTO   N19 3423   7.654   5.057   4.413
    9CHTO  H207 3424   7.649   5.098   4.512
    9CHTO  H208 3425   7.746   5.089   4.365
    9CHTO   O74 3426   7.637   4.623   4.159
    9CHTO  C115 3427   7.777   4.579   4.105
    9CHTO  H219 3428   7.857   4.641   4.147
    9CHTO   O76 3429   7.813   4.428   4.148
    9CHTO  C122 3430   7.731   4.327   4.087
    9CHTO  H226 3431   7.629   4.339   4.123
    9CHTO  C126 3432   7.781   4.188   4.140
    9CHTO   O85 3433   7.700   4.078   4.098
    9CHTO  H206 3434   7.735   3.998   4.132
    9CHTO  C121 3435   7.738   4.340   3.929
    9CHTO  H225 3436   7.843   4.326   3.897
    9CHTO   O81 3437   7.658   4.240   3.865
    9CHTO  H202 3438   7.691   4.155   3.883
    9CHTO  C119 3439   7.689   4.482   3.887
    9CHTO  H223 3440   7.700   4.486   3.779
    9CHTO  C117 3441   7.775   4.599   3.949
    9CHTO  H221 3442   7.735   4.699   3.935
    9CHTO   N20 3443   7.915   4.606   3.893
    9CHTO  H209 3444   7.968   4.689   3.937
    9CHTO  H210 3445   7.911   4.618   3.786
    9CHTO   O80 3446   7.536   4.502   3.903
    9CHTO  C103 3447   7.464   4.623   3.830
    9CHTO  H190 3448   7.504   4.718   3.864
    9CHTO  C101 3449   7.466   4.621   3.672
    9CHTO  H188 3450   7.441   4.520   3.639
    9CHTO   O68 3451   7.610   4.654   3.624
    9CHTO  H168 3452   7.617   4.641   3.531
    9CHTO   C99 3453   7.361   4.724   3.609
    9CHTO  H186 3454   7.396   4.827   3.630
    9CHTO   N17 3455   7.348   4.712   3.460
    9CHTO  H174 3456   7.401   4.626   3.423
    9CHTO  H175 3457   7.382   4.802   3.412
    9CHTO   C97 3458   7.222   4.712   3.679
    9CHTO  H184 3459   7.174   4.618   3.647
    9CHTO   O64 3460   7.236   4.720   3.822
    9CHTO  C104 3461   7.314   4.614   3.880
    9CHTO  H191 3462   7.274   4.516   3.855
    9CHTO  C108 3463   7.309   4.625   4.033
    9CHTO   O71 3464   7.175   4.611   4.083
    9CHTO  H171 3465   7.146   4.523   4.071
    9CHTO   O62 3466   7.138   4.826   3.650
    9CHTO   C91 3467   7.019   4.804   3.572
    9CHTO  H178 3468   7.047   4.740   3.488
    9CHTO   C92 3469   6.975   4.941   3.509
    9CHTO  H179 3470   7.062   4.991   3.464
    9CHTO   O66 3471   6.886   4.912   3.400
    9CHTO  H166 3472   6.866   4.991   3.352
    9CHTO   C93 3473   6.899   5.035   3.611
    9CHTO  H180 3474   6.847   5.110   3.549
    9CHTO   N16 3475   6.990   5.115   3.698
    9CHTO  H172 3476   7.093   5.094   3.676
    9CHTO  H173 3477   6.969   5.220   3.688
    9CHTO   C94 3478   6.793   4.954   3.695
    9CHTO  H181 3479   6.819   4.948   3.801
    9CHTO   O61 3480   6.777   4.819   3.650
    9CHTO   C95 3481   6.897   4.739   3.652
    9CHTO  H182 3482   6.926   4.722   3.755
    9CHTO  C106 3483   6.854   4.600   3.594
    9CHTO   O69 3484   6.961   4.506   3.588
    9CHTO  H169 3485   7.024   4.534   3.523
    9CHTO   O63 3486   6.654   5.023   3.678
    9CHTO   C96 3487   6.561   5.017   3.808
    9CHTO  H183 3488   6.622   5.042   3.895
    9CHTO   C98 3489   6.490   4.881   3.835
    9CHTO  H185 3490   6.441   4.847   3.742
    9CHTO   O67 3491   6.591   4.782   3.864
    9CHTO  H167 3492   6.644   4.766   3.788
    9CHTO  C102 3493   6.383   4.888   3.954
    9CHTO  H189 3494   6.442   4.901   4.047
    9CHTO   N18 3495   6.304   4.763   3.974
    9CHTO  H176 3496   6.315   4.727   4.075
    9CHTO  H177 3497   6.199   4.779   3.952
    9CHTO  C105 3498   6.293   5.014   3.937
    9CHTO  H192 3499   6.224   4.998   3.854
    9CHTO   O65 3500   6.370   5.133   3.911
    9CHTO  C100 3501   6.451   5.128   3.793
    9CHTO  H187 3502   6.387   5.102   3.707
    9CHTO  C107 3503   6.512   5.268   3.767
    9CHTO   O70 3504   6.410   5.367   3.747
    9CHTO  H170 3505   6.364   5.382   3.828
    9CHTO   O57 3506   6.209   5.033   4.080
    9CHTO   C85 3507   6.082   5.100   4.084
    9CHTO  H157 3508   6.011   5.035   4.028
    9CHTO   C83 3509   6.086   5.236   4.006
    9CHTO  H155 3510   6.105   5.214   3.901
    9CHTO   O56 3511   6.199   5.313   4.052
    9CHTO  H135 3512   6.209   5.390   4.000
    9CHTO   C81 3513   5.950   5.310   4.019
    9CHTO  H153 3514   5.872   5.243   3.983
    9CHTO   N14 3515   5.938   5.430   3.933
    9CHTO  H141 3516   5.865   5.414   3.856
    9CHTO  H142 3517   6.032   5.455   3.888
    9CHTO   C79 3518   5.920   5.340   4.171
    9CHTO  H151 3519   5.822   5.386   4.176
    9CHTO   O52 3520   5.912   5.213   4.244
    9CHTO   C86 3521   6.031   5.128   4.232
    9CHTO  H158 3522   6.109   5.182   4.290
    9CHTO   C90 3523   6.007   4.995   4.307
    9CHTO   O60 3524   5.985   5.017   4.447
    9CHTO  H138 3525   6.064   5.046   4.488
    9CHTO   O50 3526   6.015   5.427   4.235
    9CHTO   C73 3527   6.052   5.539   4.316
    9CHTO  H145 3528   5.974   5.560   4.390
    9CHTO   C74 3529   6.071   5.667   4.227
    9CHTO  H146 3530   5.975   5.685   4.176
    9CHTO   O54 3531   6.092   5.779   4.315
    9CHTO  H133 3532   6.099   5.858   4.265
    9CHTO   C75 3533   6.188   5.641   4.125
    9CHTO  H147 3534   6.158   5.562   4.056
    9CHTO   N13 3535   6.218   5.756   4.036
    9CHTO  H139 3536   6.249   5.841   4.095
    9CHTO  H140 3537   6.298   5.731   3.968
    9CHTO   C76 3538   6.320   5.588   4.201
    9CHTO  H148 3539   6.364   5.672   4.255
    9CHTO   O49 3540   6.290   5.480   4.295
    9CHTO   C77 3541   6.186   5.509   4.390
    9CHTO  H149 3542   6.214   5.596   4.449
    9CHTO   C88 3543   6.174   5.392   4.488
    9CHTO   O58 3544   6.076   5.421   4.599
    9CHTO  H136 3545   5.990   5.427   4.563
    9CHTO   O51 3546   6.419   5.521   4.095
    9CHTO   C78 3547   6.567   5.517   4.143
    9CHTO  H150 3548   6.575   5.541   4.252
    9CHTO   C80 3549   6.651   5.620   4.064
    9CHTO  H152 3550   6.638   5.600   3.955
    9CHTO   O55 3551   6.598   5.751   4.093
    9CHTO  H134 3552   6.513   5.760   4.055
    9CHTO   C84 3553   6.805   5.611   4.100
    9CHTO  H156 3554   6.816   5.642   4.204
    9CHTO   N15 3555   6.889   5.705   4.018
    9CHTO  H143 3556   6.961   5.652   3.958
    9CHTO  H144 3557   6.941   5.774   4.081
    9CHTO   C87 3558   6.855   5.465   4.089
    9CHTO  H159 3559   6.856   5.433   3.985
    9CHTO   O53 3560   6.758   5.372   4.173
    9CHTO   C82 3561   6.624   5.376   4.124
    9CHTO  H154 3562   6.622   5.348   4.019
    9CHTO   C89 3563   6.539   5.271   4.200
    9CHTO   O59 3564   6.584   5.138   4.172
    9CHTO  H137 3565   6.532   5.076   4.219
    9CHTO   O45 3566   7.013   5.453   4.150
    9CHTO   C67 3567   7.046   5.329   4.214
    9CHTO  H124 3568   6.957   5.289   4.262
    9CHTO   C65 3569   7.099   5.222   4.112
    9CHTO  H122 3570   7.148   5.278   4.032
    9CHTO   O44 3571   6.982   5.157   4.058
    9CHTO  H102 3572   7.006   5.100   3.988
    9CHTO   C63 3573   7.212   5.130   4.174
    9CHTO  H120 3574   7.305   5.186   4.174
    9CHTO   N11 3575   7.251   5.010   4.094
    9CHTO  H108 3576   7.170   4.939   4.092
    9CHTO  H109 3577   7.275   5.039   3.993
    9CHTO   C61 3578   7.178   5.101   4.325
    9CHTO  H118 3579   7.263   5.044   4.366
    9CHTO   O40 3580   7.169   5.224   4.404
    9CHTO   C68 3581   7.149   5.350   4.331
    9CHTO  H125 3582   7.247   5.383   4.292
    9CHTO   C72 3583   7.101   5.459   4.430
    9CHTO   O48 3584   7.201   5.492   4.527
    9CHTO  H105 3585   7.168   5.558   4.584
    9CHTO   O38 3586   7.055   5.027   4.341
    9CHTO   C55 3587   7.038   4.965   4.471
    9CHTO  H112 3588   7.103   5.015   4.544
    9CHTO   C56 3589   7.066   4.809   4.462
    9CHTO  H113 3590   6.998   4.768   4.385
    9CHTO   O42 3591   7.199   4.785   4.415
    9CHTO  H100 3592   7.262   4.821   4.475
    9CHTO   C57 3593   7.039   4.741   4.602
    9CHTO  H114 3594   7.113   4.780   4.672
    9CHTO   N10 3595   7.051   4.593   4.601
    9CHTO  H106 3596   7.124   4.562   4.528
    9CHTO  H107 3597   7.082   4.558   4.699
    9CHTO   C58 3598   6.898   4.783   4.653
    9CHTO  H115 3599   6.820   4.740   4.585
    9CHTO   O37 3600   6.886   4.926   4.654
    9CHTO   C59 3601   6.893   4.986   4.524
    9CHTO  H116 3602   6.819   4.941   4.458
    9CHTO   C70 3603   6.858   5.134   4.545
    9CHTO   O46 3604   6.810   5.197   4.425
    9CHTO  H103 3605   6.880   5.204   4.363
    9CHTO   O39 3606   6.872   4.739   4.804
    9CHTO   C60 3607   6.731   4.738   4.836
    9CHTO  H117 3608   6.680   4.815   4.777
    9CHTO   C62 3609   6.667   4.600   4.802
    9CHTO  H119 3610   6.677   4.588   4.692
    9CHTO   O43 3611   6.740   4.496   4.868
    9CHTO  H101 3612   6.826   4.488   4.831
    9CHTO   C66 3613   6.511   4.603   4.840
    9CHTO  H123 3614   6.462   4.683   4.784
    9CHTO   N12 3615   6.441   4.477   4.802
    9CHTO  H110 3616   6.337   4.484   4.829
    9CHTO  H111 3617   6.453   4.460   4.696
    9CHTO   C69 3618   6.496   4.635   4.991
    9CHTO  H126 3619   6.546   4.555   5.051
    9CHTO   O41 3620   6.565   4.772   5.018
    9CHTO   C64 3621   6.710   4.774   4.985
    9CHTO  H121 3622   6.764   4.699   5.047
    9CHTO   C71 3623   6.767   4.914   5.018
    9CHTO   O47 3624   6.758   4.941   5.158
    9CHTO  H104 3625   6.792   5.027   5.176
    9CHTO   O34 3626   6.343   4.646   5.037
    9CHTO   C49 3627   6.243   4.698   5.150
    9CHTO   H91 3628   6.151   4.725   5.098
    9CHTO   C47 3629   6.303   4.822   5.220
    9CHTO   H89 3630   6.218   4.860   5.281
    9CHTO   O33 3631   6.338   4.923   5.125
    9CHTO   H70 3632   6.407   4.894   5.069
    9CHTO   C45 3633   6.430   4.784   5.313
    9CHTO   H87 3634   6.522   4.805   5.257
    9CHTO    N8 3635   6.427   4.873   5.433
    9CHTO   H75 3636   6.430   4.814   5.523
    9CHTO   H76 3637   6.511   4.940   5.431
    9CHTO   C43 3638   6.435   4.625   5.341
    9CHTO   H85 3639   6.475   4.581   5.250
    9CHTO   O29 3640   6.303   4.576   5.369
    9CHTO   C50 3641   6.210   4.591   5.261
    9CHTO   H92 3642   6.198   4.494   5.211
    9CHTO   C54 3643   6.071   4.614   5.327
    9CHTO   O36 3644   5.964   4.618   5.232
    9CHTO   H72 3645   5.952   4.533   5.194
    9CHTO   O27 3646   6.530   4.585   5.442
    9CHTO   C37 3647   6.672   4.571   5.460
    9CHTO   H79 3648   6.693   4.475   5.510
    9CHTO   C38 3649   6.750   4.569   5.324
    9CHTO   H80 3650   6.715   4.654   5.264
    9CHTO   O31 3651   6.714   4.447   5.257
    9CHTO   H68 3652   6.751   4.446   5.170
    9CHTO   C39 3653   6.907   4.581   5.344
    9CHTO   H81 3654   6.941   4.488   5.392
    9CHTO    N7 3655   6.983   4.596   5.215
    9CHTO   H73 3656   6.915   4.596   5.131
    9CHTO   H74 3657   7.055   4.517   5.205
    9CHTO   C40 3658   6.938   4.699   5.444
    9CHTO   H82 3659   6.902   4.790   5.396
    9CHTO   O26 3660   6.868   4.672   5.566
    9CHTO   C41 3661   6.724   4.686   5.550
    9CHTO   H83 3662   6.702   4.782   5.503
    9CHTO   C52 3663   6.658   4.687   5.690
    9CHTO   O35 3664   6.676   4.565   5.763
    9CHTO   H71 3665   6.767   4.555   5.787
    9CHTO   O28 3666   7.078   4.716   5.477
    9CHTO   C42 3667   7.126   4.841   5.536
    9CHTO   H84 3668   7.234   4.825   5.541
    9CHTO   C44 3669   7.081   4.865   5.686
    9CHTO   H86 3670   6.979   4.830   5.698
    9CHTO   O32 3671   7.163   4.782   5.770
    9CHTO   H69 3672   7.144   4.691   5.755
    9CHTO   C48 3673   7.081   5.016   5.735
    9CHTO   H90 3674   7.185   5.047   5.753
    9CHTO    N9 3675   7.010   5.034   5.866
    9CHTO   H77 3676   6.907   5.003   5.857
    9CHTO   H78 3677   7.017   5.137   5.898
    9CHTO   C51 3678   7.021   5.101   5.619
    9CHTO   H93 3679   6.925   5.056   5.591
    9CHTO   O30 3680   7.118   5.091   5.514
    9CHTO   C46 3681   7.103   4.966   5.441
    9CHTO   H88 3682   7.003   4.964   5.399
    9CHTO   C53 3683   7.207   4.971   5.327
    9CHTO   O72 3684   7.196   4.860   5.237
    9CHTO  H199 3685   7.222   4.781   5.280
    9CHTO   O22 3686   7.003   5.242   5.645
    9CHTO   C31 3687   6.918   5.324   5.554
    9CHTO   H59 3688   6.915   5.426   5.599
    9CHTO   C29 3689   6.977   5.340   5.412
    9CHTO   H57 3690   6.993   5.239   5.371
    9CHTO   O21 3691   7.107   5.400   5.426
    9CHTO   H37 3692   7.153   5.398   5.344
    9CHTO   C27 3693   6.884   5.420   5.312
    9CHTO   H55 3694   6.880   5.525   5.345
    9CHTO    N5 3695   6.935   5.416   5.172
    9CHTO   H43 3696   6.862   5.374   5.105
    9CHTO   H44 3697   7.028   5.362   5.166
    9CHTO   C25 3698   6.737   5.364   5.323
    9CHTO   H53 3699   6.734   5.261   5.285
    9CHTO   O17 3700   6.693   5.364   5.462
    9CHTO   C32 3701   6.770   5.276   5.545
    9CHTO   H60 3702   6.768   5.175   5.502
    9CHTO   C36 3703   6.704   5.270   5.685
    9CHTO   O25 3704   6.573   5.210   5.679
    9CHTO   H40 3705   6.581   5.119   5.659
    9CHTO   O15 3706   6.634   5.452   5.240
    9CHTO   C19 3707   6.535   5.418   5.139
    9CHTO   H47 3708   6.485   5.514   5.119
    9CHTO   C20 3709   6.595   5.364   5.005
    9CHTO   H48 3710   6.655   5.273   5.022
    9CHTO   O19 3711   6.683   5.467   4.956
    9CHTO   H35 3712   6.731   5.435   4.881
    9CHTO   C21 3713   6.483   5.331   4.898
    9CHTO   H49 3714   6.438   5.424   4.865
    9CHTO    N4 3715   6.538   5.265   4.776
    9CHTO   H41 3716   6.515   5.323   4.688
    9CHTO   H42 3717   6.499   5.165   4.764
    9CHTO   C22 3718   6.369   5.248   4.964
    9CHTO   H50 3719   6.405   5.148   4.985
    9CHTO   O14 3720   6.323   5.309   5.086
    9CHTO   C23 3721   6.424   5.321   5.188
    9CHTO   H51 3722   6.463   5.220   5.208
    9CHTO   C34 3723   6.357   5.372   5.316
    9CHTO   O23 3724   6.262   5.278   5.368
    9CHTO   H38 3725   6.307   5.203   5.402
    9CHTO   O16 3726   6.253   5.244   4.878
    9CHTO   C24 3727   6.150   5.128   4.916
    9CHTO   H52 3728   6.165   5.092   5.017
    9CHTO   C26 3729   6.166   5.012   4.816
    9CHTO   H54 3730   6.150   5.051   4.713
    9CHTO   O20 3731   6.300   4.961   4.826
    9CHTO   H36 3732   6.315   4.896   4.760
    9CHTO   C30 3733   6.059   4.902   4.845
    9CHTO   H58 3734   6.078   4.857   4.944
    9CHTO    N6 3735   6.065   4.789   4.747
    9CHTO   H45 3736   6.142   4.806   4.673
    9CHTO   H46 3737   6.084   4.696   4.798
    9CHTO   C33 3738   5.916   4.964   4.853
    9CHTO   H61 3739   5.884   4.997   4.753
    9CHTO   O18 3740   5.915   5.077   4.942
    9CHTO   C28 3741   6.006   5.183   4.909
    9CHTO   H56 3742   5.986   5.219   4.807
    9CHTO   C35 3743   5.984   5.302   5.006
    9CHTO   O24 3744   6.005   5.268   5.144
    9CHTO   H39 3745   5.991   5.343   5.197
    9CHTO    O9 3746   5.819   4.865   4.894
    9CHTO   C13 3747   5.668   4.890   4.842
    9CHTO   H26 3748   5.673   4.915   4.734
    9CHTO   C11 3749   5.601   5.008   4.926
    9CHTO   H24 3750   5.628   5.103   4.879
    9CHTO    O8 3751   5.651   5.009   5.061
    9CHTO    H3 3752   5.743   5.028   5.061
    9CHTO    C9 3753   5.446   4.991   4.922
    9CHTO   H22 3754   5.420   4.980   4.816
    9CHTO    N2 3755   5.371   5.111   4.967
    9CHTO   H10 3756   5.390   5.130   5.072
    9CHTO   H11 3757   5.398   5.196   4.907
    9CHTO    C7 3758   5.410   4.858   4.998
    9CHTO   H20 3759   5.307   4.833   4.965
    9CHTO    O4 3760   5.499   4.748   4.968
    9CHTO   C14 3761   5.581   4.756   4.850
    9CHTO   H27 3762   5.514   4.753   4.762
    9CHTO   C18 3763   5.669   4.629   4.843
    9CHTO   O13 3764   5.590   4.510   4.830
    9CHTO    H7 3765   5.550   4.508   4.745
    9CHTO    O2 3766   5.410   4.879   5.156
    9CHTO    C1 3767   5.368   4.768   5.235
    9CHTO   H14 3768   5.363   4.675   5.174
    9CHTO    C2 3769   5.225   4.791   5.301
    9CHTO   H15 3770   5.227   4.894   5.340
    9CHTO    O6 3771   5.126   4.782   5.198
    9CHTO    H1 3772   5.124   4.696   5.161
    9CHTO    C3 3773   5.196   4.688   5.421
    9CHTO   H16 3774   5.180   4.588   5.378
    9CHTO    N1 3775   5.072   4.723   5.498
    9CHTO    H8 3776   5.001   4.642   5.493
    9CHTO    H9 3777   5.027   4.813   5.460
    9CHTO    C4 3778   5.322   4.675   5.514
    9CHTO   H17 3779   5.338   4.770   5.566
    9CHTO    O1 3780   5.437   4.641   5.435
    9CHTO    C5 3781   5.476   4.745   5.344
    9CHTO   H18 3782   5.486   4.838   5.398
    9CHTO   C16 3783   5.615   4.707   5.285
    9CHTO   O11 3784   5.612   4.581   5.215
    9CHTO    H5 3785   5.561   4.589   5.137
    9CHTO    O3 3786   5.312   4.567   5.609
    9CHTO    C6 3787   5.392   4.585   5.731
    9CHTO   H19 3788   5.454   4.675   5.728
    9CHTO    C8 3789   5.297   4.599   5.854
    9CHTO   H21 3790   5.230   4.513   5.856
    9CHTO    O7 3791   5.221   4.720   5.835
    9CHTO    H2 3792   5.157   4.729   5.902
    9CHTO   C12 3793   5.381   4.601   5.988
    9CHTO   H25 3794   5.442   4.694   5.986
    9CHTO    N3 3795   5.292   4.612   6.109
    9CHTO   H12 3796   5.352   4.617   6.199
    9CHTO   H13 3797   5.226   4.527   6.113
    9CHTO   C15 3798   5.477   4.477   5.991
    9CHTO   H28 3799   5.422   4.383   5.998
    9CHTO   O10 3800   5.582   4.484   6.104
    9CHTO    H4 3801   5.539   4.480   6.187
    9CHTO    O5 3802   5.561   4.476   5.874
    9CHTO   C10 3803   5.489   4.465   5.750
    9CHTO   H23 3804   5.433   4.371   5.750
    9CHTO   C17 3805   5.593   4.459   5.638
    9CHTO   O12 3806   5.672   4.340   5.645
    9CHTO    H6 3807   5.619   4.265   5.623
   10CHTO  H203 3808   6.117   7.045   5.185
   10CHTO   O82 3809   6.117   7.054   5.279
   10CHTO  C123 3810   5.982   7.052   5.328
   10CHTO  H227 3811   5.921   7.120   5.266
   10CHTO   O77 3812   5.939   6.914   5.308
   10CHTO  C118 3813   5.801   6.892   5.340
   10CHTO  H222 3814   5.737   6.961   5.282
   10CHTO  C125 3815   5.763   6.744   5.302
   10CHTO   O84 3816   5.770   6.724   5.160
   10CHTO  H205 3817   5.859   6.727   5.132
   10CHTO  C114 3818   5.778   6.917   5.490
   10CHTO  H218 3819   5.838   6.846   5.547
   10CHTO  C116 3820   5.823   7.061   5.531
   10CHTO  H220 3821   5.753   7.134   5.485
   10CHTO   O79 3822   5.810   7.074   5.674
   10CHTO  H201 3823   5.719   7.072   5.699
   10CHTO  C120 3824   5.970   7.089   5.481
   10CHTO  H224 3825   6.037   7.023   5.540
   10CHTO   N21 3826   6.012   7.229   5.509
   10CHTO  H211 3827   6.119   7.234   5.523
   10CHTO  H212 3828   5.981   7.295   5.429
   10CHTO   O75 3829   5.638   6.892   5.511
   10CHTO  C112 3830   5.601   6.820   5.652
   10CHTO  H216 3831   5.639   6.881   5.735
   10CHTO   O73 3832   5.661   6.689   5.651
   10CHTO  C113 3833   5.638   6.614   5.771
   10CHTO  H217 3834   5.675   6.673   5.858
   10CHTO  C124 3835   5.719   6.484   5.766
   10CHTO   O83 3836   5.860   6.507   5.769
   10CHTO  H204 3837   5.905   6.424   5.767
   10CHTO  C109 3838   5.487   6.585   5.788
   10CHTO  H213 3839   5.457   6.521   5.704
   10CHTO  C110 3840   5.406   6.719   5.786
   10CHTO  H214 3841   5.429   6.772   5.879
   10CHTO   O78 3842   5.266   6.687   5.787
   10CHTO  H200 3843   5.215   6.766   5.796
   10CHTO  C111 3844   5.444   6.806   5.664
   10CHTO  H215 3845   5.408   6.756   5.572
   10CHTO   N19 3846   5.380   6.941   5.666
   10CHTO  H207 3847   5.413   6.996   5.753
   10CHTO  H208 3848   5.405   6.996   5.577
   10CHTO   O74 3849   5.464   6.513   5.913
   10CHTO  C115 3850   5.357   6.398   5.902
   10CHTO  H219 3851   5.289   6.414   5.817
   10CHTO   O76 3852   5.424   6.258   5.874
   10CHTO  C122 3853   5.488   6.204   5.991
   10CHTO  H226 3854   5.563   6.276   6.024
   10CHTO  C126 3855   5.566   6.074   5.952
   10CHTO   O85 3856   5.672   6.101   5.860
   10CHTO  H206 3857   5.717   6.021   5.839
   10CHTO  C121 3858   5.383   6.176   6.107
   10CHTO  H225 3859   5.363   6.067   6.112
   10CHTO   O81 3860   5.440   6.217   6.232
   10CHTO  H202 3861   5.514   6.163   6.253
   10CHTO  C119 3862   5.247   6.251   6.084
   10CHTO  H223 3863   5.200   6.199   6.001
   10CHTO  C117 3864   5.273   6.399   6.037
   10CHTO  H221 3865   5.331   6.460   6.107
   10CHTO   N20 3866   5.145   6.474   6.019
   10CHTO  H209 3867   5.165   6.576   5.992
   10CHTO  H210 3868   5.085   6.427   5.942
   10CHTO   O80 3869   5.139   6.226   6.203
   10CHTO  C103 3870   5.025   6.117   6.184
   10CHTO  H190 3871   5.000   6.107   6.079
   10CHTO  C101 3872   5.054   5.975   6.244
   10CHTO  H188 3873   5.083   5.985   6.349
   10CHTO   O68 3874   5.171   5.911   6.168
   10CHTO  H168 3875   5.249   5.961   6.182
   10CHTO   C99 3876   4.922   5.884   6.237
   10CHTO  H186 3877   4.891   5.874   6.131
   10CHTO   N17 3878   4.938   5.745   6.293
   10CHTO  H174 3879   5.036   5.733   6.337
   10CHTO  H175 3880   4.921   5.672   6.215
   10CHTO   C97 3881   4.806   5.960   6.308
   10CHTO  H184 3882   4.831   5.969   6.415
   10CHTO   O64 3883   4.787   6.088   6.245
   10CHTO  C104 3884   4.899   6.177   6.257
   10CHTO  H191 3885   4.923   6.195   6.361
   10CHTO  C108 3886   4.859   6.313   6.198
   10CHTO   O71 3887   4.758   6.377   6.276
   10CHTO  H171 3888   4.736   6.460   6.237
   10CHTO   O62 3889   4.677   5.896   6.291
   10CHTO   C91 3890   4.581   5.921   6.395
   10CHTO  H178 3891   4.618   6.000   6.461
   10CHTO   C92 3892   4.563   5.794   6.485
   10CHTO  H179 3893   4.531   5.710   6.421
   10CHTO   O66 3894   4.692   5.758   6.537
   10CHTO  H166 3895   4.686   5.677   6.584
   10CHTO   C93 3896   4.459   5.819   6.602
   10CHTO  H180 3897   4.509   5.886   6.673
   10CHTO   N16 3898   4.428   5.694   6.677
   10CHTO  H172 3899   4.323   5.669   6.670
   10CHTO  H173 3900   4.457   5.705   0.033
   10CHTO   C94 3901   4.328   5.889   6.549
   10CHTO  H181 3902   4.266   5.820   6.490
   10CHTO   O61 3903   4.358   5.999   6.461
   10CHTO   C95 3904   4.438   5.963   6.347
   10CHTO  H182 3905   4.390   5.879   6.295
   10CHTO  C106 3906   4.441   6.082   6.244
   10CHTO   O69 3907   4.499   6.201   6.300
   10CHTO  H169 3908   4.591   6.187   6.315
   10CHTO   O63 3909   4.238   5.947   6.675
   10CHTO   C96 3910   4.304   6.070   0.005
   10CHTO  H183 3911   4.398   6.096   6.705
   10CHTO   C98 3912   4.333   6.043   0.155
   10CHTO  H185 3913   4.241   6.007   0.205
   10CHTO   O67 3914   4.426   5.934   0.165
   10CHTO  H167 3915   4.386   5.854   0.135
   10CHTO  C102 3916   4.391   6.172   0.231
   10CHTO  H189 3917   4.493   6.185   0.193
   10CHTO   N18 3918   4.406   6.156   0.379
   10CHTO  H176 3919   4.376   6.057   0.410
   10CHTO  H177 3920   4.347   6.230   0.432
   10CHTO  C105 3921   4.310   6.300   0.192
   10CHTO  H192 3922   4.218   6.303   0.251
   10CHTO   O65 3923   4.276   6.309   0.053
   10CHTO  C100 3924   4.209   6.195   6.747
   10CHTO  H187 3925   4.118   6.175   0.058
   10CHTO  C107 3926   4.164   6.227   6.602
   10CHTO   O70 3927   4.069   6.335   6.600
   10CHTO  H170 3928   4.043   6.352   6.512
   10CHTO   O57 3929   4.406   6.422   0.230
   10CHTO   C85 3930   4.354   6.555   0.239
   10CHTO  H157 3931   4.244   6.549   0.221
   10CHTO   C83 3932   4.411   6.641   0.121
   10CHTO  H155 3933   4.373   6.600   0.027
   10CHTO   O56 3934   4.555   6.627   0.116
   10CHTO  H135 3935   4.579   6.539   0.097
   10CHTO   C81 3936   4.363   6.788   0.134
   10CHTO  H153 3937   4.254   6.788   0.132
   10CHTO   N14 3938   4.401   6.874   0.019
   10CHTO  H141 3939   4.357   6.971   0.029
   10CHTO  H142 3940   4.367   6.829   6.676
   10CHTO   C79 3941   4.408   6.848   0.273
   10CHTO  H151 3942   4.363   6.947   0.282
   10CHTO   O52 3943   4.355   6.768   0.383
   10CHTO   C86 3944   4.388   6.626   0.376
   10CHTO  H158 3945   4.497   6.623   0.393
   10CHTO   C90 3946   4.324   6.550   0.495
   10CHTO   O60 3947   4.182   6.563   0.496
   10CHTO  H138 3948   4.145   6.514   0.425
   10CHTO   O50 3949   4.550   6.864   0.289
   10CHTO   C73 3950   4.691   6.843   0.312
   10CHTO  H145 3951   4.728   6.761   0.249
   10CHTO   C74 3952   4.717   6.806   0.462
   10CHTO  H146 3953   4.660   6.715   0.485
   10CHTO   O54 3954   4.856   6.770   0.474
   10CHTO  H133 3955   4.874   6.743   0.562
   10CHTO   C75 3956   4.674   6.927   0.553
   10CHTO  H147 3957   4.566   6.944   0.541
   10CHTO   N13 3958   4.695   6.903   0.698
   10CHTO  H139 3959   4.799   6.883   0.718
   10CHTO  H140 3960   4.636   6.817   0.730
   10CHTO   C76 3961   4.749   7.059   0.504
   10CHTO  H148 3962   4.855   7.046   0.523
   10CHTO   O49 3963   4.727   7.082   0.361
   10CHTO   C77 3964   4.769   6.973   0.278
   10CHTO  H149 3965   4.876   6.955   0.292
   10CHTO   C88 3966   4.753   7.015   0.131
   10CHTO   O58 3967   4.804   6.910   0.038
   10CHTO  H136 3968   4.897   6.902   0.047
   10CHTO   O51 3969   4.690   7.187   0.574
   10CHTO   C78 3970   4.797   7.298   0.589
   10CHTO  H150 3971   4.884   7.279   0.521
   10CHTO   C80 3972   4.848   7.303   0.734
   10CHTO  H152 3973   4.761   7.318   0.802
   10CHTO   O55 3974   4.907   7.175   0.763
   10CHTO  H134 3975   4.932   7.171   0.853
   10CHTO   C84 3976   4.950   7.422   0.754
   10CHTO  H156 3977   5.038   7.400   0.693
   10CHTO   N15 3978   4.997   7.433   0.896
   10CHTO  H143 3979   5.104   7.424   0.901
   10CHTO  H144 3980   4.968   7.526   0.940
   10CHTO   C87 3981   4.888   7.554   0.702
   10CHTO  H159 3982   4.807   7.586   0.767
   10CHTO   O53 3983   4.835   7.536   0.558
   10CHTO   C82 3984   4.736   7.433   0.548
   10CHTO  H154 3985   4.651   7.457   0.612
   10CHTO   C89 3986   4.682   7.428   0.403
   10CHTO   O59 3987   4.783   7.395   0.306
   10CHTO  H137 3988   4.845   7.466   0.300
   10CHTO   O45 3989   4.997   7.666   0.691
   10CHTO   C67 3990   4.954   7.798   0.728
   10CHTO  H124 3991   4.851   7.816   0.698
   10CHTO   C65 3992   4.968   7.818   0.882
   10CHTO  H122 3993   4.916   7.733   0.927
   10CHTO   O44 3994   4.902   7.939   0.923
   10CHTO  H102 3995   4.902   7.946   1.016
   10CHTO   C63 3996   5.119   7.803   0.922
   10CHTO  H120 3997   5.154   7.706   0.887
   10CHTO   N11 3998   5.145   7.793   1.069
   10CHTO  H108 3999   5.084   7.716   1.112
   10CHTO  H109 4000   5.124   7.887   1.116
   10CHTO   C61 4001   5.205   7.912   0.845
   10CHTO  H118 4002   5.309   7.878   0.857
   10CHTO   O40 4003   5.179   7.917   0.702
   10CHTO   C68 4004   5.043   7.902   0.649
   10CHTO  H125 4005   5.054   7.861   0.545
   10CHTO   C72 4006   4.973   8.039   0.635
   10CHTO   O48 4007   5.035   8.121   0.535
   10CHTO  H105 4008   4.990   8.203   0.530
   10CHTO   O38 4009   5.191   8.045   0.900
   10CHTO   C55 4010   5.312   8.124   0.904
   10CHTO  H112 4011   5.374   8.100   0.816
   10CHTO   C56 4012   5.392   8.101   1.040
   10CHTO  H113 4013   5.319   8.113   1.122
   10CHTO   O42 4014   5.440   7.966   1.047
   10CHTO  H100 4015   5.478   7.949   1.131
   10CHTO   C57 4016   5.511   8.204   1.056
   10CHTO  H114 4017   5.586   8.177   0.982
   10CHTO   N10 4018   5.578   8.200   1.189
   10CHTO  H106 4019   5.574   8.100   1.230
   10CHTO  H107 4020   5.681   8.229   1.180
   10CHTO   C58 4021   5.462   8.348   1.026
   10CHTO  H115 4022   5.390   8.379   1.105
   10CHTO   O37 4023   5.396   8.352   0.898
   10CHTO   C59 4024   5.276   8.274   0.890
   10CHTO  H116 4025   5.207   8.305   0.968
   10CHTO   C70 4026   5.211   8.304   0.754
   10CHTO   O46 4027   5.165   8.439   0.742
   10CHTO  H103 4028   5.239   8.497   0.739
   10CHTO   O39 4029   5.588   8.455   1.017
   10CHTO   C60 4030   5.543   8.589   0.994
   10CHTO  H117 4031   5.462   8.589   0.921
   10CHTO   C62 4032   5.489   8.654   1.125
   10CHTO  H119 4033   5.410   8.586   1.164
   10CHTO   O43 4034   5.594   8.662   1.223
   10CHTO  H101 4035   5.620   8.576   1.250
   10CHTO   C66 4036   5.422   8.795   1.090
   10CHTO  H123 4037   5.343   8.778   1.016
   10CHTO   N12 4038   5.354   8.856   1.207
   10CHTO  H110 4039   5.277   8.790   1.244
   10CHTO  H111 4040   5.312   8.952   1.179
   10CHTO   C69 4041   5.526   8.889   1.024
   10CHTO  H126 4042   5.602   8.921   1.099
   10CHTO   O41 4043   5.600   8.815   0.900
   10CHTO   C64 4044   5.656   8.678   0.935
   10CHTO  H121 4045   5.736   8.690   1.011
   10CHTO   C71 4046   5.722   8.615   0.810
   10CHTO   O47 4047   5.630   8.595   0.702
   10CHTO  H104 4048   5.602   8.678   0.669
   10CHTO   O34 4049   5.455   9.014   0.970
   10CHTO   C49 4050   5.490   9.121   0.877
   10CHTO   H91 4051   5.592   9.100   0.842
   10CHTO   C47 4052   5.486   9.254   0.954
   10CHTO   H89 4053   5.525   9.332   0.885
   10CHTO   O33 4054   5.575   9.246   1.067
   10CHTO   H70 4055   5.543   9.184   1.130
   10CHTO   C45 4056   5.333   9.288   0.991
   10CHTO   H87 4057   5.290   9.201   1.044
   10CHTO    N8 4058   5.320   9.407   1.080
   10CHTO   H75 4059   5.216   9.421   1.107
   10CHTO   H76 4060   5.356   9.495   1.028
   10CHTO   C43 4061   5.250   9.302   0.854
   10CHTO   H85 4062   5.146   9.321   0.882
   10CHTO   O29 4063   5.262   9.180   0.777
   10CHTO   C50 4064   5.393   9.123   0.756
   10CHTO   H92 4065   5.376   9.018   0.728
   10CHTO   C54 4066   5.461   9.181   0.629
   10CHTO   O36 4067   5.389   9.147   0.510
   10CHTO   H72 4068   5.306   9.191   0.509
   10CHTO   O27 4069   5.293   9.416   0.778
   10CHTO   C37 4070   5.317   9.504   0.668
   10CHTO   H79 4071   5.405   9.470   0.611
   10CHTO   C38 4072   5.196   9.506   0.569
   10CHTO   H80 4073   5.106   9.533   0.626
   10CHTO   O31 4074   5.180   9.373   0.517
   10CHTO   H68 4075   5.150   9.315   0.583
   10CHTO   C39 4076   5.219   9.611   0.454
   10CHTO   H81 4077   5.301   9.573   0.392
   10CHTO    N7 4078   5.101   9.627   0.362
   10CHTO   H73 4079   5.080   9.533   0.313
   10CHTO   H74 4080   5.015   9.660   0.418
   10CHTO   C40 4081   5.264   9.750   0.512
   10CHTO   H82 4082   5.179   9.803   0.556
   10CHTO   O26 4083   5.372   9.735   0.605
   10CHTO   C41 4084   5.344   9.648   0.718
   10CHTO   H83 4085   5.255   9.685   0.772
   10CHTO   C52 4086   5.464   9.654   0.815
   10CHTO   O35 4087   5.488   9.789   0.864
   10CHTO   H71 4088   5.562   9.789   0.921
   10CHTO   O28 4089   5.324   9.831   0.409
   10CHTO   C42 4090   5.306   9.976   0.405
   10CHTO   H84 4091   5.264   0.004   0.501
   10CHTO   C44 4092   5.204   0.025   0.297
   10CHTO   H86 4093   5.234   9.984   0.200
   10CHTO   O32 4094   5.076   9.969   0.332
   10CHTO   H69 4095   5.013   9.988   0.265
   10CHTO   C48 4096   5.198   0.183   0.285
   10CHTO   H90 4097   5.153   0.222   0.376
   10CHTO    N9 4098   5.108   0.229   0.173
   10CHTO   H77 4099   5.164   0.284   0.098
   10CHTO   H78 4100   5.057   0.146   0.127
   10CHTO   C51 4101   5.344   0.240   0.274
   10CHTO   H93 4102   5.389   0.203   0.181
   10CHTO   O30 4103   5.418   0.197   0.389
   10CHTO   C46 4104   5.442   0.051   0.391
   10CHTO   H88 4105   5.489   0.022   0.297
   10CHTO   C53 4106   5.538   0.021   0.508
   10CHTO   O72 4107   5.482   0.049   0.637
   10CHTO  H199 4108   5.412   9.989   0.655
   10CHTO   O22 4109   5.348   0.384   0.278
   10CHTO   C31 4110   5.461   0.461   0.223
   10CHTO   H59 4111   5.440   0.567   0.248
   10CHTO   C29 4112   5.599   0.427   0.282
   10CHTO   H57 4113   5.625   0.324   0.254
   10CHTO   O21 4114   5.590   0.431   0.426
   10CHTO   H37 4115   5.534   0.362   0.457
   10CHTO   C27 4116   5.710   0.525   0.228
   10CHTO   H55 4117   5.690   0.626   0.268
   10CHTO    N5 4118   5.847   0.486   0.270
   10CHTO   H43 4119   5.852   0.477   0.378
   10CHTO   H44 4120   5.919   0.559   0.236
   10CHTO   C25 4121   5.703   0.537   0.071
   10CHTO   H53 4122   5.746   0.447   0.025
   10CHTO   O17 4123   5.567   0.550   0.019
   10CHTO   C32 4124   5.471   0.455   0.067
   10CHTO   H60 4125   5.502   0.355   0.037
   10CHTO   C36 4126   5.335   0.486   6.746
   10CHTO   O25 4127   5.285   0.616   0.033
   10CHTO   H40 4128   5.203   0.631   6.738
   10CHTO   O15 4129   5.784   0.665   0.025
   10CHTO   C19 4130   5.773   0.809   0.005
   10CHTO   H47 4131   5.742   0.819   6.649
   10CHTO   C20 4132   5.668   0.881   0.096
   10CHTO   H48 4133   5.693   0.870   0.203
   10CHTO   O19 4134   5.541   0.819   0.073
   10CHTO   H35 4135   5.477   0.853   0.132
   10CHTO   C21 4136   5.661   1.036   0.063
   10CHTO   H49 4137   5.625   1.048   6.710
   10CHTO    N4 4138   5.567   1.110   0.151
   10CHTO   H41 4139   5.467   1.071   0.139
   10CHTO   H42 4140   5.596   1.100   0.255
   10CHTO   C22 4141   5.805   1.095   0.067
   10CHTO   H50 4142   5.843   1.088   0.169
   10CHTO   O14 4143   5.892   1.021   6.728
   10CHTO   C23 4144   5.910   0.884   0.017
   10CHTO   H51 4145   5.949   0.882   0.120
   10CHTO   C34 4146   6.018   0.826   6.673
   10CHTO   O23 4147   6.063   0.697   6.719
   10CHTO   H38 4148   6.128   0.664   6.660
   10CHTO   O16 4149   5.809   1.231   0.019
   10CHTO   C24 4150   5.918   1.324   0.095
   10CHTO   H52 4151   6.003   1.266   0.131
   10CHTO   C26 4152   5.849   1.393   0.214
   10CHTO   H54 4153   5.756   1.443   0.177
   10CHTO   O20 4154   5.808   1.294   0.310
   10CHTO   H36 4155   5.883   1.248   0.344
   10CHTO   C30 4156   5.940   1.501   0.281
   10CHTO   H58 4157   6.020   1.451   0.337
   10CHTO    N6 4158   5.864   1.581   0.381
   10CHTO   H45 4159   5.825   1.516   0.458
   10CHTO   H46 4160   5.929   1.654   0.427
   10CHTO   C33 4161   6.011   1.591   0.175
   10CHTO   H61 4162   5.938   1.662   0.131
   10CHTO   O18 4163   6.067   1.512   0.069
   10CHTO   C28 4164   5.974   1.431   6.745
   10CHTO   H56 4165   5.891   1.491   6.708
   10CHTO   C35 4166   6.048   1.367   6.626
   10CHTO   O24 4167   5.962   1.299   6.534
   10CHTO   H39 4168   5.925   1.223   6.575
   10CHTO    O9 4169   6.111   1.673   0.239
   10CHTO   C13 4170   6.162   1.802   0.154
   10CHTO   H26 4171   6.124   1.794   0.050
   10CHTO   C11 4172   6.321   1.803   0.159
   10CHTO   H24 4173   6.357   1.712   0.108
   10CHTO    O8 4174   6.361   1.796   0.297
   10CHTO    H3 4175   6.455   1.787   0.303
   10CHTO    C9 4176   6.373   1.928   0.083
   10CHTO   H22 4177   6.348   1.911   6.726
   10CHTO    N2 4178   6.521   1.934   0.080
   10CHTO   H10 4179   6.559   1.956   0.179
   10CHTO   H11 4180   6.554   2.010   0.010
   10CHTO    C7 4181   6.297   2.061   0.130
   10CHTO   H20 4182   6.237   2.089   0.041
   10CHTO    O4 4183   6.210   2.036   0.241
   10CHTO   C14 4184   6.106   1.940   0.213
   10CHTO   H27 4185   6.037   1.986   0.139
   10CHTO   C18 4186   6.024   1.921   0.343
   10CHTO   O13 4187   5.953   2.040   0.380
   10CHTO    H7 4188   6.014   2.107   0.407
   10CHTO    O2 4189   6.398   2.191   0.167
   10CHTO    C1 4190   6.339   2.300   0.239
   10CHTO   H14 4191   6.259   2.262   0.306
   10CHTO    C2 4192   6.277   2.413   0.146
   10CHTO   H15 4193   6.356   2.440   0.074
   10CHTO    O6 4194   6.165   2.358   0.075
   10CHTO    H1 4195   6.097   2.333   0.136
   10CHTO    C3 4196   6.236   2.542   0.233
   10CHTO   H16 4197   6.152   2.515   0.299
   10CHTO    N1 4198   6.189   2.656   0.147
   10CHTO    H8 4199   6.268   2.687   0.080
   10CHTO    H9 4200   6.158   2.739   0.208
   10CHTO    C4 4201   6.354   2.584   0.328
   10CHTO   H17 4202   6.437   2.622   0.268
   10CHTO    O1 4203   6.396   2.471   0.406
   10CHTO    C5 4204   6.449   2.360   0.333
   10CHTO   H18 4205   6.533   2.392   0.271
   10CHTO   C16 4206   6.499   2.259   0.439
   10CHTO   O11 4207   6.573   2.150   0.384
   10CHTO    H5 4208   6.654   2.182   0.348
   10CHTO    O3 4209   6.314   2.682   0.426
   10CHTO    C6 4210   6.419   2.772   0.475
   10CHTO   H19 4211   6.518   2.747   0.434
   10CHTO    C8 4212   6.385   2.919   0.433
   10CHTO   H21 4213   6.283   2.941   0.465
   10CHTO    O7 4214   6.393   2.925   0.290
   10CHTO    H2 4215   6.366   3.009   0.260
   10CHTO   C12 4216   6.483   3.022   0.503
   10CHTO   H25 4217   6.584   3.005   0.458
   10CHTO    N3 4218   6.446   3.165   0.473
   10CHTO   H12 4219   6.359   3.170   0.408
   10CHTO   H13 4220   6.529   3.217   0.428
   10CHTO   C15 4221   6.492   2.993   0.657
   10CHTO   H28 4222   6.398   3.018   0.708
   10CHTO   O10 4223   6.610   3.067   0.726
   10CHTO    H4 4224   6.605   3.056   0.819
   10CHTO    O5 4225   6.526   2.856   0.681
   10CHTO   C10 4226   6.430   2.761   0.630
   10CHTO   H23 4227   6.333   2.782   0.675
   10CHTO   C17 4228   6.473   2.622   0.679
   10CHTO   O12 4229   6.602   2.583   0.629
   10CHTO    H6 4230   6.597   2.569   0.536
   11CHTO  H203 4231   7.706   5.097   1.061
   11CHTO   O82 4232   7.618   5.094   1.027
   11CHTO  C123 4233   7.556   5.223   1.039
   11CHTO  H227 4234   7.616   5.297   0.983
   11CHTO   O77 4235   7.427   5.204   0.974
   11CHTO  C118 4236   7.346   5.322   0.967
   11CHTO  H222 4237   7.400   5.402   0.914
   11CHTO  C125 4238   7.216   5.287   0.886
   11CHTO   O84 4239   7.245   5.256   0.750
   11CHTO  H205 4240   7.291   5.174   0.746
   11CHTO  C114 4241   7.311   5.369   1.109
   11CHTO  H218 4242   7.256   5.289   1.160
   11CHTO  C116 4243   7.441   5.395   1.191
   11CHTO  H220 4244   7.495   5.483   1.148
   11CHTO   O79 4245   7.403   5.433   1.325
   11CHTO  H201 4246   7.479   5.456   1.375
   11CHTO  C120 4247   7.535   5.268   1.189
   11CHTO  H224 4248   7.481   5.188   1.245
   11CHTO   N21 4249   7.663   5.292   1.260
   11CHTO  H211 4250   7.737   5.332   1.192
   11CHTO  H212 4251   7.699   5.200   1.304
   11CHTO   O75 4252   7.228   5.485   1.092
   11CHTO  C112 4253   7.090   5.483   1.181
   11CHTO  H216 4254   7.116   5.461   1.286
   11CHTO   O73 4255   7.005   5.381   1.126
   11CHTO  C113 4256   6.877   5.369   1.188
   11CHTO  H217 4257   6.891   5.351   1.297
   11CHTO  C124 4258   6.806   5.244   1.132
   11CHTO   O83 4259   6.784   5.248   0.990
   11CHTO  H204 4260   6.722   5.315   0.969
   11CHTO  C109 4261   6.796   5.500   1.166
   11CHTO  H213 4262   6.790   5.516   1.058
   11CHTO  C110 4263   6.875   5.617   1.232
   11CHTO  H214 4264   6.879   5.601   1.340
   11CHTO   O78 4265   6.804   5.740   1.208
   11CHTO  H200 4266   6.723   5.740   1.255
   11CHTO  C111 4267   7.020   5.624   1.173
   11CHTO  H215 4268   7.013   5.650   1.067
   11CHTO   N19 4269   7.106   5.727   1.237
   11CHTO  H207 4270   7.063   5.825   1.222
   11CHTO  H208 4271   7.115   5.707   1.343
   11CHTO   O74 4272   6.661   5.489   1.221
   11CHTO  C115 4273   6.547   5.483   1.105
   11CHTO  H219 4274   6.589   5.451   1.009
   11CHTO   O76 4275   6.437   5.374   1.138
   11CHTO  C122 4276   6.363   5.401   1.257
   11CHTO  H226 4277   6.424   5.370   1.342
   11CHTO  C126 4278   6.237   5.306   1.259
   11CHTO   O85 4279   6.272   5.167   1.267
   11CHTO  H206 4280   6.316   5.140   1.189
   11CHTO  C121 4281   6.318   5.552   1.273
   11CHTO  H225 4282   6.211   5.556   1.302
   11CHTO   O81 4283   6.393   5.614   1.379
   11CHTO  H202 4284   6.360   5.700   1.396
   11CHTO  C119 4285   6.335   5.629   1.138
   11CHTO  H223 4286   6.280   5.568   1.065
   11CHTO  C117 4287   6.486   5.628   1.092
   11CHTO  H221 4288   6.552   5.691   1.152
   11CHTO   N20 4289   6.500   5.681   0.952
   11CHTO  H209 4290   6.447   5.618   0.883
   11CHTO  H210 4291   6.462   5.782   0.947
   11CHTO   O80 4292   6.256   5.767   1.129
   11CHTO  C103 4293   6.281   5.883   1.234
   11CHTO  H190 4294   6.289   5.844   1.335
   11CHTO  C101 4295   6.404   5.979   1.205
   11CHTO  H188 4296   6.410   5.996   1.097
   11CHTO   O68 4297   6.533   5.909   1.250
   11CHTO  H168 4298   6.532   5.896   1.343
   11CHTO   C99 4299   6.388   6.122   1.277
   11CHTO  H186 4300   6.393   6.107   1.387
   11CHTO   N17 4301   6.496   6.221   1.241
   11CHTO  H174 4302   6.561   6.181   1.165
   11CHTO  H175 4303   6.552   6.248   1.329
   11CHTO   C97 4304   6.247   6.178   1.247
   11CHTO  H184 4305   6.238   6.192   1.138
   11CHTO   O64 4306   6.149   6.086   1.298
   11CHTO  C104 4307   6.144   5.962   1.226
   11CHTO  H191 4308   6.119   5.979   1.121
   11CHTO  C108 4309   6.030   5.876   1.282
   11CHTO   O71 4310   5.902   5.936   1.260
   11CHTO  H171 4311   5.881   5.935   1.168
   11CHTO   O62 4312   6.217   6.301   1.317
   11CHTO   C91 4313   6.122   6.389   1.253
   11CHTO  H178 4314   6.090   6.343   1.159
   11CHTO   C92 4315   6.196   6.521   1.212
   11CHTO  H179 4316   6.289   6.496   1.158
   11CHTO   O66 4317   6.114   6.590   1.117
   11CHTO  H166 4318   6.109   6.542   1.037
   11CHTO   C93 4319   6.223   6.618   1.334
   11CHTO  H180 4320   6.226   6.721   1.294
   11CHTO   N16 4321   6.356   6.596   1.396
   11CHTO  H172 4322   6.434   6.611   1.323
   11CHTO  H173 4323   6.370   6.664   1.479
   11CHTO   C94 4324   6.107   6.608   1.441
   11CHTO  H181 4325   6.132   6.539   1.522
   11CHTO   O61 4326   5.986   6.559   1.382
   11CHTO   C95 4327   5.993   6.421   1.341
   11CHTO  H182 4328   5.995   6.358   1.431
   11CHTO  C106 4329   5.860   6.387   1.266
   11CHTO   O69 4330   5.854   6.248   1.229
   11CHTO  H169 4331   5.846   6.195   1.306
   11CHTO   O63 4332   6.078   6.752   1.499
   11CHTO   C96 4333   6.059   6.751   1.656
   11CHTO  H183 4334   6.028   6.650   1.685
   11CHTO   C98 4335   5.951   6.850   1.708
   11CHTO  H185 4336   5.857   6.837   1.652
   11CHTO   O67 4337   5.920   6.814   1.844
   11CHTO  H167 4338   5.848   6.866   1.876
   11CHTO  C102 4339   6.000   7.003   1.705
   11CHTO  H189 4340   5.930   7.058   1.770
   11CHTO   N18 4341   5.990   7.068   1.573
   11CHTO  H176 4342   6.050   7.015   1.500
   11CHTO  H177 4343   5.887   7.070   1.540
   11CHTO  C105 4344   6.143   7.014   1.767
   11CHTO  H192 4345   6.214   7.052   1.693
   11CHTO   O65 4346   6.197   6.890   1.817
   11CHTO  C100 4347   6.201   6.782   1.722
   11CHTO  H187 4348   6.271   6.812   1.643
   11CHTO  C107 4349   6.261   6.658   1.791
   11CHTO   O70 4350   6.181   6.615   1.902
   11CHTO  H170 4351   6.221   6.540   1.942
   11CHTO   O57 4352   6.127   7.121   1.889
   11CHTO   C85 4353   6.227   7.219   1.922
   11CHTO  H157 4354   6.205   7.246   2.028
   11CHTO   C83 4355   6.202   7.351   1.842
   11CHTO  H155 4356   6.103   7.389   1.870
   11CHTO   O56 4357   6.194   7.323   1.700
   11CHTO  H135 4358   6.277   7.293   1.668
   11CHTO   C81 4359   6.309   7.457   1.880
   11CHTO  H153 4360   6.307   7.469   1.989
   11CHTO   N14 4361   6.280   7.592   1.827
   11CHTO  H141 4362   6.352   7.662   1.864
   11CHTO  H142 4363   6.182   7.624   1.859
   11CHTO   C79 4364   6.452   7.404   1.840
   11CHTO  H151 4365   6.524   7.478   1.875
   11CHTO   O52 4366   6.481   7.279   1.911
   11CHTO   C86 4367   6.379   7.174   1.904
   11CHTO  H158 4368   6.396   7.129   1.804
   11CHTO   C90 4369   6.415   7.062   2.006
   11CHTO   O60 4370   6.419   7.110   2.141
   11CHTO  H138 4371   6.333   7.134   2.169
   11CHTO   O50 4372   6.470   7.387   1.698
   11CHTO   C73 4373   6.537   7.392   1.571
   11CHTO  H145 4374   6.547   7.496   1.538
   11CHTO   C74 4375   6.455   7.314   1.463
   11CHTO  H146 4376   6.357   7.362   1.457
   11CHTO   O54 4377   6.518   7.333   1.335
   11CHTO  H133 4378   6.604   7.296   1.334
   11CHTO   C75 4379   6.444   7.163   1.506
   11CHTO  H147 4380   6.385   7.157   1.598
   11CHTO   N13 4381   6.370   7.077   1.409
   11CHTO  H139 4382   6.365   6.975   1.447
   11CHTO  H140 4383   6.270   7.113   1.397
   11CHTO   C76 4384   6.589   7.104   1.539
   11CHTO  H148 4385   6.643   7.089   1.445
   11CHTO   O49 4386   6.667   7.192   1.627
   11CHTO   C77 4387   6.678   7.328   1.582
   11CHTO  H149 4388   6.726   7.330   1.484
   11CHTO   C88 4389   6.772   7.404   1.676
   11CHTO   O58 4390   6.796   7.543   1.629
   11CHTO  H136 4391   6.852   7.588   1.689
   11CHTO   O51 4392   6.573   6.971   1.622
   11CHTO   C78 4393   6.701   6.885   1.628
   11CHTO  H150 4394   6.789   6.939   1.586
   11CHTO   C80 4395   6.680   6.755   1.548
   11CHTO  H152 4396   6.584   6.709   1.580
   11CHTO   O55 4397   6.668   6.792   1.410
   11CHTO  H134 4398   6.646   6.717   1.358
   11CHTO   C84 4399   6.798   6.651   1.572
   11CHTO  H156 4400   6.888   6.694   1.528
   11CHTO   N15 4401   6.775   6.519   1.502
   11CHTO  H143 4402   6.683   6.520   1.447
   11CHTO  H144 4403   6.772   6.438   1.572
   11CHTO   C87 4404   6.820   6.634   1.724
   11CHTO  H159 4405   6.731   6.587   1.768
   11CHTO   O53 4406   6.843   6.767   1.786
   11CHTO   C82 4407   6.731   6.856   1.776
   11CHTO  H154 4408   6.644   6.811   1.825
   11CHTO   C89 4409   6.765   6.985   1.856
   11CHTO   O59 4410   6.884   7.050   1.807
   11CHTO  H137 4411   6.868   7.085   1.722
   11CHTO   O45 4412   6.951   6.538   1.764
   11CHTO   C67 4413   7.079   6.569   1.705
   11CHTO  H124 4414   7.068   6.568   1.597
   11CHTO   C65 4415   7.136   6.710   1.749
   11CHTO  H122 4416   7.086   6.735   1.843
   11CHTO   O44 4417   7.097   6.803   1.647
   11CHTO  H102 4418   7.003   6.812   1.644
   11CHTO   C63 4419   7.289   6.706   1.787
   11CHTO  H120 4420   7.300   6.657   1.883
   11CHTO   N11 4421   7.353   6.839   1.814
   11CHTO  H108 4422   7.295   6.893   1.887
   11CHTO  H109 4423   7.358   6.896   1.724
   11CHTO   C61 4424   7.365   6.616   1.683
   11CHTO  H118 4425   7.470   6.611   1.716
   11CHTO   O40 4426   7.315   6.480   1.683
   11CHTO   C68 4427   7.182   6.453   1.738
   11CHTO  H125 4428   7.191   6.441   1.848
   11CHTO   C72 4429   7.133   6.318   1.681
   11CHTO   O48 4430   7.217   6.208   1.720
   11CHTO  H105 4431   7.208   6.193   1.812
   11CHTO   O38 4432   7.359   6.671   1.549
   11CHTO   C55 4433   7.426   6.597   1.445
   11CHTO  H112 4434   7.432   6.491   1.471
   11CHTO   C56 4435   7.569   6.659   1.416
   11CHTO  H113 4436   7.556   6.767   1.401
   11CHTO   O42 4437   7.652   6.646   1.534
   11CHTO  H100 4438   7.617   6.697   1.604
   11CHTO   C57 4439   7.637   6.592   1.290
   11CHTO  H114 4440   7.664   6.490   1.319
   11CHTO   N10 4441   7.763   6.658   1.247
   11CHTO  H106 4442   7.742   6.739   1.178
   11CHTO  H107 4443   7.816   6.698   1.333
   11CHTO   C58 4444   7.536   6.584   1.172
   11CHTO  H115 4445   7.518   6.686   1.132
   11CHTO   O37 4446   7.410   6.526   1.213
   11CHTO   C59 4447   7.342   6.601   1.315
   11CHTO  H116 4448   7.326   6.704   1.282
   11CHTO   C70 4449   7.204   6.537   1.338
   11CHTO   O46 4450   7.119   6.543   1.224
   11CHTO  H103 4451   7.095   6.633   1.207
   11CHTO   O39 4452   7.591   6.486   1.055
   11CHTO   C60 4453   7.551   6.530   0.924
   11CHTO  H117 4454   7.452   6.575   0.930
   11CHTO   C62 4455   7.649   6.637   0.867
   11CHTO  H119 4456   7.648   6.721   0.939
   11CHTO   O43 4457   7.783   6.583   0.863
   11CHTO  H101 4458   7.787   6.511   0.803
   11CHTO   C66 4459   7.595   6.688   0.725
   11CHTO  H123 4460   7.493   6.723   0.737
   11CHTO   N12 4461   7.673   6.804   0.674
   11CHTO  H110 4462   7.666   6.886   0.743
   11CHTO  H111 4463   7.776   6.775   0.658
   11CHTO   C69 4464   7.592   6.568   0.625
   11CHTO  H126 4465   7.695   6.528   0.610
   11CHTO   O41 4466   7.500   6.456   0.684
   11CHTO   C64 4467   7.539   6.409   0.827
   11CHTO  H121 4468   7.637   6.355   0.824
   11CHTO   C71 4469   7.431   6.310   0.877
   11CHTO   O47 4470   7.425   6.195   0.793
   11CHTO  H104 4471   7.503   6.143   0.805
   11CHTO   O34 4472   7.535   6.610   0.488
   11CHTO   C49 4473   7.556   6.562   0.345
   11CHTO   H91 4474   7.663   6.543   0.333
   11CHTO   C47 4475   7.511   6.676   0.252
   11CHTO   H89 4476   7.536   6.640   0.150
   11CHTO   O33 4477   7.588   6.794   0.278
   11CHTO   H70 4478   7.568   6.861   0.214
   11CHTO   C45 4479   7.352   6.704   0.266
   11CHTO   H87 4480   7.337   6.778   0.347
   11CHTO    N8 4481   7.300   6.763   0.140
   11CHTO   H75 4482   7.375   6.764   0.062
   11CHTO   H76 4483   7.265   6.863   0.157
   11CHTO   C43 4484   7.276   6.571   0.317
   11CHTO   H85 4485   7.285   6.574   0.426
   11CHTO   O29 4486   7.339   6.454   0.261
   11CHTO   C50 4487   7.474   6.434   0.309
   11CHTO   H92 4488   7.468   6.372   0.399
   11CHTO   C54 4489   7.549   6.343   0.209
   11CHTO   O36 4490   7.554   6.398   0.077
   11CHTO   H72 4491   7.604   6.341   0.021
   11CHTO   O27 4492   7.134   6.570   0.293
   11CHTO   C37 4493   7.036   6.483   0.351
   11CHTO   H79 4494   7.083   6.389   0.383
   11CHTO   C38 4495   6.972   6.549   0.476
   11CHTO   H80 4496   6.933   6.648   0.447
   11CHTO   O31 4497   7.076   6.566   0.573
   11CHTO   H68 4498   7.043   6.613   0.648
   11CHTO   C39 4499   6.854   6.460   0.533
   11CHTO   H81 4500   6.899   6.369   0.573
   11CHTO    N7 4501   6.781   6.524   0.646
   11CHTO   H73 4502   6.703   6.459   0.682
   11CHTO   H74 4503   6.849   6.546   0.727
   11CHTO   C40 4504   6.755   6.415   0.418
   11CHTO   H82 4505   6.690   6.498   0.388
   11CHTO   O26 4506   6.827   6.360   0.307
   11CHTO   C41 4507   6.926   6.451   0.248
   11CHTO   H83 4508   6.877   6.545   0.218
   11CHTO   C52 4509   6.983   6.384   0.121
   11CHTO   O35 4510   6.883   6.369   0.016
   11CHTO   H71 4511   6.922   6.329   6.689
   11CHTO   O28 4512   6.673   6.306   0.464
   11CHTO   C42 4513   6.559   6.255   0.389
   11CHTO   H84 4514   6.573   6.290   0.287
   11CHTO   C44 4515   6.419   6.309   0.434
   11CHTO   H86 4516   6.407   6.289   0.541
   11CHTO   O32 4517   6.422   6.452   0.418
   11CHTO   H69 4518   6.342   6.490   0.451
   11CHTO   C48 4519   6.299   6.241   0.356
   11CHTO   H90 4520   6.303   6.275   0.253
   11CHTO    N9 4521   6.165   6.284   0.409
   11CHTO   H77 4522   6.155   6.255   0.512
   11CHTO   H78 4523   6.086   6.240   0.350
   11CHTO   C51 4524   6.316   6.084   0.357
   11CHTO   H93 4525   6.307   6.050   0.460
   11CHTO   O30 4526   6.444   6.051   0.301
   11CHTO   C46 4527   6.558   6.099   0.385
   11CHTO   H88 4528   6.546   6.061   0.486
   11CHTO   C53 4529   6.690   6.043   0.325
   11CHTO   O72 4530   6.710   6.085   0.189
   11CHTO  H199 4531   6.646   6.045   0.133
   11CHTO   O22 4532   6.219   6.019   0.273
   11CHTO   C31 4533   6.205   5.872   0.275
   11CHTO   H59 4534   6.300   5.832   0.318
   11CHTO   C29 4535   6.090   5.822   0.365
   11CHTO   H57 4536   5.997   5.866   0.327
   11CHTO   O21 4537   6.110   5.874   0.498
   11CHTO   H37 4538   6.035   5.856   0.551
   11CHTO   C27 4539   6.077   5.664   0.362
   11CHTO   H55 4540   6.170   5.621   0.403
   11CHTO    N5 4541   5.963   5.612   0.442
   11CHTO   H43 4542   5.903   5.693   0.481
   11CHTO   H44 4543   5.902   5.544   0.385
   11CHTO   C25 4544   6.070   5.617   0.212
   11CHTO   H53 4545   5.978   5.657   0.166
   11CHTO   O17 4546   6.185   5.669   0.139
   11CHTO   C32 4547   6.193   5.812   0.132
   11CHTO   H60 4548   6.104   5.851   0.084
   11CHTO   C36 4549   6.317   5.844   0.044
   11CHTO   O25 4550   6.325   5.983   0.010
   11CHTO   H40 4551   6.344   6.033   0.087
   11CHTO   O15 4552   6.071   5.460   0.200
   11CHTO   C19 4553   6.011   5.367   0.105
   11CHTO   H47 4554   6.033   5.268   0.148
   11CHTO   C20 4555   5.856   5.382   0.092
   11CHTO   H48 4556   5.827   5.482   0.056
   11CHTO   O19 4557   5.800   5.364   0.223
   11CHTO   H35 4558   5.823   5.437   0.278
   11CHTO   C21 4559   5.796   5.275   6.740
   11CHTO   H49 4560   5.812   5.175   0.033
   11CHTO    N4 4561   5.649   5.289   6.717
   11CHTO   H41 4562   5.609   5.371   0.026
   11CHTO   H42 4563   5.598   5.198   6.745
   11CHTO   C22 4564   5.875   5.280   6.606
   11CHTO   H50 4565   5.855   5.375   6.557
   11CHTO   O14 4566   6.016   5.268   6.631
   11CHTO   C23 4567   6.077   5.369   6.712
   11CHTO   H51 4568   6.063   5.466   6.662
   11CHTO   C34 4569   6.226   5.335   6.717
   11CHTO   O23 4570   6.306   5.440   0.023
   11CHTO   H38 4571   6.307   5.513   6.713
   11CHTO   O16 4572   5.845   5.169   6.520
   11CHTO   C24 4573   5.868   5.203   6.363
   11CHTO   H52 4574   5.915   5.300   6.349
   11CHTO   C26 4575   5.732   5.200   6.291
   11CHTO   H54 4576   5.687   5.098   6.303
   11CHTO   O20 4577   5.642   5.293   6.355
   11CHTO   H36 4578   5.674   5.381   6.346
   11CHTO   C30 4579   5.749   5.229   6.138
   11CHTO   H58 4580   5.777   5.334   6.125
   11CHTO    N6 4581   5.620   5.211   6.065
   11CHTO   H45 4582   5.586   5.109   6.074
   11CHTO   H46 4583   5.633   5.236   5.961
   11CHTO   C33 4584   5.864   5.142   6.076
   11CHTO   H61 4585   5.830   5.038   6.072
   11CHTO   O18 4586   5.980   5.147   6.161
   11CHTO   C28 4587   5.959   5.098   6.294
   11CHTO   H56 4588   5.908   5.002   6.293
   11CHTO   C35 4589   6.096   5.081   6.363
   11CHTO   O24 4590   6.089   5.010   6.488
   11CHTO   H39 4591   6.043   5.061   6.551
   11CHTO    O9 4592   5.898   5.175   5.939
   11CHTO   C13 4593   5.886   5.330   5.875
   11CHTO   H26 4594   5.786   5.370   5.897
   11CHTO   C11 4595   5.910   5.319   5.719
   11CHTO   H24 4596   5.829   5.256   5.679
   11CHTO    O8 4597   6.035   5.253   5.691
   11CHTO    H3 4598   6.034   5.165   5.724
   11CHTO    C9 4599   5.899   5.460   5.656
   11CHTO   H22 4600   5.799   5.496   5.685
   11CHTO    N2 4601   5.898   5.459   5.507
   11CHTO   H10 4602   5.821   5.393   5.471
   11CHTO   H11 4603   5.880   5.559   5.471
   11CHTO    C7 4604   6.007   5.554   5.719
   11CHTO   H20 4605   5.979   5.654   5.682
   11CHTO    O4 4606   5.999   5.556   5.863
   11CHTO   C14 4607   5.988   5.434   5.939
   11CHTO   H27 4608   5.947   5.463   6.038
   11CHTO   C18 4609   6.128   5.374   5.965
   11CHTO   O13 4610   6.210   5.470   6.033
   11CHTO    H7 4611   6.178   5.483   6.120
   11CHTO    O2 4612   6.163   5.516   5.672
   11CHTO    C1 4613   6.248   5.628   5.639
   11CHTO   H14 4614   6.235   5.706   5.717
   11CHTO    C2 4615   6.221   5.692   5.496
   11CHTO   H15 4616   6.216   5.608   5.425
   11CHTO    O6 4617   6.094   5.760   5.499
   11CHTO    H1 4618   6.071   5.790   5.413
   11CHTO    C3 4619   6.338   5.794   5.454
   11CHTO   H16 4620   6.335   5.881   5.520
   11CHTO    N1 4621   6.321   5.846   5.313
   11CHTO    H8 4622   6.228   5.899   5.305
   11CHTO    H9 4623   6.322   5.763   5.243
   11CHTO    C4 4624   6.478   5.727   5.476
   11CHTO   H17 4625   6.490   5.644   5.407
   11CHTO    O1 4626   6.490   5.682   5.612
   11CHTO    C5 4627   6.397   5.580   5.650
   11CHTO   H18 4628   6.409   5.494   5.584
   11CHTO   C16 4629   6.434   5.537   5.794
   11CHTO   O11 4630   6.428   5.645   5.889
   11CHTO    H5 4631   6.339   5.671   5.900
   11CHTO    O3 4632   6.586   5.822   5.462
   11CHTO    C6 4633   6.709   5.770   5.400
   11CHTO   H19 4634   6.708   5.661   5.390
   11CHTO    C8 4635   6.727   5.832   5.258
   11CHTO   H21 4636   6.710   5.940   5.265
   11CHTO    O7 4637   6.626   5.774   5.174
   11CHTO    H2 4638   6.541   5.804   5.199
   11CHTO   C12 4639   6.871   5.807   5.199
   11CHTO   H25 4640   6.876   5.700   5.174
   11CHTO    N3 4641   6.893   5.882   5.070
   11CHTO   H12 4642   6.881   5.988   5.086
   11CHTO   H13 4643   6.823   5.847   4.995
   11CHTO   C15 4644   6.981   5.838   5.307
   11CHTO   H28 4645   6.989   5.945   5.328
   11CHTO   O10 4646   7.122   5.783   5.267
   11CHTO    H4 4647   7.117   5.692   5.246
   11CHTO    O5 4648   6.954   5.766   5.428
   11CHTO   C10 4649   6.830   5.805   5.491
   11CHTO   H23 4650   6.833   5.912   5.511
   11CHTO   C17 4651   6.821   5.732   5.626
   11CHTO   O12 4652   6.928   5.769   5.713
   11CHTO    H6 4653   6.921   5.722   5.793
   12CHTO  H203 4654   5.503   2.686   5.967
   12CHTO   O82 4655   5.559   2.616   5.938
   12CHTO  C123 4656   5.479   2.501   5.904
   12CHTO  H227 4657   5.409   2.529   5.824
   12CHTO   O77 4658   5.577   2.407   5.853
   12CHTO  C118 4659   5.521   2.283   5.807
   12CHTO  H222 4660   5.442   2.303   5.734
   12CHTO  C125 4661   5.635   2.201   5.737
   12CHTO   O84 4662   5.676   2.266   5.616
   12CHTO  H205 4663   5.722   2.345   5.636
   12CHTO  C114 4664   5.462   2.208   5.928
   12CHTO  H218 4665   5.540   2.194   6.003
   12CHTO  C116 4666   5.348   2.295   5.991
   12CHTO  H220 4667   5.264   2.304   5.918
   12CHTO   O79 4668   5.295   2.225   6.105
   12CHTO  H201 4669   5.222   2.272   6.140
   12CHTO  C120 4670   5.403   2.439   6.029
   12CHTO  H224 4671   5.473   2.424   6.112
   12CHTO   N21 4672   5.296   2.530   6.080
   12CHTO  H211 4673   5.320   2.633   6.058
   12CHTO  H212 4674   5.201   2.504   6.035
   12CHTO   O75 4675   5.417   2.081   5.878
   12CHTO  C112 4676   5.437   1.942   5.977
   12CHTO  H216 4677   5.345   1.881   5.968
   12CHTO   O73 4678   5.460   1.983   6.113
   12CHTO  C113 4679   5.455   1.873   6.205
   12CHTO  H217 4680   5.356   1.823   6.196
   12CHTO  C124 4681   5.464   1.928   6.348
   12CHTO   O83 4682   5.353   2.012   6.382
   12CHTO  H204 4683   5.363   2.044   6.470
   12CHTO  C109 4684   5.568   1.770   6.178
   12CHTO  H213 4685   5.663   1.818   6.208
   12CHTO  C110 4686   5.573   1.731   6.026
   12CHTO  H214 4687   5.492   1.661   6.007
   12CHTO   O78 4688   5.696   1.660   6.002
   12CHTO  H200 4689   5.696   1.577   6.045
   12CHTO  C111 4690   5.560   1.854   5.932
   12CHTO  H215 4691   5.651   1.916   5.941
   12CHTO   N19 4692   5.548   1.816   5.788
   12CHTO  H207 4693   5.454   1.849   5.746
   12CHTO  H208 4694   5.630   1.858   5.732
   12CHTO   O74 4695   5.546   1.651   6.261
   12CHTO  C115 4696   5.679   1.575   6.316
   12CHTO  H219 4697   5.770   1.630   6.292
   12CHTO   O76 4698   5.678   1.562   6.473
   12CHTO  C122 4699   5.558   1.500   6.521
   12CHTO  H226 4700   5.477   1.573   6.514
   12CHTO  C126 4701   5.573   1.469   6.675
   12CHTO   O85 4702   5.588   1.586   0.007
   12CHTO  H206 4703   5.509   1.636   0.006
   12CHTO  C121 4704   5.520   1.367   6.442
   12CHTO  H225 4705   5.498   1.288   6.517
   12CHTO   O81 4706   5.402   1.388   6.364
   12CHTO  H202 4707   5.329   1.406   6.420
   12CHTO  C119 4708   5.638   1.319   6.352
   12CHTO  H223 4709   5.721   1.301   6.422
   12CHTO  C117 4710   5.684   1.431   6.249
   12CHTO  H221 4711   5.619   1.439   6.162
   12CHTO   N20 4712   5.820   1.400   6.194
   12CHTO  H209 4713   5.864   1.314   6.242
   12CHTO  H210 4714   5.814   1.383   6.087
   12CHTO   O80 4715   5.617   1.174   6.291
   12CHTO  C103 4716   5.599   1.049   6.387
   12CHTO  H190 4717   5.633   1.073   6.488
   12CHTO  C101 4718   5.454   0.989   6.395
   12CHTO  H188 4719   5.416   0.976   6.293
   12CHTO   O68 4720   5.361   1.089   6.468
   12CHTO  H168 4721   5.272   1.058   6.465
   12CHTO   C99 4722   5.454   0.846   6.466
   12CHTO  H186 4723   5.488   0.858   6.571
   12CHTO   N17 4724   5.319   0.780   6.472
   12CHTO  H174 4725   5.284   0.761   6.371
   12CHTO  H175 4726   5.250   0.843   6.526
   12CHTO   C97 4727   5.560   0.754   6.398
   12CHTO  H184 4728   5.528   0.736   6.295
   12CHTO   O64 4729   5.689   0.818   6.404
   12CHTO  C104 4730   5.699   0.941   6.330
   12CHTO  H191 4731   5.677   0.925   6.224
   12CHTO  C108 4732   5.843   0.992   6.337
   12CHTO   O71 4733   5.933   0.900   6.275
   12CHTO  H171 4734   6.021   0.934   6.279
   12CHTO   O62 4735   5.580   0.629   6.469
   12CHTO   C91 4736   5.617   0.515   6.388
   12CHTO  H178 4737   5.656   0.550   6.293
   12CHTO   C92 4738   5.490   0.429   6.356
   12CHTO  H179 4739   5.437   0.408   6.451
   12CHTO   O66 4740   5.399   0.509   6.278
   12CHTO  H166 4741   5.366   0.581   6.329
   12CHTO   C93 4742   5.524   0.295   6.280
   12CHTO  H180 4743   5.555   0.322   6.178
   12CHTO   N16 4744   5.406   0.205   6.264
   12CHTO  H172 4745   5.328   0.257   6.209
   12CHTO  H173 4746   5.435   0.115   6.211
   12CHTO   C94 4747   5.642   0.220   6.351
   12CHTO  H181 4748   5.614   0.183   6.450
   12CHTO   O61 4749   5.753   0.309   6.369
   12CHTO   C95 4750   5.726   0.422   6.453
   12CHTO  H182 4751   5.690   0.387   6.550
   12CHTO  C106 4752   5.860   0.499   6.478
   12CHTO   O69 4753   5.953   0.419   6.552
   12CHTO  H169 4754   5.983   0.347   6.500
   12CHTO   O63 4755   5.695   0.096   6.258
   12CHTO   C96 4756   5.803   0.009   6.331
   12CHTO  H183 4757   5.814   0.045   6.433
   12CHTO   C98 4758   5.944   0.013   6.266
   12CHTO  H185 4759   5.936   9.987   6.159
   12CHTO   O67 4760   5.991   0.149   6.269
   12CHTO  H167 4761   5.939   0.203   6.212
   12CHTO  C102 4762   6.048   9.915   6.340
   12CHTO  H189 4763   6.072   9.964   6.436
   12CHTO   N18 4764   6.178   9.900   6.269
   12CHTO  H176 4765   6.244   9.836   6.326
   12CHTO  H177 4766   6.163   9.858   6.171
   12CHTO  C105 4767   5.984   9.777   6.373
   12CHTO  H192 4768   5.982   9.715   6.283
   12CHTO   O65 4769   5.849   9.786   6.423
   12CHTO  C100 4770   5.758   9.858   6.338
   12CHTO  H187 4771   5.762   9.815   6.237
   12CHTO  C107 4772   5.614   9.842   6.392
   12CHTO   O70 4773   5.572   9.705   6.386
   12CHTO  H170 4774   5.484   9.698   6.416
   12CHTO   O57 4775   6.080   9.710   6.487
   12CHTO   C85 4776   6.059   9.573   6.526
   12CHTO  H157 4777   6.002   9.526   6.442
   12CHTO   C83 4778   5.963   9.568   6.649
   12CHTO  H155 4779   5.867   9.611   6.620
   12CHTO   O56 4780   6.014   9.652   0.006
   12CHTO  H135 4781   6.096   9.619   0.038
   12CHTO   C81 4782   5.941   9.419   6.690
   12CHTO  H153 4783   5.903   9.366   6.603
   12CHTO   N14 4784   5.836   9.402   0.045
   12CHTO  H141 4785   5.819   9.298   0.062
   12CHTO  H142 4786   5.745   9.447   0.011
   12CHTO   C79 4787   6.079   9.354   6.730
   12CHTO  H151 4788   6.060   9.248   0.002
   12CHTO   O52 4789   6.170   9.359   6.615
   12CHTO   C86 4790   6.192   9.493   6.560
   12CHTO  H158 4791   6.252   9.545   6.637
   12CHTO   C90 4792   6.284   9.478   6.436
   12CHTO   O60 4793   6.327   9.605   6.386
   12CHTO  H138 4794   6.382   9.592   6.311
   12CHTO   O50 4795   6.143   9.412   0.096
   12CHTO   C73 4796   6.138   9.391   0.238
   12CHTO  H145 4797   6.048   9.334   0.265
   12CHTO   C74 4798   6.134   9.527   0.314
   12CHTO  H146 4799   6.046   9.583   0.277
   12CHTO   O54 4800   6.110   9.501   0.453
   12CHTO  H133 4801   6.182   9.454   0.491
   12CHTO   C75 4802   6.268   9.606   0.287
   12CHTO  H147 4803   6.275   9.627   0.179
   12CHTO   N13 4804   6.274   9.739   0.353
   12CHTO  H139 4805   6.268   9.727   0.460
   12CHTO  H140 4806   6.367   9.789   0.329
   12CHTO   C76 4807   6.392   9.513   0.326
   12CHTO  H148 4808   6.388   9.497   0.434
   12CHTO   O49 4809   6.384   9.384   0.257
   12CHTO   C77 4810   6.263   9.311   0.287
   12CHTO  H149 4811   6.256   9.295   0.394
   12CHTO   C88 4812   6.274   9.171   0.225
   12CHTO   O58 4813   6.157   9.089   0.256
   12CHTO  H136 4814   6.166   9.005   0.216
   12CHTO   O51 4815   6.532   9.582   0.279
   12CHTO   C78 4816   6.663   9.492   0.304
   12CHTO  H150 4817   6.642   9.385   0.282
   12CHTO   C80 4818   6.714   9.505   0.449
   12CHTO  H152 4819   6.730   9.613   0.472
   12CHTO   O55 4820   6.611   9.454   0.537
   12CHTO  H134 4821   6.537   9.512   0.537
   12CHTO   C84 4822   6.850   9.426   0.468
   12CHTO  H156 4823   6.830   9.321   0.447
   12CHTO   N15 4824   6.905   9.434   0.607
   12CHTO  H143 4825   6.835   9.393   0.676
   12CHTO  H144 4826   6.996   9.378   0.613
   12CHTO   C87 4827   6.951   9.479   0.363
   12CHTO  H159 4828   6.973   9.584   0.383
   12CHTO   O53 4829   6.890   9.463   0.221
   12CHTO   C82 4830   6.770   9.539   0.204
   12CHTO  H154 4831   6.791   9.645   0.218
   12CHTO   C89 4832   6.721   9.522   0.058
   12CHTO   O59 4833   6.813   9.579   6.714
   12CHTO  H137 4834   6.781   9.568   6.626
   12CHTO   O45 4835   7.094   9.397   0.366
   12CHTO   C67 4836   7.089   9.266   0.309
   12CHTO  H124 4837   6.987   9.227   0.308
   12CHTO   C65 4838   7.145   9.269   0.164
   12CHTO  H122 4839   7.096   9.354   0.116
   12CHTO   O44 4840   7.108   9.148   0.094
   12CHTO  H102 4841   7.015   9.142   0.086
   12CHTO   C63 4842   7.298   9.303   0.168
   12CHTO  H120 4843   7.311   9.395   0.225
   12CHTO   N11 4844   7.360   9.339   0.036
   12CHTO  H108 4845   7.388   9.442   0.034
   12CHTO  H109 4846   7.445   9.277   0.017
   12CHTO   C61 4847   7.373   9.190   0.249
   12CHTO  H118 4848   7.474   9.228   0.263
   12CHTO   O40 4849   7.317   9.170   0.381
   12CHTO   C68 4850   7.172   9.167   0.402
   12CHTO  H125 4851   7.155   9.201   0.507
   12CHTO   C72 4852   7.120   9.022   0.394
   12CHTO   O48 4853   7.171   8.941   0.500
   12CHTO  H105 4854   7.135   8.969   0.582
   12CHTO   O38 4855   7.376   9.064   0.177
   12CHTO   C55 4856   7.496   8.985   0.184
   12CHTO  H112 4857   7.531   8.984   0.288
   12CHTO   C56 4858   7.608   9.039   0.084
   12CHTO  H113 4859   7.559   9.055   6.735
   12CHTO   O42 4860   7.655   9.169   0.126
   12CHTO  H100 4861   7.713   9.205   0.061
   12CHTO   C57 4862   7.729   8.939   0.070
   12CHTO  H114 4863   7.785   8.943   0.163
   12CHTO   N10 4864   7.823   8.976   6.709
   12CHTO  H106 4865   7.826   9.083   6.695
   12CHTO  H107 4866   7.923   8.941   6.732
   12CHTO   C58 4867   7.677   8.794   0.050
   12CHTO  H115 4868   7.627   8.787   6.699
   12CHTO   O37 4869   7.584   8.759   0.153
   12CHTO   C59 4870   7.464   8.837   0.148
   12CHTO  H116 4871   7.419   8.830   0.049
   12CHTO   C70 4872   7.363   8.776   0.247
   12CHTO   O46 4873   7.321   8.644   0.209
   12CHTO  H103 4874   7.269   8.648   0.131
   12CHTO   O39 4875   7.797   8.688   0.059
   12CHTO   C60 4876   7.796   8.591   6.702
   12CHTO  H117 4877   7.693   8.565   6.677
   12CHTO   C62 4878   7.866   8.644   6.573
   12CHTO  H119 4879   7.808   8.734   6.541
   12CHTO   O43 4880   8.001   8.686   6.604
   12CHTO  H101 4881   8.052   8.613   6.631
   12CHTO   C66 4882   7.859   8.534   6.457
   12CHTO  H123 4883   7.754   8.510   6.439
   12CHTO   N12 4884   7.912   8.582   6.327
   12CHTO  H110 4885   7.945   8.685   6.334
   12CHTO  H111 4886   7.838   8.571   6.249
   12CHTO   C69 4887   7.928   8.404   6.505
   12CHTO  H126 4888   8.038   8.422   6.518
   12CHTO   O41 4889   7.865   8.355   6.643
   12CHTO   C64 4890   7.865   8.461   0.003
   12CHTO  H121 4891   7.970   8.485   0.031
   12CHTO   C71 4892   7.793   8.406   0.128
   12CHTO   O47 4893   7.873   8.309   0.195
   12CHTO  H104 4894   7.947   8.350   0.234
   12CHTO   O34 4895   7.910   8.290   6.401
   12CHTO   C49 4896   8.008   8.181   6.362
   12CHTO   H91 4897   8.083   8.228   6.298
   12CHTO   C47 4898   7.931   8.073   6.283
   12CHTO   H89 4899   8.010   8.003   6.247
   12CHTO   O33 4900   7.866   8.130   6.168
   12CHTO   H70 4901   7.800   8.191   6.195
   12CHTO   C45 4902   7.823   7.996   6.378
   12CHTO   H87 4903   7.726   8.046   6.366
   12CHTO    N8 4904   7.810   7.856   6.331
   12CHTO   H75 4905   7.903   7.803   6.344
   12CHTO   H76 4906   7.780   7.854   6.227
   12CHTO   C43 4907   7.861   8.016   6.534
   12CHTO   H85 4908   7.824   8.114   6.560
   12CHTO   O29 4909   8.004   8.007   6.551
   12CHTO   C50 4910   8.077   8.112   6.484
   12CHTO   H92 4911   8.100   8.190   6.559
   12CHTO   C54 4912   8.217   8.058   6.445
   12CHTO   O36 4913   8.294   8.019   6.559
   12CHTO   H72 4914   8.318   8.095   6.608
   12CHTO   O27 4915   7.791   7.927   6.622
   12CHTO   C37 4916   7.696   7.929   6.730
   12CHTO   H79 4917   7.661   7.827   0.002
   12CHTO   C38 4918   7.759   7.983   0.113
   12CHTO   H80 4919   7.803   8.082   0.093
   12CHTO   O31 4920   7.864   7.892   0.150
   12CHTO   H68 4921   7.911   7.926   0.224
   12CHTO   C39 4922   7.650   7.996   0.228
   12CHTO   H81 4923   7.617   7.895   0.252
   12CHTO    N7 4924   7.704   8.056   0.355
   12CHTO   H73 4925   7.626   8.060   0.429
   12CHTO   H74 4926   7.741   8.156   0.335
   12CHTO   C40 4927   7.524   8.075   0.175
   12CHTO   H82 4928   7.547   8.180   0.161
   12CHTO   O26 4929   7.479   8.013   0.053
   12CHTO   C41 4930   7.574   8.017   6.692
   12CHTO   H83 4931   7.607   8.121   6.674
   12CHTO   C52 4932   7.502   7.966   6.565
   12CHTO   O35 4933   7.385   8.044   6.533
   12CHTO   H71 4934   7.345   8.010   6.455
   12CHTO   O28 4935   7.413   8.064   0.266
   12CHTO   C42 4936   7.280   8.125   0.246
   12CHTO   H84 4937   7.221   8.083   0.328
   12CHTO   C44 4938   7.204   8.085   0.115
   12CHTO   H86 4939   7.261   8.123   0.029
   12CHTO   O32 4940   7.202   7.941   0.109
   12CHTO   H69 4941   7.151   7.906   0.180
   12CHTO   C48 4942   7.059   8.145   0.105
   12CHTO   H90 4943   6.996   8.089   0.175
   12CHTO    N9 4944   6.997   8.123   6.718
   12CHTO   H77 4945   7.057   8.170   6.642
   12CHTO   H78 4946   6.987   8.017   6.699
   12CHTO   C51 4947   7.053   8.297   0.148
   12CHTO   H93 4948   7.090   8.358   0.066
   12CHTO   O30 4949   7.127   8.320   0.269
   12CHTO   C46 4950   7.275   8.280   0.261
   12CHTO   H88 4951   7.321   8.327   0.174
   12CHTO   C53 4952   7.341   8.329   0.392
   12CHTO   O72 4953   7.484   8.326   0.385
   12CHTO  H199 4954   7.515   8.391   0.324
   12CHTO   O22 4955   6.916   8.329   0.178
   12CHTO   C31 4956   6.858   8.464   0.196
   12CHTO   H59 4957   6.749   8.448   0.213
   12CHTO   C29 4958   6.911   8.543   0.318
   12CHTO   H57 4959   7.016   8.571   0.299
   12CHTO   O21 4960   6.910   8.455   0.432
   12CHTO   H37 4961   6.949   8.498   0.506
   12CHTO   C27 4962   6.824   8.673   0.338
   12CHTO   H55 4963   6.719   8.643   0.352
   12CHTO    N5 4964   6.866   8.754   0.456
   12CHTO   H43 4965   6.861   8.693   0.545
   12CHTO   H44 4966   6.801   8.839   0.466
   12CHTO   C25 4967   6.830   8.757   0.205
   12CHTO   H53 4968   6.932   8.796   0.191
   12CHTO   O17 4969   6.795   8.677   0.089
   12CHTO   C32 4970   6.868   8.554   0.069
   12CHTO   H60 4971   6.972   8.576   0.049
   12CHTO   C36 4972   6.806   8.482   6.695
   12CHTO   O25 4973   6.819   8.559   6.576
   12CHTO   H40 4974   6.781   8.513   6.504
   12CHTO   O15 4975   6.727   8.880   0.212
   12CHTO   C19 4976   6.612   8.933   0.140
   12CHTO   H47 4977   6.557   8.990   0.216
   12CHTO   C20 4978   6.649   9.028   0.022
   12CHTO   H48 4979   6.710   8.978   6.694
   12CHTO   O19 4980   6.726   9.136   0.077
   12CHTO   H35 4981   6.811   9.105   0.104
   12CHTO   C21 4982   6.519   9.084   6.698
   12CHTO   H49 4983   6.466   9.149   0.019
   12CHTO    N4 4984   6.548   9.168   6.579
   12CHTO   H41 4985   6.609   9.253   6.608
   12CHTO   H42 4986   6.456   9.204   6.535
   12CHTO   C22 4987   6.424   8.966   6.664
   12CHTO   H50 4988   6.470   8.905   6.586
   12CHTO   O14 4989   6.398   8.885   0.032
   12CHTO   C23 4990   6.514   8.823   0.089
   12CHTO   H51 4991   6.559   8.760   0.011
   12CHTO   C34 4992   6.467   8.731   0.203
   12CHTO   O23 4993   6.394   8.619   0.152
   12CHTO   H38 4994   6.368   8.564   0.223
   12CHTO   O16 4995   6.293   9.011   6.623
   12CHTO   C24 4996   6.215   8.901   6.535
   12CHTO   H52 4997   6.263   8.803   6.539
   12CHTO   C26 4998   6.209   8.949   6.389
   12CHTO   H54 4999   6.164   9.051   6.387
   12CHTO   O20 5000   6.343   8.958   6.338
   12CHTO   H36 5001   6.389   9.028   6.380
   12CHTO   C30 5002   6.120   8.855   6.301
   12CHTO   H58 5003   6.172   8.759   6.288
   12CHTO    N6 5004   6.100   8.910   6.163
   12CHTO   H45 5005   6.150   9.005   6.151
   12CHTO   H46 5006   6.137   8.840   6.089
   12CHTO   C33 5007   5.984   8.823   6.371
   12CHTO   H61 5008   5.923   8.915   6.372
   12CHTO   O18 5009   6.006   8.783   6.507
   12CHTO   C28 5010   6.071   8.882   6.589
   12CHTO   H56 5011   6.018   8.977   6.583
   12CHTO   C35 5012   6.069   8.835   6.737
   12CHTO   O24 5013   6.136   8.711   0.011
   12CHTO   H39 5014   6.089   8.641   6.717
   12CHTO    O9 5015   5.905   8.726   6.299
   12CHTO   C13 5016   5.968   8.572   6.293
   12CHTO   H26 5017   6.053   8.567   6.364
   12CHTO   C11 5018   6.013   8.541   6.144
   12CHTO   H24 5019   6.108   8.595   6.125
   12CHTO    O8 5020   5.915   8.589   6.050
   12CHTO    H3 5021   5.909   8.683   6.055
   12CHTO    C9 5022   6.038   8.388   6.131
   12CHTO   H22 5023   6.106   8.362   6.213
   12CHTO    N2 5024   6.113   8.350   6.009
   12CHTO   H10 5025   6.053   8.370   5.921
   12CHTO   H11 5026   6.140   8.246   6.013
   12CHTO    C7 5027   5.901   8.311   6.154
   12CHTO   H20 5028   5.932   8.218   6.207
   12CHTO    O4 5029   5.808   8.384   6.237
   12CHTO   C14 5030   5.864   8.462   6.344
   12CHTO   H27 5031   5.918   8.392   6.412
   12CHTO   C18 5032   5.748   8.523   6.427
   12CHTO   O13 5033   5.669   8.422   6.490
   12CHTO    H7 5034   5.718   8.380   6.558
   12CHTO    O2 5035   5.823   8.272   6.017
   12CHTO    C1 5036   5.754   8.146   6.024
   12CHTO   H14 5037   5.745   8.113   6.130
   12CHTO    C2 5038   5.825   8.032   5.941
   12CHTO   H15 5039   5.842   8.074   5.840
   12CHTO    O6 5040   5.951   8.003   6.003
   12CHTO    H1 5041   6.000   7.943   5.951
   12CHTO    C3 5042   5.733   7.900   5.931
   12CHTO   H16 5043   5.732   7.853   6.030
   12CHTO    N1 5044   5.791   7.801   5.834
   12CHTO    H8 5045   5.724   7.782   5.752
   12CHTO    H9 5046   5.814   7.708   5.885
   12CHTO    C4 5047   5.583   7.937   5.899
   12CHTO   H17 5048   5.575   7.966   5.794
   12CHTO    O1 5049   5.535   8.042   5.983
   12CHTO    C5 5050   5.608   8.165   5.972
   12CHTO   H18 5051   5.614   8.195   5.867
   12CHTO   C16 5052   5.531   8.275   6.050
   12CHTO   O11 5053   5.518   8.245   6.189
   12CHTO    H5 5054   5.461   8.172   6.201
   12CHTO    O3 5055   5.493   7.828   5.931
   12CHTO    C6 5056   5.421   7.764   5.820
   12CHTO   H19 5057   5.465   7.786   5.723
   12CHTO    C8 5058   5.420   7.609   5.841
   12CHTO   H21 5059   5.379   7.588   5.940
   12CHTO    O7 5060   5.557   7.565   5.835
   12CHTO    H2 5061   5.562   7.473   5.854
   12CHTO   C12 5062   5.331   7.538   5.731
   12CHTO   H25 5063   5.383   7.552   5.634
   12CHTO    N3 5064   5.322   7.390   5.754
   12CHTO   H12 5065   5.279   7.370   5.851
   12CHTO   H13 5066   5.420   7.345   5.746
   12CHTO   C15 5067   5.190   7.607   5.723
   12CHTO   H28 5068   5.128   7.585   5.810
   12CHTO   O10 5069   5.113   7.570   5.595
   12CHTO    H4 5070   5.092   7.479   5.596
   12CHTO    O5 5071   5.203   7.750   5.708
   12CHTO   C10 5072   5.273   7.814   5.815
   12CHTO   H23 5073   5.223   7.791   5.909
   12CHTO   C17 5074   5.262   7.966   5.793
   12CHTO   O12 5075   5.127   8.011   5.806
   12CHTO    H6 5076   5.075   7.979   5.734
   13CHTO  H203 5077   7.399   4.718   2.354
   13CHTO   O82 5078   7.316   4.762   2.347
   13CHTO  C123 5079   7.329   4.897   2.396
   13CHTO  H227 5080   7.404   4.950   2.335
   13CHTO   O77 5081   7.196   4.954   2.372
   13CHTO  C118 5082   7.188   5.095   2.397
   13CHTO  H222 5083   7.260   5.148   2.334
   13CHTO  C125 5084   7.042   5.142   2.360
   13CHTO   O84 5085   7.014   5.118   2.222
   13CHTO  H205 5086   7.007   5.026   2.206
   13CHTO  C114 5087   7.218   5.124   2.546
   13CHTO  H218 5088   7.139   5.079   2.607
   13CHTO  C116 5089   7.354   5.061   2.590
   13CHTO  H220 5090   7.437   5.117   2.543
   13CHTO   O79 5091   7.368   5.081   2.732
   13CHTO  H201 5092   7.452   5.051   2.761
   13CHTO  C120 5093   7.361   4.908   2.549
   13CHTO  H224 5094   7.283   4.855   2.609
   13CHTO   N21 5095   7.492   4.846   2.583
   13CHTO  H211 5096   7.489   4.806   2.683
   13CHTO  H212 5097   7.572   4.918   2.573
   13CHTO   O75 5098   7.215   5.267   2.556
   13CHTO  C112 5099   7.134   5.325   2.688
   13CHTO  H216 5100   7.178   5.281   2.779
   13CHTO   O73 5101   6.996   5.290   2.673
   13CHTO  C113 5102   6.910   5.339   2.777
   13CHTO  H217 5103   6.947   5.301   2.875
   13CHTO  C124 5104   6.770   5.279   2.756
   13CHTO   O83 5105   6.768   5.136   2.765
   13CHTO  H204 5106   6.815   5.099   2.693
   13CHTO  C109 5107   6.908   5.494   2.777
   13CHTO  H213 5108   6.873   5.525   2.677
   13CHTO  C110 5109   7.054   5.545   2.799
   13CHTO  H214 5110   7.085   5.517   2.900
   13CHTO   O78 5111   7.053   5.689   2.792
   13CHTO  H200 5112   7.138   5.723   2.814
   13CHTO  C111 5113   7.150   5.482   2.694
   13CHTO  H215 5114   7.123   5.521   2.595
   13CHTO   N19 5115   7.293   5.518   2.716
   13CHTO  H207 5116   7.325   5.485   2.814
   13CHTO  H208 5117   7.307   5.624   2.707
   13CHTO   O74 5118   6.818   5.547   2.879
   13CHTO  C115 5119   6.691   5.630   2.820
   13CHTO  H219 5120   6.698   5.644   2.712
   13CHTO   O76 5121   6.555   5.551   2.840
   13CHTO  C122 5122   6.520   5.541   2.979
   13CHTO  H226 5123   6.599   5.485   3.029
   13CHTO  C126 5124   6.390   5.453   2.994
   13CHTO   O85 5125   6.277   5.509   2.925
   13CHTO  H206 5126   6.203   5.453   2.937
   13CHTO  C121 5127   6.502   5.683   3.048
   13CHTO  H225 5128   6.395   5.698   3.074
   13CHTO   O81 5129   6.578   5.688   3.170
   13CHTO  H202 5130   6.544   5.625   3.231
   13CHTO  C119 5131   6.546   5.799   2.954
   13CHTO  H223 5132   6.475   5.800   2.872
   13CHTO  C117 5133   6.689   5.772   2.892
   13CHTO  H221 5134   6.770   5.768   2.964
   13CHTO   N20 5135   6.727   5.883   2.797
   13CHTO  H209 5136   6.750   5.845   2.699
   13CHTO  H210 5137   6.810   5.939   2.837
   13CHTO   O80 5138   6.522   5.948   3.021
   13CHTO  C103 5139   6.373   6.017   3.016
   13CHTO  H190 5140   6.384   6.126   3.017
   13CHTO  C101 5141   6.282   5.979   2.894
   13CHTO  H188 5142   6.269   5.871   2.890
   13CHTO   O68 5143   6.353   6.025   2.763
   13CHTO  H168 5144   6.304   5.997   2.688
   13CHTO   C99 5145   6.137   6.045   2.911
   13CHTO  H186 5146   6.148   6.156   2.913
   13CHTO   N17 5147   6.042   6.012   2.799
   13CHTO  H174 5148   5.949   6.066   2.813
   13CHTO  H175 5149   6.087   6.036   2.704
   13CHTO   C97 5150   6.078   6.007   3.050
   13CHTO  H184 5151   6.055   5.899   3.050
   13CHTO   O64 5152   6.170   6.041   3.156
   13CHTO  C104 5153   6.299   5.977   3.149
   13CHTO  H191 5154   6.289   5.869   3.153
   13CHTO  C108 5155   6.382   6.017   3.272
   13CHTO   O71 5156   6.322   5.971   3.394
   13CHTO  H171 5157   6.242   6.018   3.410
   13CHTO   O62 5158   5.960   6.084   3.084
   13CHTO   C91 5159   5.858   6.020   3.162
   13CHTO  H178 5160   5.899   5.930   3.207
   13CHTO   C92 5161   5.740   5.975   3.069
   13CHTO  H179 5162   5.711   6.061   3.007
   13CHTO   O66 5163   5.791   5.875   2.978
   13CHTO  H166 5164   5.852   5.913   2.918
   13CHTO   C93 5165   5.616   5.917   3.147
   13CHTO  H180 5166   5.644   5.817   3.183
   13CHTO   N16 5167   5.497   5.896   3.060
   13CHTO  H172 5168   5.416   5.853   3.117
   13CHTO  H173 5169   5.466   5.990   3.016
   13CHTO   C94 5170   5.579   6.006   3.272
   13CHTO  H181 5171   5.536   6.102   3.243
   13CHTO   O61 5172   5.696   6.035   3.350
   13CHTO   C95 5173   5.800   6.107   3.280
   13CHTO  H182 5174   5.759   6.200   3.241
   13CHTO  C106 5175   5.912   6.143   3.383
   13CHTO   O69 5176   5.864   6.233   3.483
   13CHTO  H169 5177   5.934   6.254   3.542
   13CHTO   O63 5178   5.481   5.925   3.371
   13CHTO   C96 5179   5.342   5.991   3.386
   13CHTO  H183 5180   5.306   6.016   3.286
   13CHTO   C98 5181   5.340   6.122   3.471
   13CHTO  H185 5182   5.414   6.194   3.432
   13CHTO   O67 5183   5.212   6.186   3.454
   13CHTO  H167 5184   5.203   6.216   3.365
   13CHTO  C102 5185   5.361   6.095   3.628
   13CHTO  H189 5186   5.313   6.180   3.679
   13CHTO   N18 5187   5.503   6.098   3.672
   13CHTO  H176 5188   5.534   6.002   3.711
   13CHTO  H177 5189   5.517   6.174   3.747
   13CHTO  C105 5190   5.288   5.964   3.670
   13CHTO  H192 5191   5.360   5.883   3.681
   13CHTO   O65 5192   5.188   5.920   3.576
   13CHTO  C100 5193   5.244   5.880   3.449
   13CHTO  H187 5194   5.302   5.788   3.466
   13CHTO  C107 5195   5.127   5.844   3.356
   13CHTO   O70 5196   5.173   5.791   3.231
   13CHTO  H170 5197   5.100   5.770   3.177
   13CHTO   O57 5198   5.223   5.997   3.809
   13CHTO   C85 5199   5.222   5.897   3.911
   13CHTO  H157 5200   5.310   5.831   3.893
   13CHTO   C83 5201   5.097   5.804   3.895
   13CHTO  H155 5202   5.106   5.751   3.800
   13CHTO   O56 5203   4.978   5.886   3.885
   13CHTO  H135 5204   4.903   5.832   3.867
   13CHTO   C81 5205   5.094   5.700   4.011
   13CHTO  H153 5206   5.187   5.644   4.008
   13CHTO   N14 5207   4.988   5.597   3.996
   13CHTO  H141 5208   4.997   5.524   4.073
   13CHTO  H142 5209   4.998   5.549   3.901
   13CHTO   C79 5210   5.087   5.776   4.150
   13CHTO  H151 5211   5.091   5.700   4.228
   13CHTO   O52 5212   5.207   5.859   4.164
   13CHTO   C86 5213   5.223   5.957   4.057
   13CHTO  H158 5214   5.140   6.028   4.072
   13CHTO   C90 5215   5.353   6.040   4.078
   13CHTO   O60 5216   5.349   6.113   4.201
   13CHTO  H138 5217   5.429   6.161   4.211
   13CHTO   O50 5218   4.967   5.853   4.170
   13CHTO   C73 5219   4.866   5.931   4.238
   13CHTO  H145 5220   4.780   5.946   4.171
   13CHTO   C74 5221   4.920   6.071   4.280
   13CHTO  H146 5222   4.953   6.121   4.187
   13CHTO   O54 5223   4.810   6.150   4.330
   13CHTO  H133 5224   4.748   6.167   4.261
   13CHTO   C75 5225   5.038   6.055   4.383
   13CHTO  H147 5226   5.122   6.007   4.332
   13CHTO   N13 5227   5.093   6.184   4.432
   13CHTO  H139 5228   5.079   6.194   4.539
   13CHTO  H140 5229   5.199   6.190   4.410
   13CHTO   C76 5230   4.996   5.955   4.503
   13CHTO  H148 5231   4.933   6.008   4.574
   13CHTO   O49 5232   4.928   5.834   4.456
   13CHTO   C77 5233   4.818   5.856   4.365
   13CHTO  H149 5234   4.741   5.916   4.415
   13CHTO   C88 5235   4.752   5.722   4.331
   13CHTO   O58 5236   4.696   5.659   4.450
   13CHTO  H136 5237   4.765   5.630   4.506
   13CHTO   O51 5238   5.122   5.898   4.563
   13CHTO   C78 5239   5.136   5.901   4.716
   13CHTO  H150 5240   5.036   5.894   4.765
   13CHTO   C80 5241   5.204   6.034   4.759
   13CHTO  H152 5242   5.275   6.064   4.679
   13CHTO   O55 5243   5.102   6.135   4.766
   13CHTO  H134 5244   5.070   6.155   4.681
   13CHTO   C84 5245   5.284   6.023   4.895
   13CHTO  H156 5246   5.211   6.013   4.976
   13CHTO   N15 5247   5.365   6.146   4.924
   13CHTO  H143 5248   5.301   6.231   4.929
   13CHTO  H144 5249   5.416   6.134   5.018
   13CHTO   C87 5250   5.370   5.895   4.888
   13CHTO  H159 5251   5.432   5.899   4.799
   13CHTO   O53 5252   5.273   5.781   4.881
   13CHTO   C82 5253   5.214   5.773   4.751
   13CHTO  H154 5254   5.291   5.753   4.677
   13CHTO   C89 5255   5.118   5.651   4.749
   13CHTO   O59 5256   5.189   5.528   4.765
   13CHTO  H137 5257   5.241   5.511   4.689
   13CHTO   O45 5258   5.461   5.869   5.019
   13CHTO   C67 5259   5.598   5.835   4.989
   13CHTO  H124 5260   5.621   5.862   4.886
   13CHTO   C65 5261   5.694   5.914   5.085
   13CHTO  H122 5262   5.632   5.947   5.169
   13CHTO   O44 5263   5.738   6.030   5.013
   13CHTO  H102 5264   5.799   6.006   4.946
   13CHTO   C63 5265   5.805   5.823   5.150
   13CHTO  H120 5266   5.758   5.758   5.224
   13CHTO   N11 5267   5.906   5.894   5.236
   13CHTO  H108 5268   5.967   5.957   5.175
   13CHTO  H109 5269   5.856   5.954   5.309
   13CHTO   C61 5270   5.866   5.730   5.040
   13CHTO  H118 5271   5.933   5.660   5.092
   13CHTO   O40 5272   5.766   5.649   4.971
   13CHTO   C68 5273   5.625   5.678   4.998
   13CHTO  H125 5274   5.600   5.642   5.100
   13CHTO   C72 5275   5.541   5.594   4.898
   13CHTO   O48 5276   5.566   5.627   4.761
   13CHTO  H105 5277   5.513   5.573   4.706
   13CHTO   O38 5278   5.938   5.806   4.940
   13CHTO   C55 5279   6.038   5.736   4.863
   13CHTO  H112 5280   6.007   5.632   4.846
   13CHTO   C56 5281   6.178   5.745   4.938
   13CHTO  H113 5282   6.189   5.850   4.970
   13CHTO   O42 5283   6.173   5.667   5.060
   13CHTO  H100 5284   6.157   5.577   5.040
   13CHTO   C57 5285   6.300   5.700   4.848
   13CHTO  H114 5286   6.295   5.592   4.840
   13CHTO   N10 5287   6.429   5.735   4.912
   13CHTO  H106 5288   6.506   5.752   4.838
   13CHTO  H107 5289   6.461   5.655   4.978
   13CHTO   C58 5290   6.288   5.761   4.706
   13CHTO  H115 5291   6.308   5.871   4.710
   13CHTO   O37 5292   6.158   5.736   4.651
   13CHTO   C59 5293   6.050   5.800   4.721
   13CHTO  H116 5294   6.069   5.908   4.729
   13CHTO   C70 5295   5.923   5.778   4.638
   13CHTO   O46 5296   5.810   5.853   4.686
   13CHTO  H103 5297   5.736   5.836   4.631
   13CHTO   O39 5298   6.394   5.686   4.597
   13CHTO   C60 5299   6.528   5.740   4.590
   13CHTO  H117 5300   6.537   5.824   4.660
   13CHTO   C62 5301   6.633   5.632   4.630
   13CHTO  H119 5302   6.604   5.596   4.732
   13CHTO   O43 5303   6.626   5.519   4.541
   13CHTO  H101 5304   6.543   5.475   4.550
   13CHTO   C66 5305   6.777   5.700   4.637
   13CHTO  H123 5306   6.772   5.788   4.701
   13CHTO   N12 5307   6.878   5.611   4.699
   13CHTO  H110 5308   6.889   5.521   4.641
   13CHTO  H111 5309   6.973   5.663   4.709
   13CHTO   C69 5310   6.816   5.748   4.494
   13CHTO  H126 5311   6.820   5.661   4.425
   13CHTO   O41 5312   6.705   5.852   4.444
   13CHTO   C64 5313   6.560   5.795   4.449
   13CHTO  H121 5314   6.551   5.713   4.376
   13CHTO   C71 5315   6.460   5.905   4.406
   13CHTO   O47 5316   6.463   6.019   4.493
   13CHTO  H104 5317   6.544   6.064   4.484
   13CHTO   O34 5318   6.954   5.818   4.493
   13CHTO   C49 5319   7.051   5.889   4.400
   13CHTO   H91 5320   7.087   5.815   4.328
   13CHTO   C47 5321   7.169   5.941   4.486
   13CHTO   H89 5322   7.240   5.984   4.412
   13CHTO   O33 5323   7.234   5.832   4.553
   13CHTO   H70 5324   7.312   5.862   4.596
   13CHTO   C45 5325   7.117   6.053   4.592
   13CHTO   H87 5326   7.091   6.002   4.686
   13CHTO    N8 5327   7.229   6.146   4.620
   13CHTO   H75 5328   7.315   6.092   4.657
   13CHTO   H76 5329   7.199   6.220   4.693
   13CHTO   C43 5330   6.979   6.119   4.541
   13CHTO   H85 5331   6.902   6.049   4.571
   13CHTO   O29 5332   6.984   6.136   4.398
   13CHTO   C50 5333   6.989   6.011   4.326
   13CHTO   H92 5334   6.886   5.984   4.297
   13CHTO   C54 5335   7.059   6.036   4.190
   13CHTO   O36 5336   6.989   6.131   4.109
   13CHTO   H72 5337   6.907   6.096   4.082
   13CHTO   O27 5338   6.943   6.242   4.607
   13CHTO   C37 5339   6.894   6.288   4.734
   13CHTO   H79 5340   6.932   6.224   4.815
   13CHTO   C38 5341   6.942   6.433   4.761
   13CHTO   H80 5342   6.912   6.496   4.675
   13CHTO   O31 5343   7.086   6.432   4.768
   13CHTO   H68 5344   7.115   6.381   4.842
   13CHTO   C39 5345   6.878   6.493   4.892
   13CHTO   H81 5346   6.921   6.437   4.976
   13CHTO    N7 5347   6.912   6.638   4.913
   13CHTO   H73 5348   6.824   6.700   4.913
   13CHTO   H74 5349   6.966   6.651   5.007
   13CHTO   C40 5350   6.722   6.468   4.895
   13CHTO   H82 5351   6.672   6.537   4.827
   13CHTO   O26 5352   6.690   6.331   4.867
   13CHTO   C41 5353   6.738   6.285   4.737
   13CHTO   H83 5354   6.699   6.351   4.658
   13CHTO   C52 5355   6.678   6.144   4.713
   13CHTO   O35 5356   6.716   6.045   4.815
   13CHTO   H71 5357   6.678   6.068   4.898
   13CHTO   O28 5358   6.672   6.485   5.029
   13CHTO   C42 5359   6.535   6.526   5.059
   13CHTO   H84 5360   6.474   6.477   4.983
   13CHTO   C44 5361   6.508   6.680   5.045
   13CHTO   H86 5362   6.588   6.734   5.096
   13CHTO   O32 5363   6.517   6.712   4.904
   13CHTO   H69 5364   6.509   6.804   4.891
   13CHTO   C48 5365   6.370   6.725   5.108
   13CHTO   H90 5366   6.289   6.679   5.051
   13CHTO    N9 5367   6.348   6.873   5.097
   13CHTO   H77 5368   6.252   6.899   5.138
   13CHTO   H78 5369   6.427   6.926   5.149
   13CHTO   C51 5370   6.367   6.672   5.255
   13CHTO   H93 5371   6.458   6.705   5.305
   13CHTO   O30 5372   6.359   6.529   5.247
   13CHTO   C46 5373   6.491   6.468   5.198
   13CHTO   H88 5374   6.569   6.490   5.272
   13CHTO   C53 5375   6.467   6.315   5.191
   13CHTO   O72 5376   6.583   6.241   5.154
   13CHTO  H199 5377   6.606   6.260   5.065
   13CHTO   O22 5378   6.250   6.713   5.329
   13CHTO   C31 5379   6.260   6.732   5.475
   13CHTO   H59 5380   6.332   6.656   5.511
   13CHTO   C29 5381   6.312   6.870   5.519
   13CHTO   H57 5382   6.243   6.946   5.478
   13CHTO   O21 5383   6.441   6.893   5.458
   13CHTO   H37 5384   6.467   6.982   5.472
   13CHTO   C27 5385   6.318   6.886   5.677
   13CHTO   H55 5386   6.395   6.818   5.715
   13CHTO    N5 5387   6.352   7.024   5.719
   13CHTO   H43 5388   6.274   7.092   5.689
   13CHTO   H44 5389   6.366   7.028   5.826
   13CHTO   C25 5390   6.183   6.838   5.740
   13CHTO   H53 5391   6.103   6.908   5.713
   13CHTO   O17 5392   6.145   6.706   5.691
   13CHTO   C32 5393   6.125   6.700   5.549
   13CHTO   H60 5394   6.051   6.774   5.519
   13CHTO   C36 5395   6.071   6.559   5.516
   13CHTO   O25 5396   6.031   6.545   5.379
   13CHTO   H40 5397   6.107   6.547   5.324
   13CHTO   O15 5398   6.195   6.831   5.899
   13CHTO   C19 5399   6.090   6.862   5.995
   13CHTO   H47 5400   6.143   6.865   6.091
   13CHTO   C20 5401   6.020   7.000   5.972
   13CHTO   H48 5402   5.973   7.005   5.872
   13CHTO   O19 5403   6.124   7.100   5.977
   13CHTO   H35 5404   6.088   7.184   5.956
   13CHTO   C21 5405   5.908   7.026   6.080
   13CHTO   H49 5406   5.955   7.029   6.179
   13CHTO    N4 5407   5.839   7.156   6.062
   13CHTO   H41 5408   5.879   7.210   5.978
   13CHTO   H42 5409   5.732   7.142   6.048
   13CHTO   C22 5410   5.812   6.903   6.079
   13CHTO   H50 5411   5.765   6.898   5.981
   13CHTO   O14 5412   5.884   6.782   6.106
   13CHTO   C23 5413   5.983   6.749   6.007
   13CHTO   H51 5414   5.930   6.733   5.912
   13CHTO   C34 5415   6.048   6.614   6.043
   13CHTO   O23 5416   6.111   6.616   6.172
   13CHTO   H38 5417   6.148   6.532   6.190
   13CHTO   O16 5418   5.713   6.910   6.184
   13CHTO   C24 5419   5.565   6.865   6.135
   13CHTO   H52 5420   5.568   6.797   6.050
   13CHTO   C26 5421   5.485   6.992   6.097
   13CHTO   H54 5422   5.499   7.068   6.178
   13CHTO   O20 5423   5.542   7.047   5.977
   13CHTO   H36 5424   5.532   6.988   5.905
   13CHTO   C30 5425   5.332   6.966   6.079
   13CHTO   H58 5426   5.315   6.915   5.984
   13CHTO    N6 5427   5.257   7.095   6.069
   13CHTO   H45 5428   5.293   7.151   5.984
   13CHTO   H46 5429   5.152   7.075   6.057
   13CHTO   C33 5430   5.274   6.871   6.189
   13CHTO   H61 5431   5.263   6.925   6.285
   13CHTO   O18 5432   5.361   6.759   6.210
   13CHTO   C28 5433   5.495   6.790   6.251
   13CHTO   H56 5434   5.495   6.852   6.340
   13CHTO   C35 5435   5.569   6.658   6.281
   13CHTO   O24 5436   5.513   6.585   6.391
   13CHTO   H39 5437   5.428   6.553   6.367
   13CHTO    O9 5438   5.141   6.828   6.153
   13CHTO   C13 5439   5.013   6.891   6.232
   13CHTO   H26 5440   5.048   6.977   6.293
   13CHTO   C11 5441   4.949   6.777   6.322
   13CHTO   H24 5442   5.011   6.768   6.413
   13CHTO    O8 5443   4.955   6.651   6.254
   13CHTO    H3 5444   5.044   6.626   6.239
   13CHTO    C9 5445   4.806   6.819   6.364
   13CHTO   H22 5446   4.816   6.917   6.413
   13CHTO    N2 5447   4.744   6.732   6.467
   13CHTO   H10 5448   4.730   6.632   6.428
   13CHTO   H11 5449   4.807   6.729   6.555
   13CHTO    C7 5450   4.719   6.836   6.235
   13CHTO   H20 5451   4.617   6.864   6.271
   13CHTO    O4 5452   4.769   6.945   6.155
   13CHTO   C14 5453   4.910   6.955   6.126
   13CHTO   H27 5454   4.930   7.064   6.126
   13CHTO   C18 5455   4.935   6.904   5.982
   13CHTO   O13 5456   4.877   6.994   5.887
   13CHTO    H7 5457   4.892   6.962   5.800
   13CHTO    O2 5458   4.711   6.698   6.142
   13CHTO    C1 5459   4.586   6.673   6.076
   13CHTO   H14 5460   4.541   6.770   6.045
   13CHTO    C2 5461   4.481   6.594   6.165
   13CHTO   H15 5462   4.535   6.506   6.204
   13CHTO    O6 5463   4.440   6.677   6.275
   13CHTO    H1 5464   4.385   6.629   6.333
   13CHTO    C3 5465   4.354   6.546   6.078
   13CHTO   H16 5466   4.293   6.634   6.054
   13CHTO    N1 5467   4.265   6.452   6.156
   13CHTO    H8 5468   4.179   6.424   6.096
   13CHTO    H9 5469   4.321   6.363   6.183
   13CHTO    C4 5470   4.399   6.484   5.941
   13CHTO   H17 5471   4.444   6.386   5.958
   13CHTO    O1 5472   4.491   6.571   5.874
   13CHTO    C5 5473   4.613   6.592   5.946
   13CHTO   H18 5474   4.657   6.496   5.974
   13CHTO   C16 5475   4.710   6.663   5.848
   13CHTO   O11 5476   4.739   6.581   5.734
   13CHTO    H5 5477   4.797   6.627   5.677
   13CHTO    O3 5478   4.288   6.472   5.848
   13CHTO    C6 5479   4.311   6.379   5.737
   13CHTO   H19 5480   4.416   6.347   5.729
   13CHTO    C8 5481   4.223   6.252   5.756
   13CHTO   H21 5482   4.120   6.284   5.771
   13CHTO    O7 5483   4.271   6.185   5.874
   13CHTO    H2 5484   4.213   6.115   5.897
   13CHTO   C12 5485   4.230   6.159   5.628
   13CHTO   H25 5486   4.334   6.119   5.624
   13CHTO    N3 5487   4.139   6.040   5.642
   13CHTO   H12 5488   4.147   5.977   5.555
   13CHTO   H13 5489   4.037   6.073   5.655
   13CHTO   C15 5490   4.204   6.243   5.498
   13CHTO   H28 5491   4.099   6.276   5.492
   13CHTO   O10 5492   4.241   6.166   5.368
   13CHTO    H4 5493   4.213   6.214   5.293
   13CHTO    O5 5494   4.291   6.357   5.492
   13CHTO   C10 5495   4.275   6.449   5.602
   13CHTO   H23 5496   4.172   6.483   5.605
   13CHTO   C17 5497   4.364   6.571   5.574
   13CHTO   O12 5498   4.321   6.642   5.458
   13CHTO    H6 5499   4.380   6.713   5.441
   14CHTO  H203 5500   5.806   5.888   3.676
   14CHTO   O82 5501   5.787   5.945   3.748
   14CHTO  C123 5502   5.777   5.869   3.870
   14CHTO  H227 5503   5.873   5.818   3.887
   14CHTO   O77 5504   5.755   5.971   3.971
   14CHTO  C118 5505   5.771   5.922   4.105
   14CHTO  H222 5506   5.873   5.883   4.118
   14CHTO  C125 5507   5.750   6.043   4.203
   14CHTO   O84 5508   5.842   6.149   4.174
   14CHTO  H205 5509   5.828   6.220   4.234
   14CHTO  C114 5510   5.668   5.811   4.136
   14CHTO  H218 5511   5.570   5.858   4.148
   14CHTO  C116 5512   5.651   5.705   4.021
   14CHTO  H220 5513   5.733   5.630   4.031
   14CHTO   O79 5514   5.528   5.633   4.040
   14CHTO  H201 5515   5.455   5.691   4.035
   14CHTO  C120 5516   5.656   5.770   3.876
   14CHTO  H224 5517   5.561   5.826   3.864
   14CHTO   N21 5518   5.661   5.667   3.769
   14CHTO  H211 5519   5.561   5.639   3.739
   14CHTO  H212 5520   5.717   5.581   3.801
   14CHTO   O75 5521   5.713   5.760   4.264
   14CHTO  C112 5522   5.615   5.654   4.352
   14CHTO  H216 5523   5.660   5.643   4.452
   14CHTO   O73 5524   5.613   5.528   4.281
   14CHTO  C113 5525   5.533   5.425   4.341
   14CHTO  H217 5526   5.571   5.407   4.444
   14CHTO  C124 5527   5.554   5.295   4.262
   14CHTO   O83 5528   5.519   5.305   4.124
   14CHTO  H204 5529   5.426   5.317   4.115
   14CHTO  C109 5530   5.384   5.469   4.348
   14CHTO  H213 5531   5.351   5.485   4.244
   14CHTO  C110 5532   5.374   5.602   4.429
   14CHTO  H214 5533   5.401   5.582   4.533
   14CHTO   O78 5534   5.237   5.645   4.427
   14CHTO  H200 5535   5.225   5.719   4.483
   14CHTO  C111 5536   5.468   5.710   4.368
   14CHTO  H215 5537   5.431   5.736   4.268
   14CHTO   N19 5538   5.471   5.837   4.446
   14CHTO  H207 5539   5.504   5.817   4.547
   14CHTO  H208 5540   5.373   5.881   4.448
   14CHTO   O74 5541   5.302   5.364   4.409
   14CHTO  C115 5542   5.189   5.301   4.305
   14CHTO  H219 5543   5.170   5.368   4.221
   14CHTO   O76 5544   5.238   5.166   4.243
   14CHTO  C122 5545   5.149   5.106   4.147
   14CHTO  H226 5546   5.187   5.005   4.128
   14CHTO  C126 5547   5.159   5.181   4.009
   14CHTO   O85 5548   5.289   5.172   3.950
   14CHTO  H206 5549   5.307   5.083   3.926
   14CHTO  C121 5550   5.000   5.095   4.197
   14CHTO  H225 5551   4.935   5.077   4.108
   14CHTO   O81 5552   4.989   4.981   4.282
   14CHTO  H202 5553   4.898   4.962   4.300
   14CHTO  C119 5554   4.950   5.223   4.269
   14CHTO  H223 5555   4.943   5.300   4.192
   14CHTO  C117 5556   5.051   5.277   4.377
   14CHTO  H221 5557   5.074   5.209   4.460
   14CHTO   N20 5558   5.003   5.403   4.442
   14CHTO  H209 5559   4.990   5.389   4.548
   14CHTO  H210 5560   4.910   5.437   4.398
   14CHTO   O80 5561   4.798   5.209   4.314
   14CHTO  C103 5562   4.692   5.301   4.251
   14CHTO  H190 5563   4.730   5.403   4.244
   14CHTO  C101 5564   4.638   5.258   4.109
   14CHTO  H188 5565   4.603   5.154   4.115
   14CHTO   O68 5566   4.755   5.265   4.006
   14CHTO  H168 5567   4.823   5.206   4.030
   14CHTO   C99 5568   4.515   5.351   4.066
   14CHTO  H186 5569   4.554   5.454   4.048
   14CHTO   N17 5570   4.450   5.307   3.937
   14CHTO  H174 5571   4.376   5.380   3.907
   14CHTO  H175 5572   4.526   5.296   3.860
   14CHTO   C97 5573   4.410   5.365   4.181
   14CHTO  H184 5574   4.355   5.270   4.189
   14CHTO   O64 5575   4.477   5.399   4.304
   14CHTO  C104 5576   4.572   5.302   4.351
   14CHTO  H191 5577   4.529   5.202   4.357
   14CHTO  C108 5578   4.616   5.339   4.493
   14CHTO   O71 5579   4.506   5.340   4.584
   14CHTO  H171 5580   4.448   5.411   4.563
   14CHTO   O62 5581   4.316   5.471   4.149
   14CHTO   C91 5582   4.247   5.542   4.254
   14CHTO  H178 5583   4.226   5.471   4.334
   14CHTO   C92 5584   4.107   5.586   4.198
   14CHTO  H179 5585   4.053   5.498   4.159
   14CHTO   O66 5586   4.027   5.635   4.307
   14CHTO  H166 5587   4.008   5.565   4.367
   14CHTO   C93 5588   4.118   5.701   4.090
   14CHTO  H180 5589   4.025   5.760   4.094
   14CHTO   N16 5590   4.125   5.650   3.951
   14CHTO  H172 5591   4.212   5.588   3.938
   14CHTO  H173 5592   4.126   5.733   3.881
   14CHTO   C94 5593   4.240   5.797   4.123
   14CHTO  H181 5594   4.331   5.767   4.070
   14CHTO   O61 5595   4.271   5.794   4.263
   14CHTO   C95 5596   4.326   5.669   4.309
   14CHTO  H182 5597   4.430   5.663   4.276
   14CHTO  C106 5598   4.329   5.671   4.466
   14CHTO   O69 5599   4.414   5.775   4.516
   14CHTO  H169 5600   4.503   5.757   4.493
   14CHTO   O63 5601   4.201   5.944   4.086
   14CHTO   C96 5602   4.314   6.026   4.005
   14CHTO  H183 5603   4.275   6.127   3.992
   14CHTO   C98 5604   4.348   5.969   3.865
   14CHTO  H185 5605   4.377   5.863   3.873
   14CHTO   O67 5606   4.227   5.971   3.787
   14CHTO  H167 5607   4.166   5.907   3.820
   14CHTO  C102 5608   4.464   6.053   3.791
   14CHTO  H189 5609   4.418   6.150   3.766
   14CHTO   N18 5610   4.509   5.994   3.663
   14CHTO  H176 5611   4.426   5.986   3.594
   14CHTO  H177 5612   4.586   6.056   3.619
   14CHTO  C105 5613   4.582   6.080   3.889
   14CHTO  H192 5614   4.640   5.988   3.901
   14CHTO   O65 5615   4.541   6.124   4.020
   14CHTO  C100 5616   4.447   6.039   4.088
   14CHTO  H187 5617   4.492   5.939   4.101
   14CHTO  C107 5618   4.418   6.097   4.229
   14CHTO   O70 5619   4.532   6.084   4.315
   14CHTO  H170 5620   4.512   6.121   4.399
   14CHTO   O57 5621   4.673   6.199   3.817
   14CHTO   C85 5622   4.816   6.199   3.835
   14CHTO  H157 5623   4.842   6.101   3.879
   14CHTO   C83 5624   4.857   6.306   3.941
   14CHTO  H155 5625   4.806   6.281   4.035
   14CHTO   O56 5626   4.808   6.436   3.901
   14CHTO  H135 5627   4.715   6.437   3.900
   14CHTO   C81 5628   5.011   6.299   3.963
   14CHTO  H153 5629   5.035   6.198   3.996
   14CHTO   N14 5630   5.056   6.384   4.076
   14CHTO  H141 5631   5.043   6.488   4.051
   14CHTO  H142 5632   5.160   6.366   4.096
   14CHTO   C79 5633   5.088   6.326   3.828
   14CHTO  H151 5634   5.193   6.303   3.847
   14CHTO   O52 5635   5.044   6.234   3.723
   14CHTO   C86 5636   4.899   6.228   3.703
   14CHTO  H158 5637   4.873   6.327   3.660
   14CHTO   C90 5638   4.866   6.124   3.594
   14CHTO   O60 5639   4.915   6.165   3.466
   14CHTO  H138 5640   4.893   6.100   3.402
   14CHTO   O50 5641   5.080   6.461   3.781
   14CHTO   C73 5642   5.078   6.600   3.745
   14CHTO  H145 5643   5.025   6.658   3.823
   14CHTO   C74 5644   5.002   6.618   3.610
   14CHTO  H146 5645   4.902   6.575   3.623
   14CHTO   O54 5646   4.984   6.758   3.586
   14CHTO  H133 5647   4.933   6.772   3.508
   14CHTO   C75 5648   5.083   6.544   3.496
   14CHTO  H147 5649   5.088   6.437   3.520
   14CHTO   N13 5650   5.019   6.550   3.362
   14CHTO  H139 5651   5.081   6.602   3.291
   14CHTO  H140 5652   4.923   6.600   3.367
   14CHTO   C76 5653   5.234   6.599   3.494
   14CHTO  H148 5654   5.233   6.703   3.461
   14CHTO   O49 5655   5.296   6.590   3.626
   14CHTO   C77 5656   5.223   6.657   3.730
   14CHTO  H149 5657   5.216   6.763   3.706
   14CHTO   C88 5658   5.303   6.652   3.861
   14CHTO   O58 5659   5.348   6.513   3.898
   14CHTO  H136 5660   5.409   6.481   3.835
   14CHTO   O51 5661   5.326   6.507   3.401
   14CHTO   C78 5662   5.459   6.579   3.354
   14CHTO  H150 5663   5.482   6.666   3.418
   14CHTO   C80 5664   5.445   6.626   3.207
   14CHTO  H152 5665   5.408   6.541   3.146
   14CHTO   O55 5666   5.345   6.730   3.205
   14CHTO  H134 5667   5.261   6.694   3.223
   14CHTO   C84 5668   5.584   6.676   3.149
   14CHTO  H156 5669   5.616   6.763   3.206
   14CHTO   N15 5670   5.575   6.719   3.005
   14CHTO  H143 5671   5.507   6.801   2.996
   14CHTO  H144 5672   5.540   6.637   2.945
   14CHTO   C87 5673   5.689   6.564   3.169
   14CHTO  H159 5674   5.658   6.475   3.113
   14CHTO   O53 5675   5.698   6.532   3.319
   14CHTO   C82 5676   5.575   6.478   3.370
   14CHTO  H154 5677   5.552   6.385   3.319
   14CHTO   C89 5678   5.596   6.443   3.520
   14CHTO   O59 5679   5.634   6.556   3.599
   14CHTO  H137 5680   5.562   6.617   3.605
   14CHTO   O45 5681   5.841   6.609   3.120
   14CHTO   C67 5682   5.921   6.495   3.085
   14CHTO  H124 5683   5.901   6.412   3.153
   14CHTO   C65 5684   5.888   6.451   2.938
   14CHTO  H122 5685   5.780   6.454   2.929
   14CHTO   O44 5686   5.932   6.316   2.919
   14CHTO  H102 5687   5.903   6.284   2.836
   14CHTO   C63 5688   5.944   6.556   2.836
   14CHTO  H120 5689   5.904   6.654   2.862
   14CHTO   N11 5690   5.898   6.539   2.695
   14CHTO  H108 5691   5.937   6.449   2.654
   14CHTO  H109 5692   5.930   6.622   2.635
   14CHTO   C61 5693   6.100   6.565   2.853
   14CHTO  H118 5694   6.134   6.648   2.788
   14CHTO   O40 5695   6.133   6.603   2.989
   14CHTO   C68 5696   6.075   6.531   3.103
   14CHTO  H125 5697   6.083   6.600   3.190
   14CHTO   C72 5698   6.164   6.408   3.135
   14CHTO   O48 5699   6.134   6.348   3.262
   14CHTO  H105 5700   6.049   6.309   3.258
   14CHTO   O38 5701   6.171   6.443   2.821
   14CHTO   C55 5702   6.277   6.447   2.722
   14CHTO  H112 5703   6.281   6.546   2.674
   14CHTO   C56 5704   6.252   6.332   2.616
   14CHTO  H113 5705   6.239   6.238   2.672
   14CHTO   O42 5706   6.128   6.355   2.546
   14CHTO  H100 5707   6.056   6.348   2.606
   14CHTO   C57 5708   6.373   6.320   2.514
   14CHTO  H114 5709   6.369   6.408   2.450
   14CHTO   N10 5710   6.362   6.201   2.425
   14CHTO  H106 5711   6.306   6.226   2.336
   14CHTO  H107 5712   6.312   6.119   2.476
   14CHTO   C58 5713   6.509   6.319   2.588
   14CHTO  H115 5714   6.525   6.221   2.639
   14CHTO   O37 5715   6.518   6.425   2.685
   14CHTO   C59 5716   6.417   6.424   2.787
   14CHTO  H116 5717   6.419   6.329   2.840
   14CHTO   C70 5718   6.451   6.535   2.888
   14CHTO   O46 5719   6.459   6.665   2.829
   14CHTO  H103 5720   6.374   6.693   2.801
   14CHTO   O39 5721   6.632   6.350   2.480
   14CHTO   C60 5722   6.765   6.296   2.494
   14CHTO  H117 5723   6.826   6.342   2.415
   14CHTO   C62 5724   6.838   6.331   2.628
   14CHTO  H119 5725   6.835   6.442   2.637
   14CHTO   O43 5726   6.769   6.275   2.741
   14CHTO  H101 5727   6.810   6.302   2.821
   14CHTO   C66 5728   6.992   6.283   2.617
   14CHTO  H123 5729   7.036   6.329   2.529
   14CHTO   N12 5730   7.075   6.329   2.731
   14CHTO  H110 5731   7.035   6.291   2.824
   14CHTO  H111 5732   7.080   6.437   2.733
   14CHTO   C69 5733   6.997   6.129   2.598
   14CHTO  H126 5734   6.957   6.078   2.688
   14CHTO   O41 5735   6.913   6.092   2.472
   14CHTO   C64 5736   6.769   6.143   2.471
   14CHTO  H121 5737   6.709   6.092   2.550
   14CHTO   C71 5738   6.708   6.107   2.333
   14CHTO   O47 5739   6.703   5.965   2.314
   14CHTO  H104 5740   6.640   5.927   2.373
   14CHTO   O34 5741   7.149   6.078   2.574
   14CHTO   C49 5742   7.211   5.941   2.525
   14CHTO   H91 5743   7.213   5.874   2.611
   14CHTO   C47 5744   7.355   5.967   2.474
   14CHTO   H89 5745   7.398   5.865   2.459
   14CHTO   O33 5746   7.433   6.033   2.575
   14CHTO   H70 5747   7.523   6.037   2.550
   14CHTO   C45 5748   7.356   6.054   2.337
   14CHTO   H87 5749   7.382   6.158   2.362
   14CHTO    N8 5750   7.462   6.000   2.247
   14CHTO   H75 5751   7.539   6.074   2.232
   14CHTO   H76 5752   7.420   5.971   2.152
   14CHTO   C43 5753   7.208   6.063   2.274
   14CHTO   H85 5754   7.155   6.135   2.336
   14CHTO   O29 5755   7.143   5.934   2.276
   14CHTO   C50 5756   7.132   5.874   2.407
   14CHTO   H92 5757   7.025   5.874   2.436
   14CHTO   C54 5758   7.166   5.724   2.397
   14CHTO   O36 5759   7.069   5.652   2.319
   14CHTO   H72 5760   7.093   5.562   2.316
   14CHTO   O27 5761   7.208   6.122   2.143
   14CHTO   C37 5762   7.119   6.207   2.069
   14CHTO   H79 5763   7.165   6.233   1.972
   14CHTO   C38 5764   6.985   6.134   2.037
   14CHTO   H80 5765   6.945   6.092   2.131
   14CHTO   O31 5766   7.016   6.025   1.948
   14CHTO   H68 5767   7.065   5.959   1.992
   14CHTO   C39 5768   6.878   6.232   1.974
   14CHTO   H81 5769   6.917   6.264   1.878
   14CHTO    N7 5770   6.745   6.166   1.950
   14CHTO   H73 5771   6.666   6.214   2.006
   14CHTO   H74 5772   6.721   6.168   1.844
   14CHTO   C40 5773   6.867   6.361   2.065
   14CHTO   H82 5774   6.825   6.334   2.162
   14CHTO   O26 5775   6.996   6.422   2.077
   14CHTO   C41 5776   7.093   6.339   2.148
   14CHTO   H83 5777   7.053   6.315   2.248
   14CHTO   C52 5778   7.223   6.420   2.166
   14CHTO   O35 5779   7.203   6.540   2.248
   14CHTO   H71 5780   7.284   6.588   2.254
   14CHTO   O28 5781   6.783   6.463   2.006
   14CHTO   C42 5782   6.725   6.574   2.082
   14CHTO   H84 5783   6.670   6.630   2.007
   14CHTO   C44 5784   6.824   6.675   2.149
   14CHTO   H86 5785   6.874   6.625   2.232
   14CHTO   O32 5786   6.922   6.710   2.050
   14CHTO   H69 5787   6.987   6.766   2.088
   14CHTO   C48 5788   6.744   6.799   2.206
   14CHTO   H90 5789   6.691   6.846   2.122
   14CHTO    N9 5790   6.833   6.908   2.261
   14CHTO   H77 5791   6.815   6.923   2.366
   14CHTO   H78 5792   6.937   6.885   2.243
   14CHTO   C51 5793   6.636   6.749   2.310
   14CHTO   H93 5794   6.690   6.707   2.396
   14CHTO   O30 5795   6.551   6.651   2.248
   14CHTO   C46 5796   6.623   6.529   2.191
   14CHTO   H88 5797   6.676   6.479   2.272
   14CHTO   C53 5798   6.515   6.432   2.135
   14CHTO   O72 5799   6.437   6.493   2.031
   14CHTO  H199 5800   6.373   6.432   2.000
   14CHTO   O22 5801   6.545   6.853   2.350
   14CHTO   C31 5802   6.497   6.864   2.490
   14CHTO   H59 5803   6.534   6.773   2.543
   14CHTO   C29 5804   6.554   6.987   2.565
   14CHTO   H57 5805   6.520   7.076   2.510
   14CHTO   O21 5806   6.697   6.985   2.555
   14CHTO   H37 5807   6.732   6.912   2.604
   14CHTO   C27 5808   6.503   6.997   2.714
   14CHTO   H55 5809   6.545   6.912   2.771
   14CHTO    N5 5810   6.543   7.123   2.782
   14CHTO   H43 5811   6.594   7.189   2.714
   14CHTO   H44 5812   6.607   7.101   2.867
   14CHTO   C25 5813   6.347   6.980   2.717
   14CHTO   H53 5814   6.300   7.067   2.668
   14CHTO   O17 5815   6.307   6.860   2.644
   14CHTO   C32 5816   6.342   6.863   2.504
   14CHTO   H60 5817   6.301   6.953   2.458
   14CHTO   C36 5818   6.275   6.739   2.439
   14CHTO   O25 5819   6.276   6.747   2.296
   14CHTO   H40 5820   6.218   6.815   2.267
   14CHTO   O15 5821   6.291   6.967   2.862
   14CHTO   C19 5822   6.258   6.924   2.997
   14CHTO   H47 5823   6.233   6.818   2.983
   14CHTO   C20 5824   6.376   6.933   3.099
   14CHTO   H48 5825   6.416   7.035   3.105
   14CHTO   O19 5826   6.482   6.850   3.050
   14CHTO   H35 5827   6.456   6.760   3.048
   14CHTO   C21 5828   6.333   6.888   3.245
   14CHTO   H49 5829   6.312   6.781   3.243
   14CHTO    N4 5830   6.440   6.909   3.346
   14CHTO   H41 5831   6.527   6.850   3.320
   14CHTO   H42 5832   6.468   7.013   3.349
   14CHTO   C22 5833   6.200   6.959   3.283
   14CHTO   H50 5834   6.220   7.067   3.291
   14CHTO   O14 5835   6.100   6.935   3.184
   14CHTO   C23 5836   6.130   6.991   3.055
   14CHTO   H51 5837   6.143   7.100   3.068
   14CHTO   C34 5838   6.007   6.968   2.966
   14CHTO   O23 5839   6.015   7.042   2.843
   14CHTO   H38 5840   6.084   7.008   2.790
   14CHTO   O16 5841   6.147   6.908   3.407
   14CHTO   C24 5842   6.043   7.007   3.483
   14CHTO   H52 5843   5.992   7.074   3.413
   14CHTO   C26 5844   6.120   7.091   3.587
   14CHTO   H54 5845   6.178   7.021   3.652
   14CHTO   O20 5846   6.214   7.175   3.517
   14CHTO   H36 5847   6.269   7.220   3.578
   14CHTO   C30 5848   6.022   7.173   3.677
   14CHTO   H58 5849   5.966   7.244   3.615
   14CHTO    N6 5850   6.094   7.254   3.780
   14CHTO   H45 5851   6.201   7.240   3.774
   14CHTO   H46 5852   6.071   7.359   3.768
   14CHTO   C33 5853   5.917   7.076   3.739
   14CHTO   H61 5854   5.968   7.001   3.802
   14CHTO   O18 5855   5.850   7.007   3.631
   14CHTO   C28 5856   5.934   6.921   3.553
   14CHTO   H56 5857   5.982   6.847   3.616
   14CHTO   C35 5858   5.844   6.850   3.449
   14CHTO   O24 5859   5.912   6.748   3.375
   14CHTO   H39 5860   5.934   6.676   3.432
   14CHTO    O9 5861   5.822   7.142   3.827
   14CHTO   C13 5862   5.731   7.037   3.915
   14CHTO   H26 5863   5.720   6.944   3.855
   14CHTO   C11 5864   5.590   7.101   3.950
   14CHTO   H24 5865   5.539   7.120   3.854
   14CHTO    O8 5866   5.607   7.227   4.016
   14CHTO    H3 5867   5.524   7.269   4.028
   14CHTO    C9 5868   5.508   6.995   4.029
   14CHTO   H22 5869   5.501   6.908   3.963
   14CHTO    N2 5870   5.367   7.035   4.054
   14CHTO   H10 5871   5.320   7.062   3.961
   14CHTO   H11 5872   5.314   6.953   4.100
   14CHTO    C7 5873   5.585   6.952   4.159
   14CHTO   H20 5874   5.528   6.864   4.197
   14CHTO    O4 5875   5.720   6.909   4.130
   14CHTO   C14 5876   5.806   6.990   4.048
   14CHTO   H27 5877   5.891   6.927   4.017
   14CHTO   C18 5878   5.866   7.104   4.136
   14CHTO   O13 5879   5.974   7.172   4.072
   14CHTO    H7 5880   5.941   7.222   4.000
   14CHTO    O2 5881   5.590   7.071   4.279
   14CHTO    C1 5882   5.528   7.035   4.404
   14CHTO   H14 5883   5.465   6.944   4.391
   14CHTO    C2 5884   5.438   7.151   4.463
   14CHTO   H15 5885   5.504   7.238   4.473
   14CHTO    O6 5886   5.334   7.181   4.369
   14CHTO    H1 5887   5.277   7.107   4.358
   14CHTO    C3 5888   5.379   7.110   4.608
   14CHTO   H16 5889   5.308   7.027   4.594
   14CHTO    N1 5890   5.303   7.223   4.671
   14CHTO    H8 5891   5.369   7.308   4.686
   14CHTO    H9 5892   5.261   7.192   4.765
   14CHTO    C4 5893   5.493   7.054   4.701
   14CHTO   H17 5894   5.556   7.137   4.735
   14CHTO    O1 5895   5.572   6.956   4.633
   14CHTO    C5 5896   5.636   6.999   4.511
   14CHTO   H18 5897   5.696   7.088   4.530
   14CHTO   C16 5898   5.730   6.884   4.467
   14CHTO   O11 5899   5.833   6.862   4.564
   14CHTO    H5 5900   5.889   6.792   4.534
   14CHTO    O3 5901   5.444   6.977   4.813
   14CHTO    C6 5902   5.435   7.041   4.944
   14CHTO   H19 5903   5.434   7.150   4.937
   14CHTO    C8 5904   5.303   6.995   5.015
   14CHTO   H21 5905   5.304   6.886   5.021
   14CHTO    O7 5906   5.192   7.037   4.933
   14CHTO    H2 5907   5.112   7.003   4.967
   14CHTO   C12 5908   5.293   7.055   5.161
   14CHTO   H25 5909   5.280   7.165   5.149
   14CHTO    N3 5910   5.172   7.004   5.236
   14CHTO   H12 5911   5.108   7.087   5.263
   14CHTO   H13 5912   5.118   6.932   5.177
   14CHTO   C15 5913   5.427   7.029   5.239
   14CHTO   H28 5914   5.439   6.924   5.267
   14CHTO   O10 5915   5.440   7.118   5.366
   14CHTO    H4 5916   5.515   7.092   5.416
   14CHTO    O5 5917   5.540   7.073   5.162
   14CHTO   C10 5918   5.555   7.003   5.037
   14CHTO   H23 5919   5.556   6.896   5.056
   14CHTO   C17 5920   5.693   7.043   4.983
   14CHTO   O12 5921   5.737   6.954   4.880
   14CHTO    H6 5922   5.821   6.981   4.850
   15CHTO  H203 5923   5.855   5.861   3.411
   15CHTO   O82 5924   5.866   5.792   3.473
   15CHTO  C123 5925   5.858   5.664   3.408
   15CHTO  H227 5926   5.876   5.585   3.483
   15CHTO   O77 5927   5.720   5.657   3.363
   15CHTO  C118 5928   5.682   5.533   3.302
   15CHTO  H222 5929   5.698   5.450   3.372
   15CHTO  C125 5930   5.528   5.541   3.267
   15CHTO   O84 5931   5.449   5.558   3.385
   15CHTO  H205 5932   5.358   5.562   3.362
   15CHTO  C114 5933   5.766   5.510   3.174
   15CHTO  H218 5934   5.745   5.591   3.104
   15CHTO  C116 5935   5.920   5.518   3.205
   15CHTO  H220 5936   5.951   5.429   3.265
   15CHTO   O79 5937   5.991   5.511   3.080
   15CHTO  H201 5938   5.981   5.426   3.041
   15CHTO  C120 5939   5.956   5.649   3.285
   15CHTO  H224 5940   5.941   5.732   3.214
   15CHTO   N21 5941   6.099   5.652   3.327
   15CHTO  H211 5942   6.136   5.553   3.346
   15CHTO  H212 5943   6.113   5.715   3.413
   15CHTO   O75 5944   5.718   5.386   3.116
   15CHTO  C112 5945   5.790   5.247   3.172
   15CHTO  H216 5946   5.816   5.261   3.278
   15CHTO   O73 5947   5.907   5.225   3.091
   15CHTO  C113 5948   5.989   5.116   3.136
   15CHTO  H217 5949   6.022   5.137   3.239
   15CHTO  C124 5950   6.116   5.111   3.050
   15CHTO   O83 5951   6.089   5.092   2.910
   15CHTO  H204 5952   6.170   5.091   2.863
   15CHTO  C109 5953   5.910   4.982   3.134
   15CHTO  H213 5954   5.889   4.960   3.028
   15CHTO  C110 5955   5.776   4.998   3.213
   15CHTO  H214 5956   5.799   5.011   3.319
   15CHTO   O78 5957   5.701   4.876   3.201
   15CHTO  H200 5958   5.745   4.806   3.245
   15CHTO  C111 5959   5.696   5.121   3.160
   15CHTO  H215 5960   5.674   5.105   3.053
   15CHTO   N19 5961   5.566   5.143   3.227
   15CHTO  H207 5962   5.562   5.239   3.277
   15CHTO  H208 5963   5.544   5.064   3.298
   15CHTO   O74 5964   5.994   4.876   3.190
   15CHTO  C115 5965   5.974   4.740   3.115
   15CHTO  H219 5966   5.868   4.719   3.097
   15CHTO   O76 5967   6.041   4.742   2.968
   15CHTO  C122 5968   6.179   4.704   2.969
   15CHTO  H226 5969   6.232   4.776   3.032
   15CHTO  C126 5970   6.241   4.720   2.826
   15CHTO   O85 5971   6.240   4.856   2.780
   15CHTO  H206 5972   6.299   4.907   2.831
   15CHTO  C121 5973   6.201   4.557   3.025
   15CHTO  H225 5974   6.213   4.488   2.939
   15CHTO   O81 5975   6.322   4.553   3.101
   15CHTO  H202 5976   6.315   4.609   3.176
   15CHTO  C119 5977   6.080   4.509   3.111
   15CHTO  H223 5978   5.998   4.492   3.040
   15CHTO  C117 5979   6.034   4.625   3.206
   15CHTO  H221 5980   6.112   4.672   3.265
   15CHTO   N20 5981   5.932   4.580   3.306
   15CHTO  H209 5982   5.974   4.501   3.368
   15CHTO  H210 5983   5.902   4.663   3.369
   15CHTO   O80 5984   6.100   4.359   3.173
   15CHTO  C103 5985   6.013   4.234   3.115
   15CHTO  H190 5986   6.033   4.145   3.174
   15CHTO  C101 5987   5.856   4.253   3.112
   15CHTO  H188 5988   5.832   4.347   3.063
   15CHTO   O68 5989   5.805   4.259   3.258
   15CHTO  H168 5990   5.840   4.335   3.301
   15CHTO   C99 5991   5.787   4.134   3.030
   15CHTO  H186 5992   5.806   4.038   3.082
   15CHTO   N17 5993   5.638   4.149   3.017
   15CHTO  H174 5994   5.614   4.237   2.960
   15CHTO  H175 5995   5.596   4.060   2.972
   15CHTO   C97 5996   5.856   4.121   2.891
   15CHTO  H184 5997   5.838   4.213   2.834
   15CHTO   O64 5998   5.997   4.096   2.909
   15CHTO  C104 5999   6.067   4.207   2.970
   15CHTO  H191 6000   6.055   4.297   2.909
   15CHTO  C108 6001   6.217   4.176   2.971
   15CHTO   O71 6002   6.250   4.055   3.040
   15CHTO  H171 6003   6.217   3.981   2.992
   15CHTO   O62 6004   5.813   4.005   2.815
   15CHTO   C91 6005   5.738   4.032   2.695
   15CHTO  H178 6006   5.702   4.135   2.697
   15CHTO   C92 6007   5.609   3.942   2.695
   15CHTO  H179 6008   5.567   3.938   2.796
   15CHTO   O66 6009   5.509   4.006   2.614
   15CHTO  H166 6010   5.539   4.015   2.526
   15CHTO   C93 6011   5.634   3.797   2.638
   15CHTO  H180 6012   5.534   3.752   2.627
   15CHTO   N16 6013   5.706   3.705   2.730
   15CHTO  H172 6014   5.729   3.754   2.823
   15CHTO  H173 6015   5.647   3.616   2.747
   15CHTO   C94 6016   5.702   3.806   2.495
   15CHTO  H181 6017   5.790   3.741   2.487
   15CHTO   O61 6018   5.745   3.939   2.460
   15CHTO   C95 6019   5.821   4.009   2.560
   15CHTO  H182 6020   5.911   3.952   2.583
   15CHTO  C106 6021   5.868   4.145   2.496
   15CHTO   O69 6022   5.953   4.218   2.585
   15CHTO  H169 6023   6.035   4.173   2.596
   15CHTO   O63 6024   5.594   3.760   2.392
   15CHTO   C96 6025   5.643   3.750   2.246
   15CHTO  H183 6026   5.751   3.762   2.243
   15CHTO   C98 6027   5.580   3.857   2.152
   15CHTO  H185 6028   5.471   3.858   2.167
   15CHTO   O67 6029   5.626   3.986   2.196
   15CHTO  H167 6030   5.584   4.054   2.147
   15CHTO  C102 6031   5.615   3.832   1.997
   15CHTO  H189 6032   5.721   3.857   1.986
   15CHTO   N18 6033   5.543   3.924   1.904
   15CHTO  H176 6034   5.478   3.869   1.837
   15CHTO  H177 6035   5.614   3.982   1.846
   15CHTO  C105 6036   5.595   3.682   1.962
   15CHTO  H192 6037   5.488   3.659   1.959
   15CHTO   O65 6038   5.657   3.593   2.056
   15CHTO  C100 6039   5.609   3.607   2.190
   15CHTO  H187 6040   5.499   3.596   2.189
   15CHTO  C107 6041   5.665   3.493   2.279
   15CHTO   O70 6042   5.807   3.498   2.292
   15CHTO  H170 6043   5.836   3.428   2.347
   15CHTO   O57 6044   5.661   3.657   1.813
   15CHTO   C85 6045   5.604   3.554   1.730
   15CHTO  H157 6046   5.515   3.516   1.784
   15CHTO   C83 6047   5.702   3.433   1.719
   15CHTO  H155 6048   5.720   3.395   1.820
   15CHTO   O56 6049   5.829   3.477   1.668
   15CHTO  H135 6050   5.891   3.406   1.670
   15CHTO   C81 6051   5.634   3.321   1.635
   15CHTO  H153 6052   5.541   3.294   1.684
   15CHTO   N14 6053   5.711   3.194   1.632
   15CHTO  H141 6054   5.731   3.161   1.732
   15CHTO  H142 6055   5.805   3.209   1.582
   15CHTO   C79 6056   5.598   3.375   1.491
   15CHTO  H151 6057   5.538   3.299   1.441
   15CHTO   O52 6058   5.514   3.496   1.499
   15CHTO   C86 6059   5.569   3.601   1.584
   15CHTO  H158 6060   5.660   3.636   1.530
   15CHTO   C90 6061   5.472   3.722   1.588
   15CHTO   O60 6062   5.475   3.796   1.465
   15CHTO  H138 6063   5.558   3.839   1.456
   15CHTO   O50 6064   5.713   3.402   1.408
   15CHTO   C73 6065   5.735   3.430   1.269
   15CHTO  H145 6066   5.678   3.519   1.239
   15CHTO   C74 6067   5.690   3.309   1.180
   15CHTO  H146 6068   5.583   3.293   1.199
   15CHTO   O54 6069   5.702   3.348   1.042
   15CHTO  H133 6070   5.639   3.415   1.022
   15CHTO   C75 6071   5.776   3.183   1.218
   15CHTO  H147 6072   5.755   3.156   1.322
   15CHTO   N13 6073   5.744   3.061   1.140
   15CHTO  H139 6074   5.640   3.033   1.156
   15CHTO  H140 6075   5.758   3.080   1.034
   15CHTO   C76 6076   5.932   3.218   1.210
   15CHTO  H148 6077   5.961   3.230   1.106
   15CHTO   O49 6078   5.964   3.342   1.283
   15CHTO   C77 6079   5.886   3.457   1.247
   15CHTO  H149 6080   5.903   3.483   1.142
   15CHTO   C88 6081   5.938   3.576   1.329
   15CHTO   O58 6082   5.866   3.702   1.297
   15CHTO  H136 6083   5.886   3.728   1.209
   15CHTO   O51 6084   6.018   3.104   1.286
   15CHTO   C78 6085   6.173   3.125   1.268
   15CHTO  H150 6086   6.194   3.227   1.228
   15CHTO   C80 6087   6.231   3.020   1.171
   15CHTO  H152 6088   6.212   2.919   1.213
   15CHTO   O55 6089   6.160   3.033   1.047
   15CHTO  H134 6090   6.186   2.966   0.987
   15CHTO   C84 6091   6.387   3.041   1.153
   15CHTO  H156 6092   6.401   3.139   1.106
   15CHTO   N15 6093   6.450   2.940   1.062
   15CHTO  H143 6094   6.554   2.959   1.052
   15CHTO  H144 6095   6.404   2.944   0.965
   15CHTO   C87 6096   6.456   3.044   1.292
   15CHTO  H159 6097   6.456   2.945   1.336
   15CHTO   O53 6098   6.382   3.146   1.386
   15CHTO   C82 6099   6.243   3.114   1.404
   15CHTO  H154 6100   6.233   3.013   1.445
   15CHTO   C89 6101   6.182   3.211   1.508
   15CHTO   O59 6102   6.243   3.193   1.637
   15CHTO  H137 6103   6.204   3.253   1.698
   15CHTO   O45 6104   6.611   3.095   1.277
   15CHTO   C67 6105   6.678   3.120   1.401
   15CHTO  H124 6106   6.612   3.177   1.467
   15CHTO   C65 6107   6.717   2.986   1.474
   15CHTO  H122 6108   6.723   2.910   1.396
   15CHTO   O44 6109   6.608   2.955   1.562
   15CHTO  H102 6110   6.619   2.869   1.598
   15CHTO   C63 6111   6.863   2.990   1.536
   15CHTO  H120 6112   6.935   2.981   1.455
   15CHTO   N11 6113   6.900   2.872   1.622
   15CHTO  H108 6114   6.882   2.781   1.569
   15CHTO  H109 6115   6.843   2.873   1.712
   15CHTO   C61 6116   6.887   3.130   1.603
   15CHTO  H118 6117   6.992   3.132   1.636
   15CHTO   O40 6118   6.871   3.240   1.507
   15CHTO   C68 6119   6.804   3.212   1.380
   15CHTO  H125 6120   6.875   3.163   1.311
   15CHTO   C72 6121   6.764   3.347   1.314
   15CHTO   O48 6122   6.877   3.428   1.281
   15CHTO  H105 6123   6.926   3.388   1.213
   15CHTO   O38 6124   6.800   3.152   1.716
   15CHTO   C55 6125   6.820   3.273   1.791
   15CHTO  H112 6126   6.868   3.350   1.729
   15CHTO   C56 6127   6.902   3.243   1.924
   15CHTO  H113 6128   6.848   3.165   1.979
   15CHTO   O42 6129   7.030   3.188   1.890
   15CHTO  H100 6130   7.081   3.250   1.841
   15CHTO   C57 6131   6.914   3.375   2.011
   15CHTO  H114 6132   6.978   3.443   1.955
   15CHTO   N10 6133   6.979   3.352   2.143
   15CHTO  H106 6134   7.029   3.442   2.176
   15CHTO  H107 6135   6.906   3.323   2.218
   15CHTO   C58 6136   6.775   3.442   2.028
   15CHTO  H115 6137   6.713   3.383   2.100
   15CHTO   O37 6138   6.704   3.456   1.903
   15CHTO   C59 6139   6.682   3.333   1.832
   15CHTO  H116 6140   6.627   3.263   1.894
   15CHTO   C70 6141   6.597   3.362   1.708
   15CHTO   O46 6142   6.465   3.406   1.741
   15CHTO  H103 6143   6.417   3.423   1.662
   15CHTO   O39 6144   6.794   3.594   2.080
   15CHTO   C60 6145   6.703   3.639   2.182
   15CHTO  H117 6146   6.614   3.575   2.184
   15CHTO   C62 6147   6.770   3.635   2.323
   15CHTO  H119 6148   6.791   3.528   2.344
   15CHTO   O43 6149   6.896   3.705   2.317
   15CHTO  H101 6150   6.882   3.796   2.299
   15CHTO   C66 6151   6.670   3.694   2.435
   15CHTO  H123 6152   6.578   3.635   2.434
   15CHTO   N12 6153   6.726   3.684   2.572
   15CHTO  H110 6154   6.655   3.724   2.643
   15CHTO  H111 6155   6.749   3.581   2.594
   15CHTO   C69 6156   6.632   3.840   2.396
   15CHTO  H126 6157   6.724   3.901   2.392
   15CHTO   O41 6158   6.565   3.838   2.256
   15CHTO   C64 6159   6.654   3.782   2.147
   15CHTO  H121 6160   6.743   3.848   2.136
   15CHTO   C71 6161   6.576   3.786   2.013
   15CHTO   O47 6162   6.454   3.712   2.018
   15CHTO  H104 6163   6.393   3.754   2.076
   15CHTO   O34 6164   6.536   3.907   2.496
   15CHTO   C49 6165   6.438   3.969   2.589
   15CHTO   H91 6166   6.496   4.013   2.671
   15CHTO   C47 6167   6.344   3.859   2.644
   15CHTO   H89 6168   6.280   3.913   2.719
   15CHTO   O33 6169   6.418   3.757   2.713
   15CHTO   H70 6170   6.473   3.711   2.653
   15CHTO   C45 6171   6.253   3.797   2.525
   15CHTO   H87 6172   6.307   3.711   2.482
   15CHTO    N8 6173   6.127   3.746   2.585
   15CHTO   H75 6174   6.041   3.790   2.535
   15CHTO   H76 6175   6.122   3.639   2.577
   15CHTO   C43 6176   6.238   3.902   2.403
   15CHTO   H85 6177   6.328   3.888   2.342
   15CHTO   O29 6178   6.230   4.036   2.455
   15CHTO   C50 6179   6.351   4.079   2.520
   15CHTO   H92 6180   6.414   4.130   2.446
   15CHTO   C54 6181   6.316   4.192   2.621
   15CHTO   O36 6182   6.251   4.303   2.558
   15CHTO   H72 6183   6.233   4.368   2.622
   15CHTO   O27 6184   6.129   3.874   2.314
   15CHTO   C37 6185   6.130   3.824   2.180
   15CHTO   H79 6186   6.232   3.829   2.138
   15CHTO   C38 6187   6.087   3.675   2.175
   15CHTO   H80 6188   5.991   3.665   2.229
   15CHTO   O31 6189   6.187   3.599   2.246
   15CHTO   H68 6190   6.161   3.509   2.253
   15CHTO   C39 6191   6.070   3.624   2.026
   15CHTO   H81 6192   6.169   3.625   1.981
   15CHTO    N7 6193   6.017   3.483   2.018
   15CHTO   H73 6194   6.010   3.453   1.914
   15CHTO   H74 6195   5.920   3.477   2.065
   15CHTO   C40 6196   5.979   3.726   1.946
   15CHTO   H82 6197   5.879   3.720   1.989
   15CHTO   O26 6198   6.033   3.859   1.956
   15CHTO   C41 6199   6.036   3.910   2.092
   15CHTO   H83 6200   5.934   3.908   2.134
   15CHTO   C52 6201   6.081   4.059   2.087
   15CHTO   O35 6202   6.218   4.076   2.029
   15CHTO   H71 6203   6.217   4.052   1.939
   15CHTO   O28 6204   5.962   3.692   1.807
   15CHTO   C42 6205   6.046   3.731   1.693
   15CHTO   H84 6206   6.013   3.663   1.614
   15CHTO   C44 6207   6.200   3.708   1.707
   15CHTO   H86 6208   6.237   3.767   1.791
   15CHTO   O32 6209   6.218   3.568   1.737
   15CHTO   H69 6210   6.308   3.550   1.755
   15CHTO   C48 6211   6.280   3.749   1.577
   15CHTO   H90 6212   6.257   3.677   1.498
   15CHTO    N9 6213   6.429   3.740   1.596
   15CHTO   H77 6214   6.460   3.805   1.677
   15CHTO   H78 6215   6.458   3.638   1.617
   15CHTO   C51 6216   6.236   3.892   1.526
   15CHTO   H93 6217   6.270   3.966   1.599
   15CHTO   O30 6218   6.093   3.894   1.511
   15CHTO   C46 6219   6.019   3.875   1.642
   15CHTO   H88 6220   6.057   3.948   1.714
   15CHTO   C53 6221   5.868   3.899   1.616
   15CHTO   O72 6222   5.844   4.034   1.575
   15CHTO  H199 6223   5.879   4.048   1.489
   15CHTO   O22 6224   6.290   3.920   1.396
   15CHTO   C31 6225   6.282   4.051   1.327
   15CHTO   H59 6226   6.352   4.044   1.242
   15CHTO   C29 6227   6.142   4.082   1.268
   15CHTO   H57 6228   6.070   4.082   1.350
   15CHTO   O21 6229   6.106   3.973   1.180
   15CHTO   H37 6230   6.018   3.982   1.152
   15CHTO   C27 6231   6.139   4.223   1.195
   15CHTO   H55 6232   6.206   4.219   1.108
   15CHTO    N5 6233   6.003   4.259   1.148
   15CHTO   H43 6234   6.006   4.354   1.096
   15CHTO   H44 6235   5.965   4.183   1.082
   15CHTO   C25 6236   6.195   4.331   1.293
   15CHTO   H53 6237   6.130   4.338   1.382
   15CHTO   O17 6238   6.328   4.291   1.338
   15CHTO   C32 6239   6.331   4.170   1.414
   15CHTO   H60 6240   6.266   4.180   1.501
   15CHTO   C36 6241   6.477   4.149   1.462
   15CHTO   O25 6242   6.518   4.255   1.549
   15CHTO   H40 6243   6.607   4.241   1.576
   15CHTO   O15 6244   6.209   4.478   1.225
   15CHTO   C19 6245   6.226   4.600   1.302
   15CHTO   H47 6246   6.243   4.677   1.225
   15CHTO   C20 6247   6.100   4.640   1.386
   15CHTO   H48 6248   6.066   4.557   1.450
   15CHTO   O19 6249   5.995   4.669   1.291
   15CHTO   H35 6250   5.967   4.589   1.250
   15CHTO   C21 6251   6.127   4.765   1.480
   15CHTO   H49 6252   6.147   4.852   1.418
   15CHTO    N4 6253   6.011   4.798   1.567
   15CHTO   H41 6254   6.033   4.884   1.628
   15CHTO   H42 6255   5.988   4.715   1.631
   15CHTO   C22 6256   6.256   4.735   1.561
   15CHTO   H50 6257   6.240   4.642   1.617
   15CHTO   O14 6258   6.365   4.718   1.469
   15CHTO   C23 6259   6.356   4.599   1.390
   15CHTO   H51 6260   6.357   4.514   1.460
   15CHTO   C34 6261   6.482   4.590   1.302
   15CHTO   O23 6262   6.600   4.574   1.381
   15CHTO   H38 6263   6.618   4.653   1.428
   15CHTO   O16 6264   6.300   4.841   1.649
   15CHTO   C24 6265   6.328   4.791   1.804
   15CHTO   H52 6266   6.285   4.693   1.824
   15CHTO   C26 6267   6.265   4.894   1.900
   15CHTO   H54 6268   6.304   4.995   1.874
   15CHTO   O20 6269   6.122   4.893   1.877
   15CHTO   H36 6270   6.081   4.960   1.927
   15CHTO   C30 6271   6.302   4.862   2.048
   15CHTO   H58 6272   6.260   4.765   2.077
   15CHTO    N6 6273   6.243   4.962   2.142
   15CHTO   H45 6274   6.320   5.015   2.196
   15CHTO   H46 6275   6.178   4.913   2.212
   15CHTO   C33 6276   6.457   4.849   2.060
   15CHTO   H61 6277   6.505   4.945   2.034
   15CHTO   O18 6278   6.502   4.748   1.968
   15CHTO   C28 6279   6.481   4.779   1.830
   15CHTO   H56 6280   6.529   4.874   1.804
   15CHTO   C35 6281   6.543   4.666   1.744
   15CHTO   O24 6282   6.685   4.655   1.763
   15CHTO   H39 6283   6.718   4.587   1.707
   15CHTO    O9 6284   6.501   4.820   2.195
   15CHTO   C13 6285   6.661   4.857   2.224
   15CHTO   H26 6286   6.681   4.958   2.183
   15CHTO   C11 6287   6.755   4.747   2.156
   15CHTO   H24 6288   6.756   4.766   2.048
   15CHTO    O8 6289   6.699   4.616   2.178
   15CHTO    H3 6290   6.748   4.552   2.130
   15CHTO    C9 6291   6.899   4.761   2.213
   15CHTO   H22 6292   6.926   4.867   2.197
   15CHTO    N2 6293   6.999   4.684   2.135
   15CHTO   H10 6294   7.067   4.751   2.085
   15CHTO   H11 6295   7.053   4.616   2.199
   15CHTO    C7 6296   6.897   4.735   2.370
   15CHTO   H20 6297   6.967   4.812   2.410
   15CHTO    O4 6298   6.767   4.754   2.428
   15CHTO   C14 6299   6.691   4.867   2.380
   15CHTO   H27 6300   6.751   4.959   2.398
   15CHTO   C18 6301   6.563   4.879   2.465
   15CHTO   O13 6302   6.595   4.900   2.603
   15CHTO    H7 6303   6.516   4.908   2.653
   15CHTO    O2 6304   6.951   4.583   2.417
   15CHTO    C1 6305   7.074   4.580   2.492
   15CHTO   H14 6306   7.128   4.675   2.480
   15CHTO    C2 6307   7.168   4.461   2.446
   15CHTO   H15 6308   7.107   4.370   2.450
   15CHTO    O6 6309   7.209   4.484   2.310
   15CHTO    H1 6310   7.259   4.564   2.303
   15CHTO    C3 6311   7.296   4.446   2.542
   15CHTO   H16 6312   7.363   4.531   2.524
   15CHTO    N1 6313   7.375   4.322   2.510
   15CHTO    H8 6314   7.411   4.326   2.409
   15CHTO    H9 6315   7.313   4.234   2.523
   15CHTO    C4 6316   7.256   4.453   2.693
   15CHTO   H17 6317   7.206   4.360   2.722
   15CHTO    O1 6318   7.169   4.565   2.719
   15CHTO    C5 6319   7.046   4.565   2.645
   15CHTO   H18 6320   6.995   4.469   2.661
   15CHTO   C16 6321   6.957   4.678   2.703
   15CHTO   O11 6322   7.016   4.807   2.687
   15CHTO    H5 6323   6.959   4.873   2.722
   15CHTO    O3 6324   7.372   4.477   2.775
   15CHTO    C6 6325   7.369   4.421   2.911
   15CHTO   H19 6326   7.268   4.394   2.943
   15CHTO    C8 6327   7.459   4.293   2.917
   15CHTO   H21 6328   7.556   4.317   2.874
   15CHTO    O7 6329   7.396   4.191   2.836
   15CHTO    H2 6330   7.313   4.167   2.872
   15CHTO   C12 6331   7.481   4.242   3.066
   15CHTO   H25 6332   7.384   4.198   3.098
   15CHTO    N3 6333   7.583   4.132   3.072
   15CHTO   H12 6334   7.678   4.167   3.034
   15CHTO   H13 6335   7.548   4.047   3.016
   15CHTO   C15 6336   7.515   4.363   3.161
   15CHTO   H28 6337   7.616   4.399   3.145
   15CHTO   O10 6338   7.496   4.325   3.311
   15CHTO    H4 6339   7.528   4.395   3.366
   15CHTO    O5 6340   7.420   4.470   3.144
   15CHTO   C10 6341   7.423   4.526   3.012
   15CHTO   H23 6342   7.525   4.554   2.988
   15CHTO   C17 6343   7.340   4.655   3.017
   15CHTO   O12 6344   7.357   4.735   2.899
   15CHTO    H6 6345   7.444   4.770   2.897
   16CHTO  H203 6346   5.622   4.711   1.722
   16CHTO   O82 6347   5.693   4.657   1.695
   16CHTO  C123 6348   5.755   4.596   1.810
   16CHTO  H227 6349   5.680   4.535   1.863
   16CHTO   O77 6350   5.856   4.509   1.750
   16CHTO  C118 6351   5.928   4.427   1.845
   16CHTO  H222 6352   5.855   4.367   1.902
   16CHTO  C125 6353   6.022   4.330   1.764
   16CHTO   O84 6354   6.117   4.400   1.682
   16CHTO  H205 6355   6.178   4.446   1.737
   16CHTO  C114 6356   6.006   4.517   1.943
   16CHTO  H218 6357   6.081   4.573   1.886
   16CHTO  C116 6358   5.912   4.620   2.012
   16CHTO  H220 6359   5.846   4.566   2.084
   16CHTO   O79 6360   5.993   4.709   2.091
   16CHTO  H201 6361   5.939   4.768   2.140
   16CHTO  C120 6362   5.825   4.699   1.906
   16CHTO  H224 6363   5.895   4.763   1.848
   16CHTO   N21 6364   5.726   4.789   1.971
   16CHTO  H211 6365   5.706   4.873   1.906
   16CHTO  H212 6366   5.764   4.824   2.066
   16CHTO   O75 6367   6.069   4.426   2.036
   16CHTO  C112 6368   6.228   4.454   2.063
   16CHTO  H216 6369   6.252   4.557   2.033
   16CHTO   O73 6370   6.301   4.358   1.985
   16CHTO  C113 6371   6.444   4.364   1.998
   16CHTO  H217 6372   6.479   4.465   1.967
   16CHTO  C124 6373   6.501   4.261   1.899
   16CHTO   O83 6374   6.643   4.271   1.884
   16CHTO  H204 6375   6.672   4.206   1.823
   16CHTO  C109 6376   6.485   4.336   2.146
   16CHTO  H213 6377   6.450   4.234   2.170
   16CHTO  C110 6378   6.415   4.441   2.237
   16CHTO  H214 6379   6.453   4.540   2.212
   16CHTO   O78 6380   6.452   4.413   2.374
   16CHTO  H200 6381   6.418   4.479   2.431
   16CHTO  C111 6382   6.261   4.435   2.216
   16CHTO  H215 6383   6.225   4.336   2.247
   16CHTO   N19 6384   6.187   4.535   2.298
   16CHTO  H207 6385   6.081   4.526   2.281
   16CHTO  H208 6386   6.207   4.518   2.403
   16CHTO   O74 6387   6.631   4.342   2.162
   16CHTO  C115 6388   6.696   4.209   2.227
   16CHTO  H219 6389   6.621   4.146   2.277
   16CHTO   O76 6390   6.761   4.114   2.114
   16CHTO  C122 6391   6.896   4.150   2.081
   16CHTO  H226 6392   6.894   4.254   2.046
   16CHTO  C126 6393   6.942   4.064   1.959
   16CHTO   O85 6394   7.071   4.101   1.910
   16CHTO  H206 6395   7.068   4.187   1.872
   16CHTO  C121 6396   6.993   4.134   2.206
   16CHTO  H225 6397   7.043   4.035   2.198
   16CHTO   O81 6398   7.093   4.236   2.200
   16CHTO  H202 6399   7.159   4.220   2.265
   16CHTO  C119 6400   6.915   4.140   2.341
   16CHTO  H223 6401   6.861   4.045   2.345
   16CHTO  C117 6402   6.805   4.253   2.335
   16CHTO  H221 6403   6.840   4.351   2.302
   16CHTO   N20 6404   6.738   4.277   2.467
   16CHTO  H209 6405   6.756   4.378   2.500
   16CHTO  H210 6406   6.773   4.206   2.541
   16CHTO   O80 6407   7.010   4.127   2.473
   16CHTO  C103 6408   7.026   3.985   2.543
   16CHTO  H190 6409   6.938   3.924   2.523
   16CHTO  C101 6410   7.154   3.901   2.506
   16CHTO  H188 6411   7.243   3.959   2.530
   16CHTO   O68 6412   7.153   3.873   2.354
   16CHTO  H168 6413   7.232   3.829   2.329
   16CHTO   C99 6414   7.156   3.766   2.591
   16CHTO  H186 6415   7.067   3.705   2.563
   16CHTO   N17 6416   7.276   3.679   2.566
   16CHTO  H174 6417   7.328   3.655   2.657
   16CHTO  H175 6418   7.247   3.589   2.513
   16CHTO   C97 6419   7.139   3.797   2.743
   16CHTO  H184 6420   7.233   3.840   2.781
   16CHTO   O64 6421   7.026   3.884   2.767
   16CHTO  C104 6422   7.029   4.010   2.699
   16CHTO  H191 6423   7.120   4.066   2.724
   16CHTO  C108 6424   6.912   4.095   2.749
   16CHTO   O71 6425   6.785   4.033   2.726
   16CHTO  H171 6426   6.776   3.958   2.782
   16CHTO   O62 6427   7.102   3.678   2.816
   16CHTO   C91 6428   7.160   3.658   2.946
   16CHTO  H178 6429   7.267   3.647   2.931
   16CHTO   C92 6430   7.109   3.521   3.001
   16CHTO  H179 6431   7.129   3.441   2.927
   16CHTO   O66 6432   7.188   3.485   3.116
   16CHTO  H166 6433   7.277   3.469   3.091
   16CHTO   C93 6434   6.958   3.525   3.045
   16CHTO  H180 6435   6.942   3.442   3.116
   16CHTO   N16 6436   6.865   3.497   2.932
   16CHTO  H172 6437   6.763   3.499   2.966
   16CHTO  H173 6438   6.888   3.400   2.889
   16CHTO   C94 6439   6.922   3.662   3.117
   16CHTO  H181 6440   6.868   3.730   3.051
   16CHTO   O61 6441   7.041   3.732   3.159
   16CHTO   C95 6442   7.130   3.773   3.054
   16CHTO  H182 6443   7.087   3.860   3.004
   16CHTO  C106 6444   7.263   3.822   3.122
   16CHTO   O69 6445   7.354   3.877   3.026
   16CHTO  H169 6446   7.432   3.905   3.069
   16CHTO   O63 6447   6.837   3.634   3.250
   16CHTO   C96 6448   6.690   3.577   3.227
   16CHTO  H183 6449   6.699   3.485   3.169
   16CHTO   C98 6450   6.592   3.671   3.149
   16CHTO  H185 6451   6.638   3.705   3.055
   16CHTO   O67 6452   6.476   3.595   3.110
   16CHTO  H167 6453   6.431   3.562   3.185
   16CHTO  C102 6454   6.544   3.795   3.239
   16CHTO  H189 6455   6.454   3.834   3.189
   16CHTO   N18 6456   6.641   3.908   3.240
   16CHTO  H176 6457   6.602   3.989   3.300
   16CHTO  H177 6458   6.658   3.942   3.139
   16CHTO  C105 6459   6.505   3.748   3.383
   16CHTO  H192 6460   6.576   3.788   3.456
   16CHTO   O65 6461   6.504   3.605   3.397
   16CHTO  C100 6462   6.630   3.540   3.369
   16CHTO  H187 6463   6.702   3.571   3.447
   16CHTO  C107 6464   6.611   3.387   3.382
   16CHTO   O70 6465   6.571   3.349   3.514
   16CHTO  H170 6466   6.642   3.363   3.574
   16CHTO   O57 6467   6.354   3.807   3.413
   16CHTO   C85 6468   6.323   3.947   3.412
   16CHTO  H157 6469   6.376   3.991   3.325
   16CHTO   C83 6470   6.379   4.021   3.538
   16CHTO  H155 6471   6.487   4.006   3.540
   16CHTO   O56 6472   6.326   3.961   3.658
   16CHTO  H135 6473   6.355   3.872   3.665
   16CHTO   C81 6474   6.350   4.174   3.523
   16CHTO  H153 6475   6.401   4.209   3.433
   16CHTO   N14 6476   6.410   4.255   3.631
   16CHTO  H141 6477   6.515   4.235   3.639
   16CHTO  H142 6478   6.364   4.232   3.725
   16CHTO   C79 6479   6.195   4.202   3.504
   16CHTO  H151 6480   6.185   4.306   3.473
   16CHTO   O52 6481   6.141   4.121   3.395
   16CHTO   C86 6482   6.169   3.978   3.407
   16CHTO  H158 6483   6.120   3.947   3.501
   16CHTO   C90 6484   6.098   3.900   3.295
   16CHTO   O60 6485   5.956   3.912   3.305
   16CHTO  H138 6486   5.915   3.865   3.235
   16CHTO   O50 6487   6.112   4.183   3.619
   16CHTO   C73 6488   6.031   4.141   3.730
   16CHTO  H145 6489   6.091   4.084   3.802
   16CHTO   C74 6490   5.913   4.050   3.679
   16CHTO  H146 6491   5.957   3.966   3.624
   16CHTO   O54 6492   5.850   3.992   3.794
   16CHTO  H133 6493   5.782   3.932   3.767
   16CHTO   C75 6494   5.815   4.135   3.589
   16CHTO  H147 6495   5.871   4.174   3.503
   16CHTO   N13 6496   5.702   4.057   3.534
   16CHTO  H139 6497   5.640   4.120   3.472
   16CHTO  H140 6498   5.641   4.017   3.614
   16CHTO   C76 6499   5.766   4.261   3.676
   16CHTO  H148 6500   5.719   4.220   3.765
   16CHTO   O49 6501   5.883   4.340   3.714
   16CHTO   C77 6502   5.972   4.267   3.801
   16CHTO  H149 6503   5.918   4.236   3.890
   16CHTO   C88 6504   6.081   4.364   3.851
   16CHTO   O58 6505   6.169   4.299   3.953
   16CHTO  H136 6506   6.120   4.281   4.031
   16CHTO   O51 6507   5.666   4.358   3.595
   16CHTO   C78 6508   5.625   4.499   3.672
   16CHTO  H150 6509   5.713   4.567   3.677
   16CHTO   C80 6510   5.569   4.478   3.815
   16CHTO  H152 6511   5.484   4.407   3.809
   16CHTO   O55 6512   5.672   4.421   3.896
   16CHTO  H134 6513   5.691   4.333   3.869
   16CHTO   C84 6514   5.522   4.614   3.881
   16CHTO  H156 6515   5.612   4.670   3.903
   16CHTO   N15 6516   5.452   4.592   4.013
   16CHTO  H143 6517   5.424   4.687   4.055
   16CHTO  H144 6518   5.517   4.541   4.081
   16CHTO   C87 6519   5.435   4.700   3.786
   16CHTO  H159 6520   5.332   4.664   3.785
   16CHTO   O53 6521   5.492   4.700   3.641
   16CHTO   C82 6522   5.518   4.570   3.587
   16CHTO  H154 6523   5.426   4.512   3.584
   16CHTO   C89 6524   5.565   4.587   3.441
   16CHTO   O59 6525   5.461   4.641   3.359
   16CHTO  H137 6526   5.491   4.650   3.271
   16CHTO   O45 6527   5.433   4.860   3.843
   16CHTO   C67 6528   5.545   4.939   3.799
   16CHTO  H124 6529   5.620   4.874   3.755
   16CHTO   C65 6530   5.500   5.044   3.691
   16CHTO  H122 6531   5.396   5.069   3.714
   16CHTO   O44 6532   5.505   4.977   3.563
   16CHTO  H102 6533   5.442   4.908   3.560
   16CHTO   C63 6534   5.578   5.182   3.703
   16CHTO  H120 6535   5.537   5.237   3.787
   16CHTO   N11 6536   5.559   5.279   3.591
   16CHTO  H108 6537   5.604   5.373   3.616
   16CHTO  H109 6538   5.454   5.295   3.574
   16CHTO   C61 6539   5.728   5.151   3.738
   16CHTO  H118 6540   5.778   5.248   3.753
   16CHTO   O40 6541   5.740   5.078   3.865
   16CHTO   C68 6542   5.619   5.013   3.917
   16CHTO  H125 6543   5.553   5.091   3.960
   16CHTO   C72 6544   5.660   4.920   4.033
   16CHTO   O48 6545   5.710   4.991   4.147
   16CHTO  H105 6546   5.792   5.030   4.126
   16CHTO   O38 6547   5.793   5.077   3.633
   16CHTO   C55 6548   5.936   5.067   3.637
   16CHTO  H112 6549   5.972   5.075   3.741
   16CHTO   C56 6550   6.002   5.176   3.543
   16CHTO  H113 6551   5.953   5.168   3.445
   16CHTO   O42 6552   5.971   5.308   3.592
   16CHTO  H100 6553   6.007   5.321   3.677
   16CHTO   C57 6554   6.158   5.153   3.530
   16CHTO  H114 6555   6.201   5.170   3.628
   16CHTO   N10 6556   6.225   5.245   3.434
   16CHTO  H106 6557   6.257   5.335   3.486
   16CHTO  H107 6558   6.159   5.272   3.354
   16CHTO   C58 6559   6.184   5.005   3.490
   16CHTO  H115 6560   6.142   4.986   3.388
   16CHTO   O37 6561   6.123   4.916   3.585
   16CHTO   C59 6562   5.979   4.925   3.589
   16CHTO  H116 6563   5.939   4.905   3.489
   16CHTO   C70 6564   5.926   4.815   3.682
   16CHTO   O46 6565   5.972   4.825   3.817
   16CHTO  H103 6566   5.937   4.902   3.858
   16CHTO   O39 6567   6.345   4.966   3.493
   16CHTO   C60 6568   6.389   4.891   3.378
   16CHTO  H117 6569   6.304   4.847   3.327
   16CHTO   C62 6570   6.465   4.982   3.277
   16CHTO  H119 6571   6.392   5.060   3.245
   16CHTO   O43 6572   6.575   5.048   3.343
   16CHTO  H101 6573   6.639   4.985   3.371
   16CHTO   C66 6574   6.509   4.895   3.149
   16CHTO  H123 6575   6.421   4.848   3.107
   16CHTO   N12 6576   6.567   4.978   3.040
   16CHTO  H110 6577   6.568   5.083   3.066
   16CHTO  H111 6578   6.513   4.961   2.947
   16CHTO   C69 6579   6.605   4.782   3.194
   16CHTO  H126 6580   6.698   4.825   3.236
   16CHTO   O41 6581   6.534   4.694   3.303
   16CHTO   C64 6582   6.480   4.772   3.423
   16CHTO  H121 6583   6.565   4.813   3.482
   16CHTO   C71 6584   6.404   4.673   3.515
   16CHTO   O47 6585   6.297   4.607   3.447
   16CHTO  H104 6586   6.253   4.549   3.506
   16CHTO   O34 6587   6.645   4.686   3.070
   16CHTO   C49 6588   6.759   4.579   3.053
   16CHTO   H91 6589   6.816   4.608   2.965
   16CHTO   C47 6590   6.695   4.440   3.031
   16CHTO   H89 6591   6.778   4.370   3.006
   16CHTO   O33 6592   6.607   4.449   2.917
   16CHTO   H70 6593   6.570   4.365   2.898
   16CHTO   C45 6594   6.621   4.393   3.166
   16CHTO   H87 6595   6.548   4.471   3.192
   16CHTO    N8 6596   6.547   4.265   3.150
   16CHTO   H75 6597   6.570   4.219   3.055
   16CHTO   H76 6598   6.571   4.197   3.231
   16CHTO   C43 6599   6.725   4.392   3.289
   16CHTO   H85 6600   6.663   4.378   3.378
   16CHTO   O29 6601   6.797   4.517   3.296
   16CHTO   C50 6602   6.853   4.574   3.176
   16CHTO   H92 6603   6.880   4.678   3.200
   16CHTO   C54 6604   6.991   4.511   3.141
   16CHTO   O36 6605   7.085   4.529   3.247
   16CHTO   H72 6606   7.061   4.477   3.321
   16CHTO   O27 6607   6.817   4.281   3.287
   16CHTO   C37 6608   6.897   4.213   3.386
   16CHTO   H79 6609   6.970   4.282   3.430
   16CHTO   C38 6610   6.809   4.158   3.503
   16CHTO   H80 6611   6.724   4.103   3.459
   16CHTO   O31 6612   6.758   4.271   3.576
   16CHTO   H68 6613   6.695   4.242   3.639
   16CHTO   C39 6614   6.889   4.062   3.600
   16CHTO   H81 6615   6.957   4.125   3.657
   16CHTO    N7 6616   6.799   3.994   3.699
   16CHTO   H73 6617   6.857   3.932   3.766
   16CHTO   H74 6618   6.726   3.934   3.647
   16CHTO   C40 6619   6.977   3.957   3.521
   16CHTO   H82 6620   6.914   3.878   3.480
   16CHTO   O26 6621   7.054   4.023   3.419
   16CHTO   C41 6622   6.974   4.095   3.320
   16CHTO   H83 6623   6.902   4.025   3.274
   16CHTO   C52 6624   7.068   4.142   3.206
   16CHTO   O35 6625   7.179   4.228   3.254
   16CHTO   H71 6626   7.145   4.309   3.287
   16CHTO   O28 6627   7.081   3.903   3.604
   16CHTO   C42 6628   7.099   3.761   3.637
   16CHTO   H84 6629   7.207   3.753   3.652
   16CHTO   C44 6630   7.065   3.655   3.527
   16CHTO   H86 6631   6.960   3.668   3.498
   16CHTO   O32 6632   7.149   3.687   3.415
   16CHTO   H69 6633   7.127   3.632   3.341
   16CHTO   C48 6634   7.085   3.506   3.575
   16CHTO   H90 6635   7.192   3.488   3.587
   16CHTO    N9 6636   7.039   3.406   3.472
   16CHTO   H77 6637   6.933   3.418   3.453
   16CHTO   H78 6638   7.060   3.306   3.505
   16CHTO   C51 6639   7.016   3.485   3.714
   16CHTO   H93 6640   6.908   3.497   3.701
   16CHTO   O30 6641   7.070   3.581   3.805
   16CHTO   C46 6642   7.032   3.722   3.772
   16CHTO   H88 6643   6.924   3.729   3.763
   16CHTO   C53 6644   7.083   3.812   3.887
   16CHTO   O72 6645   7.019   3.778   4.011
   16CHTO  H199 6646   7.050   3.836   4.078
   16CHTO   O22 6647   7.045   3.356   3.773
   16CHTO   C31 6648   6.969   3.303   3.888
   16CHTO   H59 6649   7.015   3.204   3.911
   16CHTO   C29 6650   6.978   3.388   4.017
   16CHTO   H57 6651   6.938   3.488   3.994
   16CHTO   O21 6652   7.118   3.405   4.048
   16CHTO   H37 6653   7.128   3.466   4.118
   16CHTO   C27 6654   6.896   3.326   4.136
   16CHTO   H55 6655   6.942   3.230   4.165
   16CHTO    N5 6656   6.894   3.415   4.255
   16CHTO   H43 6657   6.995   3.435   4.287
   16CHTO   H44 6658   6.839   3.368   4.336
   16CHTO   C25 6659   6.750   3.294   4.087
   16CHTO   H53 6660   6.697   3.388   4.065
   16CHTO   O17 6661   6.752   3.213   3.966
   16CHTO   C32 6662   6.820   3.274   3.854
   16CHTO   H60 6663   6.770   3.367   3.829
   16CHTO   C36 6664   6.809   3.177   3.734
   16CHTO   O25 6665   6.672   3.152   3.698
   16CHTO   H40 6666   6.631   3.101   3.765
   16CHTO   O15 6667   6.671   3.214   4.193
   16CHTO   C19 6668   6.540   3.230   4.253
   16CHTO   H47 6669   6.532   3.339   4.269
   16CHTO   C20 6670   6.421   3.183   4.163
   16CHTO   H48 6671   6.431   3.078   4.133
   16CHTO   O19 6672   6.425   3.262   4.043
   16CHTO   H35 6673   6.410   3.353   4.062
   16CHTO   C21 6674   6.281   3.199   4.237
   16CHTO   H49 6675   6.261   3.305   4.250
   16CHTO    N4 6676   6.167   3.145   4.160
   16CHTO   H41 6677   6.159   3.195   4.065
   16CHTO   H42 6678   6.075   3.159   4.215
   16CHTO   C22 6679   6.292   3.137   4.379
   16CHTO   H50 6680   6.305   3.029   4.370
   16CHTO   O14 6681   6.403   3.195   4.450
   16CHTO   C23 6682   6.531   3.164   4.394
   16CHTO   H51 6683   6.541   3.055   4.389
   16CHTO   C34 6684   6.635   3.219   4.493
   16CHTO   O23 6685   6.766   3.172   4.464
   16CHTO   H38 6686   6.827   3.207   4.526
   16CHTO   O16 6687   6.179   3.168   4.464
   16CHTO   C24 6688   6.155   3.057   4.580
   16CHTO   H52 6689   6.230   2.978   4.578
   16CHTO   C26 6690   6.016   2.994   4.559
   16CHTO   H54 6691   5.942   3.077   4.546
   16CHTO   O20 6692   6.021   2.920   4.435
   16CHTO   H36 6693   5.935   2.888   4.413
   16CHTO   C30 6694   5.971   2.906   4.680
   16CHTO   H58 6695   6.034   2.816   4.686
   16CHTO    N6 6696   5.831   2.857   4.663
   16CHTO   H45 6697   5.803   2.794   4.746
   16CHTO   H46 6698   5.763   2.941   4.658
   16CHTO   C33 6699   5.990   2.984   4.813
   16CHTO   H61 6700   5.924   3.072   4.815
   16CHTO   O18 6701   6.127   3.030   4.819
   16CHTO   C28 6702   6.165   3.125   4.720
   16CHTO   H56 6703   6.100   3.212   4.722
   16CHTO   C35 6704   6.310   3.168   4.752
   16CHTO   O24 6705   6.322   3.229   4.881
   16CHTO   H39 6706   6.307   3.165   4.948
   16CHTO    O9 6707   5.955   2.906   4.930
   16CHTO   C13 6708   6.063   2.908   5.057
   16CHTO   H26 6709   6.103   3.011   5.068
   16CHTO   C11 6710   6.179   2.804   5.027
   16CHTO   H24 6711   6.241   2.844   4.945
   16CHTO    O8 6712   6.123   2.679   4.981
   16CHTO    H3 6713   6.079   2.691   4.900
   16CHTO    C9 6714   6.266   2.789   5.155
   16CHTO   H22 6715   6.297   2.891   5.181
   16CHTO    N2 6716   6.394   2.718   5.130
   16CHTO   H10 6717   6.447   2.766   5.049
   16CHTO   H11 6718   6.454   2.718   5.219
   16CHTO    C7 6719   6.176   2.732   5.273
   16CHTO   H20 6720   6.206   2.795   5.361
   16CHTO    O4 6721   6.035   2.748   5.249
   16CHTO   C14 6722   5.994   2.875   5.197
   16CHTO   H27 6723   6.024   2.953   5.271
   16CHTO   C18 6724   5.840   2.878   5.190
   16CHTO   O13 6725   5.781   2.865   5.320
   16CHTO    H7 6726   5.688   2.867   5.312
   16CHTO    O2 6727   6.207   2.575   5.309
   16CHTO    C1 6728   6.105   2.502   5.380
   16CHTO   H14 6729   6.007   2.518   5.331
   16CHTO    C2 6730   6.092   2.541   5.534
   16CHTO   H15 6731   6.195   2.542   5.574
   16CHTO    O6 6732   6.036   2.673   5.544
   16CHTO    H1 6733   6.035   2.701   5.633
   16CHTO    C3 6734   6.002   2.433   5.613
   16CHTO   H16 6735   5.898   2.441   5.578
   16CHTO    N1 6736   6.002   2.460   5.761
   16CHTO    H8 6737   5.901   2.476   5.796
   16CHTO    H9 6738   6.046   2.378   5.816
   16CHTO    C4 6739   6.049   2.288   5.576
   16CHTO   H17 6740   6.151   2.273   5.613
   16CHTO    O1 6741   6.044   2.268   5.434
   16CHTO    C5 6742   6.138   2.351   5.363
   16CHTO   H18 6743   6.238   2.334   5.402
   16CHTO   C16 6744   6.135   2.310   5.213
   16CHTO   O11 6745   6.179   2.176   5.195
   16CHTO    H5 6746   6.181   2.155   5.103
   16CHTO    O3 6747   5.961   2.187   5.631
   16CHTO    C6 6748   6.020   2.055   5.651
   16CHTO   H19 6749   6.108   2.038   5.589
   16CHTO    C8 6750   6.061   2.039   5.801
   16CHTO   H21 6751   5.977   2.072   5.863
   16CHTO    O7 6752   6.174   2.126   5.823
   16CHTO    H2 6753   6.197   2.127   5.914
   16CHTO   C12 6754   6.096   1.889   5.837
   16CHTO   H25 6755   6.192   1.866   5.786
   16CHTO    N3 6756   6.120   1.873   5.985
   16CHTO   H12 6757   6.203   1.935   6.015
   16CHTO   H13 6758   6.142   1.769   6.007
   16CHTO   C15 6759   5.985   1.793   5.781
   16CHTO   H28 6760   5.890   1.805   5.835
   16CHTO   O10 6761   6.027   1.644   5.785
   16CHTO    H4 6762   5.955   1.589   5.760
   16CHTO    O5 6763   5.966   1.816   5.641
   16CHTO   C10 6764   5.915   1.947   5.610
   16CHTO   H23 6765   5.822   1.962   5.664
   16CHTO   C17 6766   5.884   1.947   5.460
   16CHTO   O12 6767   5.811   2.063   5.418
   16CHTO    H6 6768   5.867   2.138   5.422
   17CHTO  H203 6769   6.555   4.539   6.261
   17CHTO   O82 6770   6.578   4.600   6.328
   17CHTO  C123 6771   6.508   4.724   6.309
   17CHTO  H227 6772   6.399   4.704   6.312
   17CHTO   O77 6773   6.547   4.802   6.425
   17CHTO  C118 6774   6.478   4.926   6.438
   17CHTO  H222 6775   6.369   4.909   6.438
   17CHTO  C125 6776   6.520   4.985   6.578
   17CHTO   O84 6777   6.435   5.093   6.618
   17CHTO  H205 6778   6.460   5.123   6.703
   17CHTO  C114 6779   6.517   5.018   6.320
   17CHTO  H218 6780   6.624   5.038   6.326
   17CHTO  C116 6781   6.489   4.948   6.183
   17CHTO  H220 6782   6.379   4.944   6.166
   17CHTO   O79 6783   6.542   5.029   6.076
   17CHTO  H201 6784   6.635   5.038   6.084
   17CHTO  C120 6785   6.549   4.801   6.179
   17CHTO  H224 6786   6.660   4.813   6.176
   17CHTO   N21 6787   6.509   4.726   6.056
   17CHTO  H211 6788   6.586   4.654   6.031
   17CHTO  H212 6789   6.495   4.794   5.974
   17CHTO   O75 6790   6.442   5.139   6.343
   17CHTO  C112 6791   6.481   5.273   6.254
   17CHTO  H216 6792   6.437   5.264   6.153
   17CHTO   O73 6793   6.625   5.282   6.247
   17CHTO  C113 6794   6.674   5.394   6.170
   17CHTO  H217 6795   6.634   5.386   6.067
   17CHTO  C124 6796   6.827   5.384   6.162
   17CHTO   O83 6797   6.870   5.266   6.093
   17CHTO  H204 6798   6.964   5.263   6.092
   17CHTO  C109 6799   6.629   5.527   6.235
   17CHTO  H213 6800   6.672   5.530   6.336
   17CHTO  C110 6801   6.473   5.528   6.245
   17CHTO  H214 6802   6.432   5.526   6.144
   17CHTO   O78 6803   6.430   5.651   6.306
   17CHTO  H200 6804   6.462   5.658   6.393
   17CHTO  C111 6805   6.425   5.403   6.324
   17CHTO  H215 6806   6.468   5.407   6.425
   17CHTO   N19 6807   6.277   5.397   6.340
   17CHTO  H207 6808   6.236   5.308   6.295
   17CHTO  H208 6809   6.251   5.399   6.445
   17CHTO   O74 6810   6.678   5.642   6.158
   17CHTO  C115 6811   6.767   5.746   6.249
   17CHTO  H219 6812   6.807   5.697   6.338
   17CHTO   O76 6813   6.894   5.797   6.171
   17CHTO  C122 6814   6.866   5.882   6.059
   17CHTO  H226 6815   6.826   5.819   5.979
   17CHTO  C126 6816   7.002   5.940   6.006
   17CHTO   O85 6817   7.091   5.837   5.961
   17CHTO  H206 6818   7.170   5.877   5.929
   17CHTO  C121 6819   6.765   6.000   6.094
   17CHTO  H225 6820   6.812   6.097   6.067
   17CHTO   O81 6821   6.648   5.989   6.012
   17CHTO  H202 6822   6.601   5.909   6.031
   17CHTO  C119 6823   6.729   6.003   6.245
   17CHTO  H223 6824   6.824   6.019   6.298
   17CHTO  C117 6825   6.671   5.865   6.292
   17CHTO  H221 6826   6.574   5.841   6.249
   17CHTO   N20 6827   6.648   5.863   6.441
   17CHTO  H209 6828   6.604   5.769   6.470
   17CHTO  H210 6829   6.582   5.945   6.469
   17CHTO   O80 6830   6.647   6.132   6.287
   17CHTO  C103 6831   6.715   6.241   6.373
   17CHTO  H190 6832   6.781   6.195   6.447
   17CHTO  C101 6833   6.797   6.349   6.293
   17CHTO  H188 6834   6.734   6.387   6.212
   17CHTO   O68 6835   6.921   6.281   6.230
   17CHTO  H168 6836   6.966   6.342   6.175
   17CHTO   C99 6837   6.838   6.471   6.387
   17CHTO  H186 6838   6.913   6.434   6.462
   17CHTO   N17 6839   6.904   6.585   6.314
   17CHTO  H174 6840   7.007   6.594   6.343
   17CHTO  H175 6841   6.893   6.573   6.207
   17CHTO   C97 6842   6.717   6.520   6.471
   17CHTO  H184 6843   6.647   6.574   6.405
   17CHTO   O64 6844   6.653   6.411   6.539
   17CHTO  C104 6845   6.599   6.311   6.452
   17CHTO  H191 6846   6.529   6.355   6.381
   17CHTO  C108 6847   6.518   6.210   6.535
   17CHTO   O71 6848   6.399   6.269   6.588
   17CHTO  H171 6849   6.352   6.206   6.638
   17CHTO   O62 6850   6.759   6.607   6.578
   17CHTO   C91 6851   6.657   6.682   6.647
   17CHTO  H178 6852   6.560   6.659   6.602
   17CHTO   C92 6853   6.683   6.835   6.622
   17CHTO  H179 6854   6.692   6.854   6.514
   17CHTO   O66 6855   6.566   6.908   6.663
   17CHTO  H166 6856   6.549   6.895   0.006
   17CHTO   C93 6857   6.807   6.890   6.702
   17CHTO  H180 6858   6.794   6.998   6.711
   17CHTO   N16 6859   6.936   6.873   6.631
   17CHTO  H172 6860   6.954   6.768   6.612
   17CHTO  H173 6861   6.935   6.928   6.539
   17CHTO   C94 6862   6.813   6.828   0.100
   17CHTO  H181 6863   6.889   6.749   0.108
   17CHTO   O61 6864   6.689   6.765   0.136
   17CHTO   C95 6865   6.653   6.651   0.055
   17CHTO  H182 6866   6.723   6.570   0.076
   17CHTO  C106 6867   6.513   6.601   0.103
   17CHTO   O69 6868   6.481   6.474   0.046
   17CHTO  H169 6869   6.537   6.408   0.083
   17CHTO   O63 6870   6.849   6.944   0.205
   17CHTO   C96 6871   6.725   7.027   0.263
   17CHTO  H183 6872   6.632   6.987   0.222
   17CHTO   C98 6873   6.729   7.179   0.231
   17CHTO  H185 6874   6.828   7.219   0.259
   17CHTO   O67 6875   6.721   7.193   0.088
   17CHTO  H167 6876   6.733   7.283   0.064
   17CHTO  C102 6877   6.612   7.261   0.304
   17CHTO  H189 6878   6.519   7.231   0.253
   17CHTO   N18 6879   6.621   7.409   0.287
   17CHTO  H176 6880   6.537   7.457   0.336
   17CHTO  H177 6881   6.713   7.445   0.329
   17CHTO  C105 6882   6.601   7.219   0.453
   17CHTO  H192 6883   6.684   7.263   0.509
   17CHTO   O65 6884   6.604   7.077   0.473
   17CHTO  C100 6885   6.720   7.010   0.419
   17CHTO  H187 6886   6.810   7.057   0.463
   17CHTO  C107 6887   6.718   6.862   0.465
   17CHTO   O70 6888   6.600   6.793   0.422
   17CHTO  H170 6889   6.601   6.783   0.329
   17CHTO   O57 6890   6.459   7.274   0.506
   17CHTO   C85 6891   6.461   7.360   0.620
   17CHTO  H157 6892   6.558   7.415   0.617
   17CHTO   C83 6893   6.463   7.276   0.751
   17CHTO  H155 6894   6.549   7.210   0.748
   17CHTO   O56 6895   6.347   7.190   0.755
   17CHTO  H135 6896   6.268   7.241   0.763
   17CHTO   C81 6897   6.477   7.372   0.873
   17CHTO  H153 6898   6.572   7.425   0.863
   17CHTO   N14 6899   6.493   7.298   1.001
   17CHTO  H141 6900   6.404   7.243   1.023
   17CHTO  H142 6901   6.575   7.230   0.995
   17CHTO   C79 6902   6.361   7.478   0.875
   17CHTO  H151 6903   6.388   7.554   0.950
   17CHTO   O52 6904   6.353   7.548   0.747
   17CHTO   C86 6905   6.339   7.460   0.631
   17CHTO  H158 6906   6.243   7.406   0.647
   17CHTO   C90 6907   6.319   7.544   0.503
   17CHTO   O60 6908   6.277   7.463   0.392
   17CHTO  H138 6909   6.266   7.517   0.316
   17CHTO   O50 6910   6.232   7.426   0.911
   17CHTO   C73 6911   6.111   7.490   0.954
   17CHTO  H145 6912   6.103   7.590   0.910
   17CHTO   C74 6913   6.107   7.505   1.110
   17CHTO  H146 6914   6.194   7.565   1.139
   17CHTO   O54 6915   5.990   7.582   1.145
   17CHTO  H133 6916   5.912   7.536   1.121
   17CHTO   C75 6917   6.109   7.362   1.177
   17CHTO  H147 6918   6.206   7.315   1.154
   17CHTO   N13 6919   6.099   7.363   1.325
   17CHTO  H139 6920   6.186   7.317   1.369
   17CHTO  H140 6921   6.090   7.464   1.362
   17CHTO   C76 6922   5.996   7.268   1.112
   17CHTO  H148 6923   5.899   7.301   1.148
   17CHTO   O49 6924   5.999   7.273   0.965
   17CHTO   C77 6925   5.989   7.405   0.909
   17CHTO  H149 6926   5.897   7.454   0.942
   17CHTO   C88 6927   5.978   7.392   0.757
   17CHTO   O58 6928   5.955   7.525   0.692
   17CHTO  H136 6929   6.031   7.579   0.702
   17CHTO   O51 6930   6.026   7.112   1.149
   17CHTO   C78 6931   5.924   7.011   1.081
   17CHTO  H150 6932   5.861   7.062   1.006
   17CHTO   C80 6933   5.833   6.947   1.188
   17CHTO  H152 6934   5.897   6.896   1.264
   17CHTO   O55 6935   5.760   7.053   1.253
   17CHTO  H134 6936   5.818   7.105   1.305
   17CHTO   C84 6937   5.736   6.841   1.122
   17CHTO  H156 6938   5.668   6.895   1.055
   17CHTO   N15 6939   5.650   6.770   1.222
   17CHTO  H143 6940   5.588   6.841   1.274
   17CHTO  H144 6941   5.711   6.719   1.293
   17CHTO   C87 6942   5.816   6.740   1.036
   17CHTO  H159 6943   5.873   6.674   1.102
   17CHTO   O53 6944   5.911   6.815   0.940
   17CHTO   C82 6945   6.003   6.902   1.007
   17CHTO  H154 6946   6.063   6.844   1.078
   17CHTO   C89 6947   6.102   6.961   0.903
   17CHTO   O59 6948   6.036   7.030   0.796
   17CHTO  H137 6949   5.995   7.108   0.829
   17CHTO   O45 6950   5.717   6.650   0.944
   17CHTO   C67 6951   5.782   6.535   0.887
   17CHTO  H124 6952   5.874   6.512   0.941
   17CHTO   C65 6953   5.686   6.413   0.895
   17CHTO  H122 6954   5.642   6.416   0.995
   17CHTO   O44 6955   5.762   6.292   0.881
   17CHTO  H102 6956   5.707   6.218   0.897
   17CHTO   C63 6957   5.566   6.433   0.794
   17CHTO  H120 6958   5.518   6.528   0.816
   17CHTO   N11 6959   5.453   6.336   0.811
   17CHTO  H108 6960   5.485   6.237   0.785
   17CHTO  H109 6961   5.418   6.337   0.912
   17CHTO   C61 6962   5.624   6.443   0.648
   17CHTO  H118 6963   5.538   6.469   0.584
   17CHTO   O40 6964   5.719   6.552   0.637
   17CHTO   C68 6965   5.825   6.567   0.737
   17CHTO  H125 6966   5.853   6.674   0.735
   17CHTO   C72 6967   5.951   6.488   0.695
   17CHTO   O48 6968   6.015   6.544   0.580
   17CHTO  H105 6969   5.961   6.534   0.504
   17CHTO   O38 6970   5.687   6.321   0.600
   17CHTO   C55 6971   5.672   6.279   0.462
   17CHTO  H112 6972   5.744   6.197   0.451
   17CHTO   C56 6973   5.697   6.394   0.354
   17CHTO  H113 6974   5.632   6.479   0.380
   17CHTO   O42 6975   5.833   6.440   0.367
   17CHTO  H100 6976   5.847   6.514   0.310
   17CHTO   C57 6977   5.666   6.343   0.208
   17CHTO  H114 6978   5.739   6.266   0.184
   17CHTO   N10 6979   5.676   6.449   0.104
   17CHTO  H106 6980   5.704   6.405   0.009
   17CHTO  H107 6981   5.750   6.522   0.132
   17CHTO   C58 6982   5.524   6.279   0.207
   17CHTO  H115 6983   5.450   6.357   0.237
   17CHTO   O37 6984   5.519   6.172   0.302
   17CHTO   C59 6985   5.532   6.214   0.439
   17CHTO  H116 6986   5.452   6.284   0.463
   17CHTO   C70 6987   5.512   6.091   0.529
   17CHTO   O46 6988   5.608   5.987   0.509
   17CHTO  H103 6989   5.589   5.915   0.566
   17CHTO   O39 6990   5.482   6.213   0.058
   17CHTO   C60 6991   5.348   6.246   0.019
   17CHTO  H117 6992   5.302   6.311   0.093
   17CHTO   C62 6993   5.344   6.324   6.632
   17CHTO  H119 6994   5.408   6.414   6.647
   17CHTO   O43 6995   5.402   6.243   6.527
   17CHTO  H101 6996   5.493   6.230   6.543
   17CHTO   C66 6997   5.193   6.371   6.603
   17CHTO  H123 6998   5.159   6.432   6.687
   17CHTO   N12 6999   5.182   6.459   6.484
   17CHTO  H110 7000   5.079   6.488   6.469
   17CHTO  H111 7001   5.246   6.545   6.495
   17CHTO   C69 7002   5.099   6.248   6.594
   17CHTO  H126 7003   5.123   6.187   6.504
   17CHTO   O41 7004   5.115   6.159   6.723
   17CHTO   C64 7005   5.258   6.120   0.009
   17CHTO  H121 7006   5.298   6.053   6.678
   17CHTO   C71 7007   5.256   6.039   0.141
   17CHTO   O47 7008   5.199   6.115   0.248
   17CHTO  H104 7009   5.201   6.064   0.327
   17CHTO   O34 7010   4.944   6.292   6.585
   17CHTO   C49 7011   4.812   6.365   6.630
   17CHTO   H91 7012   4.801   6.453   6.566
   17CHTO   C47 7013   4.826   6.409   0.029
   17CHTO   H89 7014   4.733   6.467   0.049
   17CHTO   O33 7015   4.937   6.497   0.045
   17CHTO   H70 7016   4.938   6.534   0.131
   17CHTO   C45 7017   4.837   6.280   0.127
   17CHTO   H87 7018   4.944   6.258   0.143
   17CHTO    N8 7019   4.778   6.316   0.259
   17CHTO   H75 7020   4.828   6.403   0.300
   17CHTO   H76 7021   4.788   6.233   0.327
   17CHTO   C43 7022   4.776   6.149   0.055
   17CHTO   H85 7023   4.856   6.114   6.739
   17CHTO   O29 7024   4.659   6.184   6.728
   17CHTO   C50 7025   4.684   6.275   6.619
   17CHTO   H92 7026   4.690   6.217   6.526
   17CHTO   C54 7027   4.553   6.358   6.602
   17CHTO   O36 7028   4.556   6.441   6.485
   17CHTO   H72 7029   4.475   6.489   6.479
   17CHTO   O27 7030   4.751   6.039   0.144
   17CHTO   C37 7031   4.822   5.932   0.209
   17CHTO   H79 7032   4.921   5.968   0.243
   17CHTO   C38 7033   4.745   5.883   0.335
   17CHTO   H80 7034   4.641   5.861   0.305
   17CHTO   O31 7035   4.743   5.992   0.430
   17CHTO   H68 7036   4.689   6.062   0.398
   17CHTO   C39 7037   4.810   5.754   0.398
   17CHTO   H81 7038   4.908   5.783   0.436
   17CHTO    N7 7039   4.733   5.698   0.515
   17CHTO   H73 7040   4.784   5.612   0.555
   17CHTO   H74 7041   4.633   5.671   0.484
   17CHTO   C40 7042   4.832   5.644   0.287
   17CHTO   H82 7043   4.735   5.606   0.255
   17CHTO   O26 7044   4.905   5.702   0.178
   17CHTO   C41 7045   4.844   5.815   0.109
   17CHTO   H83 7046   4.748   5.784   0.065
   17CHTO   C52 7047   4.941   5.852   6.743
   17CHTO   O35 7048   4.969   5.739   6.650
   17CHTO   H71 7049   5.016   5.672   6.695
   17CHTO   O28 7050   4.908   5.529   0.332
   17CHTO   C42 7051   5.054   5.514   0.323
   17CHTO   H84 7052   5.074   5.428   0.387
   17CHTO   C44 7053   5.137   5.633   0.384
   17CHTO   H86 7054   5.099   5.726   0.343
   17CHTO   O32 7055   5.112   5.634   0.525
   17CHTO   H69 7056   5.146   5.556   0.566
   17CHTO   C48 7057   5.292   5.626   0.351
   17CHTO   H90 7058   5.336   5.544   0.407
   17CHTO    N9 7059   5.363   5.750   0.396
   17CHTO   H77 7060   5.321   5.837   0.347
   17CHTO   H78 7061   5.355   5.760   0.503
   17CHTO   C51 7062   5.310   5.598   0.197
   17CHTO   H93 7063   5.259   5.679   0.143
   17CHTO   O30 7064   5.251   5.471   0.170
   17CHTO   C46 7065   5.102   5.476   0.179
   17CHTO   H88 7066   5.067   5.550   0.106
   17CHTO   C53 7067   5.046   5.337   0.140
   17CHTO   O72 7068   5.080   5.305   0.004
   17CHTO  H199 7069   5.045   5.221   6.731
   17CHTO   O22 7070   5.446   5.583   0.154
   17CHTO   C31 7071   5.509   5.662   0.046
   17CHTO   H59 7072   5.585   5.596   0.000
   17CHTO   C29 7073   5.416   5.709   6.679
   17CHTO   H57 7074   5.338   5.774   6.722
   17CHTO   O21 7075   5.349   5.594   6.625
   17CHTO   H37 7076   5.410   5.538   6.581
   17CHTO   C27 7077   5.494   5.791   6.568
   17CHTO   H55 7078   5.564   5.723   6.518
   17CHTO    N5 7079   5.404   5.850   6.466
   17CHTO   H43 7080   5.463   5.898   6.389
   17CHTO   H44 7081   5.338   5.922   6.512
   17CHTO   C25 7082   5.583   5.902   6.637
   17CHTO   H53 7083   5.517   5.980   6.680
   17CHTO   O17 7084   5.663   5.845   6.744
   17CHTO   C32 7085   5.587   5.785   0.101
   17CHTO   H60 7086   5.516   5.857   0.142
   17CHTO   C36 7087   5.687   5.744   0.211
   17CHTO   O25 7088   5.748   5.860   0.270
   17CHTO   H40 7089   5.807   5.900   0.209
   17CHTO   O15 7090   5.681   5.967   6.536
   17CHTO   C19 7091   5.789   6.060   6.505
   17CHTO   H47 7092   5.872   5.993   6.476
   17CHTO   C20 7093   5.757   6.153   6.385
   17CHTO   H48 7094   5.664   6.210   6.401
   17CHTO   O19 7095   5.736   6.067   6.271
   17CHTO   H35 7096   5.656   6.019   6.280
   17CHTO   C21 7097   5.873   6.257   6.357
   17CHTO   H49 7098   5.963   6.203   6.328
   17CHTO    N4 7099   5.840   6.351   6.246
   17CHTO   H41 7100   5.914   6.343   6.168
   17CHTO   H42 7101   5.836   6.453   6.280
   17CHTO   C22 7102   5.904   6.330   6.491
   17CHTO   H50 7103   5.814   6.383   6.523
   17CHTO   O14 7104   5.943   6.233   6.590
   17CHTO   C23 7105   5.840   6.141   6.629
   17CHTO   H51 7106   5.759   6.198   6.677
   17CHTO   C34 7107   5.903   6.047   6.734
   17CHTO   O23 7108   5.939   6.116   0.106
   17CHTO   H38 7109   5.861   6.144   0.151
   17CHTO   O16 7110   6.017   6.419   6.483
   17CHTO   C24 7111   6.005   6.544   6.587
   17CHTO   H52 7112   5.919   6.534   6.653
   17CHTO   C26 7113   5.992   6.675   6.506
   17CHTO   H54 7114   6.078   6.682   6.436
   17CHTO   O20 7115   5.872   6.667   6.427
   17CHTO   H36 7116   5.796   6.664   6.483
   17CHTO   C30 7117   5.995   6.799   6.600
   17CHTO   H58 7118   5.905   6.800   6.664
   17CHTO    N6 7119   5.992   6.926   6.522
   17CHTO   H45 7120   5.902   6.930   6.463
   17CHTO   H46 7121   5.993   7.011   6.589
   17CHTO   C33 7122   6.118   6.793   6.696
   17CHTO   H61 7123   6.211   6.804   6.638
   17CHTO   O18 7124   6.122   6.665   0.014
   17CHTO   C28 7125   6.131   6.550   6.677
   17CHTO   H56 7126   6.220   6.557   6.614
   17CHTO   C35 7127   6.145   6.424   0.017
   17CHTO   O24 7128   6.035   6.406   0.107
   17CHTO   H39 7129   6.048   6.328   0.158
   17CHTO    O9 7130   6.119   6.901   0.043
   17CHTO   C13 7131   6.264   6.919   0.120
   17CHTO   H26 7132   6.343   6.870   0.059
   17CHTO   C11 7133   6.261   6.861   0.270
   17CHTO   H24 7134   6.348   6.795   0.282
   17CHTO    O8 7135   6.144   6.778   0.285
   17CHTO    H3 7136   6.146   6.734   0.368
   17CHTO    C9 7137   6.275   6.975   0.376
   17CHTO   H22 7138   6.379   7.011   0.366
   17CHTO    N2 7139   6.267   6.932   0.517
   17CHTO   H10 7140   6.290   7.015   0.582
   17CHTO   H11 7141   6.336   6.851   0.535
   17CHTO    C7 7142   6.179   7.093   0.336
   17CHTO   H20 7143   6.192   7.170   0.416
   17CHTO    O4 7144   6.219   7.152   0.210
   17CHTO   C14 7145   6.300   7.074   0.120
   17CHTO   H27 7146   6.406   7.084   0.150
   17CHTO   C18 7147   6.289   7.135   6.726
   17CHTO   O13 7148   6.340   7.268   6.722
   17CHTO    H7 7149   6.282   7.326   0.021
   17CHTO    O2 7150   6.022   7.047   0.323
   17CHTO    C1 7151   5.940   7.071   0.439
   17CHTO   H14 7152   6.004   7.098   0.526
   17CHTO    C2 7153   5.851   6.945   0.478
   17CHTO   H15 7154   5.802   6.913   0.385
   17CHTO    O6 7155   5.937   6.839   0.523
   17CHTO    H1 7156   5.984   6.865   0.600
   17CHTO    C3 7157   5.740   6.980   0.590
   17CHTO   H16 7158   5.791   6.989   0.687
   17CHTO    N1 7159   5.639   6.869   0.604
   17CHTO    H8 7160   5.689   6.778   0.635
   17CHTO    H9 7161   5.588   6.853   0.510
   17CHTO    C4 7162   5.671   7.119   0.564
   17CHTO   H17 7163   5.602   7.109   0.479
   17CHTO    O1 7164   5.770   7.219   0.534
   17CHTO    C5 7165   5.846   7.193   0.414
   17CHTO   H18 7166   5.778   7.167   0.332
   17CHTO   C16 7167   5.922   7.322   0.376
   17CHTO   O11 7168   5.832   7.429   0.347
   17CHTO    H5 7169   5.880   7.506   0.324
   17CHTO    O3 7170   5.597   7.159   0.681
   17CHTO    C6 7171   5.572   7.301   0.710
   17CHTO   H19 7172   5.659   7.364   0.688
   17CHTO    C8 7173   5.452   7.357   0.628
   17CHTO   H21 7174   5.364   7.295   0.649
   17CHTO    O7 7175   5.485   7.349   0.488
   17CHTO    H2 7176   5.558   7.404   0.468
   17CHTO   C12 7177   5.421   7.505   0.673
   17CHTO   H25 7178   5.508   7.565   0.640
   17CHTO    N3 7179   5.301   7.562   0.601
   17CHTO   H12 7180   5.319   7.563   0.495
   17CHTO   H13 7181   5.213   7.503   0.624
   17CHTO   C15 7182   5.410   7.514   0.830
   17CHTO   H28 7183   5.319   7.468   0.867
   17CHTO   O10 7184   5.419   7.657   0.881
   17CHTO    H4 7185   5.495   7.700   0.847
   17CHTO    O5 7186   5.525   7.455   0.893
   17CHTO   C10 7187   5.543   7.317   0.862
   17CHTO   H23 7188   5.453   7.262   0.889
   17CHTO   C17 7189   5.657   7.261   0.947
   17CHTO   O12 7190   5.635   7.279   1.087
   17CHTO    H6 7191   5.705   7.241   1.135
   18CHTO  H203 7192   6.557   8.037   1.552
   18CHTO   O82 7193   6.539   7.987   1.474
   18CHTO  C123 7194   6.642   7.889   1.454
   18CHTO  H227 7195   6.645   7.822   1.542
   18CHTO   O77 7196   6.595   7.816   1.337
   18CHTO  C118 7197   6.676   7.702   1.307
   18CHTO  H222 7198   6.688   7.641   1.399
   18CHTO  C125 7199   6.601   7.615   1.200
   18CHTO   O84 7200   6.577   7.684   1.077
   18CHTO  H205 7201   6.515   7.754   1.092
   18CHTO  C114 7202   6.816   7.747   1.261
   18CHTO  H218 7203   6.805   7.803   1.168
   18CHTO  C116 7204   6.883   7.842   1.366
   18CHTO  H220 7205   6.923   7.779   1.450
   18CHTO   O79 7206   6.997   7.905   1.305
   18CHTO  H201 7207   7.045   7.954   1.369
   18CHTO  C120 7208   6.783   7.952   1.423
   18CHTO  H224 7209   6.773   8.028   1.343
   18CHTO   N21 7210   6.839   8.021   1.542
   18CHTO  H211 7211   6.800   8.121   1.548
   18CHTO  H212 7212   6.947   8.023   1.537
   18CHTO   O75 7213   6.884   7.623   1.234
   18CHTO  C112 7214   7.048   7.619   1.207
   18CHTO  H216 7215   7.100   7.643   1.301
   18CHTO   O73 7216   7.078   7.715   1.103
   18CHTO  C113 7217   7.217   7.718   1.067
   18CHTO  H217 7218   7.279   7.730   1.159
   18CHTO  C124 7219   7.245   7.840   0.979
   18CHTO   O83 7220   7.219   7.964   1.045
   18CHTO  H204 7221   7.283   7.978   1.113
   18CHTO  C109 7222   7.253   7.585   0.997
   18CHTO  H213 7223   7.182   7.573   0.913
   18CHTO  C110 7224   7.232   7.470   1.101
   18CHTO  H214 7225   7.305   7.481   1.181
   18CHTO   O78 7226   7.260   7.343   1.037
   18CHTO  H200 7227   7.200   7.328   0.967
   18CHTO  C111 7228   7.088   7.473   1.159
   18CHTO  H215 7229   7.017   7.446   1.079
   18CHTO   N19 7230   7.065   7.377   1.271
   18CHTO  H207 7231   7.154   7.320   1.292
   18CHTO  H208 7232   6.984   7.310   1.246
   18CHTO   O74 7233   7.390   7.585   0.945
   18CHTO  C115 7234   7.396   7.528   0.794
   18CHTO  H219 7235   7.331   7.441   0.781
   18CHTO   O76 7236   7.342   7.633   0.690
   18CHTO  C122 7237   7.439   7.732   0.654
   18CHTO  H226 7238   7.470   7.783   0.745
   18CHTO  C126 7239   7.373   7.841   0.563
   18CHTO   O85 7240   7.273   7.915   0.633
   18CHTO  H206 7241   7.236   7.979   0.576
   18CHTO  C121 7242   7.565   7.668   0.582
   18CHTO  H225 7243   7.552   7.680   0.472
   18CHTO   O81 7244   7.680   7.743   0.620
   18CHTO  H202 7245   7.698   7.733   0.711
   18CHTO  C119 7246   7.582   7.516   0.614
   18CHTO  H223 7247   7.509   7.464   0.552
   18CHTO  C117 7248   7.546   7.485   0.764
   18CHTO  H221 7249   7.607   7.538   0.838
   18CHTO   N20 7250   7.565   7.339   0.795
   18CHTO  H209 7251   7.667   7.311   0.775
   18CHTO  H210 7252   7.542   7.320   0.899
   18CHTO   O80 7253   7.726   7.452   0.557
   18CHTO  C103 7254   7.733   7.378   0.412
   18CHTO  H190 7255   7.833   7.338   0.396
   18CHTO  C101 7256   7.629   7.262   0.386
   18CHTO  H188 7257   7.529   7.296   0.411
   18CHTO   O68 7258   7.664   7.142   0.480
   18CHTO  H168 7259   7.747   7.106   0.458
   18CHTO   C99 7260   7.630   7.218   0.231
   18CHTO  H186 7261   7.729   7.177   0.206
   18CHTO   N17 7262   7.530   7.111   0.195
   18CHTO  H174 7263   7.465   7.090   0.279
   18CHTO  H175 7264   7.473   7.138   0.108
   18CHTO   C97 7265   7.612   7.345   0.144
   18CHTO  H184 7266   7.512   7.387   0.165
   18CHTO   O64 7267   7.717   7.440   0.172
   18CHTO  C104 7268   7.713   7.493   0.305
   18CHTO  H191 7269   7.617   7.542   0.323
   18CHTO  C108 7270   7.820   7.602   0.317
   18CHTO   O71 7271   7.951   7.552   0.288
   18CHTO  H171 7272   8.013   7.622   0.296
   18CHTO   O62 7273   7.631   7.324   0.003
   18CHTO   C91 7274   7.547   7.397   6.658
   18CHTO  H178 7275   7.450   7.348   6.657
   18CHTO   C92 7276   7.609   7.376   6.516
   18CHTO  H179 7277   7.710   7.421   6.515
   18CHTO   O66 7278   7.629   7.236   6.492
   18CHTO  H166 7279   7.694   7.201   6.550
   18CHTO   C93 7280   7.519   7.436   6.401
   18CHTO  H180 7281   7.439   7.363   6.383
   18CHTO   N16 7282   7.588   7.448   6.271
   18CHTO  H172 7283   7.621   7.351   6.237
   18CHTO  H173 7284   7.673   7.515   6.280
   18CHTO   C94 7285   7.452   7.572   6.446
   18CHTO  H181 7286   7.459   7.649   6.368
   18CHTO   O61 7287   7.518   7.631   6.559
   18CHTO   C95 7288   7.529   7.554   6.681
   18CHTO  H182 7289   7.616   7.589   6.736
   18CHTO  C106 7290   7.404   7.588   0.023
   18CHTO   O69 7291   7.410   7.722   0.072
   18CHTO  H169 7292   7.481   7.731   0.133
   18CHTO   O63 7293   7.294   7.542   6.477
   18CHTO   C96 7294   7.191   7.619   6.380
   18CHTO  H183 7295   7.091   7.584   6.405
   18CHTO   C98 7296   7.213   7.593   6.228
   18CHTO  H185 7297   7.319   7.603   6.203
   18CHTO   O67 7298   7.181   7.455   6.204
   18CHTO  H167 7299   7.199   7.432   6.115
   18CHTO  C102 7300   7.124   7.692   6.135
   18CHTO  H189 7301   7.019   7.665   6.155
   18CHTO   N18 7302   7.143   7.675   5.989
   18CHTO  H176 7303   7.120   7.573   5.960
   18CHTO  H177 7304   7.079   7.743   5.935
   18CHTO  C105 7305   7.149   7.837   6.183
   18CHTO  H192 7306   7.254   7.863   6.168
   18CHTO   O65 7307   7.117   7.851   6.323
   18CHTO  C100 7308   7.196   7.773   6.412
   18CHTO  H187 7309   7.300   7.807   6.403
   18CHTO  C107 7310   7.150   7.802   6.556
   18CHTO   O70 7311   7.009   7.779   6.573
   18CHTO  H170 7312   6.985   7.798   6.662
   18CHTO   O57 7313   7.053   7.938   6.098
   18CHTO   C85 7314   7.081   8.079   6.097
   18CHTO  H157 7315   7.192   8.087   6.090
   18CHTO   C83 7316   7.042   8.145   6.233
   18CHTO  H155 7317   7.108   8.106   6.310
   18CHTO   O56 7318   6.908   8.105   6.268
   18CHTO  H135 7319   6.887   8.136   6.354
   18CHTO   C81 7320   7.061   8.299   6.224
   18CHTO  H153 7321   7.166   8.319   6.200
   18CHTO   N14 7322   7.041   8.368   6.355
   18CHTO  H141 7323   6.939   8.359   6.386
   18CHTO  H142 7324   7.067   8.471   6.346
   18CHTO   C79 7325   6.972   8.358   6.109
   18CHTO  H151 7326   6.993   8.465   6.103
   18CHTO   O52 7327   7.014   8.300   5.981
   18CHTO   C86 7328   7.010   8.153   5.977
   18CHTO  H158 7329   6.902   8.130   5.975
   18CHTO   C90 7330   7.066   8.103   5.841
   18CHTO   O60 7331   7.202   8.142   5.822
   18CHTO  H138 7332   7.208   8.235   5.809
   18CHTO   O50 7333   6.831   8.340   6.129
   18CHTO   C73 7334   6.705   8.376   6.069
   18CHTO  H145 7335   6.714   8.373   5.959
   18CHTO   C74 7336   6.661   8.520   6.111
   18CHTO  H146 7337   6.742   8.588   6.080
   18CHTO   O54 7338   6.545   8.556   6.034
   18CHTO  H133 7339   6.473   8.501   6.055
   18CHTO   C75 7340   6.638   8.523   6.267
   18CHTO  H147 7341   6.734   8.502   6.317
   18CHTO   N13 7342   6.595   8.655   6.319
   18CHTO  H139 7343   6.670   8.730   6.296
   18CHTO  H140 7344   6.584   8.651   6.426
   18CHTO   C76 7345   6.537   8.406   6.309
   18CHTO  H148 7346   6.438   8.431   6.270
   18CHTO   O49 7347   6.580   8.276   6.257
   18CHTO   C77 7348   6.596   8.274   6.114
   18CHTO  H149 7349   6.502   8.299   6.065
   18CHTO   C88 7350   6.629   8.131   6.070
   18CHTO   O58 7351   6.635   8.118   5.921
   18CHTO  H136 7352   6.708   8.167   5.888
   18CHTO   O51 7353   6.538   8.389   6.467
   18CHTO   C78 7354   6.426   8.298   6.530
   18CHTO  H150 7355   6.405   8.210   6.465
   18CHTO   C80 7356   6.294   8.378   6.549
   18CHTO  H152 7357   6.319   8.478   6.592
   18CHTO   O55 7358   6.238   8.399   6.418
   18CHTO  H134 7359   6.162   8.453   6.424
   18CHTO   C84 7360   6.193   8.303   6.645
   18CHTO  H156 7361   6.164   8.209   6.598
   18CHTO   N15 7362   6.067   8.381   6.672
   18CHTO  H143 7363   5.981   8.325   6.640
   18CHTO  H144 7364   6.068   8.475   6.620
   18CHTO   C87 7365   6.269   8.272   0.027
   18CHTO  H159 7366   6.308   8.366   0.068
   18CHTO   O53 7367   6.381   8.180   6.740
   18CHTO   C82 7368   6.482   8.245   6.663
   18CHTO  H154 7369   6.526   8.326   6.721
   18CHTO   C89 7370   6.595   8.143   6.635
   18CHTO   O59 7371   6.656   8.098   0.008
   18CHTO  H137 7372   6.595   8.045   0.056
   18CHTO   O45 7373   6.182   8.196   0.139
   18CHTO   C67 7374   6.222   8.233   0.273
   18CHTO  H124 7375   6.318   8.286   0.269
   18CHTO   C65 7376   6.115   8.328   0.337
   18CHTO  H122 7377   6.020   8.303   0.289
   18CHTO   O44 7378   6.152   8.462   0.301
   18CHTO  H102 7379   6.145   8.474   0.208
   18CHTO   C63 7380   6.091   8.298   0.491
   18CHTO  H120 7381   6.030   8.208   0.499
   18CHTO   N11 7382   6.006   8.396   0.566
   18CHTO  H108 7383   6.053   8.427   0.656
   18CHTO  H109 7384   5.986   8.483   0.505
   18CHTO   C61 7385   6.228   8.264   0.559
   18CHTO  H118 7386   6.205   8.232   0.662
   18CHTO   O40 7387   6.298   8.153   0.495
   18CHTO   C68 7388   6.249   8.107   0.364
   18CHTO  H125 7389   6.157   8.048   0.379
   18CHTO   C72 7390   6.356   8.012   0.306
   18CHTO   O48 7391   6.314   7.944   0.187
   18CHTO  H105 7392   6.305   8.006   0.117
   18CHTO   O38 7393   6.316   8.378   0.562
   18CHTO   C55 7394   6.431   8.367   0.648
   18CHTO  H112 7395   6.455   8.261   0.668
   18CHTO   C56 7396   6.408   8.447   0.782
   18CHTO  H113 7397   6.388   8.551   0.753
   18CHTO   O42 7398   6.290   8.400   0.848
   18CHTO  H100 7399   6.272   8.452   0.924
   18CHTO   C57 7400   6.537   8.438   0.873
   18CHTO  H114 7401   6.547   8.333   0.902
   18CHTO   N10 7402   6.528   8.518   0.998
   18CHTO  H106 7403   6.484   8.458   1.077
   18CHTO  H107 7404   6.468   8.606   0.983
   18CHTO   C58 7405   6.663   8.479   0.793
   18CHTO  H115 7406   6.663   8.590   0.778
   18CHTO   O37 7407   6.670   8.416   0.664
   18CHTO   C59 7408   6.556   8.426   0.577
   18CHTO  H116 7409   6.540   8.531   0.552
   18CHTO   C70 7410   6.586   8.351   0.447
   18CHTO   O46 7411   6.621   8.213   0.465
   18CHTO  H103 7412   6.546   8.165   0.496
   18CHTO   O39 7413   6.806   8.432   0.881
   18CHTO   C60 7414   6.842   8.295   0.854
   18CHTO  H117 7415   6.752   8.240   0.827
   18CHTO   C62 7416   6.942   8.288   0.735
   18CHTO  H119 7417   6.899   8.351   0.655
   18CHTO   O43 7418   7.070   8.346   0.769
   18CHTO  H101 7419   7.060   8.438   0.786
   18CHTO   C66 7420   6.948   8.138   0.685
   18CHTO  H123 7421   6.846   8.104   0.665
   18CHTO   N12 7422   7.021   8.124   0.556
   18CHTO  H110 7423   6.971   8.181   0.479
   18CHTO  H111 7424   7.123   8.156   0.568
   18CHTO   C69 7425   7.005   8.047   0.797
   18CHTO  H126 7426   7.113   8.070   0.812
   18CHTO   O41 7427   6.924   8.072   0.938
   18CHTO   C64 7428   6.904   8.222   0.976
   18CHTO  H121 7429   7.002   8.268   1.002
   18CHTO   C71 7430   6.813   8.227   1.101
   18CHTO   O47 7431   6.810   8.358   1.159
   18CHTO  H104 7432   6.765   8.418   1.101
   18CHTO   O34 7433   6.992   7.894   0.758
   18CHTO   C49 7434   6.941   7.752   0.725
   18CHTO   H91 7435   7.028   7.687   0.720
   18CHTO   C47 7436   6.869   7.754   0.588
   18CHTO   H89 7437   6.848   7.646   0.567
   18CHTO   O33 7438   6.957   7.802   0.485
   18CHTO   H70 7439   6.979   7.892   0.500
   18CHTO   C45 7440   6.732   7.840   0.593
   18CHTO   H87 7441   6.754   7.943   0.561
   18CHTO    N8 7442   6.636   7.781   0.495
   18CHTO   H75 7443   6.607   7.682   0.527
   18CHTO   H76 7444   6.549   7.844   0.488
   18CHTO   C43 7445   6.678   7.853   0.745
   18CHTO   H85 7446   6.736   7.934   0.789
   18CHTO   O29 7447   6.700   7.729   0.814
   18CHTO   C50 7448   6.840   7.697   0.832
   18CHTO   H92 7449   6.870   7.737   0.929
   18CHTO   C54 7450   6.855   7.544   0.852
   18CHTO   O36 7451   6.806   7.468   0.741
   18CHTO   H72 7452   6.817   7.377   0.757
   18CHTO   O27 7453   6.542   7.898   0.756
   18CHTO   C37 7454   6.442   7.917   0.857
   18CHTO   H79 7455   6.419   7.821   0.906
   18CHTO   C38 7456   6.488   8.017   0.969
   18CHTO   H80 7457   6.518   8.111   0.920
   18CHTO   O31 7458   6.604   7.961   1.034
   18CHTO   H68 7459   6.677   7.960   0.975
   18CHTO   C39 7460   6.372   8.045   1.073
   18CHTO   H81 7461   6.352   7.951   1.124
   18CHTO    N7 7462   6.409   8.146   1.179
   18CHTO   H73 7463   6.346   8.233   1.174
   18CHTO   H74 7464   6.513   8.174   1.171
   18CHTO   C40 7465   6.239   8.087   0.997
   18CHTO   H82 7466   6.251   8.187   0.956
   18CHTO   O26 7467   6.210   7.990   0.895
   18CHTO   C41 7468   6.312   7.973   0.794
   18CHTO   H83 7469   6.335   8.071   0.749
   18CHTO   C52 7470   6.252   7.884   0.682
   18CHTO   O35 7471   6.178   7.767   0.733
   18CHTO   H71 7472   6.237   7.708   0.776
   18CHTO   O28 7473   6.124   8.091   1.085
   18CHTO   C42 7474   5.984   8.079   1.040
   18CHTO   H84 7475   5.927   8.116   1.124
   18CHTO   C44 7476   5.935   7.932   1.017
   18CHTO   H86 7477   6.003   7.882   0.947
   18CHTO   O32 7478   5.946   7.864   1.143
   18CHTO   H69 7479   5.887   7.901   1.206
   18CHTO   C48 7480   5.789   7.921   0.957
   18CHTO   H90 7481   5.718   7.955   1.033
   18CHTO    N9 7482   5.751   7.779   0.926
   18CHTO   H77 7483   5.650   7.775   0.887
   18CHTO   H78 7484   5.820   7.737   0.854
   18CHTO   C51 7485   5.777   8.016   0.831
   18CHTO   H93 7486   5.848   7.981   0.756
   18CHTO   O30 7487   5.805   8.150   0.873
   18CHTO   C46 7488   5.950   8.170   0.917
   18CHTO   H88 7489   6.014   8.144   0.833
   18CHTO   C53 7490   5.968   8.320   0.951
   18CHTO   O72 7491   5.877   8.365   1.051
   18CHTO  H199 7492   5.891   8.456   1.068
   18CHTO   O22 7493   5.642   8.020   0.778
   18CHTO   C31 7494   5.614   8.052   0.637
   18CHTO   H59 7495   5.504   8.041   0.625
   18CHTO   C29 7496   5.648   8.198   0.596
   18CHTO   H57 7497   5.756   8.214   0.616
   18CHTO   O21 7498   5.576   8.287   0.683
   18CHTO   H37 7499   5.606   8.278   0.771
   18CHTO   C27 7500   5.620   8.224   0.443
   18CHTO   H55 7501   5.513   8.210   0.424
   18CHTO    N5 7502   5.658   8.361   0.398
   18CHTO   H43 7503   5.633   8.374   0.294
   18CHTO   H44 7504   5.764   8.377   0.414
   18CHTO   C25 7505   5.697   8.114   0.362
   18CHTO   H53 7506   5.804   8.121   0.389
   18CHTO   O17 7507   5.646   7.984   0.401
   18CHTO   C32 7508   5.678   7.950   0.537
   18CHTO   H60 7509   5.786   7.951   0.550
   18CHTO   C36 7510   5.627   7.807   0.562
   18CHTO   O25 7511   5.694   7.710   0.481
   18CHTO   H40 7512   5.671   7.722   0.391
   18CHTO   O15 7513   5.683   8.124   0.206
   18CHTO   C19 7514   5.728   8.037   0.097
   18CHTO   H47 7515   5.679   7.940   0.119
   18CHTO   C20 7516   5.681   8.086   6.705
   18CHTO   H48 7517   5.714   8.189   6.685
   18CHTO   O19 7518   5.537   8.086   6.708
   18CHTO   H35 7519   5.502   8.123   6.629
   18CHTO   C21 7520   5.734   7.994   6.587
   18CHTO   H49 7521   5.685   7.897   6.594
   18CHTO    N4 7522   5.701   8.048   6.452
   18CHTO   H41 7523   5.748   8.145   6.438
   18CHTO   H42 7524   5.737   7.981   6.375
   18CHTO   C22 7525   5.886   7.970   6.605
   18CHTO   H50 7526   5.939   8.065   6.590
   18CHTO   O14 7527   5.913   7.919   6.736
   18CHTO   C23 7528   5.882   8.008   0.095
   18CHTO   H51 7529   5.940   8.100   0.079
   18CHTO   C34 7530   5.938   7.942   0.221
   18CHTO   O23 7531   5.876   7.815   0.251
   18CHTO   H38 7532   5.787   7.828   0.275
   18CHTO   O16 7533   5.938   7.868   6.517
   18CHTO   C24 7534   6.100   7.869   6.513
   18CHTO   H52 7535   6.142   7.930   6.594
   18CHTO   C26 7536   6.145   7.926   6.378
   18CHTO   H54 7537   6.095   7.867   6.297
   18CHTO   O20 7538   6.099   8.062   6.367
   18CHTO   H36 7539   6.140   8.116   6.432
   18CHTO   C30 7540   6.299   7.914   6.360
   18CHTO   H58 7541   6.350   7.985   6.428
   18CHTO    N6 7542   6.341   7.953   6.222
   18CHTO   H45 7543   6.448   7.948   6.213
   18CHTO   H46 7544   6.296   7.887   6.150
   18CHTO   C33 7545   6.352   7.772   6.398
   18CHTO   H61 7546   6.320   7.699   6.322
   18CHTO   O18 7547   6.297   7.731   6.525
   18CHTO   C28 7548   6.154   7.725   6.532
   18CHTO   H56 7549   6.115   7.662   6.452
   18CHTO   C35 7550   6.113   7.666   6.668
   18CHTO   O24 7551   6.155   7.531   6.685
   18CHTO   H39 7552   6.249   7.527   6.693
   18CHTO    O9 7553   6.496   7.768   6.400
   18CHTO   C13 7554   6.564   7.629   6.348
   18CHTO   H26 7555   6.521   7.606   6.249
   18CHTO   C11 7556   6.538   7.511   6.453
   18CHTO   H24 7557   6.437   7.471   6.434
   18CHTO    O8 7558   6.542   7.562   6.587
   18CHTO    H3 7559   6.518   7.495   6.648
   18CHTO    C9 7560   6.644   7.400   6.428
   18CHTO   H22 7561   6.641   7.379   6.320
   18CHTO    N2 7562   6.612   7.270   6.492
   18CHTO   H10 7563   6.685   7.196   6.463
   18CHTO   H11 7564   6.513   7.238   6.462
   18CHTO    C7 7565   6.787   7.458   6.465
   18CHTO   H20 7566   6.857   7.396   6.406
   18CHTO    O4 7567   6.804   7.597   6.428
   18CHTO   C14 7568   6.721   7.648   6.322
   18CHTO   H27 7569   6.748   7.591   6.231
   18CHTO   C18 7570   6.762   7.796   6.295
   18CHTO   O13 7571   6.758   7.878   6.412
   18CHTO    H7 7572   6.825   7.851   6.472
   18CHTO    O2 7573   6.816   7.445   6.621
   18CHTO    C1 7574   6.952   7.441   6.667
   18CHTO   H14 7575   7.008   7.526   6.621
   18CHTO    C2 7576   7.028   7.305   6.632
   18CHTO   H15 7577   6.954   7.225   6.646
   18CHTO    O6 7578   7.070   7.308   6.494
   18CHTO    H1 7579   6.995   7.307   6.438
   18CHTO    C3 7580   7.154   7.279   6.729
   18CHTO   H16 7581   7.233   7.352   6.707
   18CHTO    N1 7582   7.214   7.142   6.709
   18CHTO    H8 7583   7.139   7.066   6.729
   18CHTO    H9 7584   7.250   7.133   6.608
   18CHTO    C4 7585   7.109   7.306   0.128
   18CHTO   H17 7586   7.025   7.240   0.151
   18CHTO    O1 7587   7.070   7.443   0.137
   18CHTO    C5 7588   6.946   7.471   0.072
   18CHTO   H18 7589   6.868   7.408   0.115
   18CHTO   C16 7590   6.914   7.619   0.104
   18CHTO   O11 7591   6.785   7.660   0.057
   18CHTO    H5 7592   6.718   7.616   0.106
   18CHTO    O3 7593   7.212   7.290   0.228
   18CHTO    C6 7594   7.159   7.258   0.361
   18CHTO   H19 7595   7.050   7.268   0.366
   18CHTO    C8 7596   7.193   7.111   0.399
   18CHTO   H21 7597   7.301   7.097   0.390
   18CHTO    O7 7598   7.126   7.025   0.304
   18CHTO    H2 7599   7.165   7.033   0.219
   18CHTO   C12 7600   7.150   7.078   0.547
   18CHTO   H25 7601   7.038   7.079   0.548
   18CHTO    N3 7602   7.193   6.940   0.588
   18CHTO   H12 7603   7.300   6.932   0.585
   18CHTO   H13 7604   7.156   6.918   0.687
   18CHTO   C15 7605   7.201   7.191   0.644
   18CHTO   H28 7606   7.309   7.187   0.658
   18CHTO   O10 7607   7.131   7.186   0.782
   18CHTO    H4 7608   7.171   7.247   0.841
   18CHTO    O5 7609   7.162   7.321   0.597
   18CHTO   C10 7610   7.217   7.355   0.468
   18CHTO   H23 7611   7.326   7.346   0.473
   18CHTO   C17 7612   7.182   7.501   0.443
   18CHTO   O12 7613   7.262   7.557   0.338
   18CHTO    H6 7614   7.238   7.647   0.325
   19CHTO  H203 7615   6.895   8.874   1.773
   19CHTO   O82 7616   6.883   8.782   1.760
   19CHTO  C123 7617   6.784   8.760   1.658
   19CHTO  H227 7618   6.819   8.807   1.564
   19CHTO   O77 7619   6.784   8.615   1.643
   19CHTO  C118 7620   6.699   8.564   1.540
   19CHTO  H222 7621   6.728   8.607   1.442
   19CHTO  C125 7622   6.723   8.409   1.537
   19CHTO   O84 7623   6.659   8.343   1.427
   19CHTO  H205 7624   6.698   8.371   1.346
   19CHTO  C114 7625   6.552   8.601   1.572
   19CHTO  H218 7626   6.523   8.551   1.664
   19CHTO  C116 7627   6.535   8.755   1.593
   19CHTO  H220 7628   6.548   8.807   1.495
   19CHTO   O79 7629   6.399   8.779   1.635
   19CHTO  H201 7630   6.384   8.871   1.642
   19CHTO  C120 7631   6.640   8.810   1.697
   19CHTO  H224 7632   6.612   8.768   1.796
   19CHTO   N21 7633   6.633   8.958   1.709
   19CHTO  H211 7634   6.698   9.006   1.637
   19CHTO  H212 7635   6.660   8.988   1.810
   19CHTO   O75 7636   6.476   8.551   1.461
   19CHTO  C112 7637   6.334   8.480   1.505
   19CHTO  H216 7638   6.280   8.547   1.573
   19CHTO   O73 7639   6.366   8.355   1.569
   19CHTO  C113 7640   6.252   8.284   1.618
   19CHTO  H217 7641   6.195   8.349   1.688
   19CHTO  C124 7642   6.299   8.162   1.698
   19CHTO   O83 7643   6.373   8.199   1.815
   19CHTO  H204 7644   6.400   8.122   1.861
   19CHTO  C109 7645   6.160   8.242   1.500
   19CHTO  H213 7646   6.218   8.172   1.438
   19CHTO  C110 7647   6.120   8.368   1.416
   19CHTO  H214 7648   6.052   8.428   1.476
   19CHTO   O78 7649   6.047   8.326   1.300
   19CHTO  H200 7650   6.101   8.272   1.244
   19CHTO  C111 7651   6.245   8.452   1.377
   19CHTO  H215 7652   6.306   8.394   1.307
   19CHTO   N19 7653   6.213   8.580   1.309
   19CHTO  H207 7654   6.161   8.560   1.216
   19CHTO  H208 7655   6.150   8.641   1.372
   19CHTO   O74 7656   6.042   8.172   1.552
   19CHTO  C115 7657   5.971   8.066   1.452
   19CHTO  H219 7658   5.916   8.116   1.372
   19CHTO   O76 7659   6.079   7.975   1.375
   19CHTO  C122 7660   6.126   7.865   1.453
   19CHTO  H226 7661   6.174   7.905   1.542
   19CHTO  C126 7662   6.239   7.793   1.372
   19CHTO   O85 7663   6.301   7.686   1.445
   19CHTO  H206 7664   6.368   7.647   1.393
   19CHTO  C121 7665   6.008   7.766   1.493
   19CHTO  H225 7666   6.011   7.679   1.424
   19CHTO   O81 7667   6.033   7.717   1.625
   19CHTO  H202 7668   6.029   7.787   1.688
   19CHTO  C119 7669   5.866   7.832   1.484
   19CHTO  H223 7670   5.843   7.837   1.378
   19CHTO  C117 7671   5.870   7.980   1.538
   19CHTO  H221 7672   5.905   7.990   1.641
   19CHTO   N20 7673   5.734   8.043   1.537
   19CHTO  H209 7674   5.696   8.046   1.436
   19CHTO  H210 7675   5.667   7.987   1.601
   19CHTO   O80 7676   5.743   7.737   1.541
   19CHTO  C103 7677   5.741   7.582   1.511
   19CHTO  H190 7678   5.831   7.551   1.457
   19CHTO  C101 7679   5.725   7.493   1.640
   19CHTO  H188 7680   5.645   7.535   1.701
   19CHTO   O68 7681   5.857   7.500   1.723
   19CHTO  H168 7682   5.927   7.461   1.674
   19CHTO   C99 7683   5.686   7.342   1.605
   19CHTO  H186 7684   5.772   7.295   1.551
   19CHTO   N17 7685   5.659   7.256   1.725
   19CHTO  H174 7686   5.657   7.315   1.815
   19CHTO  H175 7687   5.567   7.199   1.714
   19CHTO   C97 7688   5.568   7.341   1.503
   19CHTO  H184 7689   5.478   7.378   1.554
   19CHTO   O64 7690   5.602   7.419   1.388
   19CHTO  C104 7691   5.618   7.560   1.415
   19CHTO  H191 7692   5.529   7.602   1.461
   19CHTO  C108 7693   5.638   7.634   1.282
   19CHTO   O71 7694   5.522   7.624   1.198
   19CHTO  H171 7695   5.452   7.673   1.235
   19CHTO   O62 7696   5.546   7.209   1.450
   19CHTO   C91 7697   5.410   7.166   1.426
   19CHTO  H178 7698   5.345   7.215   1.499
   19CHTO   C92 7699   5.408   7.013   1.459
   19CHTO  H179 7700   5.505   6.969   1.429
   19CHTO   O66 7701   5.405   7.000   1.603
   19CHTO  H166 7702   5.413   6.910   1.628
   19CHTO   C93 7703   5.291   6.933   1.390
   19CHTO  H180 7704   5.196   6.967   1.433
   19CHTO   N16 7705   5.297   6.786   1.413
   19CHTO  H172 7706   5.292   6.765   1.519
   19CHTO  H173 7707   5.215   6.738   1.362
   19CHTO   C94 7708   5.296   6.971   1.239
   19CHTO  H181 7709   5.397   6.964   1.199
   19CHTO   O61 7710   5.256   7.108   1.231
   19CHTO   C95 7711   5.356   7.199   1.280
   19CHTO  H182 7712   5.441   7.198   1.211
   19CHTO  C106 7713   5.296   7.344   1.273
   19CHTO   O69 7714   5.272   7.385   1.138
   19CHTO  H169 7715   5.201   7.336   1.102
   19CHTO   O63 7716   5.193   6.889   1.145
   19CHTO   C96 7717   5.267   6.802   1.033
   19CHTO  H183 7718   5.322   6.723   1.085
   19CHTO   C98 7719   5.369   6.880   0.942
   19CHTO  H185 7720   5.434   6.945   1.001
   19CHTO   O67 7721   5.456   6.783   0.881
   19CHTO  H167 7722   5.524   6.826   0.833
   19CHTO  C102 7723   5.296   6.962   0.826
   19CHTO  H189 7724   5.377   6.998   0.760
   19CHTO   N18 7725   5.226   7.085   0.870
   19CHTO  H176 7726   5.149   7.060   0.943
   19CHTO  H177 7727   5.296   7.154   0.914
   19CHTO  C105 7728   5.204   6.865   0.745
   19CHTO  H192 7729   5.104   6.910   0.732
   19CHTO   O65 7730   5.185   6.734   0.803
   19CHTO  C100 7731   5.153   6.734   0.944
   19CHTO  H187 7732   5.060   6.792   0.956
   19CHTO  C107 7733   5.123   6.589   0.987
   19CHTO   O70 7734   5.075   6.584   1.122
   19CHTO  H170 7735   5.056   6.496   1.146
   19CHTO   O57 7736   5.275   6.856   0.605
   19CHTO   C85 7737   5.197   6.815   0.492
   19CHTO  H157 7738   5.095   6.793   0.531
   19CHTO   C83 7739   5.251   6.679   0.438
   19CHTO  H155 7740   5.247   6.606   0.519
   19CHTO   O56 7741   5.390   6.693   0.402
   19CHTO  H135 7742   5.424   6.609   0.376
   19CHTO   C81 7743   5.157   6.632   0.323
   19CHTO  H153 7744   5.056   6.624   0.363
   19CHTO   N14 7745   5.188   6.494   0.277
   19CHTO  H141 7746   5.185   6.427   0.360
   19CHTO  H142 7747   5.285   6.491   0.233
   19CHTO   C79 7748   5.156   6.739   0.206
   19CHTO  H151 7749   5.078   6.708   0.136
   19CHTO   O52 7750   5.115   6.870   0.258
   19CHTO   C86 7751   5.193   6.918   0.372
   19CHTO  H158 7752   5.294   6.939   0.332
   19CHTO   C90 7753   5.136   7.055   0.416
   19CHTO   O60 7754   5.222   7.123   0.508
   19CHTO  H138 7755   5.300   7.150   0.465
   19CHTO   O50 7756   5.279   6.751   0.133
   19CHTO   C73 7757   5.340   6.777   0.006
   19CHTO  H145 7758   5.322   6.693   6.686
   19CHTO   C74 7759   5.494   6.794   0.023
   19CHTO  H146 7760   5.531   6.701   0.070
   19CHTO   O54 7761   5.555   6.799   6.640
   19CHTO  H133 7762   5.546   6.717   6.597
   19CHTO   C75 7763   5.523   6.921   0.112
   19CHTO  H147 7764   5.482   6.903   0.212
   19CHTO   N13 7765   5.668   6.948   0.133
   19CHTO  H139 7766   5.714   6.865   0.183
   19CHTO  H140 7767   5.717   6.963   0.038
   19CHTO   C76 7768   5.447   7.049   0.052
   19CHTO  H148 7769   5.497   7.078   6.707
   19CHTO   O49 7770   5.306   7.021   0.025
   19CHTO   C77 7771   5.285   6.907   6.688
   19CHTO  H149 7772   5.337   6.924   6.594
   19CHTO   C88 7773   5.137   6.897   6.651
   19CHTO   O58 7774   5.094   7.011   6.568
   19CHTO  H136 7775   5.096   7.090   6.619
   19CHTO   O51 7776   5.445   7.167   0.158
   19CHTO   C78 7777   5.433   7.311   0.091
   19CHTO  H150 7778   5.397   7.304   6.735
   19CHTO   C80 7779   5.571   7.381   0.091
   19CHTO  H152 7780   5.612   7.377   0.194
   19CHTO   O55 7781   5.656   7.302   0.005
   19CHTO  H134 7782   5.743   7.336   0.007
   19CHTO   C84 7783   5.561   7.531   0.043
   19CHTO  H156 7784   5.525   7.531   6.688
   19CHTO   N15 7785   5.693   7.602   0.044
   19CHTO  H143 7786   5.681   7.703   0.011
   19CHTO  H144 7787   5.762   7.552   6.728
   19CHTO   C87 7788   5.455   7.605   0.130
   19CHTO  H159 7789   5.488   7.608   0.235
   19CHTO   O53 7790   5.320   7.526   0.117
   19CHTO   C82 7791   5.329   7.393   0.170
   19CHTO  H154 7792   5.355   7.396   0.276
   19CHTO   C89 7793   5.190   7.326   0.159
   19CHTO   O59 7794   5.095   7.388   0.246
   19CHTO  H137 7795   5.117   7.369   0.335
   19CHTO   O45 7796   5.431   7.762   0.077
   19CHTO   C67 7797   5.308   7.823   0.118
   19CHTO  H124 7798   5.245   7.749   0.168
   19CHTO   C65 7799   5.334   7.941   0.219
   19CHTO  H122 7800   5.438   7.971   0.204
   19CHTO   O44 7801   5.319   7.887   0.351
   19CHTO  H102 7802   5.347   7.950   0.415
   19CHTO   C63 7803   5.251   8.071   0.184
   19CHTO  H120 7804   5.295   8.117   0.095
   19CHTO   N11 7805   5.260   8.184   0.282
   19CHTO  H108 7806   5.363   8.206   0.303
   19CHTO  H109 7807   5.211   8.157   0.373
   19CHTO   C61 7808   5.104   8.032   0.144
   19CHTO  H118 7809   5.056   8.124   0.108
   19CHTO   O40 7810   5.101   7.938   0.033
   19CHTO   C68 7811   5.225   7.870   6.741
   19CHTO  H125 7812   5.285   7.940   6.678
   19CHTO   C72 7813   5.181   7.753   6.649
   19CHTO   O48 7814   5.290   7.680   6.593
   19CHTO  H105 7815   5.336   7.635   6.661
   19CHTO   O38 7816   5.027   7.977   0.254
   19CHTO   C55 7817   4.888   7.951   0.225
   19CHTO  H112 7818   4.873   7.939   0.117
   19CHTO   C56 7819   4.795   8.065   0.285
   19CHTO  H113 7820   4.814   8.070   0.394
   19CHTO   O42 7821   4.833   8.192   0.231
   19CHTO  H100 7822   4.785   8.261   0.273
   19CHTO   C57 7823   4.642   8.033   0.257
   19CHTO  H114 7824   4.627   8.046   0.150
   19CHTO   N10 7825   4.549   8.126   0.325
   19CHTO  H106 7826   4.593   8.224   0.333
   19CHTO  H107 7827   4.525   8.090   0.425
   19CHTO   C58 7828   4.609   7.885   0.294
   19CHTO  H115 7829   4.607   7.875   0.405
   19CHTO   O37 7830   4.707   7.793   0.242
   19CHTO   C59 7831   4.841   7.816   0.288
   19CHTO  H116 7832   4.844   7.820   0.397
   19CHTO   C70 7833   4.928   7.699   0.240
   19CHTO   O46 7834   5.051   7.689   0.312
   19CHTO  H103 7835   5.035   7.662   0.400
   19CHTO   O39 7836   4.455   7.843   0.232
   19CHTO   C60 7837   4.452   7.757   0.116
   19CHTO  H117 7838   4.536   7.782   0.051
   19CHTO   C62 7839   4.463   7.607   0.157
   19CHTO  H119 7840   4.560   7.596   0.209
   19CHTO   O43 7841   4.358   7.575   0.250
   19CHTO  H101 7842   4.371   7.621   0.331
   19CHTO   C66 7843   4.462   7.513   0.027
   19CHTO  H123 7844   4.542   7.545   6.709
   19CHTO   N12 7845   4.490   7.370   0.059
   19CHTO  H110 7846   4.406   7.307   0.033
   19CHTO  H111 7847   4.518   7.358   0.162
   19CHTO   C69 7848   4.328   7.534   6.699
   19CHTO  H126 7849   4.243   7.506   0.016
   19CHTO   O41 7850   4.316   7.686   6.659
   19CHTO   C64 7851   4.322   7.781   0.034
   19CHTO  H121 7852   4.235   7.762   0.099
   19CHTO   C71 7853   4.312   7.928   6.733
   19CHTO   O47 7854   4.416   7.963   6.642
   19CHTO  H104 7855   4.499   7.966   6.688
   19CHTO   O34 7856   4.321   7.447   6.571
   19CHTO   C49 7857   4.283   7.450   6.428
   19CHTO   H91 7858   4.188   7.504   6.421
   19CHTO   C47 7859   4.264   7.305   6.379
   19CHTO   H89 7860   4.221   7.316   6.276
   19CHTO   O33 7861   4.167   7.237   6.461
   19CHTO   H70 7862   4.144   7.154   6.422
   19CHTO   C45 7863   4.403   7.223   6.378
   19CHTO   H87 7864   4.411   7.165   6.471
   19CHTO    N8 7865   4.401   7.127   6.264
   19CHTO   H75 7866   4.315   7.061   6.273
   19CHTO   H76 7867   4.492   7.068   6.264
   19CHTO   C43 7868   4.529   7.324   6.382
   19CHTO   H85 7869   4.539   7.354   6.486
   19CHTO   O29 7870   4.503   7.437   6.296
   19CHTO   C50 7871   4.391   7.519   6.337
   19CHTO   H92 7872   4.430   7.606   6.391
   19CHTO   C54 7873   4.330   7.580   6.208
   19CHTO   O36 7874   4.227   7.675   6.235
   19CHTO   H72 7875   4.263   7.751   6.275
   19CHTO   O27 7876   4.654   7.261   6.351
   19CHTO   C37 7877   4.794   7.265   6.324
   19CHTO   H79 7878   4.831   7.163   6.302
   19CHTO   C38 7879   4.823   7.352   6.199
   19CHTO   H80 7880   4.779   7.452   6.215
   19CHTO   O31 7881   4.758   7.291   6.086
   19CHTO   H68 7882   4.794   7.206   6.068
   19CHTO   C39 7883   4.978   7.367   6.173
   19CHTO   H81 7884   5.013   7.271   6.136
   19CHTO    N7 7885   5.012   7.467   6.066
   19CHTO   H73 7886   4.974   7.565   6.093
   19CHTO   H74 7887   4.969   7.436   5.972
   19CHTO   C40 7888   5.059   7.398   6.305
   19CHTO   H82 7889   5.054   7.504   6.331
   19CHTO   O26 7890   5.016   7.314   6.415
   19CHTO   C41 7891   4.874   7.322   6.444
   19CHTO   H83 7892   4.844   7.426   6.461
   19CHTO   C52 7893   4.845   7.243   6.574
   19CHTO   O35 7894   4.910   7.302   6.690
   19CHTO   H71 7895   4.889   7.252   0.018
   19CHTO   O28 7896   5.196   7.357   6.287
   19CHTO   C42 7897   5.313   7.423   6.343
   19CHTO   H84 7898   5.284   7.449   6.446
   19CHTO   C44 7899   5.356   7.558   6.275
   19CHTO   H86 7900   5.368   7.540   6.168
   19CHTO   O32 7901   5.249   7.653   6.292
   19CHTO   H69 7902   5.174   7.626   6.242
   19CHTO   C48 7903   5.494   7.613   6.330
   19CHTO   H90 7904   5.482   7.642   6.435
   19CHTO    N9 7905   5.538   7.738   6.259
   19CHTO   H77 7906   5.552   7.717   6.153
   19CHTO   H78 7907   5.630   7.775   6.302
   19CHTO   C51 7908   5.600   7.497   6.323
   19CHTO   H93 7909   5.607   7.466   6.218
   19CHTO   O30 7910   5.555   7.391   6.408
   19CHTO   C46 7911   5.432   7.323   6.352
   19CHTO   H88 7912   5.455   7.287   6.252
   19CHTO   C53 7913   5.397   7.204   6.445
   19CHTO   O72 7914   5.500   7.105   6.444
   19CHTO  H199 7915   5.503   7.063   6.360
   19CHTO   O22 7916   5.730   7.532   6.374
   19CHTO   C31 7917   5.849   7.476   6.307
   19CHTO   H59 7918   5.811   7.398   6.236
   19CHTO   C29 7919   5.929   7.578   6.223
   19CHTO   H57 7920   5.964   7.657   6.290
   19CHTO   O21 7921   5.838   7.639   6.129
   19CHTO   H37 7922   5.774   7.690   6.174
   19CHTO   C27 7923   6.053   7.512   6.150
   19CHTO   H55 7924   6.015   7.442   6.074
   19CHTO    N5 7925   6.139   7.613   6.083
   19CHTO   H43 7926   6.241   7.606   6.116
   19CHTO   H44 7927   6.133   7.601   5.976
   19CHTO   C25 7928   6.134   7.423   6.251
   19CHTO   H53 7929   6.188   7.488   6.322
   19CHTO   O17 7930   6.047   7.334   6.327
   19CHTO   C32 7931   5.946   7.402   6.403
   19CHTO   H60 7932   5.992   7.475   6.469
   19CHTO   C36 7933   5.873   7.298   6.493
   19CHTO   O25 7934   5.805   7.198   6.417
   19CHTO   H40 7935   5.867   7.144   6.371
   19CHTO   O15 7936   6.239   7.334   6.174
   19CHTO   C19 7937   6.347   7.240   6.200
   19CHTO   H47 7938   6.413   7.294   6.269
   19CHTO   C20 7939   6.299   7.107   6.269
   19CHTO   H48 7940   6.218   7.059   6.212
   19CHTO   O19 7941   6.245   7.144   6.397
   19CHTO   H35 7942   6.311   7.181   6.452
   19CHTO   C21 7943   6.415   7.002   6.286
   19CHTO   H49 7944   6.485   7.039   6.361
   19CHTO    N4 7945   6.366   6.871   6.337
   19CHTO   H41 7946   6.386   6.791   6.267
   19CHTO   H42 7947   6.413   6.847   6.432
   19CHTO   C22 7948   6.496   6.990   6.154
   19CHTO   H50 7949   6.433   6.943   6.078
   19CHTO   O14 7950   6.540   7.120   6.110
   19CHTO   C23 7951   6.433   7.208   6.074
   19CHTO   H51 7952   6.374   7.159   5.995
   19CHTO   C34 7953   6.498   7.333   6.013
   19CHTO   O23 7954   6.401   7.417   5.949
   19CHTO   H38 7955   6.444   7.490   5.910
   19CHTO   O16 7956   6.619   6.916   6.174
   19CHTO   C24 7957   6.683   6.833   6.045
   19CHTO   H52 7958   6.774   6.779   6.074
   19CHTO   C26 7959   6.719   6.926   5.928
   19CHTO   H54 7960   6.626   6.978   5.895
   19CHTO   O20 7961   6.812   7.025   5.977
   19CHTO   H36 7962   6.828   7.089   5.910
   19CHTO   C30 7963   6.776   6.845   5.807
   19CHTO   H58 7964   6.875   6.805   5.834
   19CHTO    N6 7965   6.798   6.932   5.688
   19CHTO   H45 7966   6.705   6.974   5.655
   19CHTO   H46 7967   6.842   6.874   5.607
   19CHTO   C33 7968   6.687   6.722   5.773
   19CHTO   H61 7969   6.594   6.756   5.725
   19CHTO   O18 7970   6.651   6.650   5.893
   19CHTO   C28 7971   6.584   6.726   5.994
   19CHTO   H56 7972   6.496   6.776   5.952
   19CHTO   C35 7973   6.540   6.629   6.105
   19CHTO   O24 7974   6.436   6.543   6.058
   19CHTO   H39 7975   6.413   6.483   6.125
   19CHTO    O9 7976   6.750   6.635   5.677
   19CHTO   C13 7977   6.687   6.476   5.645
   19CHTO   H26 7978   6.742   6.442   5.555
   19CHTO   C11 7979   6.529   6.472   5.622
   19CHTO   H24 7980   6.509   6.512   5.521
   19CHTO    O8 7981   6.457   6.553   5.716
   19CHTO    H3 7982   6.366   6.556   5.694
   19CHTO    C9 7983   6.483   6.324   5.629
   19CHTO   H22 7984   6.549   6.269   5.560
   19CHTO    N2 7985   6.347   6.301   5.573
   19CHTO   H10 7986   6.274   6.350   5.635
   19CHTO   H11 7987   6.342   6.337   5.472
   19CHTO    C7 7988   6.508   6.269   5.776
   19CHTO   H20 7989   6.534   6.162   5.760
   19CHTO    O4 7990   6.618   6.334   5.842
   19CHTO   C14 7991   6.729   6.368   5.756
   19CHTO   H27 7992   6.758   6.275   5.703
   19CHTO   C18 7993   6.851   6.411   5.841
   19CHTO   O13 7994   6.899   6.304   5.922
   19CHTO    H7 7995   6.837   6.286   5.990
   19CHTO    O2 7996   6.373   6.280   5.877
   19CHTO    C1 7997   6.333   6.154   5.936
   19CHTO   H14 7998   6.423   6.095   5.961
   19CHTO    C2 7999   6.239   6.068   5.841
   19CHTO   H15 8000   6.164   6.139   5.802
   19CHTO    O6 8001   6.317   6.017   5.732
   19CHTO    H1 8002   6.261   5.976   5.669
   19CHTO    C3 8003   6.167   5.946   5.917
   19CHTO   H16 8004   6.239   5.863   5.921
   19CHTO    N1 8005   6.049   5.896   5.839
   19CHTO    H8 8006   6.081   5.860   5.742
   19CHTO    H9 8007   5.977   5.975   5.826
   19CHTO    C4 8008   6.129   5.977   6.066
   19CHTO   H17 8009   6.032   6.028   6.069
   19CHTO    O1 8010   6.229   6.055   6.134
   19CHTO    C5 8011   6.258   6.180   6.070
   19CHTO   H18 8012   6.166   6.234   6.048
   19CHTO   C16 8013   6.341   6.263   6.170
   19CHTO   O11 8014   6.263   6.299   6.284
   19CHTO    H5 8015   6.315   6.350   6.343
   19CHTO    O3 8016   6.126   5.853   6.140
   19CHTO    C6 8017   6.029   5.844   6.249
   19CHTO   H19 8018   5.983   5.940   6.274
   19CHTO    C8 8019   5.917   5.744   6.210
   19CHTO   H21 8020   5.964   5.652   6.174
   19CHTO    O7 8021   5.842   5.805   6.103
   19CHTO    H2 8022   5.778   5.745   6.070
   19CHTO   C12 8023   5.826   5.709   6.334
   19CHTO   H25 8024   5.771   5.802   6.360
   19CHTO    N3 8025   5.723   5.606   6.298
   19CHTO   H12 8026   5.662   5.583   6.384
   19CHTO   H13 8027   5.662   5.642   6.217
   19CHTO   C15 8028   5.916   5.668   6.457
   19CHTO   H28 8029   5.968   5.573   6.439
   19CHTO   O10 8030   5.839   5.659   6.589
   19CHTO    H4 8031   5.775   5.591   6.584
   19CHTO    O5 8032   6.011   5.772   6.486
   19CHTO   C10 8033   6.103   5.796   6.378
   19CHTO   H23 8034   6.156   5.703   6.356
   19CHTO   C17 8035   6.209   5.897   6.426
   19CHTO   O12 8036   6.152   6.023   6.462
   19CHTO    H6 8037   6.220   6.081   6.492
   20CHTO  H203 8038   5.560   1.858   0.102
   20CHTO   O82 8039   5.467   1.856   0.085
   20CHTO  C123 8040   5.412   1.988   0.100
   20CHTO  H227 8041   5.464   2.056   0.030
   20CHTO   O77 8042   5.274   1.970   0.059
   20CHTO  C118 8043   5.196   2.091   0.055
   20CHTO  H222 8044   5.242   2.161   6.732
   20CHTO  C125 8045   5.052   2.053   0.002
   20CHTO   O84 8046   4.985   1.958   0.086
   20CHTO  H205 8047   4.965   1.998   0.169
   20CHTO  C114 8048   5.190   2.156   0.195
   20CHTO  H218 8049   5.139   2.087   0.263
   20CHTO  C116 8050   5.333   2.177   0.255
   20CHTO  H220 8051   5.386   2.258   0.199
   20CHTO   O79 8052   5.317   2.224   0.390
   20CHTO  H201 8053   5.401   2.244   0.428
   20CHTO  C120 8054   5.417   2.043   0.247
   20CHTO  H224 8055   5.368   1.971   0.316
   20CHTO   N21 8056   5.556   2.063   0.296
   20CHTO  H211 8057   5.595   1.971   0.338
   20CHTO  H212 8058   5.620   2.098   0.216
   20CHTO   O75 8059   5.108   2.274   0.180
   20CHTO  C112 8060   5.184   2.410   0.123
   20CHTO  H216 8061   5.264   2.380   0.054
   20CHTO   O73 8062   5.235   2.482   0.236
   20CHTO  C113 8063   5.315   2.596   0.202
   20CHTO  H217 8064   5.399   2.563   0.137
   20CHTO  C124 8065   5.376   2.653   0.330
   20CHTO   O83 8066   5.467   2.562   0.392
   20CHTO  H204 8067   5.503   2.602   0.470
   20CHTO  C109 8068   5.228   2.701   0.128
   20CHTO  H213 8069   5.152   2.736   0.199
   20CHTO  C110 8070   5.158   2.636   0.004
   20CHTO  H214 8071   5.234   2.614   6.677
   20CHTO   O78 8072   5.066   2.731   6.695
   20CHTO  H200 8073   5.113   2.803   6.658
   20CHTO  C111 8074   5.084   2.504   0.045
   20CHTO  H215 8075   5.001   2.530   0.112
   20CHTO   N19 8076   5.025   2.433   6.677
   20CHTO  H207 8077   4.974   2.343   6.711
   20CHTO  H208 8078   4.954   2.497   6.627
   20CHTO   O74 8079   5.311   2.815   0.088
   20CHTO  C115 8080   5.231   2.954   0.088
   20CHTO  H219 8081   5.124   2.940   0.078
   20CHTO   O76 8082   5.249   3.030   0.221
   20CHTO  C122 8083   5.387   3.051   0.255
   20CHTO  H226 8084   5.427   2.957   0.292
   20CHTO  C126 8085   5.392   3.151   0.376
   20CHTO   O85 8086   5.335   3.278   0.347
   20CHTO  H206 8087   5.341   3.334   0.422
   20CHTO  C121 8088   5.476   3.102   0.132
   20CHTO  H225 8089   5.538   3.187   0.166
   20CHTO   O81 8090   5.565   2.999   0.089
   20CHTO  H202 8091   5.625   2.976   0.157
   20CHTO  C119 8092   5.387   3.150   0.014
   20CHTO  H223 8093   5.330   3.235   0.052
   20CHTO  C117 8094   5.285   3.039   6.714
   20CHTO  H221 8095   5.329   2.964   6.648
   20CHTO   N20 8096   5.173   3.099   6.632
   20CHTO  H209 8097   5.077   3.072   6.673
   20CHTO  H210 8098   5.182   3.206   6.626
   20CHTO   O80 8099   5.469   3.216   6.647
   20CHTO  C103 8100   5.487   3.372   6.643
   20CHTO  H190 8101   5.391   3.423   6.656
   20CHTO  C101 8102   5.593   3.435   6.743
   20CHTO  H188 8103   5.682   3.372   6.742
   20CHTO   O68 8104   5.534   3.432   0.135
   20CHTO  H168 8105   5.599   3.459   0.197
   20CHTO   C99 8106   5.636   3.584   6.699
   20CHTO  H186 8107   5.548   3.651   6.707
   20CHTO   N17 8108   5.744   3.645   0.037
   20CHTO  H174 8109   5.828   3.677   6.726
   20CHTO  H175 8110   5.775   3.576   0.114
   20CHTO   C97 8111   5.676   3.583   6.549
   20CHTO  H184 8112   5.764   3.519   6.538
   20CHTO   O64 8113   5.564   3.535   6.472
   20CHTO  C104 8114   5.532   3.397   6.494
   20CHTO  H191 8115   5.617   3.332   6.471
   20CHTO  C108 8116   5.422   3.358   6.395
   20CHTO   O71 8117   5.467   3.369   6.259
   20CHTO  H171 8118   5.530   3.302   6.241
   20CHTO   O62 8119   5.702   3.713   6.492
   20CHTO   C91 8120   5.771   3.710   6.364
   20CHTO  H178 8121   5.781   3.607   6.331
   20CHTO   C92 8122   5.916   3.766   6.381
   20CHTO  H179 8123   5.910   3.865   6.428
   20CHTO   O66 8124   5.985   3.681   6.475
   20CHTO  H166 8125   6.069   3.717   6.495
   20CHTO   C93 8126   5.995   3.773   6.244
   20CHTO  H180 8127   6.021   3.669   6.217
   20CHTO   N16 8128   6.125   3.845   6.254
   20CHTO  H172 8129   6.142   3.879   6.355
   20CHTO  H173 8130   6.130   3.928   6.185
   20CHTO   C94 8131   5.905   3.834   6.129
   20CHTO  H181 8132   5.889   3.940   6.143
   20CHTO   O61 8133   5.774   3.774   6.127
   20CHTO   C95 8134   5.700   3.790   6.249
   20CHTO  H182 8135   5.696   3.896   6.274
   20CHTO  C106 8136   5.553   3.742   6.225
   20CHTO   O69 8137   5.485   3.822   6.128
   20CHTO  H169 8138   5.471   3.908   6.163
   20CHTO   O63 8139   5.974   3.809   5.982
   20CHTO   C96 8140   5.981   3.657   5.932
   20CHTO  H183 8141   5.984   3.593   6.020
   20CHTO   C98 8142   6.107   3.627   5.845
   20CHTO  H185 8143   6.198   3.650   5.902
   20CHTO   O67 8144   6.111   3.485   5.822
   20CHTO  H167 8145   6.190   3.462   5.778
   20CHTO  C102 8146   6.103   3.704   5.704
   20CHTO  H189 8147   6.161   3.641   5.635
   20CHTO   N18 8148   6.170   3.837   5.703
   20CHTO  H176 8149   6.213   3.859   5.800
   20CHTO  H177 8150   6.101   3.915   5.675
   20CHTO  C105 8151   5.956   3.710   5.651
   20CHTO  H192 8152   5.913   3.808   5.674
   20CHTO   O65 8153   5.870   3.610   5.709
   20CHTO  C100 8154   5.847   3.625   5.850
   20CHTO  H187 8155   5.775   3.706   5.864
   20CHTO  C107 8156   5.779   3.494   5.897
   20CHTO   O70 8157   5.739   3.501   6.035
   20CHTO  H170 8158   5.699   3.419   6.059
   20CHTO   O57 8159   5.969   3.692   5.493
   20CHTO   C85 8160   5.863   3.740   5.408
   20CHTO  H157 8161   5.824   3.830   5.458
   20CHTO   C83 8162   5.746   3.637   5.407
   20CHTO  H155 8163   5.709   3.626   5.510
   20CHTO   O56 8164   5.796   3.508   5.368
   20CHTO  H135 8165   5.857   3.476   5.432
   20CHTO   C81 8166   5.630   3.691   5.318
   20CHTO  H153 8167   5.602   3.789   5.356
   20CHTO   N14 8168   5.506   3.610   5.330
   20CHTO  H141 8169   5.472   3.578   5.233
   20CHTO  H142 8170   5.429   3.666   5.377
   20CHTO   C79 8171   5.681   3.709   5.171
   20CHTO  H151 8172   5.602   3.759   5.115
   20CHTO   O52 8173   5.797   3.798   5.166
   20CHTO   C86 8174   5.907   3.769   5.259
   20CHTO  H158 8175   5.960   3.683   5.214
   20CHTO   C90 8176   6.005   3.889   5.252
   20CHTO   O60 8177   6.125   3.867   5.327
   20CHTO  H138 8178   6.106   3.864   5.419
   20CHTO   O50 8179   5.709   3.584   5.104
   20CHTO   C73 8180   5.727   3.546   4.967
   20CHTO  H145 8181   5.816   3.595   4.926
   20CHTO   C74 8182   5.603   3.588   4.882
   20CHTO  H146 8183   5.587   3.696   4.897
   20CHTO   O54 8184   5.638   3.572   4.743
   20CHTO  H133 8185   5.567   3.601   4.688
   20CHTO   C75 8186   5.476   3.503   4.925
   20CHTO  H147 8187   5.453   3.527   5.030
   20CHTO   N13 8188   5.353   3.536   4.849
   20CHTO  H139 8189   5.329   3.640   4.862
   20CHTO  H140 8190   5.271   3.477   4.886
   20CHTO   C76 8191   5.512   3.347   4.919
   20CHTO  H148 8192   5.534   3.322   4.816
   20CHTO   O49 8193   5.630   3.321   5.002
   20CHTO   C77 8194   5.748   3.392   4.959
   20CHTO  H149 8195   5.772   3.364   4.856
   20CHTO   C88 8196   5.868   3.347   5.044
   20CHTO   O58 8197   5.891   3.203   5.035
   20CHTO  H136 8198   5.821   3.157   5.077
   20CHTO   O51 8199   5.386   3.255   4.980
   20CHTO   C78 8200   5.429   3.116   5.052
   20CHTO  H150 8201   5.520   3.130   5.114
   20CHTO   C80 8202   5.455   3.005   4.948
   20CHTO  H152 8203   5.363   2.992   4.886
   20CHTO   O55 8204   5.561   3.050   4.862
   20CHTO  H134 8205   5.574   2.989   4.792
   20CHTO   C84 8206   5.492   2.868   5.018
   20CHTO  H156 8207   5.590   2.882   5.065
   20CHTO   N15 8208   5.509   2.753   4.922
   20CHTO  H143 8209   5.495   2.786   4.821
   20CHTO  H144 8210   5.440   2.674   4.943
   20CHTO   C87 8211   5.393   2.833   5.132
   20CHTO  H159 8212   5.298   2.798   5.089
   20CHTO   O53 8213   5.366   2.958   5.222
   20CHTO   C82 8214   5.317   3.070   5.147
   20CHTO  H154 8215   5.227   3.042   5.092
   20CHTO   C89 8216   5.275   3.180   5.249
   20CHTO   O59 8217   5.200   3.286   5.189
   20CHTO  H137 8218   5.116   3.254   5.161
   20CHTO   O45 8219   5.457   2.715   5.228
   20CHTO   C67 8220   5.372   2.672   5.336
   20CHTO  H124 8221   5.337   2.760   5.391
   20CHTO   C65 8222   5.246   2.594   5.282
   20CHTO  H122 8223   5.271   2.562   5.181
   20CHTO   O44 8224   5.139   2.690   5.275
   20CHTO  H102 8225   5.065   2.652   5.231
   20CHTO   C63 8226   5.218   2.460   5.361
   20CHTO  H120 8227   5.295   2.388   5.335
   20CHTO   N11 8228   5.092   2.386   5.324
   20CHTO  H108 8229   5.031   2.446   5.260
   20CHTO  H109 8230   5.116   2.294   5.274
   20CHTO   C61 8231   5.234   2.488   5.515
   20CHTO  H118 8232   5.223   2.391   5.566
   20CHTO   O40 8233   5.365   2.539   5.550
   20CHTO   C68 8234   5.452   2.586   5.441
   20CHTO  H125 8235   5.497   2.497   5.391
   20CHTO   C72 8236   5.569   2.666   5.503
   20CHTO   O48 8237   5.652   2.587   5.589
   20CHTO  H105 8238   5.604   2.562   5.665
   20CHTO   O38 8239   5.134   2.581   5.562
   20CHTO   C55 8240   5.115   2.589   5.704
   20CHTO  H112 8241   5.206   2.556   5.757
   20CHTO   C56 8242   4.988   2.503   5.747
   20CHTO  H113 8243   4.905   2.533   5.681
   20CHTO   O42 8244   5.013   2.364   5.721
   20CHTO  H100 8245   5.021   2.349   5.628
   20CHTO   C57 8246   4.950   2.527   5.899
   20CHTO  H114 8247   5.030   2.484   5.959
   20CHTO   N10 8248   4.823   2.463   5.940
   20CHTO  H106 8249   4.827   2.438   6.045
   20CHTO  H107 8250   4.807   2.372   5.884
   20CHTO   C58 8251   4.945   2.680   5.926
   20CHTO  H115 8252   4.862   2.724   5.867
   20CHTO   O37 8253   5.069   2.743   5.887
   20CHTO   C59 8254   5.093   2.737   5.746
   20CHTO  H116 8255   5.008   2.779   5.692
   20CHTO   C70 8256   5.215   2.825   5.712
   20CHTO   O46 8257   5.335   2.787   5.779
   20CHTO  H103 8258   5.326   2.803   5.871
   20CHTO   O39 8259   4.922   2.713   6.088
   20CHTO   C60 8260   4.913   2.854   6.116
   20CHTO  H117 8261   4.996   2.905   6.068
   20CHTO   C62 8262   4.781   2.917   6.062
   20CHTO  H119 8263   4.779   2.897   5.953
   20CHTO   O43 8264   4.668   2.851   6.122
   20CHTO  H101 8265   4.588   2.883   6.085
   20CHTO   C66 8266   4.784   3.075   6.085
   20CHTO  H123 8267   4.874   3.115   6.037
   20CHTO   N12 8268   4.669   3.144   6.020
   20CHTO  H110 8269   4.675   3.250   6.037
   20CHTO  H111 8270   4.668   3.121   5.914
   20CHTO   C69 8271   4.795   3.106   6.236
   20CHTO  H126 8272   4.704   3.071   6.290
   20CHTO   O41 8273   4.924   3.033   6.295
   20CHTO   C64 8274   4.927   2.882   6.269
   20CHTO  H121 8275   4.844   2.832   6.323
   20CHTO   C71 8276   5.061   2.828   6.328
   20CHTO   O47 8277   5.065   2.685   6.334
   20CHTO  H104 8278   5.004   2.654   6.398
   20CHTO   O34 8279   4.811   3.258   6.260
   20CHTO   C49 8280   4.848   3.378   6.337
   20CHTO   H91 8281   4.771   3.392   6.413
   20CHTO   C47 8282   4.850   3.498   6.240
   20CHTO   H89 8283   4.863   3.587   6.306
   20CHTO   O33 8284   4.723   3.511   6.173
   20CHTO   H70 8285   4.720   3.592   6.124
   20CHTO   C45 8286   4.971   3.486   6.131
   20CHTO   H87 8287   4.929   3.444   6.039
   20CHTO    N8 8288   5.023   3.622   6.101
   20CHTO   H75 8289   4.980   3.697   6.166
   20CHTO   H76 8290   5.004   3.648   5.998
   20CHTO   C43 8291   5.080   3.378   6.181
   20CHTO   H85 8292   5.036   3.281   6.159
   20CHTO   O29 8293   5.104   3.396   6.321
   20CHTO   C50 8294   4.989   3.366   6.404
   20CHTO   H92 8295   4.999   3.262   6.438
   20CHTO   C54 8296   4.998   3.446   6.536
   20CHTO   O36 8297   5.007   3.588   6.516
   20CHTO   H72 8298   5.088   3.609   6.475
   20CHTO   O27 8299   5.202   3.378   6.104
   20CHTO   C37 8300   5.239   3.323   5.977
   20CHTO   H79 8301   5.148   3.305   5.916
   20CHTO   C38 8302   5.329   3.422   5.897
   20CHTO   H80 8303   5.415   3.449   5.960
   20CHTO   O31 8304   5.251   3.541   5.872
   20CHTO   H68 8305   5.178   3.522   5.817
   20CHTO   C39 8306   5.381   3.358   5.762
   20CHTO   H81 8307   5.294   3.339   5.699
   20CHTO    N7 8308   5.473   3.448   5.685
   20CHTO   H73 8309   5.422   3.540   5.661
   20CHTO   H74 8310   5.504   3.399   5.594
   20CHTO   C40 8311   5.449   3.219   5.793
   20CHTO   H82 8312   5.542   3.234   5.848
   20CHTO   O26 8313   5.357   3.135   5.865
   20CHTO   C41 8314   5.314   3.187   5.994
   20CHTO   H83 8315   5.401   3.201   6.059
   20CHTO   C52 8316   5.223   3.080   6.058
   20CHTO   O35 8317   5.289   2.947   6.071
   20CHTO   H71 8318   5.305   2.911   5.986
   20CHTO   O28 8319   5.471   3.140   5.674
   20CHTO   C42 8320   5.598   3.073   5.643
   20CHTO   H84 8321   5.566   2.986   5.587
   20CHTO   C44 8322   5.683   3.018   5.763
   20CHTO   H86 8323   5.710   3.101   5.829
   20CHTO   O32 8324   5.598   2.927   5.834
   20CHTO   H69 8325   5.642   2.897   5.912
   20CHTO   C48 8326   5.818   2.951   5.713
   20CHTO   H90 8327   5.793   2.866   5.649
   20CHTO    N9 8328   5.900   2.895   5.825
   20CHTO   H77 8329   5.926   2.974   5.895
   20CHTO   H78 8330   5.845   2.817   5.876
   20CHTO   C51 8331   5.896   3.057   5.627
   20CHTO   H93 8332   5.914   3.145   5.689
   20CHTO   O30 8333   5.814   3.088   5.513
   20CHTO   C46 8334   5.685   3.159   5.546
   20CHTO   H88 8335   5.708   3.255   5.593
   20CHTO   C53 8336   5.609   3.180   5.414
   20CHTO   O72 8337   5.686   3.251   5.316
   20CHTO  H199 8338   5.757   3.198   5.287
   20CHTO   O22 8339   6.019   3.009   5.568
   20CHTO   C31 8340   6.132   3.099   5.539
   20CHTO   H59 8341   6.200   3.042   5.471
   20CHTO   C29 8342   6.097   3.231   5.466
   20CHTO   H57 8343   6.026   3.287   5.530
   20CHTO   O21 8344   6.026   3.198   5.345
   20CHTO   H37 8345   5.991   3.276   5.305
   20CHTO   C27 8346   6.224   3.321   5.438
   20CHTO   H55 8347   6.286   3.270   5.363
   20CHTO    N5 8348   6.187   3.455   5.384
   20CHTO   H43 8349   6.229   3.535   5.443
   20CHTO   H44 8350   6.220   3.464   5.281
   20CHTO   C25 8351   6.313   3.333   5.567
   20CHTO   H53 8352   6.261   3.397   5.641
   20CHTO   O17 8353   6.337   3.203   5.628
   20CHTO   C32 8354   6.217   3.133   5.665
   20CHTO   H60 8355   6.158   3.195   5.732
   20CHTO   C36 8356   6.260   3.005   5.741
   20CHTO   O25 8357   6.320   3.040   5.867
   20CHTO   H40 8358   6.403   3.080   5.853
   20CHTO   O15 8359   6.454   3.398   5.534
   20CHTO   C19 8360   6.561   3.444   5.621
   20CHTO   H47 8361   6.634   3.489   5.551
   20CHTO   C20 8362   6.517   3.554   5.723
   20CHTO   H48 8363   6.435   3.519   5.788
   20CHTO   O19 8364   6.468   3.665   5.645
   20CHTO   H35 8365   6.432   3.731   5.702
   20CHTO   C21 8366   6.638   3.599   5.816
   20CHTO   H49 8367   6.712   3.649   5.755
   20CHTO    N4 8368   6.595   3.696   5.921
   20CHTO   H41 8369   6.650   3.788   5.912
   20CHTO   H42 8370   6.610   3.655   6.021
   20CHTO   C22 8371   6.706   3.472   5.875
   20CHTO   H50 8372   6.634   3.421   5.939
   20CHTO   O14 8373   6.746   3.384   5.769
   20CHTO   C23 8374   6.636   3.329   5.694
   20CHTO   H51 8375   6.571   3.276   5.765
   20CHTO   C34 8376   6.693   3.227   5.595
   20CHTO   O23 8377   6.754   3.117   5.663
   20CHTO   H38 8378   6.689   3.065   5.707
   20CHTO   O16 8379   6.827   3.501   5.947
   20CHTO   C24 8380   6.868   3.377   6.044
   20CHTO   H52 8381   6.818   3.284   6.014
   20CHTO   C26 8382   6.832   3.409   6.190
   20CHTO   H54 8383   6.896   3.493   6.225
   20CHTO   O20 8384   6.694   3.450   6.196
   20CHTO   H36 8385   6.672   3.478   6.282
   20CHTO   C30 8386   6.860   3.284   6.278
   20CHTO   H58 8387   6.791   3.203   6.248
   20CHTO    N6 8388   6.832   3.309   6.422
   20CHTO   H45 8389   6.758   3.240   6.459
   20CHTO   H46 8390   6.921   3.301   6.482
   20CHTO   C33 8391   7.004   3.227   6.254
   20CHTO   H61 8392   7.076   3.285   6.315
   20CHTO   O18 8393   7.049   3.233   6.117
   20CHTO   C28 8394   7.020   3.350   6.039
   20CHTO   H56 8395   7.073   3.436   6.080
   20CHTO   C35 8396   7.071   3.330   5.893
   20CHTO   O24 8397   7.011   3.218   5.826
   20CHTO   H39 8398   7.038   3.138   5.866
   20CHTO    O9 8399   7.010   3.093   6.307
   20CHTO   C13 8400   7.017   2.952   6.208
   20CHTO   H26 8401   7.125   2.934   6.188
   20CHTO   C11 8402   6.934   2.962   6.073
   20CHTO   H24 8403   6.976   3.042   6.011
   20CHTO    O8 8404   6.796   2.995   6.099
   20CHTO    H3 8405   6.755   2.928   6.150
   20CHTO    C9 8406   6.955   2.828   5.998
   20CHTO   H22 8407   7.064   2.815   5.992
   20CHTO    N2 8408   6.913   2.835   5.856
   20CHTO   H10 8409   6.805   2.844   5.850
   20CHTO   H11 8410   6.946   2.747   5.803
   20CHTO    C7 8411   6.896   2.708   6.083
   20CHTO   H20 8412   6.976   2.631   6.079
   20CHTO    O4 8413   6.870   2.742   6.220
   20CHTO   C14 8414   6.967   2.824   6.290
   20CHTO   H27 8415   7.055   2.760   6.311
   20CHTO   C18 8416   6.904   2.860   6.428
   20CHTO   O13 8417   6.779   2.929   6.414
   20CHTO    H7 8418   6.714   2.870   6.381
   20CHTO    O2 8419   6.753   2.641   6.014
   20CHTO    C1 8420   6.644   2.604   6.100
   20CHTO   H14 8421   6.647   2.662   6.194
   20CHTO    C2 8422   6.643   2.450   6.135
   20CHTO   H15 8423   6.652   2.396   6.040
   20CHTO    O6 8424   6.758   2.420   6.218
   20CHTO    H1 8425   6.837   2.431   6.168
   20CHTO    C3 8426   6.507   2.407   6.209
   20CHTO   H16 8427   6.508   2.450   6.311
   20CHTO    N1 8428   6.495   2.258   6.224
   20CHTO    H8 8429   6.578   2.220   6.281
   20CHTO    H9 8430   6.402   2.234   6.274
   20CHTO    C4 8431   6.381   2.470   6.138
   20CHTO   H17 8432   6.364   2.418   6.044
   20CHTO    O1 8433   6.400   2.611   6.115
   20CHTO    C5 8434   6.510   2.643   6.030
   20CHTO   H18 8435   6.503   2.590   5.935
   20CHTO   C16 8436   6.498   2.795   6.003
   20CHTO   O11 8437   6.580   2.837   5.894
   20CHTO    H5 8438   6.571   2.930   5.882
   20CHTO    O3 8439   6.265   2.465   6.223
   20CHTO    C6 8440   6.135   2.460   6.156
   20CHTO   H19 8441   6.141   2.481   6.049
   20CHTO    C8 8442   6.073   2.318   6.176
   20CHTO   H21 8443   6.081   2.292   6.281
   20CHTO    O7 8444   6.153   2.227   6.098
   20CHTO    H2 8445   6.125   2.139   6.112
   20CHTO   C12 8446   5.920   2.314   6.135
   20CHTO   H25 8447   5.916   2.333   6.025
   20CHTO    N3 8448   5.860   2.179   6.159
   20CHTO   H12 8449   5.756   2.179   6.128
   20CHTO   H13 8450   5.867   2.153   6.264
   20CHTO   C15 8451   5.847   2.432   6.209
   20CHTO   H28 8452   5.848   2.419   6.317
   20CHTO   O10 8453   5.705   2.452   6.164
   20CHTO    H4 8454   5.701   2.458   6.070
   20CHTO    O5 8455   5.907   2.557   6.173
   20CHTO   C10 8456   6.043   2.570   6.218
   20CHTO   H23 8457   6.045   2.562   6.327
   20CHTO   C17 8458   6.090   2.712   6.181
   20CHTO   O12 8459   6.016   2.813   6.250
   20CHTO    H6 8460   6.036   2.811   6.342
   21GLOH   H03 8461   8.807   1.743   0.127
   21GLOH    O1 8462   8.796   1.709   0.035
   21GLOH    C1 8463   8.758   1.570   0.036
   21GLOH   H02 8464   8.776   1.527   6.686
   21GLOH   H08 8465   8.651   1.561   0.054
   21GLOH    C2 8466   8.833   1.486   0.141
   21GLOH   H04 8467   8.940   1.508   0.130
   21GLOH    O2 8468   8.793   1.519   0.276
   21GLOH   H05 8469   8.804   1.618   0.287
   21GLOH    C3 8470   8.813   1.336   0.113
   21GLOH   H06 8471   8.709   1.318   0.087
   21GLOH   H07 8472   8.832   1.280   0.205
   21GLOH    O3 8473   8.899   1.290   0.008
   21GLOH   H01 8474   8.991   1.284   0.044
   22GLOH   H03 8475   8.479   7.321   3.084
   22GLOH    O1 8476   8.508   7.416   3.091
   22GLOH    C1 8477   8.557   7.435   3.225
   22GLOH   H02 8478   8.641   7.367   3.244
   22GLOH   H08 8479   8.479   7.409   3.297
   22GLOH    C2 8480   8.604   7.579   3.254
   22GLOH   H04 8481   8.666   7.610   3.169
   22GLOH    O2 8482   8.495   7.673   3.266
   22GLOH   H05 8483   8.452   7.679   3.177
   22GLOH    C3 8484   8.696   7.580   3.377
   22GLOH   H06 8485   8.704   7.683   3.411
   22GLOH   H07 8486   8.795   7.549   3.346
   22GLOH    O3 8487   8.649   7.497   3.485
   22GLOH   H01 8488   8.568   7.538   3.526
   23GLOH   H03 8489   7.817   7.985   5.949
   23GLOH    O1 8490   7.745   7.918   5.954
   23GLOH    C1 8491   7.620   7.984   5.982
   23GLOH   H02 8492   7.605   8.067   5.913
   23GLOH   H08 8493   7.620   8.025   6.082
   23GLOH    C2 8494   7.497   7.890   5.969
   23GLOH   H04 8495   7.409   7.944   6.007
   23GLOH    O2 8496   7.474   7.854   5.832
   23GLOH   H05 8497   7.536   7.782   5.809
   23GLOH    C3 8498   7.519   7.764   6.054
   23GLOH   H06 8499   7.433   7.698   6.041
   23GLOH   H07 8500   7.523   7.792   6.159
   23GLOH    O3 8501   7.639   7.696   6.015
   23GLOH   H01 8502   7.704   7.766   5.991
   24GLOH   H03 8503   0.807   3.101   0.083
   24GLOH    O1 8504   0.725   3.061   0.044
   24GLOH    C1 8505   0.723   2.921   0.078
   24GLOH   H02 8506   0.679   2.907   0.176
   24GLOH   H08 8507   0.825   2.881   0.082
   24GLOH    C2 8508   0.644   2.837   6.724
   24GLOH   H04 8509   0.690   2.852   6.625
   24GLOH    O2 8510   0.651   2.697   0.009
   24GLOH   H05 8511   0.603   2.681   0.094
   24GLOH    C3 8512   0.498   2.885   6.714
   24GLOH   H06 8513   0.448   2.825   6.637
   24GLOH   H07 8514   0.498   2.987   6.677
   24GLOH    O3 8515   0.424   2.876   0.089
   24GLOH   H01 8516   0.455   2.795   0.138
   25GLOH   H03 8517   5.348   1.143   3.943
   25GLOH    O1 8518   5.416   1.078   3.911
   25GLOH    C1 8519   5.452   0.988   4.018
   25GLOH   H02 8520   5.474   0.889   3.977
   25GLOH   H08 8521   5.369   0.976   4.087
   25GLOH    C2 8522   5.575   1.035   4.098
   25GLOH   H04 8523   5.552   1.135   4.140
   25GLOH    O2 8524   5.603   0.945   4.207
   25GLOH   H05 8525   5.644   0.861   4.170
   25GLOH    C3 8526   5.698   1.050   4.006
   25GLOH   H06 8527   5.701   0.964   3.939
   25GLOH   H07 8528   5.789   1.046   4.065
   25GLOH    O3 8529   5.696   1.172   3.929
   25GLOH   H01 8530   5.741   1.154   3.842
   26GLOH   H03 8531   6.003   2.552   4.272
   26GLOH    O1 8532   5.996   2.457   4.299
   26GLOH    C1 8533   6.109   2.420   4.381
   26GLOH   H02 8534   6.114   2.312   4.391
   26GLOH   H08 8535   6.097   2.460   4.482
   26GLOH    C2 8536   6.244   2.470   4.325
   26GLOH   H04 8537   6.238   2.579   4.322
   26GLOH    O2 8538   6.354   2.435   4.412
   26GLOH   H05 8539   6.399   2.353   4.379
   26GLOH    C3 8540   6.265   2.422   4.180
   26GLOH   H06 8541   6.362   2.459   4.146
   26GLOH   H07 8542   6.189   2.467   4.117
   26GLOH    O3 8543   6.261   2.278   4.167
   26GLOH   H01 8544   6.225   2.256   4.078
   27GLOH   H03 8545   1.493   8.542   3.362
   27GLOH    O1 8546   1.529   8.584   3.444
   27GLOH    C1 8547   1.603   8.482   3.516
   27GLOH   H02 8548   1.678   8.529   3.579
   27GLOH   H08 8549   1.657   8.418   3.446
   27GLOH    C2 8550   1.515   8.392   3.605
   27GLOH   H04 8551   1.471   8.454   3.684
   27GLOH    O2 8552   1.409   8.331   3.529
   27GLOH   H05 8553   1.446   8.283   3.449
   27GLOH    C3 8554   1.602   8.284   3.672
   27GLOH   H06 8555   1.643   8.219   3.595
   27GLOH   H07 8556   1.538   8.223   3.735
   27GLOH    O3 8557   1.708   8.342   3.751
   27GLOH   H01 8558   1.795   8.303   3.721
   28GLOH   H03 8559   4.473   2.358   0.061
   28GLOH    O1 8560   4.542   2.289   0.040
   28GLOH    C1 8561   4.576   2.304   6.649
   28GLOH   H02 8562   4.612   2.405   6.630
   28GLOH   H08 8563   4.487   2.290   6.588
   28GLOH    C2 8564   4.683   2.204   6.601
   28GLOH   H04 8565   4.763   2.200   6.677
   28GLOH    O2 8566   4.628   2.072   6.583
   28GLOH   H05 8567   4.584   2.072   6.496
   28GLOH    C3 8568   4.745   2.255   6.470
   28GLOH   H06 8569   4.826   2.188   6.441
   28GLOH   H07 8570   4.790   2.353   6.488
   28GLOH    O3 8571   4.648   2.264   6.364
   28GLOH   H01 8572   4.685   2.313   6.288
   29GLOH   H03 8573   4.030   5.947   5.179
   29GLOH    O1 8574   4.105   5.986   5.126
   29GLOH    C1 8575   4.068   6.117   5.080
   29GLOH   H02 8576   4.157   6.171   5.047
   29GLOH   H08 8577   4.024   6.175   5.161
   29GLOH    C2 8578   3.967   6.113   4.963
   29GLOH   H04 8579   3.878   6.057   4.996
   29GLOH    O2 8580   3.930   6.248   4.928
   29GLOH   H05 8581   3.863   6.247   4.854
   29GLOH    C3 8582   4.030   6.039   4.843
   29GLOH   H06 8583   4.077   5.948   4.878
   29GLOH   H07 8584   4.110   6.101   4.803
   29GLOH    O3 8585   3.935   6.008   4.739
   29GLOH   H01 8586   3.874   5.937   4.773
   30GLOH   H03 8587   7.259   7.137   3.709
   30GLOH    O1 8588   7.293   7.125   3.802
   30GLOH    C1 8589   7.389   7.229   3.831
   30GLOH   H02 8590   7.483   7.207   3.780
   30GLOH   H08 8591   7.412   7.230   3.938
   30GLOH    C2 8592   7.345   7.371   3.790
   30GLOH   H04 8593   7.415   7.442   3.836
   30GLOH    O2 8594   7.350   7.387   3.647
   30GLOH   H05 8595   7.403   7.469   3.626
   30GLOH    C3 8596   7.204   7.403   3.841
   30GLOH   H06 8597   7.135   7.328   3.803
   30GLOH   H07 8598   7.173   7.498   3.799
   30GLOH    O3 8599   7.198   7.409   3.985
   30GLOH   H01 8600   7.196   7.317   4.021
   31GLOH   H03 8601   0.063   7.600   0.403
   31GLOH    O1 8602   0.071   7.639   0.311
   31GLOH    C1 8603   9.986   7.755   0.305
   31GLOH   H02 8604   9.967   7.795   0.405
   31GLOH   H08 8605   9.888   7.727   0.265
   31GLOH    C2 8606   0.042   7.868   0.216
   31GLOH   H04 8607   0.028   7.837   0.112
   31GLOH    O2 8608   9.969   7.992   0.236
   31GLOH   H05 8609   9.967   8.015   0.334
   31GLOH    C3 8610   0.193   7.890   0.237
   31GLOH   H06 8611   0.245   7.806   0.191
   31GLOH   H07 8612   0.216   7.887   0.343
   31GLOH    O3 8613   0.236   8.015   0.179
   31GLOH   H01 8614   0.154   8.056   0.146
   32GLOH   H03 8615   7.337   2.661   1.636
   32GLOH    O1 8616   7.343   2.577   1.584
   32GLOH    C1 8617   7.458   2.501   1.627
   32GLOH   H02 8618   7.444   2.396   1.603
   32GLOH   H08 8619   7.468   2.507   1.736
   32GLOH    C2 8620   7.589   2.549   1.562
   32GLOH   H04 8621   7.673   2.502   1.616
   32GLOH    O2 8622   7.594   2.510   1.423
   32GLOH   H05 8623   7.682   2.536   1.385
   32GLOH    C3 8624   7.602   2.702   1.575
   32GLOH   H06 8625   7.529   2.749   1.510
   32GLOH   H07 8626   7.701   2.731   1.540
   32GLOH    O3 8627   7.583   2.745   1.711
   32GLOH   H01 8628   7.577   2.845   1.711
   33GLOH   H03 8629   8.123   9.649   2.392
   33GLOH    O1 8630   8.080   9.723   2.342
   33GLOH    C1 8631   8.129   9.721   2.207
   33GLOH   H02 8632   8.068   9.786   2.145
   33GLOH   H08 8633   8.120   9.620   2.166
   33GLOH    C2 8634   8.277   9.765   2.194
   33GLOH   H04 8635   8.290   9.855   2.255
   33GLOH    O2 8636   8.368   9.662   2.242
   33GLOH   H05 8637   8.461   9.690   2.218
   33GLOH    C3 8638   8.306   9.802   2.047
   33GLOH   H06 8639   8.226   9.867   2.011
   33GLOH   H07 8640   8.302   9.711   1.987
   33GLOH    O3 8641   8.434   9.867   2.029
   33GLOH   H01 8642   8.504   9.804   2.059
   34GLOH   H03 8643   9.042   9.578   1.596
   34GLOH    O1 8644   8.980   9.591   1.673
   34GLOH    C1 8645   9.026   9.505   1.779
   34GLOH   H02 8646   9.083   9.563   1.852
   34GLOH   H08 8647   9.094   9.428   1.741
   34GLOH    C2 8648   8.911   9.434   1.854
   34GLOH   H04 8649   8.855   9.373   1.781
   34GLOH    O2 8650   8.965   9.346   1.956
   34GLOH   H05 8651   8.895   9.281   1.979
   34GLOH    C3 8652   8.815   9.539   1.913
   34GLOH   H06 8653   8.762   9.586   1.829
   34GLOH   H07 8654   8.874   9.617   1.959
   34GLOH    O3 8655   8.718   9.485   2.007
   34GLOH   H01 8656   8.767   9.459   2.090
   35GLOH   H03 8657   2.264   8.764   5.634
   35GLOH    O1 8658   2.278   8.844   5.579
   35GLOH    C1 8659   2.288   8.809   5.440
   35GLOH   H02 8660   2.190   8.819   5.392
   35GLOH   H08 8661   2.318   8.705   5.429
   35GLOH    C2 8662   2.389   8.896   5.364
   35GLOH   H04 8663   2.489   8.875   5.404
   35GLOH    O2 8664   2.385   8.862   5.224
   35GLOH   H05 8665   2.469   8.895   5.181
   35GLOH    C3 8666   2.359   9.046   5.385
   35GLOH   H06 8667   2.365   9.068   5.491
   35GLOH   H07 8668   2.256   9.065   5.354
   35GLOH    O3 8669   2.449   9.133   5.313
   35GLOH   H01 8670   2.510   9.078   5.258
   36GLOH   H03 8671   4.226   8.018   0.872
   36GLOH    O1 8672   4.166   8.000   0.948
   36GLOH    C1 8673   4.188   8.103   1.047
   36GLOH   H02 8674   4.094   8.126   1.098
   36GLOH   H08 8675   4.222   8.195   1.000
   36GLOH    C2 8676   4.292   8.060   1.152
   36GLOH   H04 8677   4.385   8.032   1.099
   36GLOH    O2 8678   4.321   8.166   1.245
   36GLOH   H05 8679   4.413   8.203   1.224
   36GLOH    C3 8680   4.240   7.935   1.226
   36GLOH   H06 8681   4.149   7.962   1.279
   36GLOH   H07 8682   4.314   7.905   1.300
   36GLOH    O3 8683   4.215   7.828   1.133
   36GLOH   H01 8684   4.188   7.871   1.048
   37GLOH   H03 8685   3.745   5.835   5.818
   37GLOH    O1 8686   3.755   5.751   5.770
   37GLOH    C1 8687   3.808   5.651   5.858
   37GLOH   H02 8688   3.738   5.630   5.939
   37GLOH   H08 8689   3.900   5.686   5.905
   37GLOH    C2 8690   3.839   5.519   5.785
   37GLOH   H04 8691   3.869   5.444   5.860
   37GLOH    O2 8692   3.720   5.472   5.718
   37GLOH   H05 8693   3.673   5.551   5.685
   37GLOH    C3 8694   3.954   5.537   5.685
   37GLOH   H06 8695   3.924   5.611   5.611
   37GLOH   H07 8696   3.969   5.443   5.633
   37GLOH    O3 8697   4.076   5.578   5.751
   37GLOH   H01 8698   4.148   5.583   5.685
   38GLOH   H03 8699   7.113   2.890   2.444
   38GLOH    O1 8700   7.142   2.853   2.356
   38GLOH    C1 8701   7.265   2.782   2.378
   38GLOH   H02 8702   7.245   2.691   2.436
   38GLOH   H08 8703   7.334   2.842   2.437
   38GLOH    C2 8704   7.334   2.743   2.246
   38GLOH   H04 8705   7.260   2.690   2.183
   38GLOH    O2 8706   7.379   2.861   2.176
   38GLOH   H05 8707   7.473   2.848   2.141
   38GLOH    C3 8708   7.452   2.646   2.271
   38GLOH   H06 8709   7.532   2.702   2.318
   38GLOH   H07 8710   7.489   2.613   2.174
   38GLOH    O3 8711   7.417   2.531   2.351
   38GLOH   H01 8712   7.324   2.502   2.328
   39GLOH   H03 8713   9.728   1.479   5.121
   39GLOH    O1 8714   9.691   1.387   5.118
   39GLOH    C1 8715   9.749   1.312   5.225
   39GLOH   H02 8716   9.711   1.348   5.321
   39GLOH   H08 8717   9.857   1.325   5.227
   39GLOH    C2 8718   9.719   1.161   5.216
   39GLOH   H04 8719   9.776   1.110   5.296
   39GLOH    O2 8720   9.579   1.135   5.236
   39GLOH   H05 8721   9.526   1.187   5.169
   39GLOH    C3 8722   9.768   1.107   5.081
   39GLOH   H06 8723   9.870   1.141   5.066
   39GLOH   H07 8724   9.708   1.152   5.001
   39GLOH    O3 8725   9.762   0.963   5.073
   39GLOH   H01 8726   9.667   0.935   5.083
   40GLOH   H03 8727   1.508   2.458   4.085
   40GLOH    O1 8728   1.543   2.435   4.175
   40GLOH    C1 8729   1.561   2.292   4.185
   40GLOH   H02 8730   1.620   2.268   4.274
   40GLOH   H08 8731   1.617   2.255   4.099
   40GLOH    C2 8732   1.428   2.216   4.194
   40GLOH   H04 8733   1.371   2.234   4.102
   40GLOH    O2 8734   1.455   2.074   4.205
   40GLOH   H05 8735   1.445   2.036   4.114
   40GLOH    C3 8736   1.345   2.264   4.314
   40GLOH   H06 8737   1.401   2.245   4.405
   40GLOH   H07 8738   1.253   2.205   4.319
   40GLOH    O3 8739   1.314   2.404   4.303
   40GLOH   H01 8740   1.395   2.447   4.267
   41GLOH   H03 8741   1.347   1.146   2.138
   41GLOH    O1 8742   1.257   1.186   2.127
   41GLOH    C1 8743   1.186   1.178   2.253
   41GLOH   H02 8744   1.171   1.278   2.293
   41GLOH   H08 8745   1.243   1.121   2.327
   41GLOH    C2 8746   1.047   1.112   2.237
   41GLOH   H04 8747   1.063   1.009   2.203
   41GLOH    O2 8748   0.975   1.108   2.362
   41GLOH   H05 8749   0.985   1.015   2.399
   41GLOH    C3 8750   0.967   1.185   2.128
   41GLOH   H06 8751   0.959   1.291   2.154
   41GLOH   H07 8752   0.866   1.146   2.125
   41GLOH    O3 8753   1.032   1.169   2.001
   41GLOH   H01 8754   1.129   1.178   2.019
   42GLOH   H03 8755   4.509   4.884   4.719
   42GLOH    O1 8756   4.580   4.922   4.777
   42GLOH    C1 8757   4.668   5.008   4.702
   42GLOH   H02 8758   4.750   5.041   4.766
   42GLOH   H08 8759   4.615   5.098   4.672
   42GLOH    C2 8760   4.731   4.946   4.575
   42GLOH   H04 8761   4.791   5.025   4.526
   42GLOH    O2 8762   4.819   4.836   4.610
   42GLOH   H05 8763   4.848   4.791   4.526
   42GLOH    C3 8764   4.621   4.902   4.477
   42GLOH   H06 8765   4.543   4.978   4.476
   42GLOH   H07 8766   4.576   4.811   4.517
   42GLOH    O3 8767   4.669   4.877   4.344
   42GLOH   H01 8768   4.589   4.865   4.287
   43GLOH   H03 8769   0.172   7.712   1.722
   43GLOH    O1 8770   0.193   7.788   1.782
   43GLOH    C1 8771   0.164   7.909   1.709
   43GLOH   H02 8772   0.253   7.944   1.656
   43GLOH   H08 8773   0.134   7.989   1.776
   43GLOH    C2 8774   0.052   7.888   1.605
   43GLOH   H04 8775   9.965   7.844   1.656
   43GLOH    O2 8776   0.014   8.013   1.544
   43GLOH   H05 8777   0.094   8.054   1.500
   43GLOH    C3 8778   0.101   7.786   1.499
   43GLOH   H06 8779   0.183   7.831   1.443
   43GLOH   H07 8780   0.020   7.769   1.428
   43GLOH    O3 8781   0.144   7.662   1.559
   43GLOH   H01 8782   0.163   7.596   1.488
   44GLOH   H03 8783   9.568   1.072   5.373
   44GLOH    O1 8784   9.544   1.046   5.467
   44GLOH    C1 8785   9.501   1.165   5.536
   44GLOH   H02 8786   9.453   1.235   5.467
   44GLOH   H08 8787   9.586   1.217   5.579
   44GLOH    C2 8788   9.401   1.131   5.648
   44GLOH   H04 8789   9.450   1.062   5.719
   44GLOH    O2 8790   9.362   1.251   5.717
   44GLOH   H05 8791   9.407   1.256   5.804
   44GLOH    C3 8792   9.277   1.061   5.588
   44GLOH   H06 8793   9.221   1.132   5.528
   44GLOH   H07 8794   9.212   1.029   5.670
   44GLOH    O3 8795   9.317   0.947   5.509
   44GLOH   H01 8796   9.414   0.960   5.493
   45GLOH   H03 8797   6.984   2.112   1.494
   45GLOH    O1 8798   6.975   2.104   1.592
   45GLOH    C1 8799   6.844   2.047   1.616
   45GLOH   H02 8800   6.768   2.123   1.605
   45GLOH   H08 8801   6.837   2.010   1.718
   45GLOH    C2 8802   6.809   1.932   1.520
   45GLOH   H04 8803   6.880   1.850   1.538
   45GLOH    O2 8804   6.676   1.883   1.546
   45GLOH   H05 8805   6.656   1.807   1.484
   45GLOH    C3 8806   6.825   1.978   1.374
   45GLOH   H06 8807   6.753   2.058   1.355
   45GLOH   H07 8808   6.800   1.895   1.308
   45GLOH    O3 8809   6.959   2.025   1.347
   45GLOH   H01 8810   7.022   1.952   1.374
   46GLOH   H03 8811   5.557   5.921   1.812
   46GLOH    O1 8812   5.564   6.007   1.763
   46GLOH    C1 8813   5.654   6.098   1.829
   46GLOH   H02 8814   5.648   6.197   1.783
   46GLOH   H08 8815   5.757   6.064   1.816
   46GLOH    C2 8816   5.627   6.115   1.980
   46GLOH   H04 8817   5.659   6.022   2.030
   46GLOH    O2 8818   5.707   6.224   2.031
   46GLOH   H05 8819   5.649   6.284   2.085
   46GLOH    C3 8820   5.477   6.134   2.008
   46GLOH   H06 8821   5.423   6.048   1.969
   46GLOH   H07 8822   5.442   6.221   1.952
   46GLOH    O3 8823   5.449   6.150   2.148
   46GLOH   H01 8824   5.484   6.238   2.177
   47GLOH   H03 8825   8.786   1.962   3.325
   47GLOH    O1 8826   8.755   2.052   3.353
   47GLOH    C1 8827   8.847   2.103   3.452
   47GLOH   H02 8828   8.945   2.120   3.407
   47GLOH   H08 8829   8.861   2.031   3.532
   47GLOH    C2 8830   8.797   2.235   3.514
   47GLOH   H04 8831   8.769   2.302   3.432
   47GLOH    O2 8832   8.681   2.212   3.596
   47GLOH   H05 8833   8.633   2.300   3.608
   47GLOH    C3 8834   8.910   2.303   3.593
   47GLOH   H06 8835   8.945   2.234   3.670
   47GLOH   H07 8836   8.869   2.390   3.644
   47GLOH    O3 8837   9.018   2.341   3.506
   47GLOH   H01 8838   9.086   2.268   3.505
   48GLOH   H03 8839   7.601   6.239   4.969
   48GLOH    O1 8840   7.571   6.204   4.881
   48GLOH    C1 8841   7.687   6.183   4.797
   48GLOH   H02 8842   7.661   6.116   4.714
   48GLOH   H08 8843   7.767   6.135   4.853
   48GLOH    C2 8844   7.740   6.315   4.738
   48GLOH   H04 8845   7.767   6.382   4.822
   48GLOH    O2 8846   7.857   6.292   4.657
   48GLOH   H05 8847   7.930   6.250   4.711
   48GLOH    C3 8848   7.631   6.383   4.654
   48GLOH   H06 8849   7.620   6.330   4.559
   48GLOH   H07 8850   7.666   6.484   4.631
   48GLOH    O3 8851   7.504   6.389   4.722
   48GLOH   H01 8852   7.504   6.312   4.784
   49GLOH   H03 8853   7.675   0.481   0.646
   49GLOH    O1 8854   7.730   0.496   0.563
   49GLOH    C1 8855   7.866   0.522   0.606
   49GLOH   H02 8856   7.936   0.500   0.524
   49GLOH   H08 8857   7.894   0.456   0.689
   49GLOH    C2 8858   7.886   0.668   0.650
   49GLOH   H04 8859   7.815   0.690   0.731
   49GLOH    O2 8860   8.021   0.689   0.699
   49GLOH   H05 8861   8.032   0.786   0.726
   49GLOH    C3 8862   7.856   0.762   0.532
   49GLOH   H06 8863   7.931   0.747   0.454
   49GLOH   H07 8864   7.864   0.866   0.566
   49GLOH    O3 8865   7.724   0.737   0.480
   49GLOH   H01 8866   7.705   0.642   0.500
   50GLOH   H03 8867   0.245   2.563   6.654
   50GLOH    O1 8868   0.305   2.578   6.576
   50GLOH    C1 8869   0.261   2.499   6.464
   50GLOH   H02 8870   0.221   2.563   6.386
   50GLOH   H08 8871   0.181   2.431   6.494
   50GLOH    C2 8872   0.375   2.415   6.405
   50GLOH   H04 8873   0.414   2.349   6.484
   50GLOH    O2 8874   0.327   2.334   6.296
   50GLOH   H05 8875   0.405   2.304   6.246
   50GLOH    C3 8876   0.491   2.505   6.357
   50GLOH   H06 8877   0.525   2.566   6.441
   50GLOH   H07 8878   0.451   2.574   6.282
   50GLOH    O3 8879   0.599   2.428   6.302
   50GLOH   H01 8880   0.680   2.483   6.302
   51GLOH   H03 8881   8.177   2.122   0.483
   51GLOH    O1 8882   8.121   2.151   0.406
   51GLOH    C1 8883   8.022   2.051   0.374
   51GLOH   H02 8884   7.946   2.046   0.452
   51GLOH   H08 8885   8.068   1.952   0.368
   51GLOH    C2 8886   7.953   2.080   0.239
   51GLOH   H04 8887   8.030   2.078   0.160
   51GLOH    O2 8888   7.854   1.980   0.209
   51GLOH   H05 8889   7.833   1.984   0.114
   51GLOH    C3 8890   7.890   2.221   0.239
   51GLOH   H06 8891   7.805   2.221   0.308
   51GLOH   H07 8892   7.850   2.241   0.140
   51GLOH    O3 8893   7.985   2.321   0.276
   51GLOH   H01 8894   8.047   2.276   0.339
   52GLOH   H03 8895   7.775   9.514   2.876
   52GLOH    O1 8896   7.873   9.510   2.889
   52GLOH    C1 8897   7.936   9.555   2.767
   52GLOH   H02 8898   7.890   9.506   2.681
   52GLOH   H08 8899   8.041   9.527   2.766
   52GLOH    C2 8900   7.926   9.708   2.746
   52GLOH   H04 8901   7.963   9.728   2.644
   52GLOH    O2 8902   7.790   9.755   2.754
   52GLOH   H05 8903   7.755   9.737   2.844
   52GLOH    C3 8904   8.019   9.783   2.843
   52GLOH   H06 8905   8.006   9.742   2.943
   52GLOH   H07 8906   7.987   9.888   2.848
   52GLOH    O3 8907   8.157   9.775   2.805
   52GLOH   H01 8908   8.178   9.862   2.761
   53GLOH   H03 8909   6.973   8.268   3.804
   53GLOH    O1 8910   6.991   8.353   3.854
   53GLOH    C1 8911   7.083   8.321   3.960
   53GLOH   H02 8912   7.160   8.398   3.967
   53GLOH   H08 8913   7.134   8.227   3.940
   53GLOH    C2 8914   7.010   8.311   4.095
   53GLOH   H04 8915   6.927   8.239   4.085
   53GLOH    O2 8916   7.101   8.265   4.197
   53GLOH   H05 8917   7.124   8.170   4.173
   53GLOH    C3 8918   6.951   8.448   4.132
   53GLOH   H06 8919   7.032   8.517   4.155
   53GLOH   H07 8920   6.890   8.438   4.221
   53GLOH    O3 8921   6.872   8.498   4.022
   53GLOH   H01 8922   6.902   8.446   3.943
   54GLOH   H03 8923   1.726   6.083   6.070
   54GLOH    O1 8924   1.818   6.050   6.073
   54GLOH    C1 8925   1.887   6.082   5.950
   54GLOH   H02 8926   1.869   6.186   5.923
   54GLOH   H08 8927   1.848   6.021   5.868
   54GLOH    C2 8928   2.038   6.059   5.961
   54GLOH   H04 8929   2.079   6.128   6.036
   54GLOH    O2 8930   2.064   5.923   6.002
   54GLOH   H05 8931   2.003   5.904   6.076
   54GLOH    C3 8932   2.107   6.087   5.826
   54GLOH   H06 8933   2.073   6.013   5.754
   54GLOH   H07 8934   2.215   6.072   5.839
   54GLOH    O3 8935   2.082   6.220   5.778
   54GLOH   H01 8936   2.147   6.243   5.707
   55GLOH   H03 8937   6.812   0.038   1.128
   55GLOH    O1 8938   6.848   9.970   1.191
   55GLOH    C1 8939   6.749   9.865   1.202
   55GLOH   H02 8940   6.799   9.769   1.215
   55GLOH   H08 8941   6.691   9.858   1.110
   55GLOH    C2 8942   6.648   9.881   1.319
   55GLOH   H04 8943   6.570   9.806   1.305
   55GLOH    O2 8944   6.713   9.858   1.446
   55GLOH   H05 8945   6.650   9.880   1.520
   55GLOH    C3 8946   6.581   0.020   1.315
   55GLOH   H06 8947   6.553   0.043   1.212
   55GLOH   H07 8948   6.655   0.095   1.344
   55GLOH    O3 8949   6.465   0.029   1.401
   55GLOH   H01 8950   6.402   0.096   1.365
   56GLOH   H03 8951   1.070   2.987   4.394
   56GLOH    O1 8952   1.129   3.068   4.393
   56GLOH    C1 8953   1.045   3.185   4.394
   56GLOH   H02 8954   0.953   3.165   4.338
   56GLOH   H08 8955   1.095   3.267   4.343
   56GLOH    C2 8956   1.007   3.233   4.535
   56GLOH   H04 8957   0.973   3.146   4.594
   56GLOH    O2 8958   1.122   3.292   4.600
   56GLOH   H05 8959   1.195   3.224   4.605
   56GLOH    C3 8960   0.892   3.336   4.528
   56GLOH   H06 8961   0.828   3.311   4.444
   56GLOH   H07 8962   0.934   3.434   4.508
   56GLOH    O3 8963   0.814   3.338   4.649
   56GLOH   H01 8964   0.750   3.263   4.639
   57GLOH   H03 8965   2.962   1.079   6.494
   57GLOH    O1 8966   2.872   1.100   6.524
   57GLOH    C1 8967   2.876   1.162   6.654
   57GLOH   H02 8968   2.947   1.110   6.718
   57GLOH   H08 8969   2.778   1.154   6.703
   57GLOH    C2 8970   2.914   1.311   6.645
   57GLOH   H04 8971   3.013   1.319   6.598
   57GLOH    O2 8972   2.816   1.381   6.566
   57GLOH   H05 8973   2.796   1.325   6.488
   57GLOH    C3 8974   2.922   1.373   0.037
   57GLOH   H06 8975   2.822   1.376   0.080
   57GLOH   H07 8976   2.955   1.476   0.027
   57GLOH    O3 8977   3.011   1.300   0.123
   57GLOH   H01 8978   2.985   1.322   0.217
   58GLOH   H03 8979   1.018   0.968   6.645
   58GLOH    O1 8980   0.927   1.006   6.649
   58GLOH    C1 8981   0.893   1.029   0.039
   58GLOH   H02 8982   0.954   1.110   0.080
   58GLOH   H08 8983   0.913   0.940   0.098
   58GLOH    C2 8984   0.744   1.067   0.057
   58GLOH   H04 8985   0.682   0.983   0.021
   58GLOH    O2 8986   0.716   1.090   0.197
   58GLOH   H05 8987   0.737   1.008   0.248
   58GLOH    C3 8988   0.709   1.191   6.722
   58GLOH   H06 8989   0.761   1.278   0.016
   58GLOH   H07 8990   0.602   1.210   6.731
   58GLOH    O3 8991   0.745   1.174   6.584
   58GLOH   H01 8992   0.818   1.107   6.583
   59GLOH   H03 8993   5.998   0.474   1.867
   59GLOH    O1 8994   6.080   0.438   1.911
   59GLOH    C1 8995   6.087   0.297   1.880
   59GLOH   H02 8996   6.187   0.270   1.849
   59GLOH   H08 8997   6.020   0.273   1.798
   59GLOH    C2 8998   6.047   0.211   2.002
   59GLOH   H04 8999   5.947   0.242   2.035
   59GLOH    O2 9000   6.043   0.071   1.965
   59GLOH   H05 9001   5.957   0.055   1.916
   59GLOH    C3 9002   6.146   0.236   2.116
   59GLOH   H06 9003   6.242   0.190   2.090
   59GLOH   H07 9004   6.110   0.186   2.206
   59GLOH    O3 9005   6.161   0.377   2.139
   59GLOH   H01 9006   6.133   0.420   2.053
   60GLOH   H03 9007   9.381   1.940   0.368
   60GLOH    O1 9008   9.319   1.983   0.304
   60GLOH    C1 9009   9.398   2.045   0.200
   60GLOH   H02 9010   9.419   1.972   0.121
   60GLOH   H08 9011   9.494   2.078   0.239
   60GLOH    C2 9012   9.328   2.167   0.136
   60GLOH   H04 9013   9.231   2.134   0.096
   60GLOH    O2 9014   9.305   2.272   0.233
   60GLOH   H05 9015   9.393   2.299   0.272
   60GLOH    C3 9016   9.412   2.221   0.020
   60GLOH   H06 9017   9.509   2.253   0.059
   60GLOH   H07 9018   9.363   2.310   6.728
   60GLOH    O3 9019   9.430   2.124   6.664
   60GLOH   H01 9020   9.463   2.167   6.583
   61GLOH   H03 9021   5.087   1.773   5.965
   61GLOH    O1 9022   5.143   1.751   5.887
   61GLOH    C1 9023   5.110   1.845   5.783
   61GLOH   H02 9024   5.027   1.807   5.723
   61GLOH   H08 9025   5.195   1.857   5.716
   61GLOH    C2 9026   5.072   1.983   5.838
   61GLOH   H04 9027   5.158   2.024   5.894
   61GLOH    O2 9028   5.039   2.072   5.730
   61GLOH   H05 9029   5.120   2.092   5.677
   61GLOH    C3 9030   4.953   1.971   5.934
   61GLOH   H06 9031   4.866   1.939   5.877
   61GLOH   H07 9032   4.930   2.070   5.974
   61GLOH    O3 9033   4.978   1.879   6.042
   61GLOH   H01 9034   4.906   1.885   6.108
   62GLOH   H03 9035   6.784   1.218   2.095
   62GLOH    O1 9036   6.733   1.177   2.020
   62GLOH    C1 9037   6.679   1.054   2.070
   62GLOH   H02 9038   6.632   1.069   2.168
   62GLOH   H08 9039   6.760   0.982   2.086
   62GLOH    C2 9040   6.575   0.989   1.977
   62GLOH   H04 9041   6.622   0.978   1.878
   62GLOH    O2 9042   6.539   0.857   2.025
   62GLOH   H05 9043   6.621   0.810   2.059
   62GLOH    C3 9044   6.451   1.079   1.961
   62GLOH   H06 9045   6.379   1.026   1.898
   62GLOH   H07 9046   6.480   1.168   1.906
   62GLOH    O3 9047   6.389   1.116   2.085
   62GLOH   H01 9048   6.297   1.145   2.064
   63GLOH   H03 9049   5.930   7.403   4.971
   63GLOH    O1 9050   5.920   7.374   4.876
   63GLOH    C1 9051   5.982   7.244   4.864
   63GLOH   H02 9052   5.970   7.207   4.762
   63GLOH   H08 9053   5.932   7.172   4.929
   63GLOH    C2 9054   6.132   7.243   4.899
   63GLOH   H04 9055   6.182   7.319   4.839
   63GLOH    O2 9056   6.154   7.271   5.040
   63GLOH   H05 9057   6.086   7.336   5.073
   63GLOH    C3 9058   6.192   7.106   4.863
   63GLOH   H06 9059   6.145   7.030   4.926
   63GLOH   H07 9060   6.298   7.107   4.889
   63GLOH    O3 9061   6.175   7.073   4.724
   63GLOH   H01 9062   6.228   6.992   4.706
   64GLOH   H03 9063   0.953   1.234   4.668
   64GLOH    O1 9064   0.987   1.184   4.589
   64GLOH    C1 9065   1.017   1.278   4.484
   64GLOH   H02 9066   0.974   1.376   4.507
   64GLOH   H08 9067   0.971   1.245   4.391
   64GLOH    C2 9068   1.169   1.294   4.460
   64GLOH   H04 9069   1.220   1.284   4.557
   64GLOH    O2 9070   1.221   1.192   4.371
   64GLOH   H05 9071   1.230   1.106   4.422
   64GLOH    C3 9072   1.201   1.434   4.405
   64GLOH   H06 9073   1.151   1.445   4.309
   64GLOH   H07 9074   1.308   1.440   4.386
   64GLOH    O3 9075   1.160   1.541   4.494
   64GLOH   H01 9076   1.190   1.522   4.587
   65GLOH   H03 9077   4.797   7.367   4.253
   65GLOH    O1 9078   4.847   7.318   4.182
   65GLOH    C1 9079   4.987   7.326   4.215
   65GLOH   H02 9080   5.047   7.271   4.143
   65GLOH   H08 9081   5.005   7.278   4.312
   65GLOH    C2 9082   5.041   7.470   4.223
   65GLOH   H04 9083   4.980   7.525   4.296
   65GLOH    O2 9084   5.178   7.470   4.270
   65GLOH   H05 9085   5.239   7.440   4.197
   65GLOH    C3 9086   5.028   7.543   4.088
   65GLOH   H06 9087   5.066   7.645   4.101
   65GLOH   H07 9088   4.923   7.552   4.064
   65GLOH    O3 9089   5.099   7.479   3.980
   65GLOH   H01 9090   5.189   7.453   4.012
   66GLOH   H03 9091   3.649   4.696   3.885
   66GLOH    O1 9092   3.594   4.657   3.958
   66GLOH    C1 9093   3.656   4.532   3.995
   66GLOH   H02 9094   3.619   4.451   3.931
   66GLOH   H08 9095   3.628   4.506   4.097
   66GLOH    C2 9096   3.809   4.537   3.985
   66GLOH   H04 9097   3.845   4.617   4.051
   66GLOH    O2 9098   3.868   4.412   4.029
   66GLOH   H05 9099   3.867   4.415   4.130
   66GLOH    C3 9100   3.851   4.573   3.841
   66GLOH   H06 9101   3.810   4.498   3.772
   66GLOH   H07 9102   3.960   4.568   3.833
   66GLOH    O3 9103   3.804   4.705   3.805
   66GLOH   H01 9104   3.841   4.732   3.717
   67GLOH   H03 9105   6.512   7.177   5.150
   67GLOH    O1 9106   6.569   7.099   5.172
   67GLOH    C1 9107   6.683   7.140   5.249
   67GLOH   H02 9108   6.692   7.080   5.340
   67GLOH   H08 9109   6.673   7.244   5.282
   67GLOH    C2 9110   6.815   7.127   5.170
   67GLOH   H04 9111   6.810   7.196   5.084
   67GLOH    O2 9112   6.927   7.162   5.252
   67GLOH   H05 9113   6.964   7.249   5.221
   67GLOH    C3 9114   6.830   6.984   5.115
   67GLOH   H06 9115   6.835   6.915   5.200
   67GLOH   H07 9116   6.924   6.976   5.060
   67GLOH    O3 9117   6.719   6.950   5.031
   67GLOH   H01 9118   6.640   6.991   5.076
   68GLOH   H03 9119   0.025   5.625   2.882
   68GLOH    O1 9120   9.951   5.610   2.946
   68GLOH    C1 9121   9.987   5.679   3.067
   68GLOH   H02 9122   0.055   5.617   3.126
   68GLOH   H08 9123   9.899   5.695   3.128
   68GLOH    C2 9124   0.055   5.814   3.039
   68GLOH   H04 9125   9.989   5.875   2.976
   68GLOH    O2 9126   0.082   5.883   3.163
   68GLOH   H05 9127   0.057   5.980   3.158
   68GLOH    C3 9128   0.188   5.790   2.964
   68GLOH   H06 9129   0.259   5.744   3.032
   68GLOH   H07 9130   0.229   5.887   2.936
   68GLOH    O3 9131   0.171   5.708   2.847
   68GLOH   H01 9132   0.257   5.707   2.798
   69GLOH   H03 9133   5.240   3.669   3.237
   69GLOH    O1 9134   5.246   3.732   3.314
   69GLOH    C1 9135   5.157   3.686   3.418
   69GLOH   H02 9136   5.150   3.762   3.496
   69GLOH   H08 9137   5.197   3.597   3.465
   69GLOH    C2 9138   5.015   3.655   3.366
   69GLOH   H04 9139   4.981   3.741   3.307
   69GLOH    O2 9140   5.015   3.538   3.280
   69GLOH   H05 9141   5.095   3.545   3.219
   69GLOH    C3 9142   4.919   3.637   3.485
   69GLOH   H06 9143   4.958   3.557   3.549
   69GLOH   H07 9144   4.823   3.604   3.447
   69GLOH    O3 9145   4.905   3.759   3.560
   69GLOH   H01 9146   4.837   3.816   3.515
   70GLOH   H03 9147   4.758   5.596   1.392
   70GLOH    O1 9148   4.738   5.506   1.430
   70GLOH    C1 9149   4.618   5.460   1.366
   70GLOH   H02 9150   4.591   5.523   1.281
   70GLOH   H08 9151   4.534   5.465   1.436
   70GLOH    C2 9152   4.630   5.315   1.316
   70GLOH   H04 9153   4.661   5.252   1.401
   70GLOH    O2 9154   4.503   5.267   1.266
   70GLOH   H05 9155   4.513   5.168   1.253
   70GLOH    C3 9156   4.739   5.303   1.208
   70GLOH   H06 9157   4.744   5.199   1.175
   70GLOH   H07 9158   4.836   5.326   1.254
   70GLOH    O3 9159   4.717   5.389   1.095
   70GLOH   H01 9160   4.791   5.455   1.093
   71GLOH   H03 9161   4.758   7.768   6.150
   71GLOH    O1 9162   4.848   7.800   6.171
   71GLOH    C1 9163   4.890   7.899   6.075
   71GLOH   H02 9164   4.860   7.869   5.975
   71GLOH   H08 9165   4.999   7.906   6.075
   71GLOH    C2 9166   4.832   8.038   6.106
   71GLOH   H04 9167   4.722   8.031   6.103
   71GLOH    O2 9168   4.873   8.080   6.238
   71GLOH   H05 9169   4.871   8.001   6.296
   71GLOH    C3 9170   4.877   8.140   6.001
   71GLOH   H06 9171   4.986   8.150   6.007
   71GLOH   H07 9172   4.835   8.237   6.027
   71GLOH    O3 9173   4.837   8.101   5.869
   71GLOH   H01 9174   4.859   8.172   5.805
   72GLOH   H03 9175   1.218   7.804   0.611
   72GLOH    O1 9176   1.251   7.712   0.591
   72GLOH    C1 9177   1.209   7.676   0.458
   72GLOH   H02 9178   1.100   7.679   0.453
   72GLOH   H08 9179   1.239   7.574   0.435
   72GLOH    C2 9180   1.264   7.769   0.347
   72GLOH   H04 9181   1.241   7.873   0.375
   72GLOH    O2 9182   1.408   7.757   0.335
   72GLOH   H05 9183   1.431   7.675   0.282
   72GLOH    C3 9184   1.196   7.741   0.212
   72GLOH   H06 9185   1.221   7.640   0.181
   72GLOH   H07 9186   1.240   7.808   0.138
   72GLOH    O3 9187   1.053   7.757   0.215
   72GLOH   H01 9188   1.020   7.760   0.122
   73GLOH   H03 9189   8.448   1.365   1.905
   73GLOH    O1 9190   8.449   1.286   1.844
   73GLOH    C1 9191   8.436   1.166   1.924
   73GLOH   H02 9192   8.335   1.125   1.913
   73GLOH   H08 9193   8.448   1.190   2.030
   73GLOH    C2 9194   8.537   1.056   1.887
   73GLOH   H04 9195   8.638   1.099   1.895
   73GLOH    O2 9196   8.526   0.946   1.980
   73GLOH   H05 9197   8.433   0.909   1.979
   73GLOH    C3 9198   8.515   1.007   1.743
   73GLOH   H06 9199   8.503   1.094   1.678
   73GLOH   H07 9200   8.422   0.952   1.739
   73GLOH    O3 9201   8.624   0.926   1.694
   73GLOH   H01 9202   8.694   0.990   1.663
   74GLOH   H03 9203   3.401   4.775   0.197
   74GLOH    O1 9204   3.388   4.685   0.237
   74GLOH    C1 9205   3.408   4.583   0.136
   74GLOH   H02 9206   3.436   4.489   0.184
   74GLOH   H08 9207   3.491   4.611   0.070
   74GLOH    C2 9208   3.283   4.557   0.050
   74GLOH   H04 9209   3.259   4.649   6.743
   74GLOH    O2 9210   3.311   4.451   6.704
   74GLOH   H05 9211   3.242   4.451   6.635
   74GLOH    C3 9212   3.164   4.521   0.140
   74GLOH   H06 9213   3.184   4.425   0.189
   74GLOH   H07 9214   3.075   4.507   0.077
   74GLOH    O3 9215   3.140   4.623   0.238
   74GLOH   H01 9216   3.230   4.650   0.271
   75GLOH   H03 9217   3.029   4.932   4.071
   75GLOH    O1 9218   3.002   4.909   4.164
   75GLOH    C1 9219   2.948   4.775   4.165
   75GLOH   H02 9220   2.963   4.729   4.263
   75GLOH   H08 9221   3.002   4.713   4.093
   75GLOH    C2 9222   2.798   4.771   4.131
   75GLOH   H04 9223   2.788   4.802   4.026
   75GLOH    O2 9224   2.748   4.636   4.146
   75GLOH   H05 9225   2.706   4.627   4.237
   75GLOH    C3 9226   2.722   4.873   4.218
   75GLOH   H06 9227   2.769   4.970   4.207
   75GLOH   H07 9228   2.734   4.844   4.322
   75GLOH    O3 9229   2.582   4.885   4.185
   75GLOH   H01 9230   2.550   4.964   4.236
   76GLOH   H03 9231   7.876   6.536   4.315
   76GLOH    O1 9232   7.797   6.478   4.300
   76GLOH    C1 9233   7.740   6.505   4.170
   76GLOH   H02 9234   7.675   6.592   4.175
   76GLOH   H08 9235   7.677   6.421   4.140
   76GLOH    C2 9236   7.843   6.528   4.058
   76GLOH   H04 9237   7.911   6.609   4.090
   76GLOH    O2 9238   7.922   6.410   4.029
   76GLOH   H05 9239   7.963   6.374   4.112
   76GLOH    C3 9240   7.769   6.575   3.932
   76GLOH   H06 9241   7.698   6.498   3.902
   76GLOH   H07 9242   7.841   6.585   3.850
   76GLOH    O3 9243   7.702   6.701   3.953
   76GLOH   H01 9244   7.769   6.773   3.942
   77GLOH   H03 9245   1.197   8.564   3.549
   77GLOH    O1 9246   1.121   8.502   3.537
   77GLOH    C1 9247   1.049   8.535   3.417
   77GLOH   H02 9248   1.107   8.504   3.330
   77GLOH   H08 9249   1.036   8.643   3.409
   77GLOH    C2 9250   0.910   8.469   3.411
   77GLOH   H04 9251   0.857   8.495   3.504
   77GLOH    O2 9252   0.832   8.519   3.300
   77GLOH   H05 9253   0.885   8.506   3.216
   77GLOH    C3 9254   0.919   8.315   3.405
   77GLOH   H06 9255   0.817   8.276   3.407
   77GLOH   H07 9256   0.967   8.280   3.496
   77GLOH    O3 9257   0.989   8.264   3.290
   77GLOH   H01 9258   0.976   8.328   3.215
   78GLOH   H03 9259   9.463   9.312   3.608
   78GLOH    O1 9260   9.538   9.371   3.579
   78GLOH    C1 9261   9.537   9.366   3.435
   78GLOH   H02 9262   9.479   9.281   3.399
   78GLOH   H08 9263   9.638   9.352   3.397
   78GLOH    C2 9264   9.480   9.493   3.367
   78GLOH   H04 9265   9.556   9.571   3.379
   78GLOH    O2 9266   9.463   9.470   3.226
   78GLOH   H05 9267   9.370   9.439   3.205
   78GLOH    C3 9268   9.352   9.546   3.435
   78GLOH   H06 9269   9.310   9.623   3.371
   78GLOH   H07 9270   9.383   9.596   3.527
   78GLOH    O3 9271   9.252   9.447   3.464
   78GLOH   H01 9272   9.163   9.492   3.465
   79GLOH   H03 9273   0.335   2.891   1.869
   79GLOH    O1 9274   0.388   2.923   1.946
   79GLOH    C1 9275   0.505   2.841   1.965
   79GLOH   H02 9276   0.570   2.845   1.877
   79GLOH   H08 9277   0.477   2.737   1.979
   79GLOH    C2 9278   0.587   2.885   2.088
   79GLOH   H04 9279   0.521   2.885   2.175
   79GLOH    O2 9280   0.697   2.794   2.110
   79GLOH   H05 9281   0.731   2.805   2.204
   79GLOH    C3 9282   0.640   3.029   2.068
   79GLOH   H06 9283   0.557   3.095   2.046
   79GLOH   H07 9284   0.705   3.030   1.980
   79GLOH    O3 9285   0.712   3.077   2.183
   79GLOH   H01 9286   0.807   3.051   2.171
   80GLOH   H03 9287   6.567   1.026   6.723
   80GLOH    O1 9288   6.541   0.954   6.661
   80GLOH    C1 9289   6.654   0.918   6.580
   80GLOH   H02 9290   6.625   0.842   6.507
   80GLOH   H08 9291   6.732   0.874   6.642
   80GLOH    C2 9292   6.715   1.038   6.504
   80GLOH   H04 9293   6.634   1.090   6.452
   80GLOH    O2 9294   6.781   1.130   6.594
   80GLOH   H05 9295   6.726   1.143   6.675
   80GLOH    C3 9296   6.815   0.987   6.399
   80GLOH   H06 9297   6.763   0.923   6.328
   80GLOH   H07 9298   6.891   0.927   6.448
   80GLOH    O3 9299   6.876   1.097   6.329
   80GLOH   H01 9300   6.879   1.171   6.393
   81GLOH   H03 9301   4.521   3.037   0.931
   81GLOH    O1 9302   4.578   2.958   0.912
   81GLOH    C1 9303   4.520   2.879   0.807
   81GLOH   H02 9304   4.504   2.939   0.718
   81GLOH   H08 9305   4.422   2.841   0.837
   81GLOH    C2 9306   4.609   2.758   0.769
   81GLOH   H04 9307   4.634   2.706   0.863
   81GLOH    O2 9308   4.539   2.666   0.683
   81GLOH   H05 9309   4.473   2.614   0.738
   81GLOH    C3 9310   4.743   2.806   0.708
   81GLOH   H06 9311   4.800   2.718   0.679
   81GLOH   H07 9312   4.800   2.856   0.786
   81GLOH    O3 9313   4.729   2.894   0.594
   81GLOH   H01 9314   4.689   2.843   0.519
   82GLOH   H03 9315   2.078   4.885   5.259
   82GLOH    O1 9316   2.012   4.811   5.267
   82GLOH    C1 9317   1.924   4.822   5.153
   82GLOH   H02 9318   1.956   4.755   5.074
   82GLOH   H08 9319   1.926   4.923   5.112
   82GLOH    C2 9320   1.778   4.788   5.187
   82GLOH   H04 9321   1.742   4.859   5.263
   82GLOH    O2 9322   1.694   4.799   5.070
   82GLOH   H05 9323   1.728   4.734   4.999
   82GLOH    C3 9324   1.768   4.646   5.245
   82GLOH   H06 9325   1.801   4.574   5.170
   82GLOH   H07 9326   1.662   4.625   5.265
   82GLOH    O3 9327   1.845   4.632   5.365
   82GLOH   H01 9328   1.920   4.695   5.357
   83GLOH   H03 9329   9.324   7.207   2.281
   83GLOH    O1 9330   9.339   7.122   2.231
   83GLOH    C1 9331   9.412   7.035   2.319
   83GLOH   H02 9332   9.346   7.002   2.400
   83GLOH   H08 9333   9.494   7.089   2.367
   83GLOH    C2 9334   9.469   6.910   2.250
   83GLOH   H04 9335   9.385   6.850   2.211
   83GLOH    O2 9336   9.559   6.942   2.142
   83GLOH   H05 9337   9.563   6.863   2.081
   83GLOH    C3 9338   9.543   6.825   2.355
   83GLOH   H06 9339   9.621   6.887   2.398
   83GLOH   H07 9340   9.592   6.741   2.305
   83GLOH    O3 9341   9.456   6.777   2.459
   83GLOH   H01 9342   9.372   6.742   2.419
   84GLOH   H03 9343   9.804   2.924   5.659
   84GLOH    O1 9344   9.762   2.995   5.606
   84GLOH    C1 9345   9.776   2.967   5.466
   84GLOH   H02 9346   9.739   2.867   5.443
   84GLOH   H08 9347   9.881   2.970   5.437
   84GLOH    C2 9348   9.699   3.070   5.381
   84GLOH   H04 9349   9.593   3.069   5.413
   84GLOH    O2 9350   9.753   3.201   5.401
   84GLOH   H05 9351   9.754   3.216   5.498
   84GLOH    C3 9352   9.704   3.032   5.231
   84GLOH   H06 9353   9.807   3.040   5.198
   84GLOH   H07 9354   9.647   3.107   5.175
   84GLOH    O3 9355   9.653   2.900   5.206
   84GLOH   H01 9356   9.557   2.899   5.225
   85GLOH   H03 9357   6.987   1.255   5.847
   85GLOH    O1 9358   6.959   1.333   5.898
   85GLOH    C1 9359   6.983   1.453   5.823
   85GLOH   H02 9360   6.938   1.446   5.723
   85GLOH   H08 9361   7.090   1.469   5.808
   85GLOH    C2 9362   6.925   1.577   5.893
   85GLOH   H04 9363   6.816   1.567   5.896
   85GLOH    O2 9364   6.977   1.587   6.027
   85GLOH   H05 9365   6.971   1.497   6.065
   85GLOH    C3 9366   6.960   1.704   5.814
   85GLOH   H06 9367   7.069   1.716   5.814
   85GLOH   H07 9368   6.919   1.790   5.865
   85GLOH    O3 9369   6.912   1.700   5.679
   85GLOH   H01 9370   6.932   1.787   5.637
   86GLOH   H03 9371   6.299   1.799   3.710
   86GLOH    O1 9372   6.224   1.821   3.648
   86GLOH    C1 9373   6.107   1.843   3.729
   86GLOH   H02 9374   6.039   1.911   3.678
   86GLOH   H08 9375   6.134   1.890   3.824
   86GLOH    C2 9376   6.033   1.711   3.758
   86GLOH   H04 9377   6.104   1.641   3.804
   86GLOH    O2 9378   5.923   1.734   3.850
   86GLOH   H05 9379   5.847   1.671   3.829
   86GLOH    C3 9380   5.985   1.649   3.625
   86GLOH   H06 9381   5.910   1.715   3.581
   86GLOH   H07 9382   5.938   1.554   3.645
   86GLOH    O3 9383   6.096   1.632   3.536
   86GLOH   H01 9384   6.160   1.704   3.558
   87GLOH   H03 9385   7.277   3.146   2.438
   87GLOH    O1 9386   7.242   3.182   2.524
   87GLOH    C1 9387   7.356   3.221   2.603
   87GLOH   H02 9388   7.414   3.295   2.547
   87GLOH   H08 9389   7.422   3.136   2.620
   87GLOH    C2 9390   7.320   3.284   2.739
   87GLOH   H04 9391   7.263   3.376   2.721
   87GLOH    O2 9392   7.240   3.194   2.819
   87GLOH   H05 9393   7.146   3.202   2.787
   87GLOH    C3 9394   7.448   3.322   2.815
   87GLOH   H06 9395   7.508   3.232   2.827
   87GLOH   H07 9396   7.420   3.355   2.915
   87GLOH    O3 9397   7.524   3.424   2.748
   87GLOH   H01 9398   7.585   3.381   2.682
   88GLOH   H03 9399   9.132   8.040   2.969
   88GLOH    O1 9400   9.039   8.069   2.952
   88GLOH    C1 9401   8.950   7.976   3.017
   88GLOH   H02 9402   8.998   7.878   3.026
   88GLOH   H08 9403   8.860   7.961   2.958
   88GLOH    C2 9404   8.909   8.023   3.158
   88GLOH   H04 9405   9.000   8.050   3.213
   88GLOH    O2 9406   8.825   8.140   3.150
   88GLOH   H05 9407   8.865   8.197   3.080
   88GLOH    C3 9408   8.840   7.909   3.236
   88GLOH   H06 9409   8.757   7.871   3.175
   88GLOH   H07 9410   8.795   7.951   3.326
   88GLOH    O3 9411   8.930   7.802   3.270
   88GLOH   H01 9412   8.918   7.780   3.366
   89GLOH   H03 9413   7.556   8.964   1.921
   89GLOH    O1 9414   7.546   8.866   1.902
   89GLOH    C1 9415   7.631   8.834   1.790
   89GLOH   H02 9416   7.627   8.727   1.769
   89GLOH   H08 9417   7.735   8.857   1.814
   89GLOH    C2 9418   7.591   8.910   1.663
   89GLOH   H04 9419   7.594   9.018   1.684
   89GLOH    O2 9420   7.683   8.881   1.556
   89GLOH   H05 9421   7.776   8.907   1.585
   89GLOH    C3 9422   7.447   8.874   1.622
   89GLOH   H06 9423   7.445   8.770   1.589
   89GLOH   H07 9424   7.418   8.935   1.537
   89GLOH    O3 9425   7.354   8.893   1.731
   89GLOH   H01 9426   7.404   8.869   1.812
   90GLOH   H03 9427   9.160   2.731   1.030
   90GLOH    O1 9428   9.124   2.641   1.050
   90GLOH    C1 9429   9.204   2.546   0.976
   90GLOH   H02 9430   9.211   2.578   0.871
   90GLOH   H08 9431   9.155   2.449   0.975
   90GLOH    C2 9432   9.347   2.528   1.030
   90GLOH   H04 9433   9.397   2.452   0.969
   90GLOH    O2 9434   9.422   2.652   1.021
   90GLOH   H05 9435   9.414   2.688   0.927
   90GLOH    C3 9436   9.343   2.477   1.176
   90GLOH   H06 9437   9.278   2.390   1.179
   90GLOH   H07 9438   9.297   2.554   1.238
   90GLOH    O3 9439   9.473   2.444   1.227
   90GLOH   H01 9440   9.527   2.526   1.229
   91GLOH   H03 9441   7.717   3.137   5.321
   91GLOH    O1 9442   7.669   3.080   5.386
   91GLOH    C1 9443   7.596   2.977   5.317
   91GLOH   H02 9444   7.551   2.909   5.389
   91GLOH   H08 9445   7.664   2.917   5.256
   91GLOH    C2 9446   7.486   3.031   5.225
   91GLOH   H04 9447   7.420   3.097   5.284
   91GLOH    O2 9448   7.543   3.106   5.115
   91GLOH   H05 9449   7.636   3.135   5.140
   91GLOH    C3 9450   7.402   2.912   5.174
   91GLOH   H06 9451   7.378   2.848   5.260
   91GLOH   H07 9452   7.465   2.853   5.108
   91GLOH    O3 9453   7.281   2.950   5.107
   91GLOH   H01 9454   7.304   3.004   5.028
   92GLOH   H03 9455   0.935   9.408   3.787
   92GLOH    O1 9456   0.942   9.395   3.689
   92GLOH    C1 9457   0.823   9.443   3.623
   92GLOH   H02 9458   0.756   9.491   3.694
   92GLOH   H08 9459   0.769   9.358   3.580
   92GLOH    C2 9460   0.853   9.542   3.509
   92GLOH   H04 9461   0.923   9.494   3.439
   92GLOH    O2 9462   0.731   9.576   3.440
   92GLOH   H05 9463   0.669   9.627   3.500
   92GLOH    C3 9464   0.921   9.669   3.566
   92GLOH   H06 9465   0.992   9.639   3.643
   92GLOH   H07 9466   0.845   9.730   3.614
   92GLOH    O3 9467   0.988   9.748   3.465
   92GLOH   H01 9468   0.919   9.799   3.414
   93GLOH   H03 9469   1.496   6.687   4.641
   93GLOH    O1 9470   1.431   6.746   4.688
   93GLOH    C1 9471   1.399   6.679   4.811
   93GLOH   H02 9472   1.490   6.654   4.866
   93GLOH   H08 9473   1.349   6.584   4.790
   93GLOH    C2 9474   1.308   6.762   4.904
   93GLOH   H04 9475   1.215   6.785   4.849
   93GLOH    O2 9476   1.274   6.689   5.024
   93GLOH   H05 9477   1.309   6.595   5.019
   93GLOH    C3 9478   1.377   6.895   4.939
   93GLOH   H06 9479   1.467   6.874   4.996
   93GLOH   H07 9480   1.310   6.953   5.003
   93GLOH    O3 9481   1.410   6.969   4.820
   93GLOH   H01 9482   1.434   6.901   4.752
   94GLOH   H03 9483   7.685   4.642   1.723
   94GLOH    O1 9484   7.612   4.614   1.661
   94GLOH    C1 9485   7.560   4.484   1.696
   94GLOH   H02 9486   7.514   4.488   1.795
   94GLOH   H08 9487   7.641   4.411   1.701
   94GLOH    C2 9488   7.455   4.435   1.594
   94GLOH   H04 9489   7.506   4.422   1.497
   94GLOH    O2 9490   7.398   4.309   1.634
   94GLOH   H05 9491   7.469   4.242   1.658
   94GLOH    C3 9492   7.347   4.544   1.577
   94GLOH   H06 9493   7.395   4.636   1.544
   94GLOH   H07 9494   7.305   4.565   1.676
   94GLOH    O3 9495   7.241   4.510   1.486
   94GLOH   H01 9496   7.278   4.485   1.397
   95GLOH   H03 9497   6.414   1.975   2.243
   95GLOH    O1 9498   6.427   2.052   2.305
   95GLOH    C1 9499   6.560   2.104   2.287
   95GLOH   H02 9500   6.582   2.176   2.366
   95GLOH   H08 9501   6.566   2.158   2.192
   95GLOH    C2 9502   6.670   1.996   2.288
   95GLOH   H04 9503   6.646   1.921   2.211
   95GLOH    O2 9504   6.797   2.055   2.256
   95GLOH   H05 9505   6.807   2.056   2.155
   95GLOH    C3 9506   6.681   1.923   2.424
   95GLOH   H06 9507   6.708   1.996   2.499
   95GLOH   H07 9508   6.765   1.853   2.417
   95GLOH    O3 9509   6.563   1.851   2.465
   95GLOH   H01 9510   6.507   1.915   2.516
   96GLOH   H03 9511   9.839   9.380   6.641
   96GLOH    O1 9512   9.827   9.394   6.737
   96GLOH    C1 9513   9.712   9.321   0.036
   96GLOH   H02 9514   9.697   9.341   0.142
   96GLOH   H08 9515   9.729   9.214   0.025
   96GLOH    C2 9516   9.583   9.358   6.710
   96GLOH   H04 9517   9.600   9.348   6.602
   96GLOH    O2 9518   9.475   9.272   0.000
   96GLOH   H05 9519   9.393   9.313   6.712
   96GLOH    C3 9520   9.544   9.504   6.740
   96GLOH   H06 9521   9.625   9.570   6.707
   96GLOH   H07 9522   9.535   9.516   0.099
   96GLOH    O3 9523   9.421   9.540   6.675
   96GLOH   H01 9524   9.373   9.604   6.733
   97GLOH   H03 9525   1.576   3.934   2.371
   97GLOH    O1 9526   1.635   3.861   2.337
   97GLOH    C1 9527   1.758   3.863   2.412
   97GLOH   H02 9528   1.809   3.767   2.403
   97GLOH   H08 9529   1.737   3.878   2.517
   97GLOH    C2 9530   1.857   3.973   2.368
   97GLOH   H04 9531   1.804   4.070   2.373
   97GLOH    O2 9532   1.970   3.978   2.459
   97GLOH   H05 9533   2.038   3.909   2.429
   97GLOH    C3 9534   1.905   3.950   2.223
   97GLOH   H06 9535   1.888   3.845   2.197
   97GLOH   H07 9536   2.013   3.966   2.218
   97GLOH    O3 9537   1.840   4.035   2.127
   97GLOH   H01 9538   1.887   4.123   2.134
   98GLOH   H03 9539   2.476   6.457   4.881
   98GLOH    O1 9540   2.447   6.428   4.791
   98GLOH    C1 9541   2.304   6.407   4.789
   98GLOH   H02 9542   2.275   6.354   4.698
   98GLOH   H08 9543   2.252   6.503   4.786
   98GLOH    C2 9544   2.253   6.327   4.910
   98GLOH   H04 9545   2.313   6.235   4.918
   98GLOH    O2 9546   2.270   6.403   5.032
   98GLOH   H05 9547   2.366   6.431   5.041
   98GLOH    C3 9548   2.105   6.285   4.892
   98GLOH   H06 9549   2.049   6.371   4.855
   98GLOH   H07 9550   2.063   6.259   4.989
   98GLOH    O3 9551   2.093   6.173   4.801
   98GLOH   H01 9552   2.001   6.171   4.762
   99GLOH   H03 9553   3.086   6.223   0.177
   99GLOH    O1 9554   3.050   6.137   0.143
   99GLOH    C1 9555   3.069   6.136   6.748
   99GLOH   H02 9556   3.080   6.033   6.712
   99GLOH   H08 9557   3.160   6.189   6.720
   99GLOH    C2 9558   2.951   6.200   6.673
   99GLOH   H04 9559   2.935   6.301   6.714
   99GLOH    O2 9560   2.979   6.209   6.532
   99GLOH   H05 9561   2.892   6.214   6.488
   99GLOH    C3 9562   2.822   6.118   6.694
   99GLOH   H06 9563   2.799   6.116   0.052
   99GLOH   H07 9564   2.841   6.015   6.664
   99GLOH    O3 9565   2.711   6.172   6.620
   99GLOH   H01 9566   2.653   6.221   6.684
  100GLOH   H03 9567   3.931   9.954   5.241
  100GLOH    O1 9568   3.981   0.037   5.219
  100GLOH    C1 9569   3.886   0.141   5.187
  100GLOH   H02 9570   3.939   0.233   5.161
  100GLOH   H08 9571   3.825   0.163   5.274
  100GLOH    C2 9572   3.791   0.105   5.070
  100GLOH   H04 9573   3.738   0.013   5.097
  100GLOH    O2 9574   3.694   0.210   5.050
  100GLOH   H05 9575   3.623   0.174   4.990
  100GLOH    C3 9576   3.868   0.079   4.939
  100GLOH   H06 9577   3.939   0.160   4.924
  100GLOH   H07 9578   3.798   0.083   4.856
  100GLOH    O3 9579   3.936   9.952   4.938
  100GLOH   H01 9580   4.029   9.962   4.972
  101GLOH   H03 9581   2.047   9.433   3.820
  101GLOH    O1 9582   2.113   9.397   3.884
  101GLOH    C1 9583   2.228   9.347   3.812
  101GLOH   H02 9584   2.195   9.292   3.723
  101GLOH   H08 9585   2.282   9.276   3.874
  101GLOH    C2 9586   2.327   9.456   3.766
  101GLOH   H04 9587   2.355   9.518   3.853
  101GLOH    O2 9588   2.445   9.394   3.711
  101GLOH   H05 9589   2.511   9.371   3.783
  101GLOH    C3 9590   2.266   9.548   3.659
  101GLOH   H06 9591   2.240   9.487   3.572
  101GLOH   H07 9592   2.343   9.617   3.625
  101GLOH    O3 9593   2.151   9.623   3.701
  101GLOH   H01 9594   2.135   9.689   3.628
  102GLOH   H03 9595   7.675   2.869   5.815
  102GLOH    O1 9596   7.746   2.852   5.751
  102GLOH    C1 9597   7.719   2.732   5.677
  102GLOH   H02 9598   7.627   2.742   5.620
  102GLOH   H08 9599   7.707   2.647   5.745
  102GLOH    C2 9600   7.834   2.700   5.579
  102GLOH   H04 9601   7.927   2.691   5.637
  102GLOH    O2 9602   7.806   2.575   5.513
  102GLOH   H05 9603   7.882   2.548   5.458
  102GLOH    C3 9604   7.850   2.814   5.477
  102GLOH   H06 9605   7.848   2.909   5.529
  102GLOH   H07 9606   7.763   2.811   5.412
  102GLOH    O3 9607   7.970   2.802   5.398
  102GLOH   H01 9608   8.046   2.823   5.456
  103GLOH   H03 9609   9.191   2.508   0.552
  103GLOH    O1 9610   9.209   2.412   0.569
  103GLOH    C1 9611   9.338   2.400   0.630
  103GLOH   H02 9612   9.332   2.428   0.736
  103GLOH   H08 9613   9.408   2.470   0.584
  103GLOH    C2 9614   9.398   2.259   0.620
  103GLOH   H04 9615   9.415   2.237   0.514
  103GLOH    O2 9616   9.525   2.255   0.690
  103GLOH   H05 9617   9.522   2.184   0.761
  103GLOH    C3 9618   9.300   2.153   0.675
  103GLOH   H06 9619   9.209   2.157   0.616
  103GLOH   H07 9620   9.274   2.181   0.777
  103GLOH    O3 9621   9.355   2.020   0.671
  103GLOH   H01 9622   9.321   1.973   0.751
  104GLOH   H03 9623   4.735   6.972   4.016
  104GLOH    O1 9624   4.701   6.922   3.938
  104GLOH    C1 9625   4.784   6.960   3.826
  104GLOH   H02 9626   4.742   7.049   3.778
  104GLOH   H08 9627   4.783   6.880   3.751
  104GLOH    C2 9628   4.930   6.989   3.864
  104GLOH   H04 9629   4.975   6.898   3.907
  104GLOH    O2 9630   5.003   7.028   3.745
  104GLOH   H05 9631   5.093   7.064   3.766
  104GLOH    C3 9632   4.936   7.102   3.968
  104GLOH   H06 9633   4.913   7.197   3.920
  104GLOH   H07 9634   5.040   7.109   4.003
  104GLOH    O3 9635   4.848   7.081   4.081
  104GLOH   H01 9636   4.844   7.167   4.130
  105GLOH   H03 9637   1.759   4.214   6.699
  105GLOH    O1 9638   1.717   4.290   6.653
  105GLOH    C1 9639   1.816   4.341   6.561
  105GLOH   H02 9640   1.894   4.396   6.614
  105GLOH   H08 9641   1.770   4.411   6.491
  105GLOH    C2 9642   1.882   4.229   6.479
  105GLOH   H04 9643   1.813   4.204   6.396
  105GLOH    O2 9644   2.006   4.274   6.421
  105GLOH   H05 9645   2.037   4.213   6.352
  105GLOH    C3 9646   1.898   4.100   6.563
  105GLOH   H06 9647   1.980   4.042   6.522
  105GLOH   H07 9648   1.808   4.040   6.550
  105GLOH    O3 9649   1.921   4.124   6.703
  105GLOH   H01 9650   1.955   4.039   6.741
  106GLOH   H03 9651   2.607   0.963   1.386
  106GLOH    O1 9652   2.668   1.040   1.372
  106GLOH    C1 9653   2.632   1.095   1.244
  106GLOH   H02 9654   2.525   1.113   1.240
  106GLOH   H08 9655   2.656   1.024   1.164
  106GLOH    C2 9656   2.703   1.228   1.212
  106GLOH   H04 9657   2.811   1.210   1.206
  106GLOH    O2 9658   2.654   1.273   1.083
  106GLOH   H05 9659   2.731   1.296   1.024
  106GLOH    C3 9660   2.675   1.329   1.325
  106GLOH   H06 9661   2.695   1.280   1.420
  106GLOH   H07 9662   2.568   1.351   1.325
  106GLOH    O3 9663   2.749   1.452   1.319
  106GLOH   H01 9664   2.847   1.431   1.322
  107GLOH   H03 9665   7.397   3.160   3.533
  107GLOH    O1 9666   7.472   3.177   3.596
  107GLOH    C1 9667   7.557   3.060   3.591
  107GLOH   H02 9668   7.501   2.971   3.619
  107GLOH   H08 9669   7.638   3.070   3.664
  107GLOH    C2 9670   7.620   3.040   3.452
  107GLOH   H04 9671   7.549   3.076   3.376
  107GLOH    O2 9672   7.743   3.114   3.437
  107GLOH   H05 9673   7.743   3.191   3.501
  107GLOH    C3 9674   7.644   2.890   3.424
  107GLOH   H06 9675   7.715   2.853   3.497
  107GLOH   H07 9676   7.690   2.880   3.326
  107GLOH    O3 9677   7.521   2.815   3.429
  107GLOH   H01 9678   7.458   2.857   3.366
  108GLOH   H03 9679   5.145   4.382   4.107
  108GLOH    O1 9680   5.177   4.453   4.169
  108GLOH    C1 9681   5.244   4.392   4.281
  108GLOH   H02 9682   5.279   4.468   4.350
  108GLOH   H08 9683   5.332   4.337   4.248
  108GLOH    C2 9684   5.152   4.294   4.358
  108GLOH   H04 9685   5.130   4.209   4.292
  108GLOH    O2 9686   5.219   4.245   4.477
  108GLOH   H05 9687   5.224   4.320   4.543
  108GLOH    C3 9688   5.018   4.364   4.390
  108GLOH   H06 9689   4.974   4.398   4.297
  108GLOH   H07 9690   5.038   4.453   4.449
  108GLOH    O3 9691   4.925   4.278   4.459
  108GLOH   H01 9692   4.849   4.261   4.397
  109GLOH   H03 9693   5.424   3.783   0.352
  109GLOH    O1 9694   5.443   3.841   0.431
  109GLOH    C1 9695   5.515   3.763   0.529
  109GLOH   H02 9696   5.499   3.806   0.628
  109GLOH   H08 9697   5.622   3.768   0.510
  109GLOH    C2 9698   5.474   3.615   0.535
  109GLOH   H04 9699   5.364   3.609   0.544
  109GLOH    O2 9700   5.515   3.546   0.415
  109GLOH   H05 9701   5.474   3.590   0.336
  109GLOH    C3 9702   5.536   3.547   0.658
  109GLOH   H06 9703   5.644   3.550   0.649
  109GLOH   H07 9704   5.507   3.442   0.658
  109GLOH    O3 9705   5.494   3.609   0.781
  109GLOH   H01 9706   5.395   3.605   0.785
  110GLOH   H03 9707   8.064   9.069   6.370
  110GLOH    O1 9708   8.075   9.145   6.432
  110GLOH    C1 9709   8.042   9.264   6.358
  110GLOH   H02 9710   8.118   9.284   6.282
  110GLOH   H08 9711   8.041   9.351   6.424
  110GLOH    C2 9712   7.905   9.254   6.287
  110GLOH   H04 9713   7.890   9.346   6.228
  110GLOH    O2 9714   7.904   9.140   6.198
  110GLOH   H05 9715   7.826   9.145   6.140
  110GLOH    C3 9716   7.791   9.244   6.390
  110GLOH   H06 9717   7.807   9.155   6.452
  110GLOH   H07 9718   7.698   9.230   6.336
  110GLOH    O3 9719   7.783   9.361   6.473
  110GLOH   H01 9720   7.842   9.351   6.552
  111GLOH   H03 9721   5.812   5.728   0.976
  111GLOH    O1 9722   5.843   5.647   1.024
  111GLOH    C1 9723   5.979   5.620   0.984
  111GLOH   H02 9724   6.021   5.539   1.045
  111GLOH   H08 9725   6.041   5.707   1.002
  111GLOH    C2 9726   5.992   5.581   0.835
  111GLOH   H04 9727   5.957   5.667   0.776
  111GLOH    O2 9728   6.129   5.555   0.799
  111GLOH   H05 9729   6.149   5.458   0.813
  111GLOH    C3 9730   5.902   5.461   0.801
  111GLOH   H06 9731   5.918   5.434   0.697
  111GLOH   H07 9732   5.798   5.493   0.809
  111GLOH    O3 9733   5.925   5.346   0.886
  111GLOH   H01 9734   6.019   5.317   0.873
  112GLOH   H03 9735   9.452   0.603   4.489
  112GLOH    O1 9736   9.441   0.527   4.552
  112GLOH    C1 9737   9.564   0.452   4.557
  112GLOH   H02 9738   9.555   0.371   4.629
  112GLOH   H08 9739   9.645   0.517   4.591
  112GLOH    C2 9740   9.604   0.393   4.420
  112GLOH   H04 9741   9.619   0.477   4.351
  112GLOH    O2 9742   9.728   0.321   4.433
  112GLOH   H05 9743   9.714   0.246   4.499
  112GLOH    C3 9744   9.493   0.303   4.362
  112GLOH   H06 9745   9.465   0.229   4.438
  112GLOH   H07 9746   9.534   0.247   4.278
  112GLOH    O3 9747   9.376   0.376   4.320
  112GLOH   H01 9748   9.303   0.310   4.303
  113GLOH   H03 9749   7.795   2.823   3.764
  113GLOH    O1 9750   7.848   2.772   3.697
  113GLOH    C1 9751   7.777   2.651   3.665
  113GLOH   H02 9752   7.836   2.590   3.596
  113GLOH   H08 9753   7.683   2.674   3.614
  113GLOH    C2 9754   7.744   2.565   3.788
  113GLOH   H04 9755   7.679   2.625   3.854
  113GLOH    O2 9756   7.671   2.446   3.750
  113GLOH   H05 9757   7.714   2.404   3.670
  113GLOH    C3 9758   7.871   2.532   3.868
  113GLOH   H06 9759   7.843   2.474   3.955
  113GLOH   H07 9760   7.914   2.625   3.905
  113GLOH    O3 9761   7.968   2.460   3.789
  113GLOH   H01 9762   7.937   2.366   3.785
  114GLOH   H03 9763   4.241   7.447   5.473
  114GLOH    O1 9764   4.217   7.504   5.549
  114GLOH    C1 9765   4.245   7.438   5.674
  114GLOH   H02 9766   4.222   7.331   5.668
  114GLOH   H08 9767   4.183   7.479   5.753
  114GLOH    C2 9768   4.393   7.453   5.715
  114GLOH   H04 9769   4.455   7.404   5.638
  114GLOH    O2 9770   4.428   7.592   5.724
  114GLOH   H05 9771   4.374   7.640   5.658
  114GLOH    C3 9772   4.418   7.383   5.849
  114GLOH   H06 9773   4.390   7.278   5.841
  114GLOH   H07 9774   4.354   7.428   5.925
  114GLOH    O3 9775   4.556   7.394   5.887
  114GLOH   H01 9776   4.584   7.485   5.862
  115GLOH   H03 9777   6.566   8.580   1.934
  115GLOH    O1 9778   6.644   8.526   1.906
  115GLOH    C1 9779   6.624   8.388   1.944
  115GLOH   H02 9780   6.605   8.328   1.855
  115GLOH   H08 9781   6.536   8.378   2.008
  115GLOH    C2 9782   6.746   8.331   2.018
  115GLOH   H04 9783   6.759   8.387   2.112
  115GLOH    O2 9784   6.726   8.191   2.049
  115GLOH   H05 9785   6.644   8.181   2.106
  115GLOH    C3 9786   6.873   8.348   1.933
  115GLOH   H06 9787   6.865   8.285   1.844
  115GLOH   H07 9788   6.959   8.312   1.990
  115GLOH    O3 9789   6.891   8.486   1.895
  115GLOH   H01 9790   6.799   8.521   1.886
  116GLOH   H03 9791   0.588   5.691   6.651
  116GLOH    O1 9792   0.585   5.600   6.611
  116GLOH    C1 9793   0.471   5.597   6.523
  116GLOH   H02 9794   0.493   5.651   6.431
  116GLOH   H08 9795   0.386   5.646   6.570
  116GLOH    C2 9796   0.430   5.453   6.486
  116GLOH   H04 9797   0.353   5.459   6.408
  116GLOH    O2 9798   0.543   5.381   6.434
  116GLOH   H05 9799   0.623   5.423   6.473
  116GLOH    C3 9800   0.370   5.380   6.607
  116GLOH   H06 9801   0.441   5.386   6.690
  116GLOH   H07 9802   0.360   5.274   6.582
  116GLOH    O3 9803   0.243   5.434   6.648
  116GLOH   H01 9804   0.183   5.436   6.571
  117GLOH   H03 9805   0.889   9.775   5.095
  117GLOH    O1 9806   0.940   9.747   5.176
  117GLOH    C1 9807   0.852   9.666   5.256
  117GLOH   H02 9808   0.756   9.715   5.267
  117GLOH   H08 9809   0.893   9.657   5.357
  117GLOH    C2 9810   0.832   9.525   5.199
  117GLOH   H04 9811   0.810   9.533   5.092
  117GLOH    O2 9812   0.952   9.447   5.218
  117GLOH   H05 9813   0.961   9.375   5.149
  117GLOH    C3 9814   0.713   9.455   5.268
  117GLOH   H06 9815   0.737   9.443   5.373
  117GLOH   H07 9816   0.703   9.355   5.226
  117GLOH    O3 9817   0.589   9.528   5.252
  117GLOH   H01 9818   0.518   9.477   5.295
  118GLOH   H03 9819   5.291   4.612   0.377
  118GLOH    O1 9820   5.293   4.707   0.402
  118GLOH    C1 9821   5.198   4.776   0.320
  118GLOH   H02 9822   5.195   4.882   0.349
  118GLOH   H08 9823   5.098   4.737   0.337
  118GLOH    C2 9824   5.230   4.768   0.169
  118GLOH   H04 9825   5.330   4.811   0.153
  118GLOH    O2 9826   5.229   4.630   0.123
  118GLOH   H05 9827   5.293   4.622   0.048
  118GLOH    C3 9828   5.128   4.850   0.088
  118GLOH   H06 9829   5.033   4.798   0.089
  118GLOH   H07 9830   5.162   4.852   6.733
  118GLOH    O3 9831   5.111   4.985   0.137
  118GLOH   H01 9832   5.201   5.029   0.140
  119GLOH   H03 9833   4.225   8.913   3.684
  119GLOH    O1 9834   4.293   8.855   3.727
  119GLOH    C1 9835   4.374   8.797   3.623
  119GLOH   H02 9836   4.326   8.811   3.526
  119GLOH   H08 9837   4.384   8.690   3.637
  119GLOH    C2 9838   4.516   8.857   3.614
  119GLOH   H04 9839   4.567   8.803   3.532
  119GLOH    O2 9840   4.512   8.997   3.580
  119GLOH   H05 9841   4.439   9.044   3.630
  119GLOH    C3 9842   4.596   8.829   3.743
  119GLOH   H06 9843   4.591   8.722   3.763
  119GLOH   H07 9844   4.546   8.879   3.825
  119GLOH    O3 9845   4.734   8.871   3.735
  119GLOH   H01 9846   4.768   8.850   3.644
  120GLOH   H03 9847   3.542   4.210   0.435
  120GLOH    O1 9848   3.570   4.195   0.529
  120GLOH    C1 9849   3.464   4.126   0.600
  120GLOH   H02 9850   3.504   4.080   0.690
  120GLOH   H08 9851   3.425   4.045   0.538
  120GLOH    C2 9852   3.347   4.216   0.642
  120GLOH   H04 9853   3.267   4.152   0.682
  120GLOH    O2 9854   3.386   4.311   0.743
  120GLOH   H05 9855   3.443   4.269   0.813
  120GLOH    C3 9856   3.289   4.293   0.522
  120GLOH   H06 9857   3.358   4.373   0.495
  120GLOH   H07 9858   3.196   4.341   0.553
  120GLOH    O3 9859   3.266   4.208   0.407
  120GLOH   H01 9860   3.345   4.219   0.350
  121ACOH    H4 9861   5.655   2.534   2.118
  121ACOH    O2 9862   5.678   2.559   2.024
  121ACOH    C2 9863   5.562   2.577   1.958
  121ACOH    O1 9864   5.449   2.568   2.003
  121ACOH    C1 9865   5.589   2.614   1.817
  121ACOH    H1 9866   5.652   2.703   1.815
  121ACOH    H2 9867   5.496   2.636   1.764
  121ACOH    H3 9868   5.640   2.533   1.767
  122ACOH    H4 9869   4.000   6.363   4.993
  122ACOH    O2 9870   4.048   6.434   5.044
  122ACOH    C2 9871   4.038   6.547   4.971
  122ACOH    O1 9872   3.980   6.560   4.865
  122ACOH    C1 9873   4.103   6.661   5.039
  122ACOH    H1 9874   4.173   6.709   4.972
  122ACOH    H2 9875   4.156   6.628   5.128
  122ACOH    H3 9876   4.027   6.734   5.067
  123ACOH    H4 9877   6.540   7.133   4.532
  123ACOH    O2 9878   6.577   7.161   4.444
  123ACOH    C2 9879   6.655   7.060   4.402
  123ACOH    O1 9880   6.628   6.942   4.417
  123ACOH    C1 9881   6.752   7.105   4.300
  123ACOH    H1 9882   6.715   7.080   4.200
  123ACOH    H2 9883   6.848   7.057   4.316
  123ACOH    H3 9884   6.765   7.213   4.305
  124ACOH    H4 9885   4.932   6.097   2.733
  124ACOH    O2 9886   4.940   6.184   2.688
  124ACOH    C2 9887   5.058   6.236   2.728
  124ACOH    O1 9888   5.129   6.193   2.816
  124ACOH    C1 9889   5.082   6.369   2.666
  124ACOH    H1 9890   5.186   6.376   2.636
  124ACOH    H2 9891   5.060   6.447   2.738
  124ACOH    H3 9892   5.019   6.383   2.579
  125ACOH    H4 9893   9.054   6.922   5.528
  125ACOH    O2 9894   9.118   6.965   5.469
  125ACOH    C2 9895   9.104   6.909   5.347
  125ACOH    O1 9896   9.031   6.816   5.319
  125ACOH    C1 9897   9.198   6.970   5.251
  125ACOH    H1 9898   9.176   7.076   5.240
  125ACOH    H2 9899   9.189   6.923   5.153
  125ACOH    H3 9900   9.300   6.958   5.286
  126ACOH    H4 9901   4.967   6.213   0.780
  126ACOH    O2 9902   4.907   6.291   0.775
  126ACOH    C2 9903   4.970   6.383   0.699
  126ACOH    O1 9904   5.081   6.373   0.649
  126ACOH    C1 9905   4.887   6.504   0.678
  126ACOH    H1 9906   4.866   6.515   0.572
  126ACOH    H2 9907   4.940   6.592   0.713
  126ACOH    H3 9908   4.793   6.496   0.732
  127ACOH    H4 9909   7.376   2.122   6.622
  127ACOH    O2 9910   7.395   2.154   6.712
  127ACOH    C2 9911   7.450   2.276   6.696
  127ACOH    O1 9912   7.478   2.328   6.590
  127ACOH    C1 9913   7.481   2.337   0.079
  127ACOH    H1 9914   7.533   2.431   0.067
  127ACOH    H2 9915   7.544   2.270   0.137
  127ACOH    H3 9916   7.389   2.355   0.134
  128ACOH    H4 9917   0.786   7.490   4.761
  128ACOH    O2 9918   0.703   7.535   4.728
  128ACOH    C2 9919   0.599   7.476   4.790
  128ACOH    O1 9920   0.600   7.369   4.848
  128ACOH    C1 9921   0.474   7.552   4.766
  128ACOH    H1 9922   0.393   7.512   4.825
  128ACOH    H2 9923   0.447   7.546   4.661
  128ACOH    H3 9924   0.490   7.656   4.792
  129ACOH    H4 9925   6.379   5.640   0.493
  129ACOH    O2 9926   6.425   5.623   0.406
  129ACOH    C2 9927   6.548   5.676   0.416
  129ACOH    O1 9928   6.599   5.724   0.516
  129ACOH    C1 9929   6.626   5.655   0.292
  129ACOH    H1 9930   6.668   5.749   0.258
  129ACOH    H2 9931   6.563   5.613   0.213
  129ACOH    H3 9932   6.707   5.585   0.312
  130ACOH    H4 9933   1.871   1.580   6.562
  130ACOH    O2 9934   1.830   1.561   6.648
  130ACOH    C2 9935   1.813   1.427   6.650
  130ACOH    O1 9936   1.840   1.351   6.560
  130ACOH    C1 9937   1.751   1.384   0.030
  130ACOH    H1 9938   1.818   1.407   0.112
  130ACOH    H2 9939   1.732   1.277   0.028
  130ACOH    H3 9940   1.657   1.436   0.045
  131ACOH    H4 9941   6.365   7.850   2.051
  131ACOH    O2 9942   6.406   7.892   1.972
  131ACOH    C2 9943   6.540   7.876   1.983
  131ACOH    O1 9944   6.599   7.815   2.070
  131ACOH    C1 9945   6.609   7.940   1.869
  131ACOH    H1 9946   6.591   8.047   1.872
  131ACOH    H2 9947   6.571   7.899   1.776
  131ACOH    H3 9948   6.716   7.922   1.875
  132ACOH    H4 9949   3.823   7.203   0.799
  132ACOH    O2 9950   3.819   7.119   0.746
  132ACOH    C2 9951   3.944   7.093   0.702
  132ACOH    O1 9952   4.045   7.154   0.730
  132ACOH    C1 9953   3.944   6.976   0.612
  132ACOH    H1 9954   4.042   6.959   0.569
  132ACOH    H2 9955   3.872   6.991   0.531
  132ACOH    H3 9956   3.915   6.887   0.668
  133ACOH    H4 9957   4.303   6.360   3.788
  133ACOH    O2 9958   4.239   6.321   3.853
  133ACOH    C2 9959   4.115   6.356   3.815
  133ACOH    O1 9960   4.083   6.417   3.715
  133ACOH    C1 9961   4.013   6.302   3.909
  133ACOH    H1 9962   3.952   6.384   3.947
  133ACOH    H2 9963   4.061   6.253   3.993
  133ACOH    H3 9964   3.950   6.231   3.857
  134ACOH    H4 9965   7.535   5.794   5.149
  134ACOH    O2 9966   7.454   5.846   5.123
  134ACOH    C2 9967   7.480   5.976   5.149
  134ACOH    O1 9968   7.585   6.024   5.187
  134ACOH    C1 9969   7.359   6.058   5.120
  134ACOH    H1 9970   7.333   6.046   5.016
  134ACOH    H2 9971   7.377   6.163   5.141
  134ACOH    H3 9972   7.276   6.023   5.182
  135ACOH    H4 9973   6.732   5.666   0.611
  135ACOH    O2 9974   6.818   5.632   0.647
  135ACOH    C2 9975   6.791   5.518   0.713
  135ACOH    O1 9976   6.681   5.468   0.731
  135ACOH    C1 9977   6.915   5.461   0.771
  135ACOH    H1 9978   6.911   5.469   0.879
  135ACOH    H2 9979   7.002   5.514   0.735
  135ACOH    H3 9980   6.923   5.356   0.744
  136ACOH    H4 9981   6.231   1.576   2.989
  136ACOH    O2 9982   6.315   1.591   3.043
  136ACOH    C2 9983   6.281   1.667   3.149
  136ACOH    O1 9984   6.168   1.702   3.180
  136ACOH    C1 9985   6.399   1.699   3.233
  136ACOH    H1 9986   6.489   1.657   3.191
  136ACOH    H2 9987   6.385   1.659   3.333
  136ACOH    H3 9988   6.411   1.807   3.240
  137ACOH    H4 9989   7.855   9.380   0.983
  137ACOH    O2 9990   7.761   9.348   0.985
  137ACOH    C2 9991   7.683   9.449   0.942
  137ACOH    O1 9992   7.719   9.554   0.893
  137ACOH    C1 9993   7.541   9.412   0.957
  137ACOH    H1 9994   7.520   9.321   0.901
  137ACOH    H2 9995   7.477   9.492   0.921
  137ACOH    H3 9996   7.519   9.394   1.062
  138ACOH    H4 9997   4.917   6.109   1.078
  138ACOH    O2 9998   4.823   6.077   1.087
  138ACOH    C2 9999   4.769   6.144   1.191
  138ACOH    O110000   4.830   6.216   1.269
  138ACOH    C110001   4.627   6.108   1.210
  138ACOH    H110002   4.570   6.141   1.123
  138ACOH    H210003   4.586   6.155   1.299
  138ACOH    H310004   4.617   6.000   1.219
  139ACOH    H410005   8.174   7.602   1.495
  139ACOH    O210006   8.108   7.675   1.477
  139ACOH    C210007   8.125   7.713   1.350
  139ACOH    O110008   8.201   7.666   1.267
  139ACOH    C110009   8.035   7.826   1.316
  139ACOH    H110010   8.056   7.910   1.382
  139ACOH    H210011   7.932   7.795   1.330
  139ACOH    H310012   8.048   7.858   1.213
  140ACOH    H410013   6.273   1.362   0.347
  140ACOH    O210014   6.232   1.280   0.308
  140ACOH    C210015   6.291   1.262   0.188
  140ACOH    O110016   6.364   1.341   0.130
  140ACOH    C110017   6.252   1.133   0.127
  140ACOH    H110018   6.340   1.073   0.107
  140ACOH    H210019   6.200   1.151   0.033
  140ACOH    H310020   6.186   1.077   0.193
  141ACOH    H410021   4.325   6.855   1.080
  141ACOH    O210022   4.286   6.888   0.995
  141ACOH    C210023   4.353   6.826   0.896
  141ACOH    O110024   4.452   6.756   0.907
  141ACOH    C110025   4.295   6.863   0.764
  141ACOH    H110026   4.194   6.824   0.757
  141ACOH    H210027   4.355   6.822   0.683
  141ACOH    H310028   4.292   6.971   0.755
  142ACOH    H410029   9.582   8.187   4.309
  142ACOH    O210030   9.669   8.181   4.263
  142ACOH    C210031   9.746   8.102   4.341
  142ACOH    O110032   9.736   8.094   4.462
  142ACOH    C110033   9.868   8.059   4.267
  142ACOH    H110034   9.838   8.004   4.178
  142ACOH    H210035   9.928   7.993   4.329
  142ACOH    H310036   9.927   8.146   4.238
  143ACOH    H410037   5.350   3.288   4.029
  143ACOH    O210038   5.336   3.362   4.095
  143ACOH    C210039   5.209   3.402   4.082
  143ACOH    O110040   5.120   3.345   4.020
  143ACOH    C110041   5.182   3.521   4.165
  143ACOH    H110042   5.136   3.599   4.105
  143ACOH    H210043   5.274   3.560   4.207
  143ACOH    H310044   5.115   3.495   4.247
  144ACOH    H410045   9.391   6.017   0.632
  144ACOH    O210046   9.297   6.010   0.601
  144ACOH    C210047   9.249   5.894   0.650
  144ACOH    O110048   9.302   5.824   0.734
  144ACOH    C110049   9.111   5.867   0.602
  144ACOH    H110050   9.041   5.884   0.683
  144ACOH    H210051   9.103   5.764   0.570
  144ACOH    H310052   9.085   5.932   0.519
  145ACOH    H410053   4.664   2.552   5.393
  145ACOH    O210054   4.636   2.591   5.480
  145ACOH    C210055   4.727   2.685   5.513
  145ACOH    O110056   4.830   2.711   5.454
  145ACOH    C110057   4.688   2.753   5.639
  145ACOH    H110058   4.594   2.805   5.623
  145ACOH    H210059   4.764   2.824   5.669
  145ACOH    H310060   4.675   2.679   5.717
  146ACOH    H410061   9.934   2.880   4.789
  146ACOH    O210062   9.837   2.896   4.772
  146ACOH    C210063   9.818   3.025   4.739
  146ACOH    O110064   9.716   3.066   4.686
  146ACOH    C110065   9.933   3.116   4.762
  146ACOH    H110066   0.003   3.073   4.833
  146ACOH    H210067   9.898   3.212   4.801
  146ACOH    H310068   9.984   3.134   4.669
  147ACOH    H410069   2.269   6.316   5.332
  147ACOH    O210070   2.274   6.408   5.367
  147ACOH    C210071   2.302   6.397   5.498
  147ACOH    O110072   2.265   6.308   5.572
  147ACOH    C110073   2.361   6.523   5.548
  147ACOH    H110074   2.388   6.589   5.465
  147ACOH    H210075   2.451   6.501   5.605
  147ACOH    H310076   2.290   6.574   5.613
  148ACOH    H410077   6.372   2.115   4.960
  148ACOH    O210078   6.405   2.208   4.976
  148ACOH    C210079   6.417   2.268   4.856
  148ACOH    O110080   6.392   2.219   4.747
  148ACOH    C110081   6.464   2.408   4.870
  148ACOH    H110082   6.389   2.475   4.830
  148ACOH    H210083   6.556   2.421   4.815
  148ACOH    H310084   6.481   2.432   4.975
  149ACOH    H410085   7.125   3.546   1.409
  149ACOH    O210086   7.150   3.453   1.436
  149ACOH    C210087   7.245   3.466   1.531
  149ACOH    O110088   7.321   3.561   1.542
  149ACOH    C110089   7.272   3.337   1.599
  149ACOH    H110090   7.362   3.292   1.558
  149ACOH    H210091   7.189   3.268   1.585
  149ACOH    H310092   7.286   3.354   1.705
  150ACOH    H410093   7.878   1.601   2.246
  150ACOH    O210094   7.866   1.504   2.229
  150ACOH    C210095   7.980   1.458   2.175
  150ACOH    O110096   8.082   1.520   2.155
  150ACOH    C110097   7.969   1.312   2.148
  150ACOH    H110098   7.888   1.294   2.079
  150ACOH    H210099   7.948   1.260   2.241
  150ACOH    H310100   8.061   1.273   2.106
  151ACOH    H410101   6.454   0.486   5.023
  151ACOH    O210102   6.436   0.569   4.971
  151ACOH    C210103   6.309   0.560   4.926
  151ACOH    O110104   6.224   0.481   4.963
  151ACOH    C110105   6.279   0.674   4.836
  151ACOH    H110106   6.304   0.767   4.886
  151ACOH    H210107   6.174   0.676   4.810
  151ACOH    H310108   6.338   0.666   4.746
  152ACOH    H410109   1.385   6.093   3.062
  152ACOH    O210110   1.483   6.112   3.054
  152ACOH    C210111   1.538   6.004   2.994
  152ACOH    O110112   1.483   5.898   2.970
  152ACOH    C110113   1.679   6.031   2.960
  152ACOH    H110114   1.736   6.052   3.050
  152ACOH    H210115   1.685   6.118   2.894
  152ACOH    H310116   1.724   5.946   2.909
  153ACOH    H410117   8.939   0.689   1.369
  153ACOH    O210118   8.859   0.684   1.429
  153ACOH    C210119   8.758   0.637   1.354
  153ACOH    O110120   8.768   0.584   1.244
  153ACOH    C110121   8.632   0.637   1.430
  153ACOH    H110122   8.551   0.592   1.373
  153ACOH    H210123   8.604   0.739   1.454
  153ACOH    H310124   8.644   0.581   1.522
  154ACOH    H410125   4.884   3.941   1.664
  154ACOH    O210126   4.874   3.956   1.763
  154ACOH    C210127   4.985   4.019   1.806
  154ACOH    O110128   5.074   4.066   1.736
  154ACOH    C110129   4.977   4.043   1.952
  154ACOH    H110130   4.886   4.098   1.975
  154ACOH    H210131   5.062   4.101   1.986
  154ACOH    H310132   4.975   3.948   2.003
  155ACOH    H410133   6.240   2.802   3.943
  155ACOH    O210134   6.328   2.846   3.962
  155ACOH    C210135   6.392   2.854   3.843
  155ACOH    O110136   6.346   2.827   3.734
  155ACOH    C110137   6.529   2.904   3.863
  155ACOH    H110138   6.582   2.909   3.767
  155ACOH    H210139   6.583   2.838   3.929
  155ACOH    H310140   6.526   3.004   3.906
  156ACOH    H410141   5.564   5.052   4.523
  156ACOH    O210142   5.641   5.105   4.554
  156ACOH    C210143   5.593   5.208   4.627
  156ACOH    O110144   5.476   5.231   4.651
  156ACOH    C110145   5.702   5.294   4.677
  156ACOH    H110146   5.690   5.395   4.638
  156ACOH    H210147   5.799   5.256   4.646
  156ACOH    H310148   5.699   5.298   4.785
  157ACOH    H410149   5.178   5.621   2.619
  157ACOH    O210150   5.269   5.639   2.655
  157ACOH    C210151   5.289   5.553   2.757
  157ACOH    O110152   5.206   5.484   2.811
  157ACOH    C110153   5.428   5.565   2.808
  157ACOH    H110154   5.448   5.669   2.833
  157ACOH    H210155   5.497   5.534   2.730
  157ACOH    H310156   5.442   5.503   2.896
  158ACOH    H410157   6.767   3.545   0.982
  158ACOH    O210158   6.677   3.505   0.972
  158ACOH    C210159   6.665   3.462   0.845
  158ACOH    O110160   6.751   3.461   0.759
  158ACOH    C110161   6.529   3.410   0.818
  158ACOH    H110162   6.470   3.408   0.910
  158ACOH    H210163   6.534   3.310   0.778
  158ACOH    H310164   6.479   3.475   0.747
  159ACOH    H410165   7.105   3.588   1.793
  159ACOH    O210166   7.050   3.569   1.713
  159ACOH    C210167   6.939   3.643   1.724
  159ACOH    O110168   6.912   3.719   1.816
  159ACOH    C110169   6.850   3.629   1.606
  159ACOH    H110170   6.845   3.724   1.553
  159ACOH    H210171   6.750   3.602   1.639
  159ACOH    H310172   6.888   3.552   1.539
  160ACOH    H410173   8.908   3.727   5.500
  160ACOH    O210174   8.972   3.707   5.431
  160ACOH    C210175   8.945   3.788   5.327
  160ACOH    O110176   8.857   3.871   5.323
  160ACOH    C110177   9.038   3.763   5.214
  160ACOH    H110178   9.029   3.659   5.182
  160ACOH    H210179   9.140   3.780   5.247
  160ACOH    H310180   9.016   3.828   5.130
  161ACOH    H410181   6.364   2.268   3.232
  161ACOH    O210182   6.352   2.215   3.314
  161ACOH    C210183   6.304   2.096   3.275
  161ACOH    O110184   6.308   2.050   3.162
  161ACOH    C110185   6.261   2.016   3.393
  161ACOH    H110186   6.342   2.012   3.465
  161ACOH    H210187   6.236   1.914   3.363
  161ACOH    H310188   6.175   2.062   3.438
  162ACOH    H410189   6.192   0.804   0.358
  162ACOH    O210190   6.259   0.745   0.311
  162ACOH    C210191   6.217   0.618   0.332
  162ACOH    O110192   6.154   0.579   0.428
  162ACOH    C110193   6.286   0.523   0.241
  162ACOH    H110194   6.213   0.453   0.201
  162ACOH    H210195   6.361   0.469   0.296
  162ACOH    H310196   6.333   0.576   0.159
  163ACOH    H410197   7.539   4.724   5.513
  163ACOH    O210198   7.502   4.696   5.427
  163ACOH    C210199   7.414   4.598   5.456
  163ACOH    O110200   7.386   4.559   5.567
  163ACOH    C110201   7.355   4.540   5.333
  163ACOH    H110202   7.386   4.593   5.244
  163ACOH    H210203   7.246   4.544   5.341
  163ACOH    H310204   7.385   4.436   5.325
  164ACOH    H410205   0.270   1.242   3.796
  164ACOH    O210206   0.369   1.238   3.807
  164ACOH    C210207   0.393   1.231   3.939
  164ACOH    O110208   0.309   1.234   4.028
  164ACOH    C110209   0.538   1.223   3.969
  164ACOH    H110210   0.568   1.312   4.024
  164ACOH    H210211   0.597   1.216   3.879
  164ACOH    H310212   0.558   1.136   4.032
  165ACOH    H410213   7.719   4.529   5.035
  165ACOH    O210214   7.646   4.481   4.987
  165ACOH    C210215   7.658   4.511   4.856
  165ACOH    O110216   7.725   4.600   4.808
  165ACOH    C110217   7.572   4.422   4.775
  165ACOH    H110218   7.573   4.451   4.670
  165ACOH    H210219   7.469   4.427   4.811
  165ACOH    H310220   7.606   4.319   4.784
  166ACOH    H410221   6.651   9.377   3.428
  166ACOH    O210222   6.578   9.369   3.496
  166ACOH    C210223   6.553   9.495   3.539
  166ACOH    O110224   6.616   9.596   3.512
  166ACOH    C110225   6.442   9.494   3.637
  166ACOH    H110226   6.351   9.461   3.587
  166ACOH    H210227   6.425   9.593   3.678
  166ACOH    H310228   6.464   9.425   3.718
  167ACOH    H410229   5.972   9.369   1.283
  167ACOH    O210230   6.056   9.316   1.283
  167ACOH    C210231   6.022   9.190   1.247
  167ACOH    O110232   5.913   9.151   1.212
  167ACOH    C110233   6.142   9.103   1.251
  167ACOH    H110234   6.118   9.003   1.215
  167ACOH    H210235   6.178   9.096   1.353
  167ACOH    H310236   6.220   9.145   1.189
  168ACOH    H410237   4.700   7.601   4.838
  168ACOH    O210238   4.606   7.566   4.839
  168ACOH    C210239   4.565   7.566   4.710
  168ACOH    O110240   4.630   7.599   4.612
  168ACOH    C110241   4.424   7.521   4.698
  168ACOH    H110242   4.385   7.487   4.793
  168ACOH    H210243   4.418   7.439   4.627
  168ACOH    H310244   4.362   7.603   4.662
  169ACOH    H410245   7.070   2.844   2.229
  169ACOH    O210246   7.024   2.838   2.140
  169ACOH    C210247   6.956   2.722   2.140
  169ACOH    O110248   6.955   2.637   2.228
  169ACOH    C110249   6.883   2.701   2.013
  169ACOH    H110250   6.779   2.681   2.032
  169ACOH    H210251   6.927   2.617   1.960
  169ACOH    H310252   6.890   2.790   1.950
  170ACOH    H410253   6.004   2.314   4.674
  170ACOH    O210254   5.939   2.386   4.695
  170ACOH    C210255   5.817   2.344   4.657
  170ACOH    O110256   5.790   2.237   4.606
  170ACOH    C110257   5.714   2.446   4.687
  170ACOH    H110258   5.616   2.414   4.654
  170ACOH    H210259   5.740   2.539   4.637
  170ACOH    H310260   5.711   2.464   4.795
  171ACOH    H410261   5.033   1.625   3.397
  171ACOH    O210262   4.969   1.550   3.383
  171ACOH    C210263   5.018   1.442   3.448
  171ACOH    O110264   5.106   1.442   3.533
  171ACOH    C110265   4.938   1.321   3.421
  171ACOH    H110266   4.882   1.294   3.510
  171ACOH    H210267   5.004   1.238   3.395
  171ACOH    H310268   4.869   1.337   3.339
  172ACOH    H410269   9.031   1.543   4.120
  172ACOH    O210270   9.063   1.635   4.100
  172ACOH    C210271   9.186   1.623   4.047
  172ACOH    O110272   9.247   1.519   4.028
  172ACOH    C110273   9.240   1.755   4.006
  172ACOH    H110274   9.255   1.818   4.093
  172ACOH    H210275   9.169   1.804   3.940
  172ACOH    H310276   9.335   1.744   3.953
  173ACOH    H410277   0.535   1.554   5.355
  173ACOH    O210278   0.443   1.536   5.391
  173ACOH    C210279   0.432   1.404   5.408
  173ACOH    O110280   0.500   1.317   5.356
  173ACOH    C110281   0.310   1.370   5.486
  173ACOH    H110282   0.338   1.309   5.571
  173ACOH    H210283   0.242   1.313   5.423
  173ACOH    H310284   0.261   1.460   5.521
  174ACOH    H410285   4.877   3.284   2.485
  174ACOH    O210286   4.823   3.221   2.429
  174ACOH    C210287   4.759   3.139   2.515
  174ACOH    O110288   4.775   3.131   2.635
  174ACOH    C110289   4.666   3.048   2.444
  174ACOH    H110290   4.696   2.944   2.461
  174ACOH    H210291   4.668   3.067   2.337
  174ACOH    H310292   4.565   3.062   2.481
  175ACOH    H410293   5.782   7.197   2.256
  175ACOH    O210294   5.805   7.235   2.166
  175ACOH    C210295   5.830   7.365   2.182
  175ACOH    O110296   5.857   7.423   2.286
  175ACOH    C110297   5.839   7.431   2.050
  175ACOH    H110298   5.873   7.534   2.060
  175ACOH    H210299   5.741   7.430   2.003
  175ACOH    H310300   5.909   7.377   1.987
  176ACOH    H410301   8.475   7.776   1.425
  176ACOH    O210302   8.445   7.736   1.512
  176ACOH    C210303   8.473   7.825   1.608
  176ACOH    O110304   8.519   7.938   1.594
  176ACOH    C110305   8.442   7.771   1.743
  176ACOH    H110306   8.531   7.773   1.805
  176ACOH    H210307   8.407   7.669   1.735
  176ACOH    H310308   8.366   7.832   1.790
  177ACOH    H410309   0.244   4.316   4.131
  177ACOH    O210310   0.337   4.348   4.153
  177ACOH    C210311   0.411   4.236   4.165
  177ACOH    O110312   0.369   4.123   4.180
  177ACOH    C110313   0.554   4.271   4.179
  177ACOH    H110314   0.614   4.183   4.200
  177ACOH    H210315   0.567   4.342   4.261
  177ACOH    H310316   0.590   4.316   4.087
  178ACOH    H410317   5.237   3.695   1.315
  178ACOH    O210318   5.319   3.664   1.267
  178ACOH    C210319   5.276   3.588   1.165
  178ACOH    O110320   5.160   3.571   1.129
  178ACOH    C110321   5.392   3.531   1.093
  178ACOH    H110322   5.359   3.481   1.002
  178ACOH    H210323   5.441   3.459   1.157
  178ACOH    H310324   5.461   3.610   1.068
  179ACOH    H410325   0.150   9.657   0.801
  179ACOH    O210326   0.135   9.751   0.772
  179ACOH    C210327   0.239   9.783   0.693
  179ACOH    O110328   0.337   9.714   0.670
  179ACOH    C110329   0.223   9.920   0.639
  179ACOH    H110330   0.127   9.927   0.587
  179ACOH    H210331   0.303   9.943   0.569
  179ACOH    H310332   0.225   9.991   0.720
  180ACOH    H410333   5.183   5.232   2.038
  180ACOH    O210334   5.151   5.286   2.115
  180ACOH    C210335   5.063   5.209   2.183
  180ACOH    O110336   5.017   5.103   2.147
  180ACOH    C110337   5.023   5.274   2.310
  180ACOH    H110338   5.047   5.209   2.393
  180ACOH    H210339   4.916   5.292   2.309
  180ACOH    H310340   5.074   5.369   2.324
  181ACOH    H410341   8.095   8.622   1.548
  181ACOH    O210342   8.035   8.625   1.469
  181ACOH    C210343   8.093   8.702   1.376
  181ACOH    O110344   8.203   8.754   1.380
  181ACOH    C110345   8.003   8.719   1.260
  181ACOH    H110346   7.907   8.756   1.295
  181ACOH    H210347   7.988   8.624   1.211
  181ACOH    H310348   8.044   8.790   1.188
  182ACOH    H410349   8.116   1.469   3.873
  182ACOH    O210350   8.049   1.457   3.946
  182ACOH    C210351   8.090   1.355   4.023
  182ACOH    O110352   8.195   1.292   4.015
  182ACOH    C110353   7.988   1.326   4.126
  182ACOH    H110354   7.892   1.308   4.079
  182ACOH    H210355   7.980   1.410   4.194
  182ACOH    H310356   8.015   1.237   4.184
  183ACOH    H410357   7.117   3.260   2.511
  183ACOH    O210358   7.029   3.305   2.497
  183ACOH    C210359   6.952   3.272   2.602
  183ACOH    O110360   6.988   3.226   2.708
  183ACOH    C110361   6.812   3.315   2.580
  183ACOH    H110362   6.745   3.230   2.597
  183ACOH    H210363   6.798   3.351   2.479
  183ACOH    H310364   6.787   3.394   2.650
  184ACOH    H410365   5.988   5.261   1.532
  184ACOH    O210366   6.046   5.339   1.555
  184ACOH    C210367   6.160   5.286   1.605
  184ACOH    O110368   6.174   5.174   1.649
  184ACOH    C110369   6.266   5.390   1.619
  184ACOH    H110370   6.354   5.357   1.566
  184ACOH    H210371   6.290   5.403   1.724
  184ACOH    H310372   6.233   5.485   1.578
  185ACOH    H410373   1.186   0.637   4.386
  185ACOH    O210374   1.177   0.728   4.347
  185ACOH    C210375   1.131   0.710   4.222
  185ACOH    O110376   1.081   0.608   4.177
  185ACOH    C110377   1.131   0.838   4.148
  185ACOH    H110378   1.233   0.866   4.126
  185ACOH    H210379   1.085   0.916   4.208
  185ACOH    H310380   1.076   0.829   4.055
  186ACOH    H410381   4.639   5.344   3.556
  186ACOH    O210382   4.604   5.425   3.602
  186ACOH    C210383   4.700   5.466   3.686
  186ACOH    O110384   4.802   5.407   3.715
  186ACOH    C110385   4.661   5.595   3.749
  186ACOH    H110386   4.651   5.670   3.672
  186ACOH    H210387   4.737   5.627   3.820
  186ACOH    H310388   4.567   5.583   3.801
  187ACOH    H410389   7.034   2.708   1.217
  187ACOH    O210390   6.974   2.678   1.143
  187ACOH    C210391   6.902   2.786   1.106
  187ACOH    O110392   6.902   2.896   1.158
  187ACOH    C110393   6.815   2.751   0.991
  187ACOH    H110394   6.877   2.723   0.906
  187ACOH    H210395   6.753   2.836   0.963
  187ACOH    H310396   6.751   2.668   1.017
  188ACOH    H410397   5.132   2.599   2.412
  188ACOH    O210398   5.157   2.663   2.341
  188ACOH    C210399   5.291   2.676   2.348
  188ACOH    O110400   5.369   2.592   2.389
  188ACOH    C110401   5.337   2.794   2.272
  188ACOH    H110402   5.409   2.849   2.333
  188ACOH    H210403   5.254   2.860   2.249
  188ACOH    H310404   5.384   2.763   2.180
  189ACOH    H410405   4.359   6.199   3.397
  189ACOH    O210406   4.435   6.263   3.387
  189ACOH    C210407   4.500   6.224   3.276
  189ACOH    O110408   4.504   6.111   3.230
  189ACOH    C110409   4.592   6.330   3.228
  189ACOH    H110410   4.695   6.303   3.250
  189ACOH    H210411   4.569   6.426   3.272
  189ACOH    H310412   4.581   6.339   3.120
  190ACOH    H410413   8.459   8.338   0.297
  190ACOH    O210414   8.384   8.403   0.283
  190ACOH    C210415   8.283   8.365   0.363
  190ACOH    O110416   8.280   8.268   0.437
  190ACOH    C110417   8.167   8.457   0.350
  190ACOH    H110418   8.198   8.557   0.377
  190ACOH    H210419   8.086   8.426   0.414
  190ACOH    H310420   8.133   8.458   0.246
  191ACOH    H410421   3.397   5.938   4.384
  191ACOH    O210422   3.474   5.932   4.321
  191ACOH    C210423   3.538   6.051   4.325
  191ACOH    O110424   3.490   6.156   4.364
  191ACOH    C110425   3.663   6.044   4.245
  191ACOH    H110426   3.735   5.982   4.297
  191ACOH    H210427   3.705   6.144   4.232
  191ACOH    H310428   3.642   6.001   4.147
  192ACOH    H410429   7.485   1.192   1.926
  192ACOH    O210430   7.555   1.227   1.863
  192ACOH    C210431   7.673   1.177   1.904
  192ACOH    O110432   7.694   1.107   2.001
  192ACOH    C110433   7.782   1.222   1.814
  192ACOH    H110434   7.792   1.330   1.820
  192ACOH    H210435   7.758   1.194   1.712
  192ACOH    H310436   7.876   1.176   1.842
  193ACOH    H410437   2.255   6.979   0.418
  193ACOH    O210438   2.331   6.981   0.481
  193ACOH    C210439   2.442   6.960   0.409
  193ACOH    O110440   2.452   6.967   0.288
  193ACOH    C110441   2.561   6.959   0.496
  193ACOH    H110442   2.533   6.937   0.599
  193ACOH    H210443   2.608   7.057   0.494
  193ACOH    H310444   2.632   6.884   0.463
  194ACOH    H410445   5.825   6.536   1.981
  194ACOH    O210446   5.852   6.509   1.890
  194ACOH    C210447   5.740   6.491   1.819
  194ACOH    O110448   5.625   6.505   1.857
  194ACOH    C110449   5.773   6.451   1.680
  194ACOH    H110450   5.830   6.530   1.632
  194ACOH    H210451   5.683   6.431   1.622
  194ACOH    H310452   5.834   6.361   1.682
  195ACOH    H410453   7.733   3.449   3.336
  195ACOH    O210454   7.659   3.476   3.398
  195ACOH    C210455   7.543   3.449   3.334
  195ACOH    O110456   7.531   3.405   3.221
  195ACOH    C110457   7.428   3.486   3.419
  195ACOH    H110458   7.432   3.591   3.444
  195ACOH    H210459   7.430   3.427   3.510
  195ACOH    H310460   7.334   3.465   3.366
  196ACOH    H410461   9.176   0.615   0.173
  196ACOH    O210462   9.272   0.635   0.188
  196ACOH    C210463   9.276   0.722   0.291
  196ACOH    O110464   9.184   0.791   0.331
  196ACOH    C110465   9.416   0.743   0.337
  196ACOH    H110466   9.422   0.825   0.408
  196ACOH    H210467   9.480   0.766   0.252
  196ACOH    H310468   9.453   0.653   0.385
  197ACOH    H410469   0.207   1.418   5.173
  197ACOH    O210470   0.270   1.347   5.142
  197ACOH    C210471   0.203   1.230   5.155
  197ACOH    O110472   0.094   1.216   5.207
  197ACOH    C110473   0.281   1.116   5.103
  197ACOH    H110474   0.227   1.069   5.021
  197ACOH    H210475   0.295   1.042   5.182
  197ACOH    H310476   0.379   1.148   5.067
  198ACOH    H410477   5.509   6.138   1.233
  198ACOH    O210478   5.512   6.237   1.235
  198ACOH    C210479   5.385   6.279   1.247
  198ACOH    O110480   5.284   6.212   1.237
  198ACOH    C110481   5.381   6.427   1.261
  198ACOH    H110482   5.279   6.463   1.264
  198ACOH    H210483   5.433   6.473   1.177
  198ACOH    H310484   5.431   6.455   1.354
  199ACOH    H410485   1.502   8.942   1.383
  199ACOH    O210486   1.435   8.869   1.397
  199ACOH    C210487   1.322   8.913   1.337
  199ACOH    O110488   1.297   9.026   1.299
  199ACOH    C110489   1.220   8.805   1.336
  199ACOH    H110490   1.255   8.723   1.274
  199ACOH    H210491   1.126   8.841   1.296
  199ACOH    H310492   1.204   8.768   1.437
  200ACOH    H410493   4.784   5.156   5.057
  200ACOH    O210494   4.848   5.184   4.987
  200ACOH    C210495   4.779   5.265   4.904
  200ACOH    O110496   4.659   5.283   4.903
  200ACOH    C110497   4.870   5.323   4.802
  200ACOH    H110498   4.815   5.385   4.732
  200ACOH    H210499   4.919   5.243   4.747
  200ACOH    H310500   4.946   5.383   4.851
  201ACOH    H410501   7.003   9.741   1.949
  201ACOH    O210502   6.907   9.748   1.925
  201ACOH    C210503   6.843   9.651   1.992
  201ACOH    O110504   6.889   9.584   2.083
  201ACOH    C110505   6.698   9.653   1.963
  201ACOH    H110506   6.662   9.551   1.950
  201ACOH    H210507   6.677   9.708   1.872
  201ACOH    H310508   6.644   9.699   2.045
  202ACOH    H410509   7.539   5.493   5.007
  202ACOH    O210510   7.450   5.528   4.982
  202ACOH    C210511   7.470   5.628   4.894
  202ACOH    O110512   7.576   5.660   4.843
  202ACOH    C110513   7.341   5.692   4.858
  202ACOH    H110514   7.296   5.735   4.947
  202ACOH    H210515   7.274   5.617   4.817
  202ACOH    H310516   7.356   5.771   4.785
  203ACOH    H410517   6.831   2.449   0.351
  203ACOH    O210518   6.788   2.398   0.277
  203ACOH    C210519   6.860   2.287   0.258
  203ACOH    O110520   6.954   2.249   0.325
  203ACOH    C110521   6.805   2.207   0.146
  203ACOH    H110522   6.819   2.261   0.053
  203ACOH    H210523   6.698   2.192   0.161
  203ACOH    H310524   6.853   2.110   0.140
  204ACOH    H410525   5.013   1.299   0.108
  204ACOH    O210526   5.063   1.373   0.062
  204ACOH    C210527   5.106   1.320   6.694
  204ACOH    O110528   5.100   1.204   6.659
  204ACOH    C110529   5.176   1.422   6.612
  204ACOH    H110530   5.132   1.426   6.513
  204ACOH    H210531   5.281   1.396   6.604
  204ACOH    H310532   5.167   1.521   6.657
  205ACOH    H410533   7.514   4.775   5.281
  205ACOH    O210534   7.502   4.838   5.207
  205ACOH    C210535   7.603   4.926   5.214
  205ACOH    O110536   7.705   4.913   5.279
  205ACOH    C110537   7.582   5.042   5.124
  205ACOH    H110538   7.593   5.134   5.180
  205ACOH    H210539   7.483   5.038   5.080
  205ACOH    H310540   7.656   5.039   5.044
  206ACOH    H410541   7.492   3.245   5.084
  206ACOH    O210542   7.469   3.341   5.073
  206ACOH    C210543   7.560   3.393   4.989
  206ACOH    O110544   7.645   3.331   4.927
  206ACOH    C110545   7.542   3.539   4.978
  206ACOH    H110546   7.617   3.582   4.911
  206ACOH    H210547   7.552   3.584   5.076
  206ACOH    H310548   7.443   3.561   4.939
  207ACOH    H410549   6.514   4.986   1.324
  207ACOH    O210550   6.480   5.008   1.416
  207ACOH    C210551   6.583   5.057   1.487
  207ACOH    O110552   6.700   5.058   1.455
  207ACOH    C110553   6.538   5.107   1.619
  207ACOH    H110554   6.591   5.056   1.698
  207ACOH    H210555   6.431   5.090   1.632
  207ACOH    H310556   6.557   5.214   1.626
  208ACOH    H410557   5.791   1.471   1.092
  208ACOH    O210558   5.776   1.562   1.056
  208ACOH    C210559   5.835   1.648   1.141
  208ACOH    O110560   5.889   1.621   1.247
  208ACOH    C110561   5.825   1.786   1.089
  208ACOH    H110562   5.873   1.857   1.157
  208ACOH    H210563   5.720   1.814   1.079
  208ACOH    H310564   5.873   1.793   0.992
  209ACOH    H410565   8.145   7.394   2.138
  209ACOH    O210566   8.193   7.414   2.053
  209ACOH    C210567   8.111   7.490   1.978
  209ACOH    O110568   8.008   7.543   2.015
  209ACOH    C110569   8.173   7.524   1.848
  209ACOH    H110570   8.104   7.502   1.767
  209ACOH    H210571   8.264   7.466   1.831
  209ACOH    H310572   8.198   7.629   1.845
  210ACOH    H410573   5.232   4.517   0.230
  210ACOH    O210574   5.252   4.470   0.315
  210ACOH    C210575   5.242   4.338   0.290
  210ACOH    O110576   5.203   4.286   0.186
  210ACOH    C110577   5.283   4.259   0.408
  210ACOH    H110578   5.211   4.274   0.488
  210ACOH    H210579   5.381   4.294   0.443
  210ACOH    H310580   5.291   4.154   0.385
  211ACOH    H410581   9.130   5.277   4.898
  211ACOH    O210582   9.214   5.321   4.870
  211ACOH    C210583   9.256   5.264   4.756
  211ACOH    O110584   9.223   5.154   4.716
  211ACOH    C110585   9.373   5.337   4.700
  211ACOH    H110586   9.382   5.436   4.745
  211ACOH    H210587   9.361   5.348   4.593
  211ACOH    H310588   9.464   5.281   4.720
  212ACOH    H410589   4.880   4.077   4.947
  212ACOH    O210590   4.943   4.070   5.023
  212ACOH    C210591   4.999   3.947   5.017
  212ACOH    O110592   4.960   3.854   4.949
  212ACOH    C110593   5.105   3.930   5.119
  212ACOH    H110594   5.071   3.861   5.196
  212ACOH    H210595   5.130   4.025   5.164
  212ACOH    H310596   5.194   3.889   5.072
  213ACOH    H410597   7.044   6.177   5.588
  213ACOH    O210598   6.954   6.175   5.553
  213ACOH    C210599   6.964   6.205   5.422
  213ACOH    O110600   7.067   6.224   5.360
  213ACOH    C110601   6.830   6.206   5.359
  213ACOH    H110602   6.780   6.112   5.380
  213ACOH    H210603   6.839   6.218   5.251
  213ACOH    H310604   6.771   6.287   5.400
  214ACOH    H410605   6.974   2.592   4.394
  214ACOH    O210606   6.949   2.686   4.375
  214ACOH    C210607   6.836   2.712   4.443
  214ACOH    O110608   6.783   2.642   4.527
  214ACOH    C110609   6.784   2.848   4.413
  214ACOH    H110610   6.849   2.899   4.343
  214ACOH    H210611   6.778   2.906   4.505
  214ACOH    H310612   6.685   2.839   4.370
  215ACOH    H410613   3.420   9.338   0.268
  215ACOH    O210614   3.465   9.253   0.293
  215ACOH    C210615   3.595   9.266   0.263
  215ACOH    O110616   3.648   9.365   0.216
  215ACOH    C110617   3.670   9.142   0.292
  215ACOH    H110618   3.723   9.108   0.203
  215ACOH    H210619   3.603   9.063   0.325
  215ACOH    H310620   3.742   9.161   0.371
  216ACOH    H410621   7.540   5.777   0.459
  216ACOH    O210622   7.493   5.859   0.433
  216ACOH    C210623   7.544   5.959   0.507
  216ACOH    O110624   7.612   5.947   0.608
  216ACOH    C110625   7.495   6.091   0.462
  216ACOH    H110626   7.427   6.132   0.535
  216ACOH    H210627   7.445   6.082   0.366
  216ACOH    H310628   7.580   6.158   0.451
  217ACOH    H410629   1.923   8.625   2.139
  217ACOH    O210630   1.982   8.696   2.177
  217ACOH    C210631   1.955   8.807   2.105
  217ACOH    O110632   1.847   8.835   2.058
  217ACOH    C110633   2.060   8.909   2.125
  217ACOH    H110634   2.084   8.954   2.029
  217ACOH    H210635   2.151   8.864   2.165
  217ACOH    H310636   2.025   8.986   2.192
  218ACOH    H410637   6.748   2.018   0.906
  218ACOH    O210638   6.727   2.074   0.825
  218ACOH    C210639   6.728   2.202   0.869
  218ACOH    O110640   6.734   2.239   0.984
  218ACOH    C110641   6.715   2.296   0.755
  218ACOH    H110642   6.793   2.276   0.683
  218ACOH    H210643   6.725   2.398   0.790
  218ACOH    H310644   6.618   2.283   0.708
  219ACOH    H410645   5.683   7.433   5.194
  219ACOH    O210646   5.720   7.419   5.285
  219ACOH    C210647   5.615   7.429   5.369
  219ACOH    O110648   5.502   7.461   5.338
  219ACOH    C110649   5.652   7.404   5.510
  219ACOH    H110650   5.631   7.493   5.569
  219ACOH    H210651   5.758   7.380   5.518
  219ACOH    H310652   5.594   7.321   5.549
  220ACOH    H410653   9.051   9.464   0.706
  220ACOH    O210654   8.986   9.429   0.638
  220ACOH    C210655   8.896   9.529   0.622
  220ACOH    O110656   8.860   9.605   0.709
  220ACOH    C110657   8.821   9.510   0.496
  220ACOH    H110658   8.741   9.582   0.488
  220ACOH    H210659   8.778   9.410   0.493
  220ACOH    H310660   8.888   9.522   0.411
  221ACOH    H410661   6.819   1.949   5.397
  221ACOH    O210662   6.853   2.040   5.403
  221ACOH    C210663   6.939   2.043   5.507
  221ACOH    O110664   6.962   1.951   5.583
  221ACOH    C110665   7.000   2.177   5.521
  221ACOH    H110666   7.055   2.201   5.430
  221ACOH    H210667   7.069   2.179   5.605
  221ACOH    H310668   6.923   2.252   5.535
  222ACOH    H410669   4.855   6.376   1.326
  222ACOH    O210670   4.861   6.469   1.360
  222ACOH    C210671   4.972   6.478   1.434
  222ACOH    O110672   5.058   6.393   1.449
  222ACOH    C110673   4.984   6.613   1.493
  222ACOH    H110674   5.073   6.621   1.555
  222ACOH    H210675   4.896   6.634   1.553
  222ACOH    H310676   4.990   6.686   1.413
  223ACOH    H410677   9.189   1.681   4.333
  223ACOH    O210678   9.209   1.777   4.331
  223ACOH    C210679   9.093   1.844   4.346
  223ACOH    O110680   8.982   1.795   4.357
  223ACOH    C110681   9.117   1.990   4.342
  223ACOH    H110682   9.180   2.018   4.426
  223ACOH    H210683   9.023   2.045   4.349
  223ACOH    H310684   9.167   2.017   4.250
  224ACOH    H410685   5.712   2.799   3.185
  224ACOH    O210686   5.783   2.862   3.215
  224ACOH    C210687   5.771   2.878   3.347
  224ACOH    O110688   5.685   2.830   3.419
  224ACOH    C110689   5.876   2.967   3.402
  224ACOH    H110690   5.942   3.000   3.323
  224ACOH    H210691   5.934   2.914   3.477
  224ACOH    H310692   5.830   3.054   3.447
  225ACOH    H410693   4.441   7.172   4.707
  225ACOH    O210694   4.418   7.154   4.611
  225ACOH    C210695   4.522   7.196   4.537
  225ACOH    O110696   4.625   7.248   4.577
  225ACOH    C110697   4.493   7.177   4.393
  225ACOH    H110698   4.471   7.072   4.374
  225ACOH    H210699   4.577   7.208   4.332
  225ACOH    H310700   4.405   7.236   4.366
  226ACOH    H410701   1.248   5.767   5.284
  226ACOH    O210702   1.268   5.844   5.345
  226ACOH    C210703   1.401   5.839   5.367
  226ACOH    O110704   1.480   5.763   5.315
  226ACOH    C110705   1.445   5.950   5.454
  226ACOH    H110706   1.510   6.016   5.398
  226ACOH    H210707   1.502   5.909   5.538
  226ACOH    H310708   1.361   6.006   5.493
  227ACOH    H410709   7.304   7.040   3.927
  227ACOH    O210710   7.316   6.985   4.009
  227ACOH    C210711   7.253   7.051   4.109
  227ACOH    O110712   7.209   7.164   4.105
  227ACOH    C110713   7.256   6.975   4.236
  227ACOH    H110714   7.156   6.969   4.278
  227ACOH    H210715   7.321   7.025   4.307
  227ACOH    H310716   7.293   6.874   4.220
  228ACOH    H410717   9.404   7.546   4.132
  228ACOH    O210718   9.434   7.454   4.154
  228ACOH    C210719   9.331   7.371   4.129
  228ACOH    O110720   9.217   7.401   4.100
  228ACOH    C110721   9.372   7.230   4.152
  228ACOH    H110722   9.413   7.220   4.252
  228ACOH    H210723   9.448   7.202   4.080
  228ACOH    H310724   9.287   7.163   4.142
  229ACOH    H410725   2.464   3.746   4.132
  229ACOH    O210726   2.480   3.649   4.146
  229ACOH    C210727   2.606   3.633   4.192
  229ACOH    O110728   2.695   3.716   4.188
  229ACOH    C110729   2.629   3.491   4.227
  229ACOH    H110730   2.571   3.466   4.316
  229ACOH    H210731   2.734   3.473   4.247
  229ACOH    H310732   2.596   3.428   4.145
  230ACOH    H410733   0.049   3.764   2.185
  230ACOH    O210734   0.028   3.846   2.238
  230ACOH    C210735   9.925   3.907   2.176
  230ACOH    O110736   9.847   3.856   2.096
  230ACOH    C110737   9.896   4.038   2.240
  230ACOH    H110738   9.892   4.026   2.348
  230ACOH    H210739   9.801   4.079   2.206
  230ACOH    H310740   9.975   4.108   2.215
  231ACOH    H410741   1.247   0.895   2.862
  231ACOH    O210742   1.326   0.941   2.822
  231ACOH    C210743   1.324   1.070   2.864
  231ACOH    O110744   1.249   1.120   2.945
  231ACOH    C110745   1.435   1.148   2.805
  231ACOH    H110746   1.509   1.169   2.881
  231ACOH    H210747   1.398   1.242   2.765
  231ACOH    H310748   1.483   1.093   2.724
  232ACOH    H410749   1.524   6.106   0.488
  232ACOH    O210750   1.566   6.020   0.461
  232ACOH    C210751   1.511   5.985   0.343
  232ACOH    O110752   1.397   6.009   0.309
  232ACOH    C110753   1.590   5.878   0.277
  232ACOH    H110754   1.538   5.783   0.286
  232ACOH    H210755   1.688   5.869   0.324
  232ACOH    H310756   1.604   5.902   0.173
  233ACOH    H410757   6.394   3.678   0.283
  233ACOH    O210758   6.353   3.631   0.204
  233ACOH    C210759   6.455   3.603   0.120
  233ACOH    O110760   6.574   3.617   0.142
  233ACOH    C110761   6.403   3.541   6.744
  233ACOH    H110762   6.342   3.612   6.691
  233ACOH    H210763   6.343   3.454   0.021
  233ACOH    H310764   6.485   3.510   6.680
  234ACOH    H410765   5.253   4.350   3.106
  234ACOH    O210766   5.334   4.305   3.141
  234ACOH    C210767   5.322   4.299   3.275
  234ACOH    O110768   5.228   4.337   3.342
  234ACOH    C110769   5.444   4.240   3.336
  234ACOH    H110770   5.530   4.297   3.304
  234ACOH    H210771   5.454   4.137   3.303
  234ACOH    H310772   5.438   4.244   3.445
  235ACOH    H410773   5.335   9.129   2.833
  235ACOH    O210774   5.359   9.099   2.926
  235ACOH    C210775   5.412   8.975   2.914
  235ACOH    O110776   5.456   8.924   2.813
  235ACOH    C110777   5.435   8.915   3.048
  235ACOH    H110778   5.397   8.813   3.049
  235ACOH    H210779   5.383   8.971   3.125
  235ACOH    H310780   5.541   8.913   3.070
  236ACOH    H410781   5.322   4.136   4.505
  236ACOH    O210782   5.400   4.076   4.520
  236ACOH    C210783   5.355   3.953   4.550
  236ACOH    O110784   5.239   3.919   4.566
  236ACOH    C110785   5.469   3.860   4.564
  236ACOH    H110786   5.520   3.852   4.468
  236ACOH    H210787   5.435   3.761   4.594
  236ACOH    H310788   5.538   3.898   4.638
  237ACOH    H410789   5.556   5.484   0.580
  237ACOH    O210790   5.488   5.534   0.633
  237ACOH    C210791   5.547   5.646   0.677
  237ACOH    O110792   5.661   5.682   0.658
  237ACOH    C110793   5.453   5.726   0.761
  237ACOH    H110794   5.492   5.735   0.862
  237ACOH    H210795   5.355   5.679   0.765
  237ACOH    H310796   5.441   5.825   0.718
  238ACOH    H410797   6.908   9.332   1.792
  238ACOH    O210798   6.928   9.412   1.736
  238ACOH    C210799   6.811   9.457   1.687
  238ACOH    O110800   6.699   9.418   1.715
  238ACOH    C110801   6.834   9.572   1.596
  238ACOH    H110802   6.896   9.540   1.512
  238ACOH    H210803   6.886   9.651   1.650
  238ACOH    H310804   6.740   9.611   1.558
  239ACOH    H410805   7.786   7.004   3.317
  239ACOH    O210806   7.689   6.982   3.320
  239ACOH    C210807   7.640   6.996   3.195
  239ACOH    O110808   7.705   7.010   3.092
  239ACOH    C110809   7.493   6.984   3.192
  239ACOH    H110810   7.449   7.070   3.141
  239ACOH    H210811   7.453   6.982   3.293
  239ACOH    H310812   7.464   6.893   3.140
  240ACOH    H410813   5.018   4.452   4.746
  240ACOH    O210814   5.050   4.546   4.756
  240ACOH    C210815   5.168   4.554   4.691
  240ACOH    O110816   5.230   4.464   4.638
  240ACOH    C110817   5.218   4.694   4.693
  240ACOH    H110818   5.147   4.758   4.641
  240ACOH    H210819   5.314   4.702   4.644
  240ACOH    H310820   5.228   4.728   4.795
  241ACOH    H410821   2.441   0.108   1.610
  241ACOH    O210822   2.501   0.187   1.616
  241ACOH    C210823   2.501   0.224   1.745
  241ACOH    O110824   2.453   0.163   1.839
  241ACOH    C110825   2.577   0.351   1.763
  241ACOH    H110826   2.679   0.337   1.728
  241ACOH    H210827   2.578   0.380   1.867
  241ACOH    H310828   2.530   0.429   1.705
  242ACOH    H410829   6.778   2.805   3.605
  242ACOH    O210830   6.762   2.890   3.554
  242ACOH    C210831   6.723   2.854   3.430
  242ACOH    O110832   6.747   2.749   3.375
  242ACOH    C110833   6.674   2.972   3.354
  242ACOH    H110834   6.583   2.947   3.302
  242ACOH    H210835   6.750   3.003   3.283
  242ACOH    H310836   6.654   3.055   3.422
  243ACOH    H410837   7.621   4.354   5.084
  243ACOH    O210838   7.630   4.271   5.137
  243ACOH    C210839   7.521   4.198   5.107
  243ACOH    O110840   7.424   4.237   5.045
  243ACOH    C110841   7.530   4.061   5.163
  243ACOH    H110842   7.551   3.991   5.082
  243ACOH    H210843   7.436   4.033   5.208
  243ACOH    H310844   7.609   4.053   5.237
  244ACOH    H410845   5.181   2.697   1.703
  244ACOH    O210846   5.158   2.767   1.635
  244ACOH    C210847   5.049   2.725   1.570
  244ACOH    O110848   4.995   2.616   1.580
  244ACOH    C110849   5.007   2.823   1.467
  244ACOH    H110850   5.030   2.785   1.368
  244ACOH    H210851   5.058   2.918   1.482
  244ACOH    H310852   4.900   2.840   1.474
  245ACOH    H410853   7.631   8.941   1.428
  245ACOH    O210854   7.587   8.991   1.354
  245ACOH    C210855   7.677   9.081   1.310
  245ACOH    O110856   7.796   9.084   1.335
  245ACOH    C110857   7.615   9.173   1.211
  245ACOH    H110858   7.636   9.276   1.239
  245ACOH    H210859   7.508   9.158   1.207
  245ACOH    H310860   7.658   9.154   1.113
  246ACOH    H410861   4.847   3.607   2.293
  246ACOH    O210862   4.910   3.662   2.237
  246ACOH    C210863   5.012   3.696   2.318
  246ACOH    O110864   5.043   3.642   2.422
  246ACOH    C110865   5.096   3.799   2.252
  246ACOH    H110866   5.040   3.892   2.245
  246ACOH    H210867   5.123   3.766   2.153
  246ACOH    H310868   5.187   3.817   2.310
  247ACOH    H410869   7.007   8.471   1.802
  247ACOH    O210870   7.083   8.452   1.740
  247ACOH    C210871   7.179   8.542   1.768
  247ACOH    O110872   7.174   8.632   1.850
  247ACOH    C110873   7.298   8.521   1.681
  247ACOH    H110874   7.288   8.429   1.624
  247ACOH    H210875   7.387   8.517   1.742
  247ACOH    H310876   7.306   8.605   1.612
  248ACOH    H410877   5.932   6.429   2.269
  248ACOH    O210878   5.901   6.498   2.332
  248ACOH    C210879   5.820   6.581   2.264
  248ACOH    O110880   5.787   6.572   2.147
  248ACOH    C110881   5.770   6.689   2.353
  248ACOH    H110882   5.715   6.645   2.436
  248ACOH    H210883   5.704   6.757   2.299
  248ACOH    H310884   5.854   6.745   2.393
  249ACOH    H410885   8.516   5.943   3.073
  249ACOH    O210886   8.561   5.984   3.153
  249ACOH    C210887   8.464   6.028   3.234
  249ACOH    O110888   8.345   6.039   3.210
  249ACOH    C110889   8.523   6.069   3.364
  249ACOH    H110890   8.567   5.982   3.412
  249ACOH    H210891   8.448   6.111   3.430
  249ACOH    H310892   8.600   6.143   3.346
  250ACOH    H410893   5.940   8.767   1.675
  250ACOH    O210894   5.931   8.736   1.581
  250ACOH    C210895   5.917   8.847   1.505
  250ACOH    O110896   5.929   8.962   1.542
  250ACOH    C110897   5.889   8.810   1.364
  250ACOH    H110898   5.880   8.899   1.303
  250ACOH    H210899   5.797   8.754   1.360
  250ACOH    H310900   5.970   8.748   1.326
  251ACOH    H410901   1.695   4.401   5.399
  251ACOH    O210902   1.645   4.390   5.316
  251ACOH    C210903   1.709   4.295   5.246
  251ACOH    O110904   1.777   4.207   5.293
  251ACOH    C110905   1.663   4.295   5.105
  251ACOH    H110906   1.700   4.207   5.053
  251ACOH    H210907   1.702   4.384   5.055
  251ACOH    H310908   1.555   4.296   5.101
  252ACOH    H410909   7.934   5.648   4.431
  252ACOH    O210910   7.887   5.572   4.475
  252ACOH    C210911   7.938   5.459   4.424
  252ACOH    O110912   8.034   5.448   4.349
  252ACOH    C110913   7.867   5.342   4.480
  252ACOH    H110914   7.908   5.249   4.441
  252ACOH    H210915   7.762   5.347   4.455
  252ACOH    H310916   7.877   5.340   4.588
  253ACOH    H410917   3.220   3.875   0.670
  253ACOH    O210918   3.247   3.843   0.578
  253ACOH    C210919   3.364   3.779   0.592
  253ACOH    O110920   3.435   3.776   0.691
  253ACOH    C110921   3.413   3.728   0.462
  253ACOH    H110922   3.448   3.625   0.473
  253ACOH    H210923   3.494   3.790   0.425
  253ACOH    H310924   3.332   3.728   0.389
  254ACOH    H410925   0.217   3.861   0.621
  254ACOH    O210926   0.278   3.860   0.541
  254ACOH    C210927   0.349   3.746   0.548
  254ACOH    O110928   0.347   3.661   0.636
  254ACOH    C110929   0.435   3.732   0.428
  254ACOH    H110930   0.506   3.814   0.424
  254ACOH    H210931   0.372   3.737   0.340
  254ACOH    H310932   0.489   3.638   0.428
  255ACOH    H410933   2.372   5.268   2.073
  255ACOH    O210934   2.313   5.221   2.008
  255ACOH    C210935   2.190   5.219   2.062
  255ACOH    O110936   2.155   5.271   2.167
  255ACOH    C110937   2.095   5.148   1.974
  255ACOH    H110938   2.093   5.196   1.876
  255ACOH    H210939   1.994   5.150   2.015
  255ACOH    H310940   2.126   5.045   1.962
  256ACOH    H410941   5.996   7.285   3.249
  256ACOH    O210942   5.936   7.223   3.203
  256ACOH    C210943   5.815   7.229   3.261
  256ACOH    O110944   5.783   7.298   3.357
  256ACOH    C110945   5.719   7.137   3.196
  256ACOH    H110946   5.763   7.093   3.107
  256ACOH    H210947   5.629   7.190   3.169
  256ACOH    H310948   5.694   7.057   3.265
  257ACOH    H410949   7.750   5.424   0.443
  257ACOH    O210950   7.697   5.437   0.360
  257ACOH    C210951   7.650   5.563   0.364
  257ACOH    O110952   7.627   5.626   0.465
  257ACOH    C110953   7.593   5.604   0.233
  257ACOH    H110954   7.630   5.540   0.154
  257ACOH    H210955   7.622   5.706   0.212
  257ACOH    H310956   7.485   5.597   0.236
  258ACOH    H410957   5.104   4.581   4.157
  258ACOH    O210958   5.045   4.662   4.152
  258ACOH    C210959   5.007   4.670   4.023
  258ACOH    O110960   5.049   4.607   3.928
  258ACOH    C110961   4.909   4.781   4.005
  258ACOH    H110962   4.955   4.874   4.036
  258ACOH    H210963   4.822   4.762   4.067
  258ACOH    H310964   4.879   4.789   3.901
  259ACOH    H410965   8.359   7.956   2.038
  259ACOH    O210966   8.391   8.023   1.971
  259ACOH    C210967   8.359   8.145   2.015
  259ACOH    O110968   8.292   8.174   2.113
  259ACOH    C110969   8.410   8.248   1.922
  259ACOH    H110970   8.371   8.229   1.822
  259ACOH    H210971   8.518   8.242   1.918
  259ACOH    H310972   8.381   8.348   1.953
  260ACOH    H410973   5.175   7.879   1.641
  260ACOH    O210974   5.184   7.888   1.541
  260ACOH    C210975   5.317   7.894   1.516
  260ACOH    O110976   5.405   7.854   1.590
  260ACOH    C110977   5.344   7.928   1.375
  260ACOH    H110978   5.423   8.002   1.371
  260ACOH    H210979   5.255   7.969   1.328
  260ACOH    H310980   5.375   7.839   1.321
  261ACOH    H410981   4.597   5.116   5.195
  261ACOH    O210982   4.696   5.111   5.183
  261ACOH    C210983   4.739   5.013   5.264
  261ACOH    O110984   4.674   4.950   5.345
  261ACOH    C110985   4.885   4.993   5.247
  261ACOH    H110986   4.937   5.088   5.255
  261ACOH    H210987   4.905   4.950   5.150
  261ACOH    H310988   4.924   4.926   5.324
  262ACOH    H410989   5.094   8.904   0.611
  262ACOH    O210990   5.166   8.861   0.666
  262ACOH    C210991   5.229   8.774   0.584
  262ACOH    O110992   5.199   8.745   0.470
  262ACOH    C110993   5.341   8.711   0.657
  262ACOH    H110994   5.416   8.786   0.680
  262ACOH    H210995   5.386   8.632   0.596
  262ACOH    H310996   5.305   8.668   0.750
  263ACOH    H410997   8.142   4.544   2.130
  263ACOH    O210998   8.045   4.561   2.149
  263ACOH    C210999   8.035   4.692   2.180
  263ACOH    O111000   8.126   4.766   2.210
  263ACOH    C111001   7.893   4.733   2.192
  263ACOH    H111002   7.826   4.655   2.154
  263ACOH    H211003   7.877   4.824   2.135
  263ACOH    H311004   7.870   4.752   2.296
  264ACOH    H411005   7.110   0.121   0.977
  264ACOH    O211006   7.107   0.157   0.884
  264ACOH    C211007   7.233   0.163   0.835
  264ACOH    O111008   7.259   0.202   0.723
  264ACOH    C111009   7.340   0.123   0.930
  264ACOH    H111010   7.337   0.187   1.018
  264ACOH    H211011   7.438   0.133   0.884
  264ACOH    H311012   7.327   0.020   0.962
  265ACOH    H411013   6.430   7.184   4.121
  265ACOH    O211014   6.387   7.109   4.069
  265ACOH    C211015   6.469   7.085   3.965
  265ACOH    O111016   6.588   7.110   3.958
  265ACOH    C111017   6.400   6.998   3.866
  265ACOH    H111018   6.471   6.959   3.793
  265ACOH    H211019   6.325   7.057   3.814
  265ACOH    H311020   6.352   6.915   3.916
  266ACOH    H411021   4.789   5.946   2.823
  266ACOH    O211022   4.887   5.957   2.815
  266ACOH    C211023   4.943   5.844   2.864
  266ACOH    O111024   4.884   5.749   2.912
  266ACOH    C111025   5.090   5.851   2.856
  266ACOH    H111026   5.121   5.862   2.752
  266ACOH    H211027   5.136   5.761   2.897
  266ACOH    H311028   5.126   5.937   2.912
  267ACOH    H411029   5.397   3.756   3.307
  267ACOH    O211030   5.491   3.765   3.278
  267ACOH    C211031   5.544   3.641   3.280
  267ACOH    O111032   5.504   3.546   3.344
  267ACOH    C111033   5.675   3.642   3.210
  267ACOH    H111034   5.659   3.650   3.103
  267ACOH    H211035   5.731   3.551   3.232
  267ACOH    H311036   5.734   3.727   3.243
  268ACOH    H411037   7.043   2.673   4.050
  268ACOH    O211038   7.032   2.771   4.039
  268ACOH    C211039   6.899   2.793   4.037
  268ACOH    O111040   6.812   2.713   4.010
  268ACOH    C111041   6.873   2.939   4.050
  268ACOH    H111042   6.766   2.958   4.056
  268ACOH    H211043   6.913   2.989   3.962
  268ACOH    H311044   6.923   2.978   4.138
  269ACOH    H411045   3.361   0.649   0.529
  269ACOH    O211046   3.295   0.576   0.548
  269ACOH    C211047   3.173   0.634   0.555
  269ACOH    O111048   3.145   0.750   0.529
  269ACOH    C111049   3.068   0.532   0.577
  269ACOH    H111050   3.108   0.447   0.631
  269ACOH    H211051   3.032   0.498   0.481
  269ACOH    H311052   2.986   0.575   0.634
  270ACOH    H411053   8.187   6.760   0.989
  270ACOH    O211054   8.148   6.700   1.060
  270ACOH    C211055   8.106   6.589   0.996
  270ACOH    O111056   8.099   6.573   0.875
  270ACOH    C111057   8.060   6.485   1.091
  270ACOH    H111058   7.955   6.465   1.074
  270ACOH    H211059   8.074   6.517   1.194
  270ACOH    H311060   8.117   6.394   1.075
  271ACOH    H411061   8.207   7.761   0.082
  271ACOH    O211062   8.113   7.728   0.078
  271ACOH    C211063   8.087   7.699   6.697
  271ACOH    O111064   8.161   7.715   6.602
  271ACOH    C111065   7.952   7.641   6.681
  271ACOH    H111066   7.961   7.539   6.646
  271ACOH    H211067   7.897   7.698   6.607
  271ACOH    H311068   7.897   7.642   0.026
  272ACOH    H411069   0.022   2.520   4.989
  272ACOH    O211070   0.085   2.595   4.970
  272ACOH    C211071   0.165   2.602   5.079
  272ACOH    O111072   0.179   2.517   5.164
  272ACOH    C111073   0.255   2.719   5.069
  272ACOH    H111074   0.330   2.718   5.148
  272ACOH    H211075   0.197   2.810   5.079
  272ACOH    H311076   0.306   2.719   4.973
  273ACOH    H411077   8.022   1.974   1.796
  273ACOH    O211078   7.946   1.982   1.859
  273ACOH    C211079   7.904   1.858   1.888
  273ACOH    O111080   7.947   1.753   1.842
  273ACOH    C111081   7.792   1.863   1.985
  273ACOH    H111082   7.708   1.915   1.941
  273ACOH    H211083   7.824   1.917   2.074
  273ACOH    H311084   7.761   1.763   2.014
  274ACOH    H411085   7.597   3.412   2.388
  274ACOH    O211086   7.610   3.319   2.352
  274ACOH    C211087   7.667   3.247   2.450
  274ACOH    O111088   7.684   3.282   2.566
  274ACOH    C111089   7.698   3.111   2.403
  274ACOH    H111090   7.774   3.116   2.325
  274ACOH    H211091   7.609   3.064   2.362
  274ACOH    H311092   7.736   3.049   2.484
  275ACOH    H411093   3.923   7.966   0.299
  275ACOH    O211094   3.988   7.933   0.366
  275ACOH    C211095   4.085   8.026   0.376
  275ACOH    O111096   4.085   8.136   0.322
  275ACOH    C111097   4.196   7.982   0.463
  275ACOH    H111098   4.178   7.881   0.500
  275ACOH    H211099   4.204   8.049   0.549
  275ACOH    H311100   4.289   7.984   0.408
  276ACOH    H411101   4.101   6.444   4.187
  276ACOH    O211102   4.193   6.408   4.180
  276ACOH    C211103   4.262   6.494   4.102
  276ACOH    O111104   4.219   6.594   4.048
  276ACOH    C111105   4.404   6.452   4.091
  276ACOH    H111106   4.448   6.445   4.190
  276ACOH    H211107   4.461   6.524   4.032
  276ACOH    H311108   4.409   6.355   4.043
  277ACOH    H411109   9.658   9.751   3.634
  277ACOH    O211110   9.712   9.667   3.638
  277ACOH    C211111   9.787   9.661   3.527
  277ACOH    O111112   9.789   9.740   3.435
  277ACOH    C111113   9.870   9.538   3.527
  277ACOH    H111114   9.928   9.530   3.435
  277ACOH    H211115   9.807   9.451   3.538
  277ACOH    H311116   9.940   9.542   3.611
  278ACOH    H411117   3.761   9.176   1.021
  278ACOH    O211118   3.740   9.156   0.926
  278ACOH    C211119   3.694   9.030   0.920
  278ACOH    O111120   3.695   8.948   1.010
  278ACOH    C111121   3.656   8.993   0.781
  278ACOH    H111122   3.557   8.949   0.781
  278ACOH    H211123   3.727   8.922   0.742
  278ACOH    H311124   3.655   9.081   0.718
  279ACOH    H411125   7.461   1.504   3.471
  279ACOH    O211126   7.434   1.475   3.563
  279ACOH    C211127   7.492   1.559   3.650
  279ACOH    O111128   7.566   1.653   3.625
  279ACOH    C111129   7.452   1.524   3.788
  279ACOH    H111130   7.484   1.423   3.810
  279ACOH    H211131   7.344   1.530   3.797
  279ACOH    H311132   7.497   1.593   3.860
  280ACOH    H411133   5.512   5.962   2.549
  280ACOH    O211134   5.607   5.988   2.530
  280ACOH    C211135   5.609   6.117   2.492
  280ACOH    O111136   5.517   6.197   2.495
  280ACOH    C111137   5.747   6.155   2.454
  280ACOH    H111138   5.776   6.099   2.365
  280ACOH    H211139   5.815   6.131   2.535
  280ACOH    H311140   5.753   6.262   2.433
  281ACOH    H411141   6.645   3.110   2.938
  281ACOH    O211142   6.548   3.102   2.960
  281ACOH    C211143   6.513   2.974   2.939
  281ACOH    O111144   6.583   2.885   2.892
  281ACOH    C111145   6.372   2.952   2.979
  281ACOH    H111146   6.343   2.848   2.963
  281ACOH    H211147   6.308   3.016   2.919
  281ACOH    H311148   6.360   2.977   3.084
  282ACOH    H411149   2.774   7.120   4.922
  282ACOH    O211150   2.827   7.121   4.838
  282ACOH    C211151   2.740   7.098   4.738
  282ACOH    O111152   2.619   7.099   4.747
  282ACOH    C111153   2.808   7.074   4.609
  282ACOH    H111154   2.916   7.080   4.621
  282ACOH    H211155   2.777   7.149   4.537
  282ACOH    H311156   2.782   6.976   4.571
  283ACOH    H411157   3.992   6.030   4.603
  283ACOH    O211158   4.035   6.040   4.514
  283ACOH    C211159   3.968   6.136   4.448
  283ACOH    O111160   3.870   6.197   4.487
  283ACOH    C111161   4.028   6.158   4.314
  283ACOH    H111162   3.971   6.233   4.259
  283ACOH    H211163   4.028   6.065   4.258
  283ACOH    H311164   4.130   6.193   4.326
  284ACOH    H411165   4.862   4.269   0.415
  284ACOH    O211166   4.946   4.216   0.420
  284ACOH    C211167   4.913   4.091   0.382
  284ACOH    O111168   4.803   4.051   0.349
  284ACOH    C111169   5.031   4.001   0.389
  284ACOH    H111170   5.103   4.030   0.313
  284ACOH    H211171   5.002   3.897   0.373
  284ACOH    H311172   5.077   4.010   0.486
  285ACOH    H411173   8.446   7.216   6.665
  285ACOH    O211174   8.398   7.299   6.676
  285ACOH    C211175   8.427   7.345   0.050
  285ACOH    O111176   8.490   7.285   0.135
  285ACOH    C111177   8.360   7.474   0.078
  285ACOH    H111178   8.432   7.545   0.119
  285ACOH    H211179   8.280   7.460   0.150
  285ACOH    H311180   8.319   7.517   6.735
  286ACOH    H411181   8.302   8.343   0.064
  286ACOH    O211182   8.214   8.301   0.068
  286ACOH    C211183   8.236   8.172   0.100
  286ACOH    O111184   8.344   8.117   0.106
  286ACOH    C111185   8.108   8.100   0.119
  286ACOH    H111186   8.040   8.125   0.039
  286ACOH    H211187   8.065   8.128   0.215
  286ACOH    H311188   8.125   7.992   0.119
  287ACOH    H411189   5.455   6.980   3.301
  287ACOH    O211190   5.503   6.933   3.374
  287ACOH    C211191   5.445   6.967   3.490
  287ACOH    O111192   5.359   7.052   3.508
  287ACOH    C111193   5.509   6.899   3.605
  287ACOH    H111194   5.433   6.854   3.668
  287ACOH    H211195   5.567   6.970   3.663
  287ACOH    H311196   5.575   6.820   3.570
  288ACOH    H411197   5.601   3.659   0.870
  288ACOH    O211198   5.668   3.689   0.938
  288ACOH    C211199   5.691   3.820   0.918
  288ACOH    O111200   5.666   3.884   0.817
  288ACOH    C111201   5.772   3.875   1.029
  288ACOH    H111202   5.711   3.877   1.119
  288ACOH    H211203   5.804   3.977   1.006
  288ACOH    H311204   5.858   3.812   1.046
  289ACOH    H411205   3.876   6.749   2.329
  289ACOH    O211206   3.915   6.670   2.281
  289ACOH    C211207   3.926   6.572   2.373
  289ACOH    O111208   3.876   6.571   2.484
  289ACOH    C111209   3.995   6.453   2.317
  289ACOH    H111210   3.925   6.371   2.307
  289ACOH    H211211   4.076   6.423   2.384
  289ACOH    H311212   4.037   6.475   2.220
  290ACOH    H411213   4.870   7.342   4.893
  290ACOH    O211214   4.898   7.335   4.989
  290ACOH    C211215   4.796   7.278   5.056
  290ACOH    O111216   4.686   7.252   5.013
  290ACOH    C111217   4.834   7.254   5.197
  290ACOH    H111218   4.922   7.191   5.201
  290ACOH    H211219   4.753   7.206   5.251
  290ACOH    H311220   4.856   7.349   5.245
  291ACOH    H411221   8.053   6.263   2.403
  291ACOH    O211222   8.047   6.362   2.384
  291ACOH    C211223   8.075   6.377   2.253
  291ACOH    O111224   8.086   6.290   2.169
  291ACOH    C111225   8.084   6.521   2.220
  291ACOH    H111226   8.108   6.535   2.115
  291ACOH    H211227   8.162   6.567   2.280
  291ACOH    H311228   7.989   6.569   2.242
  292ACOH    H411229   5.256   2.852   2.748
  292ACOH    O211230   5.273   2.929   2.811
  292ACOH    C211231   5.355   2.884   2.907
  292ACOH    O111232   5.394   2.770   2.923
  292ACOH    C111233   5.384   2.993   3.004
  292ACOH    H111234   5.443   2.957   3.087
  292ACOH    H211235   5.291   3.034   3.041
  292ACOH    H311236   5.439   3.071   2.953
  293ACOH    H411237   7.787   4.281   2.608
  293ACOH    O211238   7.796   4.347   2.684
  293ACOH    C211239   7.742   4.462   2.640
  293ACOH    O111240   7.706   4.489   2.527
  293ACOH    C111241   7.741   4.562   2.750
  293ACOH    H111242   7.701   4.657   2.715
  293ACOH    H211243   7.843   4.578   2.785
  293ACOH    H311244   7.680   4.525   2.831
  294ACOH    H411245   5.562   4.248   1.309
  294ACOH    O211246   5.633   4.272   1.376
  294ACOH    C211247   5.685   4.390   1.338
  294ACOH    O111248   5.658   4.454   1.238
  294ACOH    C111249   5.791   4.434   1.432
  294ACOH    H111250   5.886   4.434   1.381
  294ACOH    H211251   5.797   4.367   1.518
  294ACOH    H311252   5.769   4.534   1.467
  295ACOH    H411253   4.560   7.262   1.305
  295ACOH    O211254   4.659   7.260   1.293
  295ACOH    C211255   4.712   7.232   1.413
  295ACOH    O111256   4.658   7.170   1.502
  295ACOH    C111257   4.856   7.267   1.415
  295ACOH    H111258   4.866   7.375   1.408
  295ACOH    H211259   4.906   7.221   1.330
  295ACOH    H311260   4.903   7.232   1.507
  296ACOH    H411261   7.471   4.137   2.215
  296ACOH    O211262   7.452   4.230   2.182
  296ACOH    C211263   7.413   4.219   2.054
  296ACOH    O111264   7.423   4.121   1.981
  296ACOH    C111265   7.368   4.351   2.003
  296ACOH    H111266   7.280   4.382   2.057
  296ACOH    H211267   7.344   4.345   1.897
  296ACOH    H311268   7.447   4.424   2.017
  297ACOH    H411269   6.180   7.412   3.026
  297ACOH    O211270   6.273   7.393   3.056
  297ACOH    C211271   6.266   7.352   3.184
  297ACOH    O111272   6.170   7.364   3.258
  297ACOH    C111273   6.400   7.311   3.232
  297ACOH    H111274   6.395   7.275   3.335
  297ACOH    H211275   6.468   7.395   3.229
  297ACOH    H311276   6.440   7.232   3.169
  298ACOH    H411277   5.041   4.211   2.377
  298ACOH    O211278   5.120   4.151   2.366
  298ACOH    C211279   5.187   4.198   2.259
  298ACOH    O111280   5.146   4.278   2.176
  298ACOH    C111281   5.314   4.124   2.238
  298ACOH    H111282   5.395   4.195   2.225
  298ACOH    H211283   5.306   4.062   2.149
  298ACOH    H311284   5.336   4.061   2.324
  299ACOH    H411285   5.117   9.388   0.148
  299ACOH    O211286   5.198   9.347   0.191
  299ACOH    C211287   5.264   9.284   0.093
  299ACOH    O111288   5.220   9.256   6.731
  299ACOH    C111289   5.394   9.232   0.143
  299ACOH    H111290   5.458   9.316   0.170
  299ACOH    H211291   5.445   9.173   0.067
  299ACOH    H311292   5.378   9.170   0.230
  300ACOH    H411293   5.226   4.391   3.658
  300ACOH    O211294   5.282   4.308   3.652
  300ACOH    C211295   5.198   4.205   3.672
  300ACOH    O111296   5.092   4.208   3.732
  300ACOH    C111297   5.265   4.077   3.636
  300ACOH    H111298   5.276   4.071   3.528
  300ACOH    H211299   5.206   3.992   3.671
  300ACOH    H311300   5.363   4.073   3.682
  301ACOH    H411301   8.106   9.160   6.578
  301ACOH    O211302   8.125   9.158   6.676
  301ACOH    C211303   8.039   9.242   6.736
  301ACOH    O111304   7.955   9.312   6.681
  301ACOH    C111305   8.055   9.236   0.134
  301ACOH    H111306   7.982   9.299   0.184
  301ACOH    H211307   8.155   9.268   0.161
  301ACOH    H311308   8.041   9.133   0.168
  302ACOH    H411309   1.317   2.102   3.793
  302ACOH    O211310   1.312   2.006   3.765
  302ACOH    C211311   1.374   1.933   3.860
  302ACOH    O111312   1.444   1.975   3.950
  302ACOH    C111313   1.346   1.788   3.844
  302ACOH    H111314   1.280   1.754   3.923
  302ACOH    H211315   1.439   1.732   3.850
  302ACOH    H311316   1.300   1.769   3.747
  303ACOH    H411317   1.472   3.202   3.396
  303ACOH    O211318   1.425   3.183   3.481
  303ACOH    C211319   1.452   3.056   3.516
  303ACOH    O111320   1.529   2.979   3.460
  303ACOH    C111321   1.383   3.019   3.642
  303ACOH    H111322   1.330   2.925   3.628
  303ACOH    H211323   1.310   3.095   3.669
  303ACOH    H311324   1.455   3.008   3.722
  304ACOH    H411325   5.216   4.987   4.529
  304ACOH    O211326   5.213   4.922   4.453
  304ACOH    C211327   5.338   4.908   4.407
  304ACOH    O111328   5.440   4.953   4.456
  304ACOH    C111329   5.341   4.817   4.290
  304ACOH    H111330   5.397   4.863   4.209
  304ACOH    H211331   5.240   4.796   4.256
  304ACOH    H311332   5.388   4.723   4.318
  305ACOH    H411333   0.715   2.012   2.796
  305ACOH    O211334   0.703   1.934   2.856
  305ACOH    C211335   0.592   1.956   2.928
  305ACOH    O111336   0.506   2.039   2.904
  305ACOH    C111337   0.577   1.854   3.035
  305ACOH    H111338   0.660   1.863   3.105
  305ACOH    H211339   0.580   1.755   2.991
  305ACOH    H311340   0.484   1.867   3.089
  306ACOH    H411341   7.832   4.117   3.505
  306ACOH    O211342   7.820   4.050   3.432
  306ACOH    C211343   7.893   3.942   3.464
  306ACOH    O111344   7.954   3.923   3.568
  306ACOH    C111345   7.887   3.840   3.357
  306ACOH    H111346   7.842   3.748   3.395
  306ACOH    H211347   7.987   3.818   3.322
  306ACOH    H311348   7.827   3.875   3.273
  307ACOH    H411349   7.492   7.333   2.929
  307ACOH    O211350   7.415   7.365   2.875
  307ACOH    C211351   7.433   7.497   2.857
  307ACOH    O111352   7.533   7.563   2.880
  307ACOH    C111353   7.315   7.556   2.788
  307ACOH    H111354   7.300   7.505   2.694
  307ACOH    H211355   7.329   7.662   2.769
  307ACOH    H311356   7.228   7.542   2.851
  308ACOH    H411357   5.105   5.281   3.669
  308ACOH    O211358   5.187   5.330   3.696
  308ACOH    C211359   5.178   5.453   3.643
  308ACOH    O111360   5.105   5.488   3.552
  308ACOH    C111361   5.283   5.541   3.699
  308ACOH    H111362   5.280   5.639   3.651
  308ACOH    H211363   5.381   5.497   3.682
  308ACOH    H311364   5.267   5.553   3.805
  309ACOH    H411365   6.940   7.685   5.420
  309ACOH    O211366   7.036   7.692   5.436
  309ACOH    C211367   7.057   7.817   5.483
  309ACOH    O111368   6.972   7.902   5.500
  309ACOH    C111369   7.200   7.843   5.511
  309ACOH    H111370   7.212   7.877   5.613
  309ACOH    H211371   7.237   7.920   5.443
  309ACOH    H311372   7.260   7.753   5.497
  310ACOH    H411373   9.976   9.872   0.024
  310ACOH    O211374   9.979   9.969   0.025
  310ACOH    C211375   9.851   0.009   0.042
  310ACOH    O111376   9.755   9.936   0.055
  310ACOH    C111377   9.840   0.157   0.051
  310ACOH    H111378   9.808   0.186   0.150
  310ACOH    H211379   9.766   0.193   6.728
  310ACOH    H311380   9.935   0.205   0.029
  311ACOH    H411381   5.818   2.351   3.010
  311ACOH    O211382   5.865   2.275   2.967
  311ACOH    C211383   5.861   2.297   2.834
  311ACOH    O111384   5.812   2.392   2.777
  311ACOH    C111385   5.925   2.186   2.758
  311ACOH    H111386   6.003   2.226   2.694
  311ACOH    H211387   5.849   2.137   2.697
  311ACOH    H311388   5.968   2.113   2.826
  312ACOH    H411389   7.668   1.575   1.725
  312ACOH    O211390   7.571   1.582   1.748
  312ACOH    C211391   7.558   1.548   1.877
  312ACOH    O111392   7.646   1.519   1.955
  312ACOH    C111393   7.415   1.555   1.917
  312ACOH    H111394   7.357   1.483   1.860
  312ACOH    H211395   7.377   1.655   1.898
  312ACOH    H311396   7.404   1.533   2.023
  313ACOH    H411397   5.226   0.875   4.777
  313ACOH    O211398   5.196   0.855   4.870
  313ACOH    C211399   5.141   0.732   4.866
  313ACOH    O111400   5.145   0.653   4.774
  313ACOH    C111401   5.081   0.695   4.996
  313ACOH    H111402   5.136   0.612   5.039
  313ACOH    H211403   4.978   0.664   4.980
  313ACOH    H311404   5.081   0.779   5.065
  314ACOH    H411405   3.149   3.693   3.874
  314ACOH    O211406   3.087   3.748   3.817
  314ACOH    C211407   3.166   3.830   3.745
  314ACOH    O111408   3.286   3.818   3.728
  314ACOH    C111409   3.086   3.928   3.668
  314ACOH    H111410   2.987   3.938   3.711
  314ACOH    H211411   3.077   3.894   3.565
  314ACOH    H311412   3.135   4.025   3.669
  315ACOH    H411413   8.359   6.629   6.642
  315ACOH    O211414   8.273   6.586   6.658
  315ACOH    C211415   8.234   6.632   0.029
  315ACOH    O111416   8.261   6.741   0.077
  315ACOH    C111417   8.132   6.544   0.091
  315ACOH    H111418   8.169   6.510   0.188
  315ACOH    H211419   8.111   6.459   0.028
  315ACOH    H311420   8.040   6.601   0.107
  316ACOH    H411421   5.472   3.400   3.440
  316ACOH    O211422   5.457   3.326   3.504
  316ACOH    C211423   5.552   3.234   3.479
  316ACOH    O111424   5.631   3.235   3.386
  316ACOH    C111425   5.544   3.119   3.571
  316ACOH    H111426   5.501   3.034   3.520
  316ACOH    H211427   5.484   3.143   3.659
  316ACOH    H311428   5.644   3.091   3.605
  317ACOH    H411429   5.712   3.278   3.244
  317ACOH    O211430   5.758   3.311   3.163
  317ACOH    C211431   5.664   3.316   3.066
  317ACOH    O111432   5.548   3.281   3.074
  317ACOH    C111433   5.723   3.370   2.941
  317ACOH    H111434   5.810   3.311   2.914
  317ACOH    H211435   5.754   3.473   2.957
  317ACOH    H311436   5.651   3.366   2.860
  318ACOH    H411437   7.984   5.475   2.999
  318ACOH    O211438   7.999   5.386   2.956
  318ACOH    C211439   8.073   5.405   2.846
  318ACOH    O111440   8.123   5.510   2.810
  318ACOH    C111441   8.095   5.277   2.775
  318ACOH    H111442   8.162   5.291   2.690
  318ACOH    H211443   7.999   5.240   2.740
  318ACOH    H311444   8.138   5.205   2.844
  319ACOH    H411445   3.576   5.998   2.394
  319ACOH    O211446   3.646   6.033   2.457
  319ACOH    C211447   3.604   6.154   2.498
  319ACOH    O111448   3.511   6.218   2.452
  319ACOH    C111449   3.695   6.208   2.602
  319ACOH    H111450   3.797   6.208   2.564
  319ACOH    H211451   3.690   6.145   2.690
  319ACOH    H311452   3.667   6.309   2.629
  320ACOH    H411453   8.572   3.429   3.559
  320ACOH    O211454   8.497   3.465   3.615
  320ACOH    C211455   8.413   3.362   3.637
  320ACOH    O111456   8.433   3.245   3.609
  320ACOH    C111457   8.294   3.405   3.714
  320ACOH    H111458   8.290   3.513   3.722
  320ACOH    H211459   8.299   3.363   3.815
  320ACOH    H311460   8.204   3.369   3.666
  321ACOH    H411461   7.077   6.704   5.493
  321ACOH    O211462   6.993   6.660   5.470
  321ACOH    C211463   6.966   6.691   5.342
  321ACOH    O111464   7.038   6.755   5.268
  321ACOH    C111465   6.836   6.634   5.301
  321ACOH    H111466   6.810   6.665   5.200
  321ACOH    H211467   6.758   6.667   5.370
  321ACOH    H311468   6.842   6.526   5.305
  322ACOH    H411469   5.344   8.101   5.372
  322ACOH    O211470   5.401   8.027   5.404
  322ACOH    C211471   5.328   7.915   5.401
  322ACOH    O111472   5.208   7.907   5.383
  322ACOH    C111473   5.411   7.795   5.428
  322ACOH    H111474   5.373   7.743   5.515
  322ACOH    H211475   5.514   7.824   5.447
  322ACOH    H311476   5.408   7.728   5.343
  323ACOH    H411477   4.751   3.402   0.092
  323ACOH    O211478   4.834   3.358   0.126
  323ACOH    C211479   4.795   3.245   0.187
  323ACOH    O111480   4.687   3.189   0.176
  323ACOH    C111481   4.908   3.187   0.263
  323ACOH    H111482   4.955   3.263   0.324
  323ACOH    H211483   4.982   3.146   0.194
  323ACOH    H311484   4.873   3.107   0.328
  324ACOH    H411485   7.548   5.290   0.671
  324ACOH    O211486   7.494   5.368   0.640
  324ACOH    C211487   7.434   5.330   0.525
  324ACOH    O111488   7.463   5.233   0.457
  324ACOH    C111489   7.334   5.430   0.482
  324ACOH    H111490   7.299   5.408   0.382
  324ACOH    H211491   7.378   5.529   0.484
  324ACOH    H311492   7.250   5.428   0.550
  325ACOH    H411493   7.367   7.462   3.230
  325ACOH    O211494   7.298   7.458   3.158
  325ACOH    C211495   7.227   7.346   3.178
  325ACOH    O111496   7.246   7.260   3.262
  325ACOH    C111497   7.118   7.335   3.078
  325ACOH    H111498   7.023   7.327   3.129
  325ACOH    H211499   7.134   7.247   3.016
  325ACOH    H311500   7.115   7.423   3.014
  326ACOH    H411501   0.933   1.690   2.802
  326ACOH    O211502   0.996   1.726   2.733
  326ACOH    C211503   1.099   1.639   2.727
  326ACOH    O111504   1.119   1.542   2.799
  326ACOH    C111505   1.194   1.680   2.621
  326ACOH    H111506   1.144   1.677   2.525
  326ACOH    H211507   1.279   1.612   2.618
  326ACOH    H311508   1.230   1.780   2.640
  327ACOH    H411509   4.887   5.101   2.881
  327ACOH    O211510   4.870   5.033   2.809
  327ACOH    C211511   4.861   4.914   2.870
  327ACOH    O111512   4.877   4.890   2.989
  327ACOH    C111513   4.831   4.806   2.773
  327ACOH    H111514   4.907   4.729   2.779
  327ACOH    H211515   4.829   4.845   2.671
  327ACOH    H311516   4.734   4.763   2.795
  328ACOH    H411517   7.020   0.127   2.141
  328ACOH    O211518   6.998   0.113   2.238
  328ACOH    C211519   7.076   0.011   2.279
  328ACOH    O111520   7.158   9.951   2.213
  328ACOH    C111521   7.049   9.975   2.420
  328ACOH    H111522   6.978   0.044   2.465
  328ACOH    H211523   7.141   9.977   2.477
  328ACOH    H311524   7.007   9.874   2.424
  329ACOH    H411525   8.445   4.860   3.051
  329ACOH    O211526   8.415   4.769   3.080
  329ACOH    C211527   8.495   4.732   3.182
  329ACOH    O111528   8.587   4.795   3.229
  329ACOH    C111529   8.450   4.601   3.235
  329ACOH    H111530   8.507   4.575   3.324
  329ACOH    H211531   8.465   4.525   3.160
  329ACOH    H311532   8.345   4.605   3.261
  330ACOH    H411533   7.613   6.304   3.252
  330ACOH    O211534   7.577   6.211   3.243
  330ACOH    C211535   7.584   6.152   3.363
  330ACOH    O111536   7.644   6.192   3.461
  330ACOH    C111537   7.525   6.016   3.356
  330ACOH    H111538   7.419   6.024   3.334
  330ACOH    H211539   7.539   5.963   3.450
  330ACOH    H311540   7.573   5.960   3.276
  331ACOH    H411541   7.140   4.452   1.581
  331ACOH    O211542   7.073   4.417   1.646
  331ACOH    C211543   6.959   4.397   1.578
  331ACOH    O111544   6.938   4.422   1.460
  331ACOH    C111545   6.854   4.345   1.668
  331ACOH    H111546   6.882   4.246   1.702
  331ACOH    H211547   6.758   4.340   1.617
  331ACOH    H311548   6.845   4.410   1.754
  332ACOH    H411549   4.818   5.961   3.117
  332ACOH    O211550   4.909   5.994   3.140
  332ACOH    C211551   4.915   6.122   3.101
  332ACOH    O111552   4.831   6.182   3.036
  332ACOH    C111553   5.038   6.189   3.151
  332ACOH    H111554   5.010   6.268   3.220
  332ACOH    H211555   5.093   6.231   3.068
  332ACOH    H311556   5.101   6.117   3.203
  333ACOH    H411557   5.851   6.208   1.996
  333ACOH    O211558   5.946   6.195   1.966
  333ACOH    C211559   6.024   6.253   2.059
  333ACOH    O111560   5.989   6.310   2.160
  333ACOH    C111561   6.167   6.236   2.022
  333ACOH    H111562   6.187   6.288   1.929
  333ACOH    H211563   6.189   6.130   2.009
  333ACOH    H311564   6.232   6.276   2.100
  334ACOH    H411565   6.493   1.625   5.502
  334ACOH    O211566   6.423   1.642   5.438
  334ACOH    C211567   6.483   1.685   5.325
  334ACOH    O111568   6.603   1.704   5.311
  334ACOH    C111569   6.385   1.712   5.217
  334ACOH    H111570   6.408   1.650   5.131
  334ACOH    H211571   6.390   1.816   5.187
  334ACOH    H311572   6.284   1.689   5.250
  335ACOH    H411573   9.932   3.826   3.175
  335ACOH    O211574   0.008   3.823   3.111
  335ACOH    C211575   0.075   3.708   3.134
  335ACOH    O111576   0.039   3.616   3.205
  335ACOH    C111577   0.198   3.704   3.052
  335ACOH    H111578   0.251   3.610   3.065
  335ACOH    H211579   0.263   3.786   3.080
  335ACOH    H311580   0.171   3.715   2.947
  336ACOH    H411581   3.919   6.234   0.212
  336ACOH    O211582   3.871   6.236   0.124
  336ACOH    C211583   3.852   6.366   0.096
  336ACOH    O111584   3.897   6.462   0.155
  336ACOH    C111585   3.767   6.383   6.724
  336ACOH    H111586   3.675   6.433   0.004
  336ACOH    H211587   3.743   6.287   6.680
  336ACOH    H311588   3.819   6.444   6.651
  337ACOH    H411589   4.122   5.691   0.133
  337ACOH    O211590   4.061   5.703   0.054
  337ACOH    C211591   3.997   5.820   0.073
  337ACOH    O111592   3.993   5.885   0.176
  337ACOH    C111593   3.915   5.855   6.703
  337ACOH    H111594   3.861   5.948   6.720
  337ACOH    H211595   3.843   5.776   6.684
  337ACOH    H311596   3.980   5.867   6.616
  338ACOH    H411597   1.106   9.150   1.875
  338ACOH    O211598   1.158   9.182   1.797
  338ACOH    C211599   1.235   9.078   1.757
  338ACOH    O111600   1.242   8.968   1.809
  338ACOH    C111601   1.315   9.117   1.639
  338ACOH    H111602   1.376   9.204   1.662
  338ACOH    H211603   1.249   9.141   1.556
  338ACOH    H311604   1.382   9.036   1.609
  339ACOH    H411605   5.544   9.853   1.133
  339ACOH    O211606   5.641   9.863   1.110
  339ACOH    C211607   5.698   9.742   1.125
  339ACOH    O111608   5.650   9.647   1.182
  339ACOH    C111609   5.840   9.747   1.081
  339ACOH    H111610   5.891   9.653   1.105
  339ACOH    H211611   5.892   9.828   1.132
  339ACOH    H311612   5.845   9.763   0.974
  340ACOH    H411613   4.412   8.308   0.736
  340ACOH    O211614   4.500   8.263   0.721
  340ACOH    C211615   4.480   8.133   0.750
  340ACOH    O111616   4.375   8.078   0.779
  340ACOH    C111617   4.608   8.058   0.738
  340ACOH    H111618   4.680   8.099   0.808
  340ACOH    H211619   4.647   8.068   0.637
  340ACOH    H311620   4.593   7.953   0.760
  341ACOH    H411621   7.274   3.140   4.370
  341ACOH    O211622   7.205   3.124   4.440
  341ACOH    C211623   7.200   2.992   4.462
  341ACOH    O111624   7.262   2.905   4.404
  341ACOH    C111625   7.103   2.961   4.570
  341ACOH    H111626   7.139   3.004   4.663
  341ACOH    H211627   7.091   2.854   4.582
  341ACOH    H311628   7.007   3.005   4.546
  342ACOH    H411629   5.560   2.096   2.887
  342ACOH    O211630   5.557   2.040   2.970
  342ACOH    C211631   5.636   1.933   2.947
  342ACOH    O111632   5.708   1.915   2.851
  342ACOH    C111633   5.628   1.841   3.062
  342ACOH    H111634   5.663   1.893   3.151
  342ACOH    H211635   5.690   1.753   3.046
  342ACOH    H311636   5.525   1.810   3.077
  343ACOH    H411637   5.472   5.030   1.754
  343ACOH    O211638   5.539   5.084   1.805
  343ACOH    C211639   5.656   5.072   1.740
  343ACOH    O111640   5.678   5.007   1.640
  343ACOH    C111641   5.763   5.153   1.804
  343ACOH    H111642   5.727   5.198   1.897
  343ACOH    H211643   5.793   5.234   1.737
  343ACOH    H311644   5.849   5.091   1.826
  344ACOH    H411645   7.915   8.308   2.196
  344ACOH    O211646   7.834   8.359   2.168
  344ACOH    C211647   7.861   8.413   2.049
  344ACOH    O111648   7.961   8.395   1.982
  344ACOH    C111649   7.749   8.498   2.001
  344ACOH    H111650   7.709   8.456   1.909
  344ACOH    H211651   7.785   8.598   1.981
  344ACOH    H311652   7.670   8.502   2.075
  345ACOH    H411653   4.695   5.310   0.616
  345ACOH    O211654   4.734   5.357   0.695
  345ACOH    C211655   4.867   5.357   0.675
  345ACOH    O111656   4.928   5.308   0.582
  345ACOH    C111657   4.938   5.425   0.786
  345ACOH    H111658   4.868   5.461   0.861
  345ACOH    H211659   4.993   5.510   0.747
  345ACOH    H311660   5.007   5.356   0.833
  346ACOH    H411661   8.925   5.870   2.777
  346ACOH    O211662   8.902   5.802   2.846
  346ACOH    C211663   8.831   5.866   2.941
  346ACOH    O111664   8.823   5.987   2.957
  346ACOH    C111665   8.780   5.769   3.040
  346ACOH    H111666   8.744   5.819   3.129
  346ACOH    H211667   8.859   5.699   3.067
  346ACOH    H311668   8.698   5.713   2.996
  347ACOH    H411669   2.860   0.790   5.217
  347ACOH    O211670   2.934   0.724   5.217
  347ACOH    C211671   3.048   0.793   5.231
  347ACOH    O111672   3.057   0.912   5.258
  347ACOH    C111673   3.166   0.704   5.218
  347ACOH    H111674   3.258   0.759   5.236
  347ACOH    H211675   3.169   0.663   5.118
  347ACOH    H311676   3.158   0.623   5.289
  348ACOH    H411677   7.053   8.171   2.225
  348ACOH    O211678   7.135   8.228   2.228
  348ACOH    C211679   7.237   8.144   2.255
  348ACOH    O111680   7.229   8.036   2.309
  348ACOH    C111681   7.368   8.208   2.231
  348ACOH    H111682   7.356   8.302   2.177
  348ACOH    H211683   7.431   8.142   2.172
  348ACOH    H311684   7.417   8.228   2.326
  349ACOH    H411685   4.731   6.769   1.312
  349ACOH    O211686   4.766   6.811   1.229
  349ACOH    C211687   4.847   6.912   1.266
  349ACOH    O111688   4.899   6.929   1.375
  349ACOH    C111689   4.883   6.994   1.148
  349ACOH    H111690   4.965   7.061   1.170
  349ACOH    H211691   4.796   7.054   1.118
  349ACOH    H311692   4.910   6.929   1.065
  350ACOH    H411693   7.262   2.320   1.318
  350ACOH    O211694   7.165   2.309   1.337
  350ACOH    C211695   7.098   2.349   1.227
  350ACOH    O111696   7.147   2.383   1.121
  350ACOH    C111697   6.952   2.349   1.250
  350ACOH    H111698   6.903   2.284   1.178
  350ACOH    H211699   6.913   2.450   1.237
  350ACOH    H311700   6.927   2.315   1.350
  351ACOH    H411701   8.030   5.556   3.954
  351ACOH    O211702   8.008   5.514   3.866
  351ACOH    C211703   7.932   5.601   3.797
  351ACOH    O111704   7.902   5.715   3.830
  351ACOH    C111705   7.893   5.543   3.667
  351ACOH    H111706   7.841   5.449   3.683
  351ACOH    H211707   7.982   5.524   3.607
  351ACOH    H311708   7.828   5.610   3.612
  352ACOH    H411709   5.607   4.236   1.535
  352ACOH    O211710   5.594   4.227   1.633
  352ACOH    C211711   5.514   4.328   1.671
  352ACOH    O111712   5.475   4.420   1.602
  352ACOH    C111713   5.485   4.318   1.816
  352ACOH    H111714   5.428   4.228   1.836
  352ACOH    H211715   5.429   4.405   1.850
  352ACOH    H311716   5.579   4.313   1.871
  353ACOH    H411717   5.407   8.497   1.507
  353ACOH    O211718   5.485   8.434   1.500
  353ACOH    C211719   5.596   8.509   1.517
  353ACOH    O111720   5.601   8.630   1.527
  353ACOH    C111721   5.718   8.426   1.510
  353ACOH    H111722   5.807   8.489   1.512
  353ACOH    H211723   5.718   8.369   1.418
  353ACOH    H311724   5.720   8.358   1.594
  354ACOH    H411725   1.274   6.217   4.370
  354ACOH    O211726   1.242   6.310   4.357
  354ACOH    C211727   1.271   6.377   4.470
  354ACOH    O111728   1.318   6.330   4.572
  354ACOH    C111729   1.225   6.517   4.461
  354ACOH    H111730   1.231   6.567   4.557
  354ACOH    H211731   1.121   6.519   4.426
  354ACOH    H311732   1.286   6.571   4.390
  355ACOH    H411733   5.151   5.833   0.781
  355ACOH    O211734   5.170   5.873   0.692
  355ACOH    C211735   5.105   5.991   0.685
  355ACOH    O111736   5.063   6.057   0.778
  355ACOH    C111737   5.108   6.045   0.547
  355ACOH    H111738   5.144   5.970   0.477
  355ACOH    H211739   5.173   6.132   0.543
  355ACOH    H311740   5.008   6.075   0.517
  356ACOH    H411741   6.381   2.535   4.522
  356ACOH    O211742   6.402   2.588   4.604
  356ACOH    C211743   6.442   2.710   4.564
  356ACOH    O111744   6.429   2.759   4.453
  356ACOH    C111745   6.487   2.792   4.679
  356ACOH    H111746   6.495   2.730   4.769
  356ACOH    H211747   6.417   2.872   4.697
  356ACOH    H311748   6.585   2.834   4.658
  357ACOH    H411749   7.528   3.535   2.848
  357ACOH    O211750   7.531   3.598   2.926
  357ACOH    C211751   7.660   3.626   2.948
  357ACOH    O111752   7.750   3.620   2.866
  357ACOH    C111753   7.677   3.699   3.076
  357ACOH    H111754   7.693   3.805   3.056
  357ACOH    H211755   7.763   3.659   3.129
  357ACOH    H311756   7.588   3.688   3.138
  358ACOH    H411757   8.281   6.982   1.243
  358ACOH    O211758   8.182   6.971   1.236
  358ACOH    C211759   8.132   6.984   1.360
  358ACOH    O111760   8.192   7.013   1.462
  358ACOH    C111761   7.986   6.963   1.360
  358ACOH    H111762   7.960   6.882   1.427
  358ACOH    H211763   7.951   6.938   1.260
  358ACOH    H311764   7.937   7.054   1.393
  359ACOH    H411765   6.554   2.192   4.280
  359ACOH    O211766   6.541   2.252   4.358
  359ACOH    C211767   6.665   2.284   4.399
  359ACOH    O111768   6.764   2.292   4.329
  359ACOH    C111769   6.662   2.333   4.539
  359ACOH    H111770   6.760   2.369   4.570
  359ACOH    H211771   6.631   2.253   4.605
  359ACOH    H311772   6.592   2.415   4.547
  360ACOH    H411773   7.391   3.047   4.824
  360ACOH    O211774   7.322   3.075   4.891
  360ACOH    C211775   7.290   3.203   4.864
  360ACOH    O111776   7.332   3.271   4.773
  360ACOH    C111777   7.186   3.250   4.959
  360ACOH    H111778   7.099   3.186   4.954
  360ACOH    H211779   7.156   3.352   4.935
  360ACOH    H311780   7.225   3.248   5.060
  361ACOH    H411781   0.601   3.985   0.655
  361ACOH    O211782   0.516   4.012   0.700
  361ACOH    C211783   0.478   4.129   0.645
  361ACOH    O111784   0.543   4.201   0.571
  361ACOH    C111785   0.347   4.171   0.699
  361ACOH    H111786   0.354   4.184   0.806
  361ACOH    H211787   0.273   4.095   0.678
  361ACOH    H311788   0.315   4.265   0.654
  362ACOH    H411789   7.950   5.586   1.958
  362ACOH    O211790   7.953   5.531   2.042
  362ACOH    C211791   8.022   5.602   2.133
  362ACOH    O111792   8.058   5.718   2.125
  362ACOH    C111793   8.047   5.518   2.253
  362ACOH    H111794   7.953   5.477   2.289
  362ACOH    H211795   8.093   5.577   2.332
  362ACOH    H311796   8.113   5.437   2.227
  363ACOH    H411797   8.271   4.535   2.555
  363ACOH    O211798   8.255   4.628   2.586
  363ACOH    C211799   8.310   4.640   2.708
  363ACOH    O111800   8.344   4.550   2.782
  363ACOH    C111801   8.302   4.782   2.751
  363ACOH    H111802   8.374   4.841   2.695
  363ACOH    H211803   8.323   4.791   2.857
  363ACOH    H311804   8.202   4.820   2.732
  364ACOH    H411805   4.887   2.816   0.218
  364ACOH    O211806   4.948   2.876   0.267
  364ACOH    C211807   4.985   2.811   0.380
  364ACOH    O111808   4.965   2.694   0.406
  364ACOH    C111809   5.062   2.900   0.470
  364ACOH    H111810   5.008   2.911   0.564
  364ACOH    H211811   5.076   2.998   0.426
  364ACOH    H311812   5.159   2.855   0.490
  365ACOH    H411813   6.674   8.381   3.524
  365ACOH    O211814   6.675   8.355   3.620
  365ACOH    C211815   6.601   8.243   3.632
  365ACOH    O111816   6.544   8.183   3.542
  365ACOH    C111817   6.595   8.201   3.774
  365ACOH    H111818   6.695   8.189   3.813
  365ACOH    H211819   6.541   8.107   3.784
  365ACOH    H311820   6.544   8.278   3.832
  366ACOH    H411821   1.892   8.089   3.073
  366ACOH    O211822   1.933   8.067   2.985
  366ACOH    C211823   2.061   8.109   2.990
  366ACOH    O111824   2.116   8.171   3.079
  366ACOH    C111825   2.132   8.070   2.865
  366ACOH    H111826   2.082   8.114   2.779
  366ACOH    H211827   2.132   7.962   2.855
  366ACOH    H311828   2.235   8.105   2.867
  367ACOH    H411829   0.571   0.987   4.342
  367ACOH    O211830   0.644   0.935   4.388
  367ACOH    C211831   0.760   0.967   4.326
  367ACOH    O111832   0.773   1.018   4.217
  367ACOH    C111833   0.875   0.909   4.400
  367ACOH    H111834   0.912   0.822   4.347
  367ACOH    H211835   0.845   0.879   4.500
  367ACOH    H311836   0.954   0.983   4.408
  368ACOH    H411837   9.446   9.333   0.887
  368ACOH    O211838   9.476   9.425   0.911
  368ACOH    C211839   9.577   9.454   0.828
  368ACOH    O111840   9.627   9.380   0.745
  368ACOH    C111841   9.624   9.594   0.847
  368ACOH    H111842   9.646   9.611   0.952
  368ACOH    H211843   9.546   9.662   0.816
  368ACOH    H311844   9.713   9.613   0.788
  369ACOH    H411845   6.687   8.271   2.747
  369ACOH    O211846   6.721   8.239   2.660
  369ACOH    C211847   6.855   8.240   2.666
  369ACOH    O111848   6.922   8.311   2.739
  369ACOH    C111849   6.914   8.162   2.556
  369ACOH    H111850   6.876   8.197   2.460
  369ACOH    H211851   6.886   8.057   2.567
  369ACOH    H311852   7.022   8.169   2.555
  370ACOH    H411853   0.341   0.010   4.613
  370ACOH    O211854   0.296   0.092   4.578
  370ACOH    C211855   0.329   0.192   4.662
  370ACOH    O111856   0.399   0.184   4.761
  370ACOH    C111857   0.266   0.319   4.618
  370ACOH    H111858   0.158   0.308   4.617
  370ACOH    H211859   0.301   0.344   4.519
  370ACOH    H311860   0.292   0.400   4.686
  371ACOH    H411861   4.852   0.060   4.739
  371ACOH    O211862   4.942   0.088   4.772
  371ACOH    C211863   5.027   0.074   4.669
  371ACOH    O111864   4.999   0.056   4.552
  371ACOH    C111865   5.166   0.092   4.717
  371ACOH    H111866   5.174   0.188   4.767
  371ACOH    H211867   5.237   0.088   4.636
  371ACOH    H311868   5.190   0.013   4.789
  372ACOH    H411869   6.363   2.655   3.127
  372ACOH    O211870   6.286   2.622   3.073
  372ACOH    C211871   6.282   2.489   3.086
  372ACOH    O111872   6.369   2.418   3.134
  372ACOH    C111873   6.162   2.430   3.023
  372ACOH    H111874   6.094   2.509   2.990
  372ACOH    H211875   6.109   2.366   3.094
  372ACOH    H311876   6.191   2.370   2.937
  373ACOH    H411877   8.145   6.655   1.636
  373ACOH    O211878   8.083   6.716   1.683
  373ACOH    C211879   8.066   6.665   1.806
  373ACOH    O111880   8.102   6.556   1.846
  373ACOH    C111881   7.985   6.757   1.889
  373ACOH    H111882   7.890   6.775   1.840
  373ACOH    H211883   8.038   6.852   1.899
  373ACOH    H311884   7.968   6.716   1.988
  374ACOH    H411885   7.875   5.882   3.813
  374ACOH    O211886   7.857   5.972   3.775
  374ACOH    C211887   7.803   6.045   3.875
  374ACOH    O111888   7.822   6.026   3.993
  374ACOH    C111889   7.748   6.173   3.824
  374ACOH    H111890   7.733   6.170   3.717
  374ACOH    H211891   7.818   6.254   3.847
  374ACOH    H311892   7.654   6.194   3.873
  375ACOH    H411893   3.677   7.397   1.604
  375ACOH    O211894   3.742   7.469   1.583
  375ACOH    C211895   3.864   7.414   1.602
  375ACOH    O111896   3.890   7.303   1.643
  375ACOH    C111897   3.968   7.512   1.564
  375ACOH    H111898   4.067   7.471   1.581
  375ACOH    H211899   3.957   7.602   1.624
  375ACOH    H311900   3.957   7.537   1.459
  376ACOH    H411901   7.056   5.119   0.546
  376ACOH    O211902   7.017   5.176   0.473
  376ACOH    C211903   6.884   5.182   0.499
  376ACOH    O111904   6.830   5.153   0.604
  376ACOH    C111905   6.811   5.249   0.389
  376ACOH    H111906   6.811   5.184   0.302
  376ACOH    H211907   6.860   5.342   0.364
  376ACOH    H311908   6.708   5.269   0.418
  377ACOH    H411909   7.826   5.989   0.317
  377ACOH    O211910   7.818   6.085   0.344
  377ACOH    C211911   7.905   6.152   0.266
  377ACOH    O111912   7.957   6.113   0.163
  377ACOH    C111913   7.919   6.292   0.313
  377ACOH    H111914   7.821   6.335   0.331
  377ACOH    H211915   7.971   6.352   0.240
  377ACOH    H311916   7.975   6.293   0.406
  378ACOH    H411917   5.583   2.128   5.053
  378ACOH    O211918   5.661   2.161   5.106
  378ACOH    C211919   5.631   2.285   5.149
  378ACOH    O111920   5.530   2.348   5.123
  378ACOH    C111921   5.738   2.342   5.234
  378ACOH    H111922   5.821   2.272   5.243
  378ACOH    H211923   5.698   2.362   5.334
  378ACOH    H311924   5.774   2.434   5.191
  379ACOH    H411925   5.371   1.879   5.567
  379ACOH    O211926   5.409   1.930   5.493
  379ACOH    C211927   5.363   2.056   5.505
  379ACOH    O111928   5.274   2.092   5.580
  379ACOH    C111929   5.423   2.146   5.403
  379ACOH    H111930   5.348   2.167   5.327
  379ACOH    H211931   5.509   2.099   5.357
  379ACOH    H311932   5.453   2.239   5.450
  380ACOH    H411933   5.266   7.258   1.766
  380ACOH    O211934   5.304   7.350   1.754
  380ACOH    C211935   5.214   7.420   1.683
  380ACOH    O111936   5.104   7.384   1.645
  380ACOH    C111937   5.262   7.559   1.661
  380ACOH    H111938   5.277   7.608   1.756
  380ACOH    H211939   5.191   7.616   1.602
  380ACOH    H311940   5.357   7.557   1.608
  381ACOH    H411941   8.752   2.306   0.990
  381ACOH    O211942   8.745   2.349   0.900
  381ACOH    C211943   8.854   2.312   0.831
  381ACOH    O111944   8.936   2.227   0.863
  381ACOH    C111945   8.862   2.385   0.703
  381ACOH    H111946   8.775   2.362   0.642
  381ACOH    H211947   8.951   2.356   0.647
  381ACOH    H311948   8.865   2.492   0.721
  382ACOH    H411949   5.996   5.492   1.562
  382ACOH    O211950   5.979   5.589   1.570
  382ACOH    C211951   5.858   5.603   1.627
  382ACOH    O111952   5.784   5.514   1.664
  382ACOH    C111953   5.824   5.747   1.641
  382ACOH    H111954   5.895   5.795   1.706
  382ACOH    H211955   5.724   5.759   1.682
  382ACOH    H311956   5.828   5.794   1.543
  383ACOH    H411957   5.802   0.623   0.597
  383ACOH    O211958   5.708   0.654   0.583
  383ACOH    C211959   5.714   0.772   0.518
  383ACOH    O111960   5.814   0.839   0.499
  383ACOH    C111961   5.578   0.818   0.482
  383ACOH    H111962   5.582   0.917   0.438
  383ACOH    H211963   5.516   0.821   0.571
  383ACOH    H311964   5.534   0.749   0.411
  384ACOH    H411965   6.828   1.886   4.843
  384ACOH    O211966   6.752   1.897   4.908
  384ACOH    C211967   6.779   2.007   4.980
  384ACOH    O111968   6.848   2.101   4.945
  384ACOH    C111969   6.686   2.019   5.096
  384ACOH    H111970   6.740   2.056   5.182
  384ACOH    H211971   6.644   1.922   5.120
  384ACOH    H311972   6.606   2.088   5.072
  385ACOH    H411973   5.609   7.959   1.878
  385ACOH    O211974   5.708   7.950   1.892
  385ACOH    C211975   5.733   7.818   1.904
  385ACOH    O111976   5.653   7.726   1.910
  385ACOH    C111977   5.879   7.798   1.913
  385ACOH    H111978   5.916   7.839   2.006
  385ACOH    H211979   5.928   7.850   1.831
  385ACOH    H311980   5.904   7.692   1.907
  386ACOH    H411981   3.087   8.327   1.114
  386ACOH    O211982   3.039   8.271   1.047
  386ACOH    C211983   3.077   8.313   0.925
  386ACOH    O111984   3.177   8.378   0.899
  386ACOH    C111985   2.992   8.251   0.821
  386ACOH    H111986   2.991   8.143   0.835
  386ACOH    H211987   3.030   8.274   0.722
  386ACOH    H311988   2.891   8.289   0.831
  387ACOH    H411989   9.786   8.734   2.031
  387ACOH    O211990   9.864   8.684   1.991
  387ACOH    C211991   9.911   8.605   2.089
  387ACOH    O111992   9.888   8.616   2.208
  387ACOH    C111993   0.018   8.515   2.039
  387ACOH    H111994   0.115   8.551   2.073
  387ACOH    H211995   0.018   8.509   1.931
  387ACOH    H311996   0.003   8.415   2.079
  388ACOH    H411997   4.190   4.185   1.120
  388ACOH    O211998   4.138   4.251   1.172
  388ACOH    C211999   4.071   4.181   1.266
  388ACOH    O112000   4.082   4.063   1.293
  388ACOH    C112001   3.986   4.272   1.346
  388ACOH    H112002   3.911   4.318   1.282
  388ACOH    H212003   4.047   4.351   1.390
  388ACOH    H312004   3.935   4.219   1.426
  389ACOH    H412005   7.811   6.851   3.616
  389ACOH    O212006   7.716   6.829   3.592
  389ACOH    C212007   7.645   6.941   3.615
  389ACOH    O112008   7.689   7.051   3.646
  389ACOH    C112009   7.501   6.914   3.598
  389ACOH    H112010   7.443   7.005   3.611
  389ACOH    H212011   7.469   6.841   3.671
  389ACOH    H312012   7.484   6.875   3.498
  390ACOH    H412013   2.336   7.139   4.190
  390ACOH    O212014   2.352   7.099   4.280
  390ACOH    C212015   2.387   7.202   4.360
  390ACOH    O112016   2.411   7.316   4.326
  390ACOH    C112017   2.397   7.156   4.500
  390ACOH    H112018   2.300   7.123   4.535
  390ACOH    H212019   2.433   7.236   4.565
  390ACOH    H312020   2.467   7.072   4.507
  391ACOH    H412021   5.460   1.842   0.942
  391ACOH    O212022   5.474   1.846   0.843
  391ACOH    C212023   5.366   1.908   0.792
  391ACOH    O112024   5.268   1.947   0.854
  391ACOH    C112025   5.379   1.924   0.646
  391ACOH    H112026   5.388   1.827   0.599
  391ACOH    H212027   5.469   1.982   0.624
  391ACOH    H312028   5.293   1.976   0.604
  392ACOH    H412029   8.895   4.544   2.529
  392ACOH    O212030   8.978   4.573   2.481
  392ACOH    C212031   8.992   4.705   2.503
  392ACOH    O112032   8.941   4.768   2.594
  392ACOH    C112033   9.111   4.758   2.432
  392ACOH    H112034   9.138   4.693   2.349
  392ACOH    H212035   9.196   4.763   2.500
  392ACOH    H312036   9.090   4.857   2.394
  393ACOH    H412037   6.148   7.284   2.616
  393ACOH    O212038   6.103   7.218   2.556
  393ACOH    C212039   6.169   7.219   2.439
  393ACOH    O112040   6.270   7.281   2.410
  393ACOH    C112041   6.103   7.127   2.342
  393ACOH    H112042   6.003   7.163   2.322
  393ACOH    H212043   6.096   7.028   2.386
  393ACOH    H312044   6.158   7.122   2.249
  394ACOH    H412045   8.042   3.366   2.065
  394ACOH    O212046   8.004   3.357   1.972
  394ACOH    C212047   7.881   3.302   1.983
  394ACOH    O112048   7.818   3.285   2.086
  394ACOH    C112049   7.823   3.277   1.849
  394ACOH    H112050   7.720   3.243   1.857
  394ACOH    H212051   7.881   3.200   1.799
  394ACOH    H312052   7.826   3.368   1.790
  395ACOH    H412053   9.515   5.183   4.067
  395ACOH    O212054   9.589   5.141   4.119
  395ACOH    C212055   9.682   5.236   4.137
  395ACOH    O112056   9.661   5.356   4.138
  395ACOH    C112057   9.805   5.177   4.195
  395ACOH    H112058   9.872   5.254   4.232
  395ACOH    H212059   9.857   5.121   4.118
  395ACOH    H312060   9.780   5.109   4.276
  396ACOH    H412061   2.838   1.950   1.744
  396ACOH    O212062   2.788   2.036   1.741
  396ACOH    C212063   2.876   2.130   1.700
  396ACOH    O112064   2.984   2.109   1.649
  396ACOH    C112065   2.815   2.265   1.702
  396ACOH    H112066   2.795   2.293   1.805
  396ACOH    H212067   2.722   2.264   1.646
  396ACOH    H312068   2.882   2.338   1.658
  397ACOH    H412069   5.398   5.950   1.450
  397ACOH    O212070   5.370   5.867   1.401
  397ACOH    C212071   5.412   5.883   1.273
  397ACOH    O112072   5.491   5.966   1.233
  397ACOH    C112073   5.360   5.776   1.185
  397ACOH    H112074   5.311   5.820   1.099
  397ACOH    H212075   5.288   5.714   1.238
  397ACOH    H312076   5.442   5.713   1.152
  398ACOH    H412077   3.749   6.860   5.510
  398ACOH    O212078   3.762   6.948   5.473
  398ACOH    C212079   3.709   6.949   5.349
  398ACOH    O112080   3.653   6.855   5.295
  398ACOH    C112081   3.725   7.082   5.286
  398ACOH    H112082   3.831   7.104   5.274
  398ACOH    H212083   3.680   7.158   5.349
  398ACOH    H312084   3.677   7.084   5.188
  399ACOH    H412085   3.813   2.245   1.880
  399ACOH    O212086   3.742   2.228   1.812
  399ACOH    C212087   3.803   2.223   1.692
  399ACOH    O112088   3.922   2.227   1.670
  399ACOH    C112089   3.703   2.205   1.584
  399ACOH    H112090   3.635   2.291   1.583
  399ACOH    H212091   3.645   2.115   1.603
  399ACOH    H312092   3.751   2.197   1.487
  400ACOH    H412093   3.814   5.906   1.734
  400ACOH    O212094   3.727   5.903   1.686
  400ACOH    C212095   3.637   5.969   1.761
  400ACOH    O112096   3.652   6.018   1.872
  400ACOH    C112097   3.508   5.975   1.689
  400ACOH    H112098   3.433   6.031   1.745
  400ACOH    H212099   3.471   5.874   1.672
  400ACOH    H312100   3.523   6.022   1.592
  401ACOH    H412101   6.196   3.843   0.028
  401ACOH    O212102   6.255   3.848   6.696
  401ACOH    C212103   6.301   3.974   6.691
  401ACOH    O112104   6.269   4.067   0.015
  401ACOH    C112105   6.398   3.990   6.580
  401ACOH    H112106   6.434   4.092   6.574
  401ACOH    H212107   6.350   3.963   6.487
  401ACOH    H312108   6.482   3.923   6.597
  402ACOH    H412109   1.062   9.659   5.136
  402ACOH    O212110   1.148   9.623   5.102
  402ACOH    C212111   1.119   9.566   4.983
  402ACOH    O112112   1.024   9.593   4.913
  402ACOH    C112113   1.235   9.490   4.931
  402ACOH    H112114   1.201   9.395   4.890
  402ACOH    H212115   1.307   9.469   5.010
  402ACOH    H312116   1.284   9.547   4.853
  403ACOH    H412117   4.462   6.407   3.465
  403ACOH    O212118   4.496   6.496   3.491
  403ACOH    C212119   4.491   6.501   3.626
  403ACOH    O112120   4.435   6.421   3.698
  403ACOH    C112121   4.552   6.625   3.678
  403ACOH    H112122   4.621   6.601   3.758
  403ACOH    H212123   4.473   6.689   3.717
  403ACOH    H312124   4.605   6.679   3.600
  404ACOH    H412125   7.076   6.667   4.517
  404ACOH    O212126   6.990   6.635   4.476
  404ACOH    C212127   7.016   6.516   4.419
  404ACOH    O112128   7.123   6.458   4.415
  404ACOH    C112129   6.893   6.461   4.357
  404ACOH    H112130   6.853   6.534   4.287
  404ACOH    H212131   6.819   6.441   4.434
  404ACOH    H312132   6.915   6.370   4.303
  405ACOH    H412133   6.254   8.374   3.836
  405ACOH    O212134   6.174   8.323   3.865
  405ACOH    C212135   6.198   8.277   3.989
  405ACOH    O112136   6.307   8.269   4.043
  405ACOH    C112137   6.078   8.215   4.049
  405ACOH    H112138   6.064   8.252   4.150
  405ACOH    H212139   6.088   8.107   4.050
  405ACOH    H312140   5.989   8.242   3.991
  406ACOH    H412141   5.085   3.536   2.779
  406ACOH    O212142   5.087   3.627   2.737
  406ACOH    C212143   5.206   3.681   2.768
  406ACOH    O112144   5.284   3.642   2.853
  406ACOH    C112145   5.224   3.811   2.699
  406ACOH    H112146   5.321   3.813   2.650
  406ACOH    H212147   5.220   3.892   2.772
  406ACOH    H312148   5.147   3.826   2.624
  407SOL     OW12149   4.571   3.308   0.656
  407SOL    HW112150   4.522   3.367   0.592
  407SOL    HW212151   4.574   3.351   0.746
  408SOL     OW12152   7.001   8.560   4.577
  408SOL    HW112153   6.961   8.636   4.527
  408SOL    HW212154   7.052   8.502   4.514
  409SOL     OW12155   2.009   3.196   4.164
  409SOL    HW112156   1.921   3.216   4.208
  409SOL    HW212157   1.998   3.201   4.064
  410SOL     OW12158   1.631   2.198   1.375
  410SOL    HW112159   1.693   2.192   1.453
  410SOL    HW212160   1.545   2.240   1.404
  411SOL     OW12161   0.464   6.606   3.194
  411SOL    HW112162   0.433   6.606   3.289
  411SOL    HW212163   0.562   6.588   3.191
  412SOL     OW12164   3.411   1.822   1.529
  412SOL    HW112165   3.462   1.852   1.609
  412SOL    HW212166   3.442   1.873   1.449
  413SOL     OW12167   1.504   5.043   2.518
  413SOL    HW112168   1.534   5.041   2.423
  413SOL    HW212169   1.427   4.980   2.530
  414SOL     OW12170   6.299   1.318   4.169
  414SOL    HW112171   6.321   1.223   4.149
  414SOL    HW212172   6.206   1.338   4.138
  415SOL     OW12173   4.616   6.393   0.967
  415SOL    HW112174   4.654   6.486   0.975
  415SOL    HW212175   4.684   6.333   0.925
  416SOL     OW12176   3.787   0.960   4.562
  416SOL    HW112177   3.800   1.007   4.474
  416SOL    HW212178   3.859   0.987   4.625
  417SOL     OW12179   6.273   9.487   2.406
  417SOL    HW112180   6.281   9.577   2.364
  417SOL    HW212181   6.257   9.497   2.504
  418SOL     OW12182   1.647   3.964   3.312
  418SOL    HW112183   1.727   4.015   3.280
  418SOL    HW212184   1.660   3.867   3.293
  419SOL     OW12185   0.664   0.838   1.002
  419SOL    HW112186   0.708   0.767   0.947
  419SOL    HW212187   0.674   0.927   0.956
  420SOL     OW12188   4.509   1.599   0.239
  420SOL    HW112189   4.607   1.583   0.253
  420SOL    HW212190   4.462   1.511   0.228
  421SOL     OW12191   4.387   9.737   0.020
  421SOL    HW112192   4.439   9.658   0.055
  421SOL    HW212193   4.289   9.720   0.030
  422SOL     OW12194   2.180   3.513   1.326
  422SOL    HW112195   2.258   3.472   1.374
  422SOL    HW212196   2.106   3.531   1.391
  423SOL     OW12197   3.791   9.249   2.505
  423SOL    HW112198   3.763   9.221   2.597
  423SOL    HW212199   3.890   9.238   2.496
  424SOL     OW12200   0.192   4.200   1.607
  424SOL    HW112201   0.198   4.271   1.536
  424SOL    HW212202   0.221   4.112   1.569
  425SOL     OW12203   9.443   6.676   1.076
  425SOL    HW112204   9.393   6.754   1.038
  425SOL    HW212205   9.453   6.688   1.174
  426SOL     OW12206   9.729   4.371   4.891
  426SOL    HW112207   9.752   4.428   4.813
  426SOL    HW212208   9.752   4.276   4.872
  427SOL     OW12209   2.099   2.903   1.601
  427SOL    HW112210   2.174   2.953   1.644
  427SOL    HW212211   2.014   2.953   1.613
  428SOL     OW12212   5.358   1.380   4.389
  428SOL    HW112213   5.433   1.415   4.333
  428SOL    HW212214   5.317   1.301   4.344
  429SOL     OW12215   1.620   7.846   1.014
  429SOL    HW112216   1.644   7.908   1.089
  429SOL    HW212217   1.634   7.751   1.044
  430SOL     OW12218   2.876   5.778   3.315
  430SOL    HW112219   2.936   5.699   3.323
  430SOL    HW212220   2.786   5.749   3.283
  431SOL     OW12221   1.434   7.800   4.097
  431SOL    HW112222   1.510   7.738   4.078
  431SOL    HW212223   1.459   7.893   4.067
  432SOL     OW12224   0.186   0.771   5.089
  432SOL    HW112225   0.112   0.825   5.048
  432SOL    HW212226   0.171   0.674   5.069
  433SOL     OW12227   7.916   3.238   2.951
  433SOL    HW112228   7.820   3.265   2.949
  433SOL    HW212229   7.931   3.174   3.026
  434SOL     OW12230   9.501   9.435   1.652
  434SOL    HW112231   9.481   9.393   1.740
  434SOL    HW212232   9.488   9.369   1.578
  435SOL     OW12233   9.184   9.949   2.115
  435SOL    HW112234   9.177   9.888   2.194
  435SOL    HW212235   9.277   9.983   2.107
  436SOL     OW12236   7.549   9.122   1.939
  436SOL    HW112237   7.592   9.159   2.021
  436SOL    HW212238   7.459   9.162   1.927
  437SOL     OW12239   6.622   8.894   4.114
  437SOL    HW112240   6.532   8.922   4.079
  437SOL    HW212241   6.644   8.803   4.080
  438SOL     OW12242   1.386   3.270   1.529
  438SOL    HW112243   1.405   3.225   1.442
  438SOL    HW212244   1.470   3.311   1.565
  439SOL     OW12245   1.256   5.711   4.300
  439SOL    HW112246   1.328   5.777   4.322
  439SOL    HW212247   1.291   5.644   4.235
  440SOL     OW12248   9.901   3.257   1.180
  440SOL    HW112249   9.960   3.197   1.235
  440SOL    HW212250   9.815   3.209   1.160
  441SOL     OW12251   2.663   2.306   2.120
  441SOL    HW112252   2.649   2.405   2.118
  441SOL    HW212253   2.587   2.260   2.075
  442SOL     OW12254   3.370   0.969   4.760
  442SOL    HW112255   3.316   1.036   4.811
  442SOL    HW212256   3.322   0.881   4.759
  443SOL     OW12257   3.076   1.746   1.294
  443SOL    HW112258   3.161   1.792   1.268
  443SOL    HW212259   3.053   1.677   1.225
  444SOL     OW12260   0.722   7.127   1.900
  444SOL    HW112261   0.792   7.078   1.952
  444SOL    HW212262   0.749   7.223   1.890
  445SOL     OW12263   5.443   0.585   4.504
  445SOL    HW112264   5.507   0.586   4.428
  445SOL    HW212265   5.489   0.616   4.587
  446SOL     OW12266   1.160   1.141   1.688
  446SOL    HW112267   1.113   1.224   1.656
  446SOL    HW212268   1.098   1.063   1.681
  447SOL     OW12269   2.297   9.146   1.749
  447SOL    HW112270   2.341   9.108   1.667
  447SOL    HW212271   2.317   9.087   1.828
  448SOL     OW12272   0.101   4.386   0.785
  448SOL    HW112273   0.148   4.471   0.760
  448SOL    HW212274   0.083   4.332   0.703
  449SOL     OW12275   0.729   5.023   3.255
  449SOL    HW112276   0.754   5.095   3.319
  449SOL    HW212277   0.811   4.991   3.208
  450SOL     OW12278   1.578   0.937   1.410
  450SOL    HW112279   1.591   0.989   1.494
  450SOL    HW212280   1.512   0.984   1.351
  451SOL     OW12281   7.314   4.822   0.373
  451SOL    HW112282   7.222   4.826   0.412
  451SOL    HW212283   7.329   4.732   0.332
  452SOL     OW12284   1.557   6.893   4.026
  452SOL    HW112285   1.473   6.915   4.075
  452SOL    HW212286   1.632   6.882   4.091
  453SOL     OW12287   7.583   0.466   0.768
  453SOL    HW112288   7.489   0.490   0.743
  453SOL    HW212289   7.587   0.445   0.866
  454SOL     OW12290   7.157   0.213   4.257
  454SOL    HW112291   7.206   0.155   4.322
  454SOL    HW212292   7.159   0.171   4.166
  455SOL     OW12293   2.440   4.738   2.778
  455SOL    HW112294   2.379   4.809   2.814
  455SOL    HW212295   2.491   4.696   2.853
  456SOL     OW12296   9.950   9.624   0.430
  456SOL    HW112297   0.011   9.546   0.444
  456SOL    HW212298   0.002   9.699   0.388
  457SOL     OW12299   3.988   2.713   2.907
  457SOL    HW112300   4.005   2.785   2.974
  457SOL    HW212301   3.927   2.748   2.835
  458SOL     OW12302   4.325   1.704   5.095
  458SOL    HW112303   4.357   1.770   5.028
  458SOL    HW212304   4.401   1.645   5.123
  459SOL     OW12305   9.535   9.044   3.874
  459SOL    HW112306   9.501   8.975   3.810
  459SOL    HW212307   9.459   9.099   3.908
  460SOL     OW12308   7.171   7.793   3.600
  460SOL    HW112309   7.084   7.752   3.625
  460SOL    HW212310   7.184   7.785   3.501
  461SOL     OW12311   9.988   4.805   3.858
  461SOL    HW112312   9.929   4.724   3.863
  461SOL    HW212313   0.056   4.801   3.931
  462SOL     OW12314   4.332   7.774   2.133
  462SOL    HW112315   4.422   7.776   2.088
  462SOL    HW212316   4.285   7.689   2.109
  463SOL     OW12317   0.455   2.395   2.203
  463SOL    HW112318   0.452   2.431   2.110
  463SOL    HW212319   0.539   2.424   2.249
  464SOL     OW12320   0.527   5.038   1.121
  464SOL    HW112321   0.578   5.103   1.177
  464SOL    HW212322   0.451   5.085   1.076
  465SOL     OW12323   7.152   3.187   1.324
  465SOL    HW112324   7.132   3.279   1.356
  465SOL    HW212325   7.107   3.170   1.237
  466SOL     OW12326   6.347   6.888   4.678
  466SOL    HW112327   6.389   6.807   4.637
  466SOL    HW212328   6.415   6.962   4.680
  467SOL     OW12329   5.477   4.569   0.854
  467SOL    HW112330   5.413   4.567   0.777
  467SOL    HW212331   5.521   4.658   0.858
  468SOL     OW12332   2.424   9.498   4.939
  468SOL    HW112333   2.400   9.470   5.032
  468SOL    HW212334   2.465   9.590   4.941
  469SOL     OW12335   2.990   2.296   1.040
  469SOL    HW112336   2.979   2.336   1.131
  469SOL    HW212337   3.087   2.286   1.019
  470SOL     OW12338   8.522   0.283   3.189
  470SOL    HW112339   8.620   0.275   3.208
  470SOL    HW212340   8.471   0.259   3.272
  471SOL     OW12341   3.378   9.027   3.071
  471SOL    HW112342   3.320   9.024   2.990
  471SOL    HW212343   3.333   9.079   3.143
  472SOL     OW12344   7.127   9.768   4.849
  472SOL    HW112345   7.030   9.768   4.824
  472SOL    HW212346   7.150   9.855   4.893
  473SOL     OW12347   5.150   7.997   2.892
  473SOL    HW112348   5.109   8.088   2.892
  473SOL    HW212349   5.119   7.946   2.972
  474SOL     OW12350   8.534   6.315   3.117
  474SOL    HW112351   8.494   6.276   3.035
  474SOL    HW212352   8.633   6.306   3.114
  475SOL     OW12353   8.951   8.887   4.472
  475SOL    HW112354   8.943   8.878   4.571
  475SOL    HW212355   8.872   8.937   4.436
  476SOL     OW12356   2.105   9.732   2.937
  476SOL    HW112357   2.089   9.826   2.966
  476SOL    HW212358   2.036   9.672   2.978
  477SOL     OW12359   9.971   8.058   0.487
  477SOL    HW112360   0.043   7.997   0.520
  477SOL    HW212361   9.893   8.055   0.549
  478SOL     OW12362   1.855   5.529   4.322
  478SOL    HW112363   1.891   5.457   4.262
  478SOL    HW212364   1.925   5.556   4.388
  479SOL     OW12365   0.204   9.298   2.035
  479SOL    HW112366   0.150   9.267   1.958
  479SOL    HW212367   0.185   9.241   2.115
  480SOL     OW12368   9.606   2.873   3.420
  480SOL    HW112369   9.619   2.968   3.394
  480SOL    HW212370   9.522   2.838   3.379
  481SOL     OW12371   1.261   4.394   1.423
  481SOL    HW112372   1.339   4.336   1.445
  481SOL    HW212373   1.250   4.398   1.324
  482SOL     OW12374   4.070   7.410   2.699
  482SOL    HW112375   4.139   7.480   2.685
  482SOL    HW212376   4.052   7.362   2.614
  483SOL     OW12377   3.109   5.455   2.862
  483SOL    HW112378   3.132   5.379   2.922
  483SOL    HW212379   3.185   5.473   2.800
  484SOL     OW12380   4.833   0.967   3.406
  484SOL    HW112381   4.776   1.001   3.332
  484SOL    HW212382   4.811   1.016   3.491
  485SOL     OW12383   7.958   2.979   0.637
  485SOL    HW112384   7.935   2.895   0.686
  485SOL    HW212385   7.874   3.030   0.616
  486SOL     OW12386   9.516   5.672   1.907
  486SOL    HW112387   9.520   5.624   1.819
  486SOL    HW212388   9.559   5.615   1.977
  487SOL     OW12389   5.826   1.404   4.264
  487SOL    HW112390   5.825   1.329   4.330
  487SOL    HW212391   5.733   1.429   4.240
  488SOL     OW12392   9.065   0.698   1.275
  488SOL    HW112393   9.134   0.770   1.276
  488SOL    HW212394   9.074   0.644   1.191
  489SOL     OW12395   8.744   1.506   2.008
  489SOL    HW112396   8.761   1.539   1.915
  489SOL    HW212397   8.796   1.562   2.073
  490SOL     OW12398   3.321   5.502   2.690
  490SOL    HW112399   3.394   5.441   2.721
  490SOL    HW212400   3.357   5.595   2.681
  491SOL     OW12401   9.049   3.146   4.736
  491SOL    HW112402   9.022   3.241   4.749
  491SOL    HW212403   9.055   3.100   4.825
  492SOL     OW12404   1.840   7.353   3.223
  492SOL    HW112405   1.797   7.319   3.307
  492SOL    HW212406   1.869   7.447   3.236
  493SOL     OW12407   0.763   4.807   5.297
  493SOL    HW112408   0.720   4.769   5.379
  493SOL    HW212409   0.717   4.771   5.216
  494SOL     OW12410   1.779   8.313   1.880
  494SOL    HW112411   1.682   8.328   1.862
  494SOL    HW212412   1.791   8.228   1.931
  495SOL     OW12413   3.799   5.730   0.536
  495SOL    HW112414   3.746   5.779   0.605
  495SOL    HW212415   3.750   5.733   0.448
  496SOL     OW12416   6.873   0.338   1.891
  496SOL    HW112417   6.840   0.335   1.797
  496SOL    HW212418   6.811   0.393   1.947
  497SOL     OW12419   2.979   3.495   1.914
  497SOL    HW112420   2.962   3.465   2.008
  497SOL    HW212421   2.908   3.560   1.886
  498SOL     OW12422   4.058   2.599   4.351
  498SOL    HW112423   4.107   2.556   4.427
  498SOL    HW212424   3.969   2.630   4.382
  499SOL     OW12425   7.296   9.530   2.112
  499SOL    HW112426   7.358   9.480   2.173
  499SOL    HW212427   7.345   9.556   2.029
  500SOL     OW12428   2.827   2.414   4.582
  500SOL    HW112429   2.792   2.460   4.664
  500SOL    HW212430   2.900   2.351   4.608
  501SOL     OW12431   7.836   7.271   4.622
  501SOL    HW112432   7.873   7.213   4.550
  501SOL    HW212433   7.859   7.231   4.711
  502SOL     OW12434   9.497   5.292   3.586
  502SOL    HW112435   9.430   5.288   3.512
  502SOL    HW212436   9.526   5.200   3.611
  503SOL     OW12437   1.063   1.088   0.646
  503SOL    HW112438   1.102   1.049   0.730
  503SOL    HW212439   1.050   1.186   0.658
  504SOL     OW12440   9.707   3.816   1.580
  504SOL    HW112441   9.609   3.806   1.565
  504SOL    HW212442   9.729   3.789   1.674
  505SOL     OW12443   3.496   1.544   0.884
  505SOL    HW112444   3.464   1.571   0.975
  505SOL    HW212445   3.590   1.512   0.890
  506SOL     OW12446   9.435   4.041   3.008
  506SOL    HW112447   9.493   4.079   3.080
  506SOL    HW212448   9.454   3.943   2.999
  507SOL     OW12449   4.825   8.577   3.010
  507SOL    HW112450   4.725   8.578   3.003
  507SOL    HW212451   4.856   8.488   3.043
  508SOL     OW12452   3.864   1.723   3.506
  508SOL    HW112453   3.900   1.720   3.599
  508SOL    HW212454   3.872   1.632   3.464
  509SOL     OW12455   3.674   5.461   3.477
  509SOL    HW112456   3.640   5.502   3.562
  509SOL    HW212457   3.597   5.441   3.417
  510SOL     OW12458   6.623   0.754   3.811
  510SOL    HW112459   6.636   0.707   3.898
  510SOL    HW212460   6.656   0.695   3.737
  511SOL     OW12461   2.726   7.657   2.620
  511SOL    HW112462   2.687   7.747   2.603
  511SOL    HW212463   2.678   7.589   2.565
  512SOL     OW12464   8.648   9.844   1.126
  512SOL    HW112465   8.723   9.910   1.126
  512SOL    HW212466   8.638   9.805   1.035
  513SOL     OW12467   7.851   5.400   0.567
  513SOL    HW112468   7.864   5.309   0.607
  513SOL    HW212469   7.823   5.464   0.639
  514SOL     OW12470   9.502   8.281   5.233
  514SOL    HW112471   9.411   8.241   5.239
  514SOL    HW212472   9.565   8.214   5.193
  515SOL     OW12473   8.306   8.683   4.650
  515SOL    HW112474   8.235   8.749   4.626
  515SOL    HW212475   8.292   8.649   4.743
  516SOL     OW12476   1.186   5.355   4.152
  516SOL    HW112477   1.241   5.437   4.136
  516SOL    HW212478   1.245   5.274   4.151
  517SOL     OW12479   1.970   3.184   2.453
  517SOL    HW112480   2.016   3.188   2.364
  517SOL    HW212481   1.999   3.101   2.502
  518SOL     OW12482   0.428   1.641   1.456
  518SOL    HW112483   0.465   1.576   1.522
  518SOL    HW212484   0.489   1.719   1.447
  519SOL     OW12485   3.972   2.910   4.124
  519SOL    HW112486   3.955   2.917   4.222
  519SOL    HW212487   3.967   2.814   4.096
  520SOL     OW12488   7.976   5.636   0.151
  520SOL    HW112489   8.061   5.605   0.195
  520SOL    HW212490   7.926   5.558   0.115
  521SOL     OW12491   3.991   8.071   4.510
  521SOL    HW112492   3.994   8.170   4.499
  521SOL    HW212493   3.897   8.039   4.504
  522SOL     OW12494   1.547   7.081   3.090
  522SOL    HW112495   1.537   7.142   3.012
  522SOL    HW212496   1.634   7.032   3.084
  523SOL     OW12497   2.522   8.586   1.234
  523SOL    HW112498   2.619   8.571   1.216
  523SOL    HW212499   2.494   8.530   1.313
  524SOL     OW12500   0.232   5.727   3.312
  524SOL    HW112501   0.177   5.789   3.255
  524SOL    HW212502   0.198   5.729   3.406
  525SOL     OW12503   7.969   7.597   2.292
  525SOL    HW112504   7.941   7.607   2.196
  525SOL    HW212505   8.011   7.507   2.305
  526SOL     OW12506   2.020   8.521   3.869
  526SOL    HW112507   2.017   8.562   3.777
  526SOL    HW212508   2.020   8.593   3.938
  527SOL     OW12509   9.800   4.516   4.671
  527SOL    HW112510   9.845   4.468   4.596
  527SOL    HW212511   9.736   4.583   4.633
  528SOL     OW12512   2.722   7.414   1.190
  528SOL    HW112513   2.636   7.459   1.213
  528SOL    HW212514   2.713   7.367   1.102
  529SOL     OW12515   5.165   9.672   5.238
  529SOL    HW112516   5.222   9.751   5.214
  529SOL    HW212517   5.073   9.703   5.260
  530SOL     OW12518   1.068   4.194   4.873
  530SOL    HW112519   0.974   4.221   4.854
  530SOL    HW212520   1.100   4.133   4.800
  531SOL     OW12521   5.362   7.410   5.021
  531SOL    HW112522   5.355   7.350   4.941
  531SOL    HW212523   5.275   7.410   5.070
  532SOL     OW12524   9.099   7.662   1.960
  532SOL    HW112525   9.049   7.582   1.930
  532SOL    HW212526   9.036   7.738   1.974
  533SOL     OW12527   8.685   5.558   4.683
  533SOL    HW112528   8.755   5.487   4.694
  533SOL    HW212529   8.594   5.518   4.693
  534SOL     OW12530   6.926   0.712   5.065
  534SOL    HW112531   6.898   0.791   5.119
  534SOL    HW212532   6.858   0.639   5.074
  535SOL     OW12533   3.874   1.347   1.978
  535SOL    HW112534   3.799   1.352   2.044
  535SOL    HW212535   3.952   1.400   2.012
  536SOL     OW12536   2.488   5.516   1.827
  536SOL    HW112537   2.560   5.447   1.819
  536SOL    HW212538   2.496   5.582   1.752
  537SOL     OW12539   3.331   1.863   4.435
  537SOL    HW112540   3.372   1.843   4.346
  537SOL    HW212541   3.237   1.895   4.422
  538SOL     OW12542   3.787   8.414   2.659
  538SOL    HW112543   3.783   8.321   2.697
  538SOL    HW212544   3.782   8.480   2.734
  539SOL     OW12545   3.946   8.446   3.460
  539SOL    HW112546   3.911   8.520   3.403
  539SOL    HW212547   3.887   8.434   3.540
  540SOL     OW12548   2.828   6.678   0.473
  540SOL    HW112549   2.845   6.640   0.564
  540SOL    HW212550   2.738   6.649   0.441
  541SOL     OW12551   2.373   6.002   3.978
  541SOL    HW112552   2.422   5.932   3.926
  541SOL    HW212553   2.278   5.975   3.989
  542SOL     OW12554   6.574   9.574   4.167
  542SOL    HW112555   6.483   9.540   4.142
  542SOL    HW212556   6.639   9.499   4.167
  543SOL     OW12557   4.343   5.527   2.994
  543SOL    HW112558   4.271   5.590   2.967
  543SOL    HW212559   4.430   5.556   2.955
  544SOL     OW12560   1.709   5.309   3.593
  544SOL    HW112561   1.789   5.254   3.569
  544SOL    HW212562   1.684   5.367   3.515
  545SOL     OW12563   9.360   8.143   0.817
  545SOL    HW112564   9.282   8.202   0.799
  545SOL    HW212565   9.356   8.111   0.912
  546SOL     OW12566   4.134   1.050   2.126
  546SOL    HW112567   4.110   1.103   2.207
  546SOL    HW212568   4.113   1.104   2.044
  547SOL     OW12569   3.551   9.410   4.863
  547SOL    HW112570   3.520   9.332   4.918
  547SOL    HW212571   3.504   9.409   4.775
  548SOL     OW12572   2.919   5.497   2.653
  548SOL    HW112573   2.900   5.594   2.638
  548SOL    HW212574   2.975   5.487   2.736
  549SOL     OW12575   8.448   1.447   2.714
  549SOL    HW112576   8.452   1.349   2.697
  549SOL    HW212577   8.532   1.490   2.683
  550SOL     OW12578   1.476   7.191   2.414
  550SOL    HW112579   1.572   7.207   2.393
  550SOL    HW212580   1.419   7.252   2.359
  551SOL     OW12581   5.220   0.491   2.960
  551SOL    HW112582   5.187   0.566   3.017
  551SOL    HW212583   5.300   0.449   3.003
  552SOL     OW12584   1.116   0.763   3.793
  552SOL    HW112585   1.082   0.797   3.706
  552SOL    HW212586   1.167   0.835   3.839
  553SOL     OW12587   0.707   0.289   0.498
  553SOL    HW112588   0.642   0.360   0.523
  553SOL    HW212589   0.757   0.316   0.416
  554SOL     OW12590   9.761   5.719   4.211
  554SOL    HW112591   9.838   5.660   4.186
  554SOL    HW212592   9.678   5.685   4.168
  555SOL     OW12593   3.495   9.784   2.435
  555SOL    HW112594   3.579   9.823   2.398
  555SOL    HW212595   3.500   9.781   2.535
  556SOL     OW12596   1.635   6.641   3.919
  556SOL    HW112597   1.669   6.676   3.832
  556SOL    HW212598   1.582   6.712   3.966
  557SOL     OW12599   6.811   0.851   3.273
  557SOL    HW112600   6.800   0.812   3.181
  557SOL    HW212601   6.736   0.821   3.331
  558SOL     OW12602   4.620   8.240   3.413
  558SOL    HW112603   4.690   8.299   3.453
  558SOL    HW212604   4.530   8.283   3.422
  559SOL     OW12605   9.840   6.101   2.992
  559SOL    HW112606   9.916   6.130   3.049
  559SOL    HW212607   9.800   6.017   3.029
  560SOL     OW12608   0.718   6.198   3.611
  560SOL    HW112609   0.660   6.275   3.585
  560SOL    HW212610   0.665   6.113   3.607
  561SOL     OW12611   0.284   8.229   1.823
  561SOL    HW112612   0.258   8.168   1.898
  561SOL    HW212613   0.202   8.271   1.784
  562SOL     OW12614   0.804   2.811   2.354
  562SOL    HW112615   0.821   2.907   2.376
  562SOL    HW212616   0.888   2.759   2.368
  563SOL     OW12617   0.974   1.016   3.006
  563SOL    HW112618   1.008   1.102   2.967
  563SOL    HW212619   0.899   0.981   2.950
  564SOL     OW12620   3.379   7.580   0.368
  564SOL    HW112621   3.334   7.503   0.413
  564SOL    HW212622   3.333   7.665   0.393
  565SOL     OW12623   9.095   8.022   3.916
  565SOL    HW112624   9.112   7.997   4.011
  565SOL    HW212625   9.181   8.053   3.874
  566SOL     OW12626   4.538   0.546   4.714
  566SOL    HW112627   4.557   0.474   4.647
  566SOL    HW212628   4.500   0.506   4.797
  567SOL     OW12629   0.389   4.146   3.031
  567SOL    HW112630   0.443   4.179   3.108
  567SOL    HW212631   0.293   4.171   3.044
  568SOL     OW12632   8.634   4.995   2.224
  568SOL    HW112633   8.546   4.952   2.248
  568SOL    HW212634   8.628   5.034   2.132
  569SOL     OW12635   7.790   0.385   3.560
  569SOL    HW112636   7.799   0.293   3.599
  569SOL    HW212637   7.874   0.437   3.577
  570SOL     OW12638   0.455   3.558   3.758
  570SOL    HW112639   0.412   3.494   3.823
  570SOL    HW212640   0.427   3.534   3.665
  571SOL     OW12641   1.268   2.695   2.272
  571SOL    HW112642   1.303   2.768   2.214
  571SOL    HW212643   1.292   2.606   2.231
  572SOL     OW12644   9.548   7.662   3.346
  572SOL    HW112645   9.547   7.747   3.399
  572SOL    HW212646   9.599   7.592   3.397
  573SOL     OW12647   2.843   0.686   3.826
  573SOL    HW112648   2.922   0.674   3.766
  573SOL    HW212649   2.765   0.715   3.773
  574SOL     OW12650   0.031   3.411   1.981
  574SOL    HW112651   9.961   3.442   1.917
  574SOL    HW212652   0.041   3.312   1.976
  575SOL     OW12653   5.007   3.706   4.545
  575SOL    HW112654   4.968   3.678   4.633
  575SOL    HW212655   5.084   3.767   4.561
  576SOL     OW12656   4.041   0.997   2.908
  576SOL    HW112657   4.112   1.065   2.928
  576SOL    HW212658   4.076   0.905   2.927
  577SOL     OW12659   6.090   5.110   0.637
  577SOL    HW112660   6.043   5.056   0.707
  577SOL    HW212661   6.056   5.086   0.547
  578SOL     OW12662   2.925   6.705   4.604
  578SOL    HW112663   2.946   6.774   4.535
  578SOL    HW212664   3.010   6.660   4.633
  579SOL     OW12665   7.653   4.335   0.406
  579SOL    HW112666   7.746   4.310   0.378
  579SOL    HW212667   7.591   4.326   0.328
  580SOL     OW12668   9.559   7.147   1.062
  580SOL    HW112669   9.548   7.069   1.124
  580SOL    HW212670   9.590   7.227   1.115
  581SOL     OW12671   8.037   3.615   2.804
  581SOL    HW112672   7.937   3.611   2.801
  581SOL    HW212673   8.073   3.636   2.713
  582SOL     OW12674   8.984   6.435   0.507
  582SOL    HW112675   9.037   6.351   0.510
  582SOL    HW212676   8.933   6.440   0.421
  583SOL     OW12677   4.277   2.255   0.304
  583SOL    HW112678   4.361   2.259   0.357
  583SOL    HW212679   4.236   2.346   0.298
  584SOL     OW12680   2.447   4.254   1.864
  584SOL    HW112681   2.349   4.234   1.862
  584SOL    HW212682   2.461   4.353   1.858
  585SOL     OW12683   2.942   3.345   1.344
  585SOL    HW112684   2.941   3.363   1.442
  585SOL    HW212685   3.030   3.304   1.318
  586SOL     OW12686   0.198   6.196   5.200
  586SOL    HW112687   0.166   6.102   5.209
  586SOL    HW212688   0.294   6.202   5.227
  587SOL     OW12689   1.494   7.910   1.991
  587SOL    HW112690   1.580   7.877   1.952
  587SOL    HW212691   1.511   7.942   2.085
  588SOL     OW12692   3.091   2.210   4.386
  588SOL    HW112693   3.093   2.111   4.376
  588SOL    HW212694   3.036   2.250   4.313
  589SOL     OW12695   0.717   9.358   2.020
  589SOL    HW112696   0.704   9.358   1.921
  589SOL    HW212697   0.628   9.353   2.065
  590SOL     OW12698   5.169   6.726   1.792
  590SOL    HW112699   5.112   6.785   1.734
  590SOL    HW212700   5.203   6.779   1.869
  591SOL     OW12701   9.029   0.786   0.626
  591SOL    HW112702   9.085   0.731   0.564
  591SOL    HW212703   8.996   0.729   0.701
  592SOL     OW12704   1.647   7.027   3.808
  592SOL    HW112705   1.572   7.065   3.753
  592SOL    HW212706   1.609   6.978   3.887
  593SOL     OW12707   0.170   0.611   4.503
  593SOL    HW112708   0.077   0.578   4.487
  593SOL    HW212709   0.180   0.640   4.598
  594SOL     OW12710   3.536   8.044   5.210
  594SOL    HW112711   3.481   7.966   5.181
  594SOL    HW212712   3.633   8.022   5.200
  595SOL     OW12713   0.095   5.217   1.539
  595SOL    HW112714   0.160   5.238   1.466
  595SOL    HW212715   0.108   5.122   1.568
  596SOL     OW12716   3.284   9.090   0.111
  596SOL    HW112717   3.222   9.117   0.185
  596SOL    HW212718   3.344   9.167   0.089
  597SOL     OW12719   2.173   2.274   3.385
  597SOL    HW112720   2.201   2.302   3.477
  597SOL    HW212721   2.111   2.343   3.347
  598SOL     OW12722   1.026   6.948   1.766
  598SOL    HW112723   0.998   6.951   1.862
  598SOL    HW212724   1.049   7.041   1.735
  599SOL     OW12725   4.524   5.123   2.439
  599SOL    HW112726   4.436   5.164   2.414
  599SOL    HW212727   4.546   5.146   2.534
  600SOL     OW12728   1.989   0.183   0.401
  600SOL    HW112729   2.042   0.172   0.318
  600SOL    HW212730   1.956   0.277   0.408
  601SOL     OW12731   2.621   3.164   3.320
  601SOL    HW112732   2.589   3.134   3.410
  601SOL    HW212733   2.575   3.112   3.249
  602SOL     OW12734   9.999   6.966   3.879
  602SOL    HW112735   0.048   6.939   3.796
  602SOL    HW212736   9.934   7.040   3.857
  603SOL     OW12737   3.233   4.406   1.898
  603SOL    HW112738   3.210   4.437   1.990
  603SOL    HW212739   3.253   4.308   1.901
  604SOL     OW12740   5.519   4.826   1.451
  604SOL    HW112741   5.450   4.898   1.445
  604SOL    HW212742   5.592   4.854   1.514
  605SOL     OW12743   4.561   3.003   4.151
  605SOL    HW112744   4.586   2.960   4.065
  605SOL    HW212745   4.558   2.935   4.223
  606SOL     OW12746   5.636   5.358   0.508
  606SOL    HW112747   5.729   5.353   0.470
  606SOL    HW212748   5.626   5.290   0.581
  607SOL     OW12749   9.059   8.243   4.793
  607SOL    HW112750   9.006   8.228   4.877
  607SOL    HW212751   9.114   8.325   4.802
  608SOL     OW12752   2.913   3.159   2.606
  608SOL    HW112753   2.908   3.067   2.569
  608SOL    HW212754   2.848   3.218   2.558
  609SOL     OW12755   9.028   2.843   2.476
  609SOL    HW112756   9.031   2.744   2.487
  609SOL    HW212757   8.976   2.866   2.394
  610SOL     OW12758   4.065   9.456   0.123
  610SOL    HW112759   4.041   9.533   0.064
  610SOL    HW212760   4.087   9.490   0.215
  611SOL     OW12761   4.090   0.503   1.794
  611SOL    HW112762   4.103   0.600   1.773
  611SOL    HW212763   4.018   0.467   1.735
  612SOL     OW12764   9.729   8.897   4.013
  612SOL    HW112765   9.694   8.880   4.105
  612SOL    HW212766   9.664   8.957   3.964
  613SOL     OW12767   9.019   9.580   3.464
  613SOL    HW112768   8.949   9.591   3.393
  613SOL    HW212769   9.070   9.665   3.474
  614SOL     OW12770   7.844   0.247   4.955
  614SOL    HW112771   7.905   0.227   4.879
  614SOL    HW212772   7.760   0.291   4.921
  615SOL     OW12773   3.497   3.667   2.506
  615SOL    HW112774   3.454   3.709   2.586
  615SOL    HW212775   3.565   3.600   2.536
  616SOL     OW12776   9.443   7.378   3.618
  616SOL    HW112777   9.367   7.314   3.631
  616SOL    HW212778   9.426   7.461   3.670
  617SOL     OW12779   2.720   0.426   4.451
  617SOL    HW112780   2.792   0.488   4.419
  617SOL    HW212781   2.716   0.429   4.551
  618SOL     OW12782   8.374   3.407   4.317
  618SOL    HW112783   8.307   3.394   4.390
  618SOL    HW212784   8.466   3.398   4.354
  619SOL     OW12785   8.284   7.224   1.643
  619SOL    HW112786   8.261   7.201   1.738
  619SOL    HW212787   8.242   7.158   1.581
  620SOL     OW12788   6.410   4.736   0.275
  620SOL    HW112789   6.354   4.690   0.206
  620SOL    HW212790   6.386   4.701   0.366
  621SOL     OW12791   1.934   1.010   4.681
  621SOL    HW112792   1.991   0.942   4.634
  621SOL    HW212793   1.969   1.024   4.774
  622SOL     OW12794   2.305   9.972   3.627
  622SOL    HW112795   2.235   9.917   3.580
  622SOL    HW212796   2.350   9.916   3.697
  623SOL     OW12797   8.810   4.190   2.293
  623SOL    HW112798   8.759   4.261   2.242
  623SOL    HW212799   8.886   4.233   2.342
  624SOL     OW12800   0.502   3.782   0.121
  624SOL    HW112801   0.497   3.872   0.163
  624SOL    HW212802   0.578   3.730   0.161
  625SOL     OW12803   3.399   4.277   2.596
  625SOL    HW112804   3.304   4.287   2.568
  625SOL    HW212805   3.459   4.312   2.524
  626SOL     OW12806   1.098   3.690   0.388
  626SOL    HW112807   1.102   3.600   0.431
  626SOL    HW212808   1.149   3.688   0.302
  627SOL     OW12809   4.772   1.255   0.610
  627SOL    HW112810   4.763   1.353   0.590
  627SOL    HW212811   4.726   1.234   0.696
  628SOL     OW12812   9.898   0.458   0.370
  628SOL    HW112813   9.958   0.378   0.369
  628SOL    HW212814   9.953   0.540   0.381
  629SOL     OW12815   8.916   2.485   4.600
  629SOL    HW112816   8.974   2.566   4.611
  629SOL    HW212817   8.950   2.430   4.524
  630SOL     OW12818   1.526   1.522   3.681
  630SOL    HW112819   1.555   1.472   3.600
  630SOL    HW212820   1.433   1.495   3.706
  631SOL     OW12821   9.451   1.299   5.071
  631SOL    HW112822   9.412   1.343   4.990
  631SOL    HW212823   9.541   1.338   5.090
  632SOL     OW12824   1.598   5.875   2.202
  632SOL    HW112825   1.511   5.918   2.178
  632SOL    HW212826   1.598   5.850   2.298
  633SOL     OW12827   2.921   9.475   1.734
  633SOL    HW112828   2.877   9.560   1.764
  633SOL    HW212829   3.020   9.490   1.725
  634SOL     OW12830   6.874   8.511   2.942
  634SOL    HW112831   6.903   8.443   2.876
  634SOL    HW212832   6.838   8.465   3.024
  635SOL     OW12833   0.809   0.909   4.871
  635SOL    HW112834   0.767   0.848   4.803
  635SOL    HW212835   0.895   0.945   4.835
  636SOL     OW12836   9.314   3.311   3.079
  636SOL    HW112837   9.261   3.227   3.065
  636SOL    HW212838   9.401   3.304   3.029
  637SOL     OW12839   2.247   9.491   4.099
  637SOL    HW112840   2.187   9.510   4.177
  637SOL    HW212841   2.192   9.461   4.021
  638SOL     OW12842   5.186   8.571   4.327
  638SOL    HW112843   5.264   8.626   4.359
  638SOL    HW212844   5.143   8.618   4.249
  639SOL     OW12845   8.996   5.572   2.333
  639SOL    HW112846   9.032   5.498   2.276
  639SOL    HW212847   9.025   5.558   2.428
  640SOL     OW12848   8.517   0.854   5.125
  640SOL    HW112849   8.542   0.932   5.182
  640SOL    HW212850   8.596   0.794   5.114
  641SOL     OW12851   8.948   1.907   3.039
  641SOL    HW112852   8.951   1.830   2.976
  641SOL    HW212853   8.893   1.883   3.119
  642SOL     OW12854   6.841   1.373   0.792
  642SOL    HW112855   6.939   1.387   0.781
  642SOL    HW212856   6.820   1.361   0.889
  643SOL     OW12857   0.707   0.891   3.827
  643SOL    HW112858   0.607   0.896   3.828
  643SOL    HW212859   0.744   0.954   3.895
  644SOL     OW12860   0.271   2.930   1.240
  644SOL    HW112861   0.305   2.836   1.232
  644SOL    HW212862   0.346   2.990   1.269
  645SOL     OW12863   1.325   2.799   2.774
  645SOL    HW112864   1.421   2.828   2.768
  645SOL    HW212865   1.281   2.847   2.850
  646SOL     OW12866   2.779   3.313   2.966
  646SOL    HW112867   2.735   3.349   3.049
  646SOL    HW212868   2.780   3.384   2.895
  647SOL     OW12869   7.300   1.655   4.459
  647SOL    HW112870   7.368   1.586   4.435
  647SOL    HW212871   7.321   1.740   4.410
  648SOL     OW12872   2.476   8.042   2.998
  648SOL    HW112873   2.500   7.950   2.967
  648SOL    HW212874   2.416   8.036   3.078
  649SOL     OW12875   6.665   7.437   4.516
  649SOL    HW112876   6.716   7.362   4.558
  649SOL    HW212877   6.567   7.420   4.526
  650SOL     OW12878   5.112   7.391   3.630
  650SOL    HW112879   5.194   7.434   3.595
  650SOL    HW212880   5.134   7.300   3.667
  651SOL     OW12881   0.164   7.487   2.184
  651SOL    HW112882   0.067   7.460   2.186
  651SOL    HW212883   0.175   7.566   2.124
  652SOL     OW12884   3.229   2.878   4.941
  652SOL    HW112885   3.284   2.797   4.923
  652SOL    HW212886   3.285   2.960   4.929
  653SOL     OW12887   2.899   6.764   2.671
  653SOL    HW112888   2.938   6.684   2.716
  653SOL    HW212889   2.801   6.770   2.691
  654SOL     OW12890   8.738   6.242   5.004
  654SOL    HW112891   8.704   6.171   5.067
  654SOL    HW212892   8.828   6.215   4.970
  655SOL     OW12893   5.850   9.497   4.099
  655SOL    HW112894   5.759   9.462   4.080
  655SOL    HW212895   5.901   9.429   4.153
  656SOL     OW12896   4.211   2.391   4.214
  656SOL    HW112897   4.203   2.414   4.116
  656SOL    HW212898   4.167   2.463   4.268
  657SOL     OW12899   4.464   0.067   2.319
  657SOL    HW112900   4.472   0.011   2.401
  657SOL    HW212901   4.450   0.008   2.240
  658SOL     OW12902   5.166   0.592   2.441
  658SOL    HW112903   5.179   0.541   2.526
  658SOL    HW212904   5.074   0.630   2.438
  659SOL     OW12905   4.111   3.878   3.038
  659SOL    HW112906   4.052   3.956   3.014
  659SOL    HW212907   4.204   3.912   3.056
  660SOL     OW12908   0.508   8.094   2.560
  660SOL    HW112909   0.533   8.118   2.467
  660SOL    HW212910   0.412   8.116   2.576
  661SOL     OW12911   3.347   2.960   3.155
  661SOL    HW112912   3.266   2.902   3.147
  661SOL    HW212913   3.388   2.948   3.246
  662SOL     OW12914   6.043   8.552   4.803
  662SOL    HW112915   5.992   8.620   4.857
  662SOL    HW212916   6.138   8.549   4.833
  663SOL     OW12917   2.077   1.945   1.074
  663SOL    HW112918   2.101   1.944   1.171
  663SOL    HW212919   1.987   1.986   1.062
  664SOL     OW12920   9.161   2.469   0.117
  664SOL    HW112921   9.062   2.465   0.129
  664SOL    HW212922   9.203   2.391   0.163
  665SOL     OW12923   2.836   0.542   0.853
  665SOL    HW112924   2.840   0.642   0.846
  665SOL    HW212925   2.927   0.506   0.872
  666SOL     OW12926   4.661   1.803   4.526
  666SOL    HW112927   4.708   1.790   4.438
  666SOL    HW212928   4.727   1.836   4.594
  667SOL     OW12929   8.061   2.968   1.123
  667SOL    HW112930   8.002   3.008   1.193
  667SOL    HW212931   8.041   3.009   1.035
  668SOL     OW12932   9.538   2.340   3.741
  668SOL    HW112933   9.440   2.322   3.738
  668SOL    HW212934   9.560   2.384   3.828
  669SOL     OW12935   4.854   2.968   1.824
  669SOL    HW112936   4.934   2.928   1.867
  669SOL    HW212937   4.783   2.984   1.894
  670SOL     OW12938   2.331   2.796   0.287
  670SOL    HW112939   2.235   2.797   0.263
  670SOL    HW212940   2.384   2.845   0.217
  671SOL     OW12941   1.133   9.236   1.181
  671SOL    HW112942   1.110   9.310   1.244
  671SOL    HW212943   1.188   9.168   1.230
  672SOL     OW12944   7.466   2.095   4.885
  672SOL    HW112945   7.458   2.195   4.893
  672SOL    HW212946   7.500   2.058   4.972
  673SOL     OW12947   5.839   7.884   4.133
  673SOL    HW112948   5.813   7.940   4.055
  673SOL    HW212949   5.890   7.804   4.101
  674SOL     OW12950   6.180   0.157   2.888
  674SOL    HW112951   6.150   0.140   2.982
  674SOL    HW212952   6.272   0.119   2.875
  675SOL     OW12953   4.373   8.799   3.270
  675SOL    HW112954   4.356   8.713   3.222
  675SOL    HW212955   4.472   8.813   3.280
  676SOL     OW12956   4.269   8.544   1.729
  676SOL    HW112957   4.204   8.574   1.658
  676SOL    HW212958   4.341   8.489   1.687
  677SOL     OW12959   8.426   3.058   4.096
  677SOL    HW112960   8.468   3.003   4.167
  677SOL    HW212961   8.479   3.142   4.081
  678SOL     OW12962   1.100   1.900   0.561
  678SOL    HW112963   1.003   1.922   0.569
  678SOL    HW212964   1.130   1.851   0.643
  679SOL     OW12965   2.375   3.521   5.095
  679SOL    HW112966   2.378   3.475   5.184
  679SOL    HW212967   2.459   3.574   5.083
  680SOL     OW12968   3.844   8.851   4.632
  680SOL    HW112969   3.872   8.944   4.609
  680SOL    HW212970   3.750   8.836   4.600
  681SOL     OW12971   7.468   3.950   0.432
  681SOL    HW112972   7.405   3.907   0.367
  681SOL    HW212973   7.420   3.967   0.518
  682SOL     OW12974   2.026   6.275   1.116
  682SOL    HW112975   2.021   6.290   1.017
  682SOL    HW212976   1.940   6.236   1.148
  683SOL     OW12977   7.665   3.670   1.904
  683SOL    HW112978   7.719   3.754   1.907
  683SOL    HW212979   7.647   3.646   1.808
  684SOL     OW12980   3.511   6.511   2.709
  684SOL    HW112981   3.550   6.471   2.792
  684SOL    HW212982   3.567   6.588   2.680
  685SOL     OW12983   1.086   8.218   2.206
  685SOL    HW112984   1.172   8.169   2.219
  685SOL    HW212985   1.009   8.155   2.220
  686SOL     OW12986   2.902   2.017   1.183
  686SOL    HW112987   2.988   2.065   1.166
  686SOL    HW212988   2.908   1.966   1.268
  687SOL     OW12989   8.079   6.207   4.767
  687SOL    HW112990   8.111   6.178   4.676
  687SOL    HW212991   8.144   6.274   4.805
  688SOL     OW12992   9.319   1.334   0.718
  688SOL    HW112993   9.316   1.264   0.647
  688SOL    HW212994   9.397   1.395   0.702
  689SOL     OW12995   6.843   7.982   3.968
  689SOL    HW112996   6.799   8.018   4.050
  689SOL    HW212997   6.869   7.887   3.984
  690SOL     OW12998   9.336   7.953   0.138
  690SOL    HW112999   9.250   7.925   0.181
  690SOL    HW213000   9.319   8.028   0.075
  691SOL     OW13001   4.576   7.709   3.195
  691SOL    HW113002   4.568   7.637   3.127
  691SOL    HW213003   4.488   7.754   3.208
  692SOL     OW13004   2.452   8.871   2.899
  692SOL    HW113005   2.448   8.790   2.957
  692SOL    HW213006   2.366   8.922   2.906
  693SOL     OW13007   0.519   2.795   1.009
  693SOL    HW113008   0.446   2.756   0.952
  693SOL    HW213009   0.605   2.794   0.958
  694SOL     OW13010   0.961   5.242   0.926
  694SOL    HW113011   0.868   5.207   0.930
  694SOL    HW213012   1.008   5.203   0.847
  695SOL     OW13013   0.654   5.847   1.672
  695SOL    HW113014   0.750   5.874   1.673
  695SOL    HW213015   0.642   5.764   1.726
  696SOL     OW13016   4.057   3.044   3.896
  696SOL    HW113017   4.029   2.989   3.975
  696SOL    HW213018   3.977   3.072   3.844
  697SOL     OW13019   1.394   5.389   3.041
  697SOL    HW113020   1.329   5.418   3.110
  697SOL    HW213021   1.414   5.291   3.053
  698SOL     OW13022   1.603   9.662   4.478
  698SOL    HW113023   1.525   9.722   4.459
  698SOL    HW213024   1.587   9.614   4.565
  699SOL     OW13025   1.057   0.429   2.724
  699SOL    HW113026   1.048   0.514   2.671
  699SOL    HW213027   1.071   0.451   2.821
  700SOL     OW13028   1.589   0.627   2.443
  700SOL    HW113029   1.615   0.561   2.514
  700SOL    HW213030   1.493   0.615   2.420
  701SOL     OW13031   7.952   6.691   3.180
  701SOL    HW113032   8.010   6.771   3.197
  701SOL    HW213033   7.899   6.670   3.262
  702SOL     OW13034   9.095   2.231   1.099
  702SOL    HW113035   9.035   2.215   1.020
  702SOL    HW213036   9.058   2.306   1.154
  703SOL     OW13037   9.928   1.661   2.772
  703SOL    HW113038   0.011   1.707   2.742
  703SOL    HW213039   9.942   1.621   2.862
  704SOL     OW13040   5.990   1.120   2.859
  704SOL    HW113041   5.978   1.037   2.913
  704SOL    HW213042   6.087   1.131   2.836
  705SOL     OW13043   1.429   5.858   3.798
  705SOL    HW113044   1.441   5.946   3.843
  705SOL    HW213045   1.428   5.871   3.699
  706SOL     OW13046   6.994   2.466   0.871
  706SOL    HW113047   7.010   2.492   0.966
  706SOL    HW213048   7.010   2.367   0.861
  707SOL     OW13049   0.850   8.267   0.593
  707SOL    HW113050   0.934   8.318   0.574
  707SOL    HW213051   0.870   8.193   0.657
  708SOL     OW13052   1.788   0.825   2.461
  708SOL    HW113053   1.872   0.776   2.483
  708SOL    HW213054   1.713   0.759   2.450
  709SOL     OW13055   4.404   5.420   1.058
  709SOL    HW113056   4.469   5.454   0.990
  709SOL    HW213057   4.454   5.368   1.127
  710SOL     OW13058   3.616   4.633   0.371
  710SOL    HW113059   3.522   4.651   0.345
  710SOL    HW213060   3.618   4.575   0.453
  711SOL     OW13061   7.118   2.199   2.749
  711SOL    HW113062   7.098   2.284   2.797
  711SOL    HW213063   7.214   2.198   2.722
  712SOL     OW13064   1.297   8.843   0.489
  712SOL    HW113065   1.201   8.821   0.472
  712SOL    HW213066   1.307   8.875   0.584
  713SOL     OW13067   5.423   7.936   2.884
  713SOL    HW113068   5.444   7.858   2.942
  713SOL    HW213069   5.325   7.957   2.890
  714SOL     OW13070   9.752   0.400   1.605
  714SOL    HW113071   9.815   0.347   1.550
  714SOL    HW213072   9.748   0.494   1.571
  715SOL     OW13073   6.933   9.199   1.895
  715SOL    HW113074   6.984   9.248   1.966
  715SOL    HW213075   6.986   9.119   1.865
  716SOL     OW13076   5.293   8.978   4.406
  716SOL    HW113077   5.330   8.885   4.395
  716SOL    HW213078   5.354   9.032   4.464
  717SOL     OW13079   3.626   2.974   0.758
  717SOL    HW113080   3.667   2.888   0.787
  717SOL    HW213081   3.697   3.035   0.723
  718SOL     OW13082   1.400   2.272   2.933
  718SOL    HW113083   1.498   2.255   2.925
  718SOL    HW213084   1.383   2.371   2.930
  719SOL     OW13085   7.803   2.347   0.543
  719SOL    HW113086   7.871   2.420   0.538
  719SOL    HW213087   7.756   2.352   0.630
  720SOL     OW13088   4.456   9.106   4.144
  720SOL    HW113089   4.435   9.200   4.118
  720SOL    HW213090   4.399   9.043   4.091
  721SOL     OW13091   1.769   0.201   1.907
  721SOL    HW113092   1.749   0.159   1.819
  721SOL    HW213093   1.790   0.298   1.893
  722SOL     OW13094   4.632   1.436   2.730
  722SOL    HW113095   4.689   1.388   2.664
  722SOL    HW213096   4.620   1.380   2.812
  723SOL     OW13097   8.273   0.778   1.564
  723SOL    HW113098   8.344   0.740   1.623
  723SOL    HW213099   8.202   0.710   1.549
  724SOL     OW13100   8.258   5.745   4.268
  724SOL    HW113101   8.322   5.673   4.294
  724SOL    HW213102   8.301   5.834   4.281
  725SOL     OW13103   3.865   6.891   1.433
  725SOL    HW113104   3.953   6.876   1.388
  725SOL    HW213105   3.809   6.951   1.376
  726SOL     OW13106   0.163   6.329   4.959
  726SOL    HW113107   0.252   6.329   4.913
  726SOL    HW213108   0.169   6.277   5.044
  727SOL     OW13109   8.704   5.319   0.802
  727SOL    HW113110   8.665   5.240   0.755
  727SOL    HW213111   8.781   5.289   0.859
  728SOL     OW13112   0.907   3.859   2.523
  728SOL    HW113113   0.886   3.798   2.600
  728SOL    HW213114   0.880   3.816   2.438
  729SOL     OW13115   4.452   9.594   4.282
  729SOL    HW113116   4.531   9.548   4.241
  729SOL    HW213117   4.397   9.528   4.332
  730SOL     OW13118   0.530   1.698   4.984
  730SOL    HW113119   0.442   1.739   5.009
  730SOL    HW213120   0.535   1.605   5.020
  731SOL     OW13121   1.298   0.305   0.327
  731SOL    HW113122   1.303   0.220   0.275
  731SOL    HW213123   1.341   0.292   0.417
  732SOL     OW13124   7.919   6.126   3.389
  732SOL    HW113125   7.844   6.171   3.437
  732SOL    HW213126   7.903   6.129   3.291
  733SOL     OW13127   4.729   4.497   4.336
  733SOL    HW113128   4.785   4.574   4.365
  733SOL    HW213129   4.750   4.474   4.240
  734SOL     OW13130   4.269   4.166   0.269
  734SOL    HW113131   4.337   4.172   0.196
  734SOL    HW213132   4.303   4.105   0.341
  735SOL     OW13133   6.192   9.814   2.034
  735SOL    HW113134   6.149   9.735   1.990
  735SOL    HW213135   6.128   9.891   2.035
  736SOL     OW13136   9.113   8.687   4.381
  736SOL    HW113137   9.058   8.626   4.324
  736SOL    HW213138   9.058   8.765   4.409
  737SOL     OW13139   0.849   0.447   4.213
  737SOL    HW113140   0.829   0.452   4.311
  737SOL    HW213141   0.935   0.495   4.195
  738SOL     OW13142   0.245   3.102   1.581
  738SOL    HW113143   0.159   3.137   1.620
  738SOL    HW213144   0.292   3.176   1.534
  739SOL     OW13145   5.235   7.163   3.740
  739SOL    HW113146   5.300   7.229   3.777
  739SOL    HW213147   5.273   7.120   3.658
  740SOL     OW13148   3.307   1.385   1.193
  740SOL    HW113149   3.250   1.364   1.114
  740SOL    HW213150   3.341   1.479   1.186
  741SOL     OW13151   2.096   8.307   0.247
  741SOL    HW113152   2.092   8.335   0.343
  741SOL    HW213153   2.026   8.356   0.196
  742SOL     OW13154   0.733   2.509   5.196
  742SOL    HW113155   0.809   2.532   5.256
  742SOL    HW213156   0.765   2.450   5.122
  743SOL     OW13157   4.413   7.491   1.529
  743SOL    HW113158   4.336   7.555   1.527
  743SOL    HW213159   4.499   7.543   1.531
  744SOL     OW13160   1.873   1.830   3.483
  744SOL    HW113161   1.868   1.809   3.580
  744SOL    HW213162   1.943   1.900   3.467
  745SOL     OW13163   0.293   9.350   3.773
  745SOL    HW113164   0.383   9.316   3.747
  745SOL    HW213165   0.230   9.273   3.783
  746SOL     OW13166   9.844   3.743   4.548
  746SOL    HW113167   9.889   3.662   4.586
  746SOL    HW213168   9.912   3.813   4.528
  747SOL     OW13169   8.869   8.041   0.766
  747SOL    HW113170   8.791   7.981   0.783
  747SOL    HW213171   8.883   8.102   0.844
  748SOL     OW13172   9.325   0.154   0.755
  748SOL    HW113173   9.410   0.102   0.767
  748SOL    HW213174   9.250   0.090   0.738
  749SOL     OW13175   8.879   7.861   2.607
  749SOL    HW113176   8.939   7.829   2.681
  749SOL    HW213177   8.810   7.924   2.644
  750SOL     OW13178   2.710   2.755   3.224
  750SOL    HW113179   2.772   2.823   3.186
  750SOL    HW213180   2.632   2.801   3.266
  751SOL     OW13181   8.522   6.885   2.230
  751SOL    HW113182   8.520   6.970   2.177
  751SOL    HW213183   8.521   6.905   2.327
  752SOL     OW13184   2.269   5.168   1.601
  752SOL    HW113185   2.250   5.255   1.645
  752SOL    HW213186   2.334   5.116   1.657
  753SOL     OW13187   3.540   7.429   2.359
  753SOL    HW113188   3.458   7.481   2.340
  753SOL    HW213189   3.617   7.492   2.372
  754SOL     OW13190   1.766   9.428   1.205
  754SOL    HW113191   1.837   9.358   1.211
  754SOL    HW213192   1.789   9.493   1.133
  755SOL     OW13193   1.686   1.501   4.900
  755SOL    HW113194   1.765   1.452   4.862
  755SOL    HW213195   1.718   1.578   4.955
  756SOL     OW13196   4.356   5.285   0.670
  756SOL    HW113197   4.321   5.264   0.761
  756SOL    HW213198   4.374   5.383   0.662
  757SOL     OW13199   9.878   2.320   1.366
  757SOL    HW113200   9.861   2.410   1.325
  757SOL    HW213201   9.976   2.305   1.373
  758SOL     OW13202   9.011   5.136   2.244
  758SOL    HW113203   9.009   5.131   2.344
  758SOL    HW213204   9.034   5.047   2.207
  759SOL     OW13205   9.459   8.512   4.167
  759SOL    HW113206   9.453   8.589   4.230
  759SOL    HW213207   9.555   8.490   4.150
  760SOL     OW13208   7.898   4.153   2.248
  760SOL    HW113209   7.900   4.059   2.212
  760SOL    HW213210   7.870   4.215   2.175
  761SOL     OW13211   3.332   1.175   0.314
  761SOL    HW113212   3.418   1.126   0.301
  761SOL    HW213213   3.317   1.191   0.412
  762SOL     OW13214   4.178   5.051   3.938
  762SOL    HW113215   4.122   4.970   3.921
  762SOL    HW213216   4.253   5.055   3.872
  763SOL     OW13217   4.525   5.010   1.256
  763SOL    HW113218   4.453   4.968   1.200
  763SOL    HW213219   4.615   4.981   1.223
  764SOL     OW13220   2.677   4.222   1.210
  764SOL    HW113221   2.774   4.233   1.189
  764SOL    HW213222   2.659   4.255   1.303
  765SOL     OW13223   4.963   2.161   5.048
  765SOL    HW113224   4.962   2.234   4.979
  765SOL    HW213225   5.057   2.138   5.071
  766SOL     OW13226   0.612   5.787   0.551
  766SOL    HW113227   0.593   5.689   0.555
  766SOL    HW213228   0.530   5.836   0.523
  767SOL     OW13229   9.350   7.074   1.653
  767SOL    HW113230   9.355   7.093   1.555
  767SOL    HW213231   9.289   6.997   1.669
  768SOL     OW13232   3.298   1.880   1.200
  768SOL    HW113233   3.247   1.966   1.199
  768SOL    HW213234   3.389   1.896   1.237
  769SOL     OW13235   0.731   6.753   1.140
  769SOL    HW113236   0.664   6.761   1.214
  769SOL    HW213237   0.695   6.692   1.070
  770SOL     OW13238   2.990   7.024   3.132
  770SOL    HW113239   3.073   7.065   3.094
  770SOL    HW213240   2.946   6.968   3.061
  771SOL     OW13241   9.943   1.156   4.224
  771SOL    HW113242   0.008   1.232   4.234
  771SOL    HW213243   9.988   1.070   4.250
  772SOL     OW13244   5.671   7.750   5.022
  772SOL    HW113245   5.657   7.659   5.062
  772SOL    HW213246   5.645   7.820   5.089
  773SOL     OW13247   4.315   8.733   2.162
  773SOL    HW113248   4.320   8.736   2.063
  773SOL    HW213249   4.346   8.820   2.200
  774SOL     OW13250   8.894   7.933   2.339
  774SOL    HW113251   8.893   7.915   2.438
  774SOL    HW213252   8.952   8.012   2.320
  775SOL     OW13253   4.406   4.925   2.786
  775SOL    HW113254   4.446   5.014   2.764
  775SOL    HW213255   4.332   4.937   2.852
  776SOL     OW13256   9.958   7.219   4.941
  776SOL    HW113257   0.055   7.214   4.917
  776SOL    HW213258   9.932   7.135   4.989
  777SOL     OW13259   9.502   1.885   3.420
  777SOL    HW113260   9.420   1.895   3.477
  777SOL    HW213261   9.496   1.800   3.367
  778SOL     OW13262   0.095   1.522   5.224
  778SOL    HW113263   0.048   1.487   5.305
  778SOL    HW213264   0.069   1.617   5.209
  779SOL     OW13265   9.319   1.271   3.346
  779SOL    HW113266   9.233   1.314   3.318
  779SOL    HW213267   9.381   1.341   3.382
  780SOL     OW13268   5.827   8.364   4.263
  780SOL    HW113269   5.751   8.377   4.328
  780SOL    HW213270   5.864   8.272   4.273
  781SOL     OW13271   8.828   2.630   2.822
  781SOL    HW113272   8.922   2.661   2.835
  781SOL    HW213273   8.778   2.638   2.909
  782SOL     OW13274   2.751   1.909   0.982
  782SOL    HW113275   2.812   1.944   1.053
  782SOL    HW213276   2.657   1.937   1.002
  783SOL     OW13277   1.350   0.731   3.490
  783SOL    HW113278   1.343   0.827   3.516
  783SOL    HW213279   1.428   0.689   3.537
  784SOL     OW13280   2.962   4.404   5.080
  784SOL    HW113281   2.967   4.361   4.990
  784SOL    HW213282   2.909   4.347   5.142
  785SOL     OW13283   3.015   6.650   1.692
  785SOL    HW113284   3.012   6.710   1.772
  785SOL    HW213285   3.013   6.554   1.722
  786SOL     OW13286   2.448   1.352   2.617
  786SOL    HW113287   2.505   1.412   2.562
  786SOL    HW213288   2.382   1.305   2.559
  787SOL     OW13289   4.079   4.801   1.823
  787SOL    HW113290   4.121   4.839   1.740
  787SOL    HW213291   4.132   4.722   1.854
  788SOL     OW13292   0.346   0.848   2.308
  788SOL    HW113293   0.276   0.859   2.237
  788SOL    HW213294   0.365   0.936   2.350
  789SOL     OW13295   2.343   1.034   4.132
  789SOL    HW113296   2.255   1.066   4.098
  789SOL    HW213297   2.332   0.995   4.224
  790SOL     OW13298   9.895   7.589   2.650
  790SOL    HW113299   9.932   7.528   2.580
  790SOL    HW213300   9.826   7.649   2.609
  791SOL     OW13301   3.515   2.505   1.752
  791SOL    HW113302   3.495   2.413   1.787
  791SOL    HW213303   3.614   2.514   1.739
  792SOL     OW13304   1.204   3.469   1.596
  792SOL    HW113305   1.270   3.399   1.568
  792SOL    HW213306   1.115   3.426   1.612
  793SOL     OW13307   9.224   5.034   2.643
  793SOL    HW113308   9.144   5.065   2.593
  793SOL    HW213309   9.203   5.031   2.741
  794SOL     OW13310   2.917   0.977   3.442
  794SOL    HW113311   2.870   1.065   3.431
  794SOL    HW213312   2.883   0.913   3.373
  795SOL     OW13313   9.859   6.823   2.406
  795SOL    HW113314   9.837   6.920   2.399
  795SOL    HW213315   9.856   6.795   2.502
  796SOL     OW13316   4.283   8.886   1.247
  796SOL    HW113317   4.207   8.938   1.285
  796SOL    HW213318   4.370   8.924   1.278
  797SOL     OW13319   2.797   2.316   2.749
  797SOL    HW113320   2.869   2.363   2.800
  797SOL    HW213321   2.810   2.217   2.756
  798SOL     OW13322   3.214   0.075   1.780
  798SOL    HW113323   3.295   0.121   1.743
  798SOL    HW213324   3.240   0.025   1.863
  799SOL     OW13325   4.498   0.963   2.167
  799SOL    HW113326   4.423   0.930   2.111
  799SOL    HW213327   4.494   0.921   2.258
  800SOL     OW13328   2.112   0.741   3.498
  800SOL    HW113329   2.143   0.687   3.419
  800SOL    HW213330   2.140   0.694   3.582
  801SOL     OW13331   8.367   7.088   0.886
  801SOL    HW113332   8.386   7.154   0.960
  801SOL    HW213333   8.444   7.086   0.823
  802SOL     OW13334   6.721   8.043   4.213
  802SOL    HW113335   6.687   8.103   4.285
  802SOL    HW213336   6.646   7.984   4.181
  803SOL     OW13337   5.855   0.495   1.797
  803SOL    HW113338   5.818   0.468   1.709
  803SOL    HW213339   5.790   0.555   1.844
  804SOL     OW13340   8.698   8.547   5.198
  804SOL    HW113341   8.723   8.608   5.273
  804SOL    HW213342   8.780   8.524   5.145
  805SOL     OW13343   8.468   7.884   3.824
  805SOL    HW113344   8.528   7.832   3.764
  805SOL    HW213345   8.497   7.980   3.825
  806SOL     OW13346   4.173   5.084   1.296
  806SOL    HW113347   4.227   5.045   1.222
  806SOL    HW213348   4.229   5.151   1.345
  807SOL     OW13349   2.426   7.235   1.140
  807SOL    HW113350   2.357   7.208   1.073
  807SOL    HW213351   2.482   7.155   1.165
  808SOL     OW13352   4.625   8.039   3.892
  808SOL    HW113353   4.665   8.036   3.984
  808SOL    HW213354   4.554   8.109   3.888
  809SOL     OW13355   2.553   7.656   1.955
  809SOL    HW113356   2.471   7.613   1.995
  809SOL    HW213357   2.586   7.600   1.880
  810SOL     OW13358   4.059   3.902   0.959
  810SOL    HW113359   4.061   3.840   1.038
  810SOL    HW213360   3.974   3.954   0.960
  811SOL     OW13361   4.208   5.508   2.289
  811SOL    HW113362   4.222   5.540   2.195
  811SOL    HW213363   4.119   5.538   2.322
  812SOL     OW13364   1.579   9.448   1.601
  812SOL    HW113365   1.564   9.525   1.539
  812SOL    HW213366   1.529   9.464   1.687
  813SOL     OW13367   2.257   4.991   2.581
  813SOL    HW113368   2.199   4.918   2.545
  813SOL    HW213369   2.353   4.968   2.568
  814SOL     OW13370   3.572   3.019   1.535
  814SOL    HW113371   3.662   2.975   1.539
  814SOL    HW213372   3.517   2.989   1.612
  815SOL     OW13373   0.799   2.182   4.571
  815SOL    HW113374   0.735   2.218   4.504
  815SOL    HW213375   0.850   2.105   4.532
  816SOL     OW13376   3.782   8.143   4.799
  816SOL    HW113377   3.843   8.212   4.838
  816SOL    HW213378   3.750   8.174   4.709
  817SOL     OW13379   3.078   8.915   3.061
  817SOL    HW113380   3.078   8.919   3.161
  817SOL    HW213381   2.984   8.908   3.027
  818SOL     OW13382   5.905   1.972   4.652
  818SOL    HW113383   5.922   1.932   4.562
  818SOL    HW213384   5.875   2.067   4.641
  819SOL     OW13385   0.952   1.992   2.359
  819SOL    HW113386   0.855   1.993   2.336
  819SOL    HW213387   0.964   2.002   2.458
  820SOL     OW13388   8.836   3.542   1.320
  820SOL    HW113389   8.756   3.590   1.284
  820SOL    HW213390   8.897   3.517   1.244
  821SOL     OW13391   5.198   0.496   0.624
  821SOL    HW113392   5.127   0.499   0.554
  821SOL    HW213393   5.159   0.520   0.712
  822SOL     OW13394   8.889   5.055   0.666
  822SOL    HW113395   8.943   5.104   0.598
  822SOL    HW213396   8.791   5.072   0.650
  823SOL     OW13397   5.115   3.764   1.388
  823SOL    HW113398   5.027   3.770   1.342
  823SOL    HW213399   5.143   3.855   1.419
  824SOL     OW13400   2.197   0.353   0.550
  824SOL    HW113401   2.143   0.273   0.523
  824SOL    HW213402   2.284   0.322   0.589
  825SOL     OW13403   1.246   4.058   1.480
  825SOL    HW113404   1.269   3.984   1.543
  825SOL    HW213405   1.325   4.119   1.469
  826SOL     OW13406   1.810   1.003   3.301
  826SOL    HW113407   1.900   1.021   3.261
  826SOL    HW213408   1.820   0.950   3.385
  827SOL     OW13409   3.091   6.303   3.254
  827SOL    HW113410   3.048   6.267   3.337
  827SOL    HW213411   3.138   6.229   3.206
  828SOL     OW13412   9.594   5.271   3.067
  828SOL    HW113413   9.681   5.322   3.069
  828SOL    HW213414   9.579   5.235   2.975
  829SOL     OW13415   7.786   8.855   4.700
  829SOL    HW113416   7.824   8.789   4.634
  829SOL    HW213417   7.738   8.805   4.772
  830SOL     OW13418   9.499   3.494   1.669
  830SOL    HW113419   9.421   3.455   1.621
  830SOL    HW213420   9.535   3.572   1.618
  831SOL     OW13421   8.654   4.019   2.677
  831SOL    HW113422   8.555   4.021   2.662
  831SOL    HW213423   8.700   3.994   2.592
  832SOL     OW13424   6.900   0.335   0.871
  832SOL    HW113425   6.933   0.422   0.835
  832SOL    HW213426   6.969   0.264   0.855
  833SOL     OW13427   0.454   6.392   1.532
  833SOL    HW113428   0.356   6.407   1.545
  833SOL    HW213429   0.499   6.481   1.517
  834SOL     OW13430   3.365   8.573   4.186
  834SOL    HW113431   3.413   8.509   4.245
  834SOL    HW213432   3.267   8.560   4.195
  835SOL     OW13433   4.223   0.982   0.438
  835SOL    HW113434   4.259   1.067   0.478
  835SOL    HW213435   4.297   0.935   0.389
  836SOL     OW13436   3.014   2.433   1.283
  836SOL    HW113437   2.979   2.507   1.340
  836SOL    HW213438   3.060   2.365   1.341
  837SOL     OW13439   7.476   1.208   3.370
  837SOL    HW113440   7.464   1.182   3.466
  837SOL    HW213441   7.395   1.257   3.338
  838SOL     OW13442   5.736   2.920   4.059
  838SOL    HW113443   5.735   2.981   4.138
  838SOL    HW213444   5.654   2.935   4.003
  839SOL     OW13445   2.572   2.586   4.135
  839SOL    HW113446   2.603   2.681   4.123
  839SOL    HW213447   2.485   2.586   4.184
  840SOL     OW13448   1.127   6.369   0.102
  840SOL    HW113449   1.096   6.325   0.017
  840SOL    HW213450   1.089   6.320   0.180
  841SOL     OW13451   0.120   0.834   2.752
  841SOL    HW113452   0.219   0.820   2.744
  841SOL    HW213453   0.100   0.932   2.751
  842SOL     OW13454   0.735   5.793   3.737
  842SOL    HW113455   0.798   5.842   3.797
  842SOL    HW213456   0.785   5.724   3.686
  843SOL     OW13457   2.939   6.591   2.034
  843SOL    HW113458   3.015   6.526   2.036
  843SOL    HW213459   2.973   6.680   2.005
  844SOL     OW13460   0.946   8.734   4.847
  844SOL    HW113461   1.038   8.739   4.884
  844SOL    HW213462   0.942   8.786   4.761
  845SOL     OW13463   9.240   5.645   0.341
  845SOL    HW113464   9.304   5.613   0.410
  845SOL    HW213465   9.176   5.572   0.318
  846SOL     OW13466   1.116   9.804   0.867
  846SOL    HW113467   1.071   9.724   0.906
  846SOL    HW213468   1.200   9.776   0.821
  847SOL     OW13469   8.846   5.872   4.993
  847SOL    HW113470   8.797   5.852   4.908
  847SOL    HW213471   8.860   5.787   5.044
  848SOL     OW13472   8.201   5.920   2.301
  848SOL    HW113473   8.254   5.850   2.350
  848SOL    HW213474   8.145   5.875   2.231
  849SOL     OW13475   4.173   4.009   2.265
  849SOL    HW113476   4.251   4.071   2.257
  849SOL    HW213477   4.145   4.002   2.361
  850SOL     OW13478   1.939   2.178   1.286
  850SOL    HW113479   2.018   2.237   1.267
  850SOL    HW213480   1.909   2.190   1.380
  851SOL     OW13481   0.696   3.467   2.616
  851SOL    HW113482   0.627   3.395   2.605
  851SOL    HW213483   0.734   3.490   2.526
  852SOL     OW13484   3.333   3.401   3.636
  852SOL    HW113485   3.401   3.475   3.630
  852SOL    HW213486   3.350   3.346   3.717
  853SOL     OW13487   4.872   9.260   1.860
  853SOL    HW113488   4.869   9.194   1.935
  853SOL    HW213489   4.967   9.275   1.833
  854SOL     OW13490   0.036   1.684   2.459
  854SOL    HW113491   9.982   1.757   2.500
  854SOL    HW213492   0.124   1.720   2.429
  855SOL     OW13493   4.207   9.688   5.147
  855SOL    HW113494   4.153   9.605   5.129
  855SOL    HW213495   4.300   9.662   5.170
  856SOL     OW13496   2.490   4.123   0.413
  856SOL    HW113497   2.420   4.193   0.428
  856SOL    HW213498   2.452   4.033   0.435
  857SOL     OW13499   1.724   9.226   1.542
  857SOL    HW113500   1.670   9.311   1.543
  857SOL    HW213501   1.699   9.170   1.621
  858SOL     OW13502   0.284   1.633   0.131
  858SOL    HW113503   0.335   1.553   0.098
  858SOL    HW213504   0.322   1.662   0.219
  859SOL     OW13505   5.815   0.315   1.053
  859SOL    HW113506   5.900   0.361   1.076
  859SOL    HW213507   5.774   0.358   0.972
  860SOL     OW13508   4.703   4.472   1.617
  860SOL    HW113509   4.631   4.522   1.569
  860SOL    HW213510   4.668   4.384   1.649
  861SOL     OW13511   4.735   6.360   2.624
  861SOL    HW113512   4.814   6.298   2.629
  861SOL    HW213513   4.689   6.361   2.713
  862SOL     OW13514   1.942   4.352   0.145
  862SOL    HW113515   1.955   4.284   0.073
  862SOL    HW213516   1.858   4.403   0.128
  863SOL     OW13517   2.407   9.714   4.073
  863SOL    HW113518   2.366   9.623   4.079
  863SOL    HW213519   2.337   9.784   4.089
  864SOL     OW13520   2.556   6.133   0.837
  864SOL    HW113521   2.459   6.113   0.850
  864SOL    HW213522   2.597   6.156   0.925
  865SOL     OW13523   9.998   1.781   1.367
  865SOL    HW113524   9.945   1.823   1.440
  865SOL    HW213525   0.058   1.849   1.325
  866SOL     OW13526   3.284   6.422   2.970
  866SOL    HW113527   3.299   6.370   2.886
  866SOL    HW213528   3.340   6.383   3.044
  867SOL     OW13529   3.722   5.719   4.034
  867SOL    HW113530   3.761   5.635   4.071
  867SOL    HW213531   3.628   5.729   4.066
  868SOL     OW13532   8.629   1.500   4.760
  868SOL    HW113533   8.692   1.424   4.771
  868SOL    HW213534   8.680   1.582   4.734
  869SOL     OW13535   8.595   7.740   0.215
  869SOL    HW113536   8.637   7.830   0.201
  869SOL    HW213537   8.658   7.669   0.184
  870SOL     OW13538   0.268   2.141   4.707
  870SOL    HW113539   0.186   2.140   4.764
  870SOL    HW213540   0.280   2.050   4.666
  871SOL     OW13541   9.170   4.862   1.528
  871SOL    HW113542   9.232   4.923   1.577
  871SOL    HW213543   9.084   4.909   1.510
  872SOL     OW13544   8.620   0.244   4.414
  872SOL    HW113545   8.693   0.301   4.376
  872SOL    HW213546   8.565   0.299   4.478
  873SOL     OW13547   2.872   7.807   4.641
  873SOL    HW113548   2.791   7.799   4.699
  873SOL    HW213549   2.932   7.880   4.676
  874SOL     OW13550   7.100   3.411   1.029
  874SOL    HW113551   7.067   3.321   1.057
  874SOL    HW213552   7.132   3.406   0.934
  875SOL     OW13553   9.305   4.882   4.671
  875SOL    HW113554   9.391   4.853   4.714
  875SOL    HW213555   9.287   4.977   4.694
  876SOL     OW13556   3.187   9.526   1.703
  876SOL    HW113557   3.210   9.594   1.772
  876SOL    HW213558   3.260   9.457   1.699
  877SOL     OW13559   8.406   9.654   3.113
  877SOL    HW113560   8.462   9.574   3.133
  877SOL    HW213561   8.344   9.633   3.037
  878SOL     OW13562   8.919   3.782   3.329
  878SOL    HW113563   8.934   3.878   3.351
  878SOL    HW213564   8.858   3.741   3.398
  879SOL     OW13565   3.178   9.610   4.999
  879SOL    HW113566   3.094   9.662   5.009
  879SOL    HW213567   3.156   9.514   4.981
  880SOL     OW13568   2.630   2.775   1.251
  880SOL    HW113569   2.624   2.871   1.280
  880SOL    HW213570   2.723   2.755   1.220
  881SOL     OW13571   2.143   4.317   4.171
  881SOL    HW113572   2.072   4.312   4.100
  881SOL    HW213573   2.106   4.281   4.256
  882SOL     OW13574   3.915   1.145   4.955
  882SOL    HW113575   3.822   1.174   4.933
  882SOL    HW213576   3.962   1.216   5.006
  883SOL     OW13577   3.429   4.516   1.006
  883SOL    HW113578   3.354   4.522   0.940
  883SOL    HW213579   3.474   4.427   0.997
  884SOL     OW13580   9.270   1.190   2.094
  884SOL    HW113581   9.277   1.283   2.130
  884SOL    HW213582   9.268   1.194   1.994
  885SOL     OW13583   1.010   6.710   2.010
  885SOL    HW113584   1.107   6.695   2.024
  885SOL    HW213585   0.985   6.685   1.916
  886SOL     OW13586   0.742   3.924   0.611
  886SOL    HW113587   0.781   3.883   0.528
  886SOL    HW213588   0.768   3.870   0.691
  887SOL     OW13589   0.409   6.126   2.549
  887SOL    HW113590   0.469   6.046   2.557
  887SOL    HW213591   0.463   6.209   2.561
  888SOL     OW13592   4.312   1.995   0.767
  888SOL    HW113593   4.383   2.054   0.729
  888SOL    HW213594   4.297   2.018   0.863
  889SOL     OW13595   2.278   8.381   1.398
  889SOL    HW113596   2.322   8.413   1.482
  889SOL    HW213597   2.255   8.459   1.341
  890SOL     OW13598   9.969   7.037   2.167
  890SOL    HW113599   9.950   6.945   2.134
  890SOL    HW213600   9.965   7.101   2.090
  891SOL     OW13601   2.144   1.202   1.718
  891SOL    HW113602   2.230   1.233   1.677
  891SOL    HW213603   2.164   1.134   1.789
  892SOL     OW13604   9.694   7.157   2.625
  892SOL    HW113605   9.727   7.243   2.665
  892SOL    HW213606   9.743   7.139   2.540
  893SOL     OW13607   1.825   4.875   0.738
  893SOL    HW113608   1.893   4.939   0.702
  893SOL    HW213609   1.759   4.924   0.794
  894SOL     OW13610   5.942   0.555   0.626
  894SOL    HW113611   6.004   0.560   0.548
  894SOL    HW213612   5.993   0.532   0.709
  895SOL     OW13613   7.385   0.211   3.536
  895SOL    HW113614   7.373   0.305   3.568
  895SOL    HW213615   7.366   0.206   3.438
  896SOL     OW13616   5.805   9.428   3.689
  896SOL    HW113617   5.718   9.380   3.700
  896SOL    HW213618   5.869   9.400   3.761
  897SOL     OW13619   2.248   2.949   2.006
  897SOL    HW113620   2.215   2.861   2.042
  897SOL    HW213621   2.310   2.991   2.073
  898SOL     OW13622   1.615   0.154   0.222
  898SOL    HW113623   1.519   0.128   0.217
  898SOL    HW213624   1.667   0.083   0.271
  899SOL     OW13625   1.153   2.758   3.764
  899SOL    HW113626   1.075   2.764   3.826
  899SOL    HW213627   1.131   2.802   3.677
  900SOL     OW13628   7.165   5.066   1.281
  900SOL    HW113629   7.078   5.018   1.286
  900SOL    HW213630   7.155   5.158   1.319
  901SOL     OW13631   6.408   7.991   5.007
  901SOL    HW113632   6.440   8.080   5.040
  901SOL    HW213633   6.466   7.919   5.046
  902SOL     OW13634   2.432   4.718   4.537
  902SOL    HW113635   2.341   4.753   4.557
  902SOL    HW213636   2.497   4.794   4.534
  903SOL     OW13637   9.556   2.645   0.367
  903SOL    HW113638   9.652   2.620   0.358
  903SOL    HW213639   9.548   2.744   0.380
  904SOL     OW13640   0.687   7.478   0.718
  904SOL    HW113641   0.732   7.550   0.664
  904SOL    HW213642   0.646   7.411   0.657
  905SOL     OW13643   8.191   4.981   0.925
  905SOL    HW113644   8.136   4.908   0.883
  905SOL    HW213645   8.183   5.065   0.871
  906SOL     OW13646   4.482   6.961   3.766
  906SOL    HW113647   4.391   6.922   3.775
  906SOL    HW213648   4.540   6.928   3.840
  907SOL     OW13649   5.704   2.664   3.931
  907SOL    HW113650   5.690   2.706   3.841
  907SOL    HW213651   5.717   2.735   4.000
  908SOL     OW13652   7.377   4.008   0.688
  908SOL    HW113653   7.379   3.935   0.756
  908SOL    HW213654   7.467   4.051   0.683
  909SOL     OW13655   5.877   1.546   2.287
  909SOL    HW113656   5.928   1.486   2.348
  909SOL    HW213657   5.779   1.523   2.291
  910SOL     OW13658   2.756   6.478   1.852
  910SOL    HW113659   2.828   6.432   1.800
  910SOL    HW213660   2.797   6.524   1.931
  911SOL     OW13661   0.775   6.031   4.592
  911SOL    HW113662   0.792   6.129   4.580
  911SOL    HW213663   0.678   6.015   4.606
  912SOL     OW13664   3.644   2.377   2.101
  912SOL    HW113665   3.731   2.353   2.058
  912SOL    HW213666   3.593   2.294   2.122
  913SOL     OW13667   6.107   8.472   2.014
  913SOL    HW113668   6.182   8.410   2.035
  913SOL    HW213669   6.128   8.563   2.050
  914SOL     OW13670   0.787   8.372   2.901
  914SOL    HW113671   0.722   8.357   2.976
  914SOL    HW213672   0.765   8.458   2.855
  915SOL     OW13673   0.975   4.643   2.475
  915SOL    HW113674   0.898   4.694   2.515
  915SOL    HW213675   0.957   4.545   2.480
  916SOL     OW13676   2.486   3.050   3.103
  916SOL    HW113677   2.419   2.977   3.090
  916SOL    HW213678   2.438   3.138   3.109
  917SOL     OW13679   9.181   2.465   4.782
  917SOL    HW113680   9.195   2.408   4.864
  917SOL    HW213681   9.201   2.411   4.701
  918SOL     OW13682   8.740   2.375   3.930
  918SOL    HW113683   8.800   2.409   4.002
  918SOL    HW213684   8.721   2.449   3.865
  919SOL     OW13685   9.601   0.050   4.985
  919SOL    HW113686   9.502   0.054   4.977
  919SOL    HW213687   9.631   9.955   4.974
  920SOL     OW13688   0.221   5.949   1.864
  920SOL    HW113689   0.191   5.854   1.873
  920SOL    HW213690   0.175   5.992   1.786
  921SOL     OW13691   7.116   1.096   0.947
  921SOL    HW113692   7.101   1.119   0.851
  921SOL    HW213693   7.210   1.063   0.959
  922SOL     OW13694   1.955   5.768   1.026
  922SOL    HW113695   1.956   5.677   1.068
  922SOL    HW213696   2.003   5.765   0.938
  923SOL     OW13697   3.189   3.213   0.392
  923SOL    HW113698   3.284   3.225   0.418
  923SOL    HW213699   3.129   3.245   0.465
  924SOL     OW13700   9.634   0.740   1.131
  924SOL    HW113701   9.637   0.764   1.034
  924SOL    HW213702   9.544   0.703   1.154
  925SOL     OW13703   2.597   7.825   3.608
  925SOL    HW113704   2.645   7.886   3.671
  925SOL    HW213705   2.625   7.845   3.515
  926SOL     OW13706   7.211   1.854   2.144
  926SOL    HW113707   7.260   1.932   2.105
  926SOL    HW213708   7.143   1.886   2.210
  927SOL     OW13709   9.058   0.641   3.760
  927SOL    HW113710   9.001   0.693   3.696
  927SOL    HW213711   9.124   0.586   3.709
  928SOL     OW13712   9.846   8.431   0.793
  928SOL    HW113713   9.841   8.452   0.890
  928SOL    HW213714   9.773   8.367   0.769
  929SOL     OW13715   1.744   1.034   2.686
  929SOL    HW113716   1.670   0.967   2.694
  929SOL    HW213717   1.808   1.003   2.616
  930SOL     OW13718   3.368   7.191   1.940
  930SOL    HW113719   3.424   7.212   2.020
  930SOL    HW213720   3.369   7.269   1.877
  931SOL     OW13721   4.277   3.437   3.177
  931SOL    HW113722   4.281   3.511   3.245
  931SOL    HW213723   4.280   3.477   3.085
  932SOL     OW13724   2.261   8.789   3.731
  932SOL    HW113725   2.359   8.800   3.714
  932SOL    HW213726   2.226   8.871   3.775
  933SOL     OW13727   5.943   0.835   4.773
  933SOL    HW113728   5.964   0.903   4.703
  933SOL    HW213729   5.957   0.743   4.735
  934SOL     OW13730   5.613   7.791   4.282
  934SOL    HW113731   5.595   7.847   4.363
  934SOL    HW213732   5.691   7.829   4.232
  935SOL     OW13733   2.044   5.810   1.295
  935SOL    HW113734   2.014   5.830   1.201
  935SOL    HW213735   2.063   5.896   1.343
  936SOL     OW13736   9.857   9.537   4.711
  936SOL    HW113737   9.923   9.551   4.637
  936SOL    HW213738   9.810   9.623   4.730
  937SOL     OW13739   2.830   8.416   4.061
  937SOL    HW113740   2.918   8.369   4.064
  937SOL    HW213741   2.775   8.391   4.140
  938SOL     OW13742   5.701   0.858   0.931
  938SOL    HW113743   5.790   0.823   0.902
  938SOL    HW213744   5.713   0.918   1.009
  939SOL     OW13745   2.703   2.119   0.081
  939SOL    HW113746   2.703   2.052   0.006
  939SOL    HW213747   2.621   2.176   0.073
  940SOL     OW13748   2.578   3.697   2.282
  940SOL    HW113749   2.510   3.638   2.237
  940SOL    HW213750   2.611   3.765   2.216
  941SOL     OW13751   0.993   1.606   0.331
  941SOL    HW113752   1.003   1.510   0.307
  941SOL    HW213753   0.900   1.624   0.362
  942SOL     OW13754   4.289   5.572   4.827
  942SOL    HW113755   4.193   5.588   4.806
  942SOL    HW213756   4.324   5.646   4.883
  943SOL     OW13757   1.354   6.592   4.139
  943SOL    HW113758   1.280   6.657   4.117
  943SOL    HW213759   1.316   6.500   4.143
  944SOL     OW13760   6.653   3.917   0.499
  944SOL    HW113761   6.681   3.983   0.569
  944SOL    HW213762   6.707   3.834   0.508
  945SOL     OW13763   4.949   2.654   3.221
  945SOL    HW113764   5.010   2.729   3.197
  945SOL    HW213765   4.995   2.567   3.202
  946SOL     OW13766   8.840   1.822   3.279
  946SOL    HW113767   8.764   1.758   3.270
  946SOL    HW213768   8.908   1.785   3.342
  947SOL     OW13769   4.080   2.234   1.420
  947SOL    HW113770   4.025   2.222   1.502
  947SOL    HW213771   4.085   2.332   1.397
  948SOL     OW13772   9.097   7.709   2.462
  948SOL    HW113773   9.030   7.754   2.521
  948SOL    HW213774   9.189   7.731   2.494
  949SOL     OW13775   0.694   6.075   6.740
  949SOL    HW113776   0.687   6.169   6.709
  949SOL    HW213777   0.767   6.068   0.060
  950SOL     OW13778   4.804   8.689   5.292
  950SOL    HW113779   4.900   8.674   5.266
  950SOL    HW213780   4.754   8.602   5.286
  951SOL     OW13781   2.438   6.459   3.553
  951SOL    HW113782   2.421   6.547   3.508
  951SOL    HW213783   2.465   6.391   3.485
  952SOL     OW13784   3.085   2.953   1.177
  952SOL    HW113785   3.096   3.033   1.118
  952SOL    HW213786   3.169   2.898   1.173
  953SOL     OW13787   6.477   9.269   4.288
  953SOL    HW113788   6.411   9.343   4.271
  953SOL    HW213789   6.569   9.301   4.267
  954SOL     OW13790   3.272   7.814   0.459
  954SOL    HW113791   3.176   7.829   0.435
  954SOL    HW213792   3.280   7.799   0.558
  955SOL     OW13793   4.004   4.834   3.936
  955SOL    HW113794   3.996   4.829   4.035
  955SOL    HW213795   3.922   4.796   3.893
  956SOL     OW13796   6.368   0.828   4.395
  956SOL    HW113797   6.390   0.844   4.299
  956SOL    HW213798   6.270   0.842   4.410
  957SOL     OW13799   2.796   7.975   1.168
  957SOL    HW113800   2.699   7.953   1.178
  957SOL    HW213801   2.832   7.932   1.085
  958SOL     OW13802   7.599   1.466   0.454
  958SOL    HW113803   7.587   1.428   0.546
  958SOL    HW213804   7.623   1.562   0.460
  959SOL     OW13805   4.756   3.554   0.620
  959SOL    HW113806   4.827   3.494   0.584
  959SOL    HW213807   4.724   3.519   0.708
  960SOL     OW13808   5.194   0.714   4.469
  960SOL    HW113809   5.276   0.656   4.476
  960SOL    HW213810   5.202   0.791   4.533
  961SOL     OW13811   4.642   0.869   1.372
  961SOL    HW113812   4.624   0.779   1.335
  961SOL    HW213813   4.733   0.900   1.344
  962SOL     OW13814   5.727   1.583   2.690
  962SOL    HW113815   5.668   1.521   2.639
  962SOL    HW213816   5.735   1.669   2.640
  963SOL     OW13817   5.798   4.913   0.244
  963SOL    HW113818   5.776   4.858   0.163
  963SOL    HW213819   5.745   4.881   0.322
  964SOL     OW13820   7.549   2.053   4.447
  964SOL    HW113821   7.587   2.057   4.540
  964SOL    HW213822   7.532   2.145   4.414
  965SOL     OW13823   6.894   9.301   2.235
  965SOL    HW113824   6.906   9.206   2.263
  965SOL    HW213825   6.970   9.328   2.175
  966SOL     OW13826   5.068   6.141   1.057
  966SOL    HW113827   5.147   6.169   1.111
  966SOL    HW213828   5.098   6.112   0.966
  967SOL     OW13829   1.895   9.452   3.740
  967SOL    HW113830   1.816   9.419   3.792
  967SOL    HW213831   1.879   9.546   3.710
  968SOL     OW13832   5.286   9.926   5.193
  968SOL    HW113833   5.332   9.972   5.118
  968SOL    HW213834   5.337   9.940   5.278
  969SOL     OW13835   9.680   9.916   0.994
  969SOL    HW113836   9.596   9.862   1.001
  969SOL    HW213837   9.690   9.974   1.075
  970SOL     OW13838   8.705   3.490   3.212
  970SOL    HW113839   8.747   3.563   3.158
  970SOL    HW213840   8.655   3.428   3.151
  971SOL     OW13841   2.641   6.797   4.292
  971SOL    HW113842   2.599   6.741   4.221
  971SOL    HW213843   2.582   6.799   4.373
  972SOL     OW13844   2.622   8.310   2.180
  972SOL    HW113845   2.689   8.250   2.224
  972SOL    HW213846   2.593   8.269   2.093
  973SOL     OW13847   9.701   8.083   3.870
  973SOL    HW113848   9.788   8.120   3.903
  973SOL    HW213849   9.630   8.153   3.877
  974SOL     OW13850   6.861   9.310   2.936
  974SOL    HW113851   6.788   9.310   2.868
  974SOL    HW213852   6.929   9.379   2.911
  975SOL     OW13853   9.716   9.813   1.623
  975SOL    HW113854   9.716   9.724   1.577
  975SOL    HW213855   9.707   9.800   1.722
  976SOL     OW13856   1.696   6.704   3.158
  976SOL    HW113857   1.691   6.626   3.095
  976SOL    HW213858   1.725   6.785   3.109
  977SOL     OW13859   3.390   8.449   1.928
  977SOL    HW113860   3.306   8.440   1.981
  977SOL    HW213861   3.465   8.404   1.976
  978SOL     OW13862   4.578   0.370   0.555
  978SOL    HW113863   4.580   0.417   0.467
  978SOL    HW213864   4.553   0.274   0.542
  979SOL     OW13865   3.448   9.543   2.305
  979SOL    HW113866   3.531   9.488   2.311
  979SOL    HW213867   3.462   9.630   2.353
  980SOL     OW13868   3.348   6.527   1.815
  980SOL    HW113869   3.428   6.542   1.873
  980SOL    HW213870   3.326   6.611   1.766
  981SOL     OW13871   0.537   0.380   0.832
  981SOL    HW113872   0.549   0.414   0.738
  981SOL    HW213873   0.606   0.421   0.891
  982SOL     OW13874   3.406   5.165   3.832
  982SOL    HW113875   3.430   5.201   3.922
  982SOL    HW213876   3.414   5.066   3.832
  983SOL     OW13877   8.508   6.821   1.836
  983SOL    HW113878   8.448   6.827   1.756
  983SOL    HW213879   8.458   6.782   1.913
  984SOL     OW13880   8.937   5.878   3.768
  984SOL    HW113881   8.983   5.829   3.694
  984SOL    HW213882   8.922   5.815   3.845
  985SOL     OW13883   3.996   9.943   2.342
  985SOL    HW113884   4.035   0.035   2.352
  985SOL    HW213885   4.068   9.875   2.356
  986SOL     OW13886   8.717   5.460   1.655
  986SOL    HW113887   8.744   5.503   1.741
  986SOL    HW213888   8.747   5.517   1.579
  987SOL     OW13889   4.694   7.072   2.826
  987SOL    HW113890   4.641   7.040   2.905
  987SOL    HW213891   4.642   7.141   2.777
  988SOL     OW13892   4.669   9.123   3.410
  988SOL    HW113893   4.621   9.142   3.324
  988SOL    HW213894   4.611   9.067   3.469
  989SOL     OW13895   2.088   3.681   0.953
  989SOL    HW113896   1.993   3.672   0.924
  989SOL    HW213897   2.137   3.740   0.888
  990SOL     OW13898   2.922   8.008   2.747
  990SOL    HW113899   2.845   8.049   2.697
  990SOL    HW213900   2.910   8.023   2.845
  991SOL     OW13901   0.638   7.999   3.255
  991SOL    HW113902   0.621   8.025   3.160
  991SOL    HW213903   0.605   8.072   3.316
  992SOL     OW13904   6.086   1.674   4.067
  992SOL    HW113905   6.028   1.703   3.992
  992SOL    HW213906   6.091   1.575   4.070
  993SOL     OW13907   6.558   0.189   1.727
  993SOL    HW113908   6.555   0.186   1.827
  993SOL    HW213909   6.570   0.096   1.691
  994SOL     OW13910   2.325   4.529   2.181
  994SOL    HW113911   2.422   4.524   2.155
  994SOL    HW213912   2.285   4.612   2.144
  995SOL     OW13913   0.175   9.137   0.503
  995SOL    HW113914   0.144   9.087   0.584
  995SOL    HW213915   0.131   9.098   0.421
  996SOL     OW13916   3.145   0.936   3.592
  996SOL    HW113917   3.058   0.954   3.546
  996SOL    HW213918   3.132   0.943   3.691
  997SOL     OW13919   4.012   8.668   3.953
  997SOL    HW113920   3.950   8.592   3.972
  997SOL    HW213921   4.103   8.633   3.933
  998SOL     OW13922   0.476   1.955   1.016
  998SOL    HW113923   0.523   1.991   1.096
  998SOL    HW213924   0.377   1.958   1.031
  999SOL     OW13925   1.993   3.327   1.234
  999SOL    HW113926   1.943   3.363   1.155
  999SOL    HW213927   2.065   3.391   1.260
 1000SOL     OW13928   5.078   5.555   1.320
 1000SOL    HW113929   5.056   5.644   1.360
 1000SOL    HW213930   5.159   5.518   1.364
 1001SOL     OW13931   7.646   8.260   4.984
 1001SOL    HW113932   7.625   8.274   4.887
 1001SOL    HW213933   7.653   8.349   5.029
 1002SOL     OW13934   3.136   8.427   4.472
 1002SOL    HW113935   3.226   8.458   4.502
 1002SOL    HW213936   3.118   8.459   4.379
 1003SOL     OW13937   8.264   8.370   5.201
 1003SOL    HW113938   8.319   8.312   5.141
 1003SOL    HW213939   8.302   8.368   5.294
 1004SOL     OW13940   0.629   5.428   0.258
 1004SOL    HW113941   0.672   5.346   0.297
 1004SOL    HW213942   0.534   5.432   0.288
 1005SOL     OW13943   4.813   0.500   2.786
 1005SOL    HW113944   4.715   0.478   2.787
 1005SOL    HW213945   4.855   0.466   2.870
 1006SOL     OW13946   2.303   8.281   2.617
 1006SOL    HW113947   2.256   8.202   2.576
 1006SOL    HW213948   2.327   8.346   2.545
 1007SOL     OW13949   3.760   9.521   3.001
 1007SOL    HW113950   3.840   9.466   3.023
 1007SOL    HW213951   3.757   9.601   3.061
 1008SOL     OW13952   1.201   6.799   2.946
 1008SOL    HW113953   1.294   6.810   2.979
 1008SOL    HW213954   1.202   6.784   2.847
 1009SOL     OW13955   5.117   9.722   3.183
 1009SOL    HW113956   5.141   9.672   3.099
 1009SOL    HW213957   5.191   9.711   3.249
 1010SOL     OW13958   0.820   9.887   3.317
 1010SOL    HW113959   0.866   9.955   3.260
 1010SOL    HW213960   0.726   9.915   3.334
 1011SOL     OW13961   5.125   4.439   3.064
 1011SOL    HW113962   5.031   4.406   3.058
 1011SOL    HW213963   5.129   4.520   3.122
 1012SOL     OW13964   3.084   5.423   4.324
 1012SOL    HW113965   3.149   5.495   4.348
 1012SOL    HW213966   3.132   5.349   4.277
 1013SOL     OW13967   1.793   6.026   0.778
 1013SOL    HW113968   1.763   5.994   0.868
 1013SOL    HW213969   1.763   6.120   0.764
 1014SOL     OW13970   9.519   2.862   4.387
 1014SOL    HW113971   9.614   2.843   4.412
 1014SOL    HW213972   9.509   2.860   4.288
 1015SOL     OW13973   8.669   1.858   1.031
 1015SOL    HW113974   8.667   1.817   0.940
 1015SOL    HW213975   8.759   1.844   1.072
 1016SOL     OW13976   1.504   6.710   1.235
 1016SOL    HW113977   1.458   6.769   1.302
 1016SOL    HW213978   1.529   6.764   1.155
 1017SOL     OW13979   1.070   8.320   1.376
 1017SOL    HW113980   1.101   8.242   1.321
 1017SOL    HW213981   1.149   8.360   1.423
 1018SOL     OW13982   7.357   3.508   1.088
 1018SOL    HW113983   7.261   3.480   1.075
 1018SOL    HW213984   7.361   3.583   1.155
 1019SOL     OW13985   1.605   9.108   6.741
 1019SOL    HW113986   1.533   9.177   6.743
 1019SOL    HW213987   1.694   9.154   6.734
 1020SOL     OW13988   3.498   0.293   4.494
 1020SOL    HW113989   3.530   0.308   4.588
 1020SOL    HW213990   3.484   0.196   4.478
 1021SOL     OW13991   9.322   8.282   2.346
 1021SOL    HW113992   9.307   8.345   2.270
 1021SOL    HW213993   9.420   8.279   2.367
 1022SOL     OW13994   0.248   8.258   2.833
 1022SOL    HW113995   0.287   8.170   2.863
 1022SOL    HW213996   0.314   8.331   2.850
 1023SOL     OW13997   0.191   5.900   4.116
 1023SOL    HW113998   0.156   5.986   4.079
 1023SOL    HW213999   0.164   5.825   4.055
 1024SOL     OW14000   9.839   1.676   1.633
 1024SOL    HW114001   9.885   1.588   1.617
 1024SOL    HW214002   9.779   1.668   1.712
 1025SOL     OW14003   9.517   1.677   4.851
 1025SOL    HW114004   9.542   1.697   4.946
 1025SOL    HW214005   9.599   1.676   4.794
 1026SOL     OW14006   8.986   9.465   0.172
 1026SOL    HW114007   8.889   9.474   0.149
 1026SOL    HW214008   9.013   9.369   0.166
 1027SOL     OW14009   7.320   0.061   5.113
 1027SOL    HW114010   7.377   0.143   5.103
 1027SOL    HW214011   7.377   9.979   5.101
 1028SOL     OW14012   8.525   9.523   4.688
 1028SOL    HW114013   8.485   9.540   4.598
 1028SOL    HW214014   8.454   9.529   4.758
 1029SOL     OW14015   0.474   9.907   2.855
 1029SOL    HW114016   0.399   9.965   2.825
 1029SOL    HW214017   0.437   9.824   2.898
 1030SOL     OW14018   0.923   1.668   4.480
 1030SOL    HW114019   1.014   1.630   4.498
 1030SOL    HW214020   0.887   1.630   4.395
 1031SOL     OW14021   2.834   6.838   2.981
 1031SOL    HW114022   2.880   6.766   3.033
 1031SOL    HW214023   2.788   6.797   2.902
 1032SOL     OW14024   0.697   5.474   3.420
 1032SOL    HW114025   0.691   5.481   3.320
 1032SOL    HW214026   0.621   5.525   3.461
 1033SOL     OW14027   2.165   1.374   5.257
 1033SOL    HW114028   2.232   1.426   5.204
 1033SOL    HW214029   2.073   1.393   5.223
 1034SOL     OW14030   8.827   8.506   1.557
 1034SOL    HW114031   8.919   8.542   1.575
 1034SOL    HW214032   8.759   8.572   1.589
 1035SOL     OW14033   1.955   0.453   0.401
 1035SOL    HW114034   2.040   0.463   0.454
 1035SOL    HW214035   1.899   0.534   0.413
 1036SOL     OW14036   1.557   7.323   0.535
 1036SOL    HW114037   1.542   7.250   0.603
 1036SOL    HW214038   1.519   7.409   0.569
 1037SOL     OW14039   0.632   1.949   0.118
 1037SOL    HW114040   0.643   1.857   0.082
 1037SOL    HW214041   0.574   1.946   0.200
 1038SOL     OW14042   3.524   8.269   5.057
 1038SOL    HW114043   3.501   8.221   4.972
 1038SOL    HW214044   3.525   8.203   5.133
 1039SOL     OW14045   0.720   0.003   0.040
 1039SOL    HW114046   0.623   0.004   0.064
 1039SOL    HW214047   0.774   0.041   0.115
 1040SOL     OW14048   4.413   7.322   3.305
 1040SOL    HW114049   4.373   7.381   3.235
 1040SOL    HW214050   4.430   7.376   3.388
 1041SOL     OW14051   4.308   8.174   3.697
 1041SOL    HW114052   4.247   8.213   3.629
 1041SOL    HW214053   4.358   8.097   3.658
 1042SOL     OW14054   5.151   9.915   1.771
 1042SOL    HW114055   5.127   9.956   1.859
 1042SOL    HW214056   5.071   9.917   1.710
 1043SOL     OW14057   1.067   6.308   1.934
 1043SOL    HW114058   0.999   6.310   1.861
 1043SOL    HW214059   1.033   6.360   2.013
 1044SOL     OW14060   6.914   9.193   4.716
 1044SOL    HW114061   6.945   9.281   4.752
 1044SOL    HW214062   6.850   9.209   4.640
 1045SOL     OW14063   3.426   1.270   1.944
 1045SOL    HW114064   3.477   1.198   1.898
 1045SOL    HW214065   3.487   1.320   2.006
 1046SOL     OW14066   0.244   3.533   0.999
 1046SOL    HW114067   0.302   3.612   0.978
 1046SOL    HW214068   0.175   3.522   0.927
 1047SOL     OW14069   7.522   1.573   4.933
 1047SOL    HW114070   7.605   1.625   4.950
 1047SOL    HW214071   7.517   1.547   4.837
 1048SOL     OW14072   9.249   3.482   2.162
 1048SOL    HW114073   9.305   3.421   2.218
 1048SOL    HW214074   9.298   3.568   2.147
 1049SOL     OW14075   9.572   8.762   2.881
 1049SOL    HW114076   9.646   8.695   2.874
 1049SOL    HW214077   9.568   8.798   2.975
 1050SOL     OW14078   9.606   8.092   3.354
 1050SOL    HW114079   9.705   8.101   3.354
 1050SOL    HW214080   9.580   8.010   3.405
 1051SOL     OW14081   7.078   2.520   4.094
 1051SOL    HW114082   7.120   2.543   4.182
 1051SOL    HW214083   7.142   2.465   4.041
 1052SOL     OW14084   8.207   8.098   4.425
 1052SOL    HW114085   8.204   7.998   4.433
 1052SOL    HW214086   8.124   8.138   4.464
 1053SOL     OW14087   6.815   1.926   1.016
 1053SOL    HW114088   6.828   1.830   1.043
 1053SOL    HW214089   6.894   1.980   1.043
 1054SOL     OW14090   4.737   6.508   1.737
 1054SOL    HW114091   4.724   6.421   1.689
 1054SOL    HW214092   4.831   6.513   1.770
 1055SOL     OW14093   8.828   5.124   1.159
 1055SOL    HW114094   8.858   5.033   1.186
 1055SOL    HW214095   8.864   5.145   1.068
 1056SOL     OW14096   5.142   9.345   4.480
 1056SOL    HW114097   5.068   9.281   4.502
 1056SOL    HW214098   5.106   9.419   4.424
 1057SOL     OW14099   8.766   8.497   3.351
 1057SOL    HW114100   8.744   8.401   3.369
 1057SOL    HW214101   8.767   8.513   3.252
 1058SOL     OW14102   3.367   7.559   2.681
 1058SOL    HW114103   3.337   7.566   2.586
 1058SOL    HW214104   3.466   7.573   2.685
 1059SOL     OW14105   1.576   5.005   3.380
 1059SOL    HW114106   1.567   4.954   3.465
 1059SOL    HW214107   1.556   4.945   3.303
 1060SOL     OW14108   9.279   1.456   2.185
 1060SOL    HW114109   9.289   1.550   2.154
 1060SOL    HW214110   9.185   1.442   2.218
 1061SOL     OW14111   8.718   8.045   4.040
 1061SOL    HW114112   8.658   8.032   4.119
 1061SOL    HW214113   8.747   7.955   4.006
 1062SOL     OW14114   9.787   8.386   4.556
 1062SOL    HW114115   9.805   8.426   4.466
 1062SOL    HW214116   9.802   8.287   4.551
 1063SOL     OW14117   1.159   5.749   2.188
 1063SOL    HW114118   1.071   5.757   2.142
 1063SOL    HW214119   1.232   5.739   2.120
 1064SOL     OW14120   1.790   9.985   0.378
 1064SOL    HW114121   1.839   0.071   0.396
 1064SOL    HW214122   1.856   9.911   0.364
 1065SOL     OW14123   8.332   5.344   1.734
 1065SOL    HW114124   8.257   5.278   1.724
 1065SOL    HW214125   8.373   5.334   1.825
 1066SOL     OW14126   6.644   8.633   4.033
 1066SOL    HW114127   6.727   8.577   4.036
 1066SOL    HW214128   6.570   8.584   4.079
 1067SOL     OW14129   5.060   1.947   2.842
 1067SOL    HW114130   5.106   2.036   2.844
 1067SOL    HW214131   5.029   1.924   2.934
 1068SOL     OW14132   9.788   3.994   1.207
 1068SOL    HW114133   9.849   3.991   1.127
 1068SOL    HW214134   9.833   4.046   1.280
 1069SOL     OW14135   3.446   2.645   3.493
 1069SOL    HW114136   3.522   2.634   3.557
 1069SOL    HW214137   3.359   2.634   3.542
 1070SOL     OW14138   4.659   3.814   4.226
 1070SOL    HW114139   4.732   3.821   4.158
 1070SOL    HW214140   4.693   3.767   4.307
 1071SOL     OW14141   3.981   1.275   4.220
 1071SOL    HW114142   4.053   1.294   4.287
 1071SOL    HW214143   3.938   1.361   4.193
 1072SOL     OW14144   8.140   9.566   4.552
 1072SOL    HW114145   8.094   9.646   4.592
 1072SOL    HW214146   8.138   9.491   4.618
 1073SOL     OW14147   3.207   1.849   2.601
 1073SOL    HW114148   3.236   1.790   2.676
 1073SOL    HW214149   3.202   1.943   2.632
 1074SOL     OW14150   8.168   3.322   3.382
 1074SOL    HW114151   8.132   3.412   3.356
 1074SOL    HW214152   8.185   3.268   3.300
 1075SOL     OW14153   4.853   2.732   5.173
 1075SOL    HW114154   4.766   2.765   5.137
 1075SOL    HW214155   4.852   2.739   5.273
 1076SOL     OW14156   1.596   8.012   5.232
 1076SOL    HW114157   1.525   8.054   5.289
 1076SOL    HW214158   1.658   8.083   5.198
 1077SOL     OW14159   6.631   9.392   2.210
 1077SOL    HW114160   6.727   9.364   2.215
 1077SOL    HW214161   6.623   9.487   2.241
 1078SOL     OW14162   0.322   4.449   5.018
 1078SOL    HW114163   0.227   4.432   4.992
 1078SOL    HW214164   0.343   4.400   5.103
 1079SOL     OW14165   9.378   4.300   2.941
 1079SOL    HW114166   9.399   4.204   2.955
 1079SOL    HW214167   9.318   4.310   2.862
 1080SOL     OW14168   0.278   6.438   3.079
 1080SOL    HW114169   0.287   6.346   3.116
 1080SOL    HW214170   0.349   6.497   3.118
 1081SOL     OW14171   7.509   0.859   3.080
 1081SOL    HW114172   7.411   0.849   3.096
 1081SOL    HW214173   7.547   0.922   3.148
 1082SOL     OW14174   0.547   4.027   3.861
 1082SOL    HW114175   0.598   4.099   3.813
 1082SOL    HW214176   0.569   3.938   3.821
 1083SOL     OW14177   4.821   1.773   4.300
 1083SOL    HW114178   4.898   1.830   4.330
 1083SOL    HW214179   4.795   1.798   4.207
 1084SOL     OW14180   2.474   1.555   3.052
 1084SOL    HW114181   2.543   1.492   3.088
 1084SOL    HW214182   2.425   1.511   2.976
 1085SOL     OW14183   7.920   5.872   3.495
 1085SOL    HW114184   7.890   5.884   3.590
 1085SOL    HW214185   7.920   5.961   3.449
 1086SOL     OW14186   8.410   8.625   2.677
 1086SOL    HW114187   8.500   8.590   2.650
 1086SOL    HW214188   8.406   8.630   2.777
 1087SOL     OW14189   2.992   4.246   0.402
 1087SOL    HW114190   2.940   4.168   0.436
 1087SOL    HW214191   3.089   4.224   0.402
 1088SOL     OW14192   0.936   6.974   0.281
 1088SOL    HW114193   0.992   7.043   0.327
 1088SOL    HW214194   0.881   6.925   0.349
 1089SOL     OW14195   0.850   7.069   2.278
 1089SOL    HW114196   0.821   7.164   2.273
 1089SOL    HW214197   0.846   7.038   2.373
 1090SOL     OW14198   8.536   2.287   4.247
 1090SOL    HW114199   8.480   2.206   4.230
 1090SOL    HW214200   8.483   2.370   4.229
 1091SOL     OW14201   8.579   0.941   4.443
 1091SOL    HW114202   8.524   1.003   4.498
 1091SOL    HW214203   8.656   0.906   4.497
 1092SOL     OW14204   4.112   8.118   3.014
 1092SOL    HW114205   4.046   8.069   3.070
 1092SOL    HW214206   4.149   8.056   2.944
 1093SOL     OW14207   6.564   1.489   3.499
 1093SOL    HW114208   6.498   1.417   3.476
 1093SOL    HW214209   6.624   1.506   3.421
 1094SOL     OW14210   4.500   8.337   2.120
 1094SOL    HW114211   4.504   8.417   2.180
 1094SOL    HW214212   4.408   8.299   2.121
 1095SOL     OW14213   1.987   2.042   0.312
 1095SOL    HW114214   2.069   2.056   0.256
 1095SOL    HW214215   2.011   2.047   0.409
 1096SOL     OW14216   4.329   8.800   0.990
 1096SOL    HW114217   4.383   8.870   0.942
 1096SOL    HW214218   4.310   8.831   1.083
 1097SOL     OW14219   8.395   8.717   2.947
 1097SOL    HW114220   8.381   8.799   2.891
 1097SOL    HW214221   8.461   8.737   3.019
 1098SOL     OW14222   9.125   6.788   3.108
 1098SOL    HW114223   9.083   6.837   3.185
 1098SOL    HW214224   9.055   6.771   3.038
 1099SOL     OW14225   8.295   8.920   4.204
 1099SOL    HW114226   8.325   8.824   4.210
 1099SOL    HW214227   8.375   8.978   4.192
 1100SOL     OW14228   8.899   8.205   5.015
 1100SOL    HW114229   8.804   8.187   4.990
 1100SOL    HW214230   8.937   8.123   5.059
 1101SOL     OW14231   3.412   6.058   2.867
 1101SOL    HW114232   3.392   6.143   2.818
 1101SOL    HW214233   3.327   6.009   2.884
 1102SOL     OW14234   7.924   6.338   5.119
 1102SOL    HW114235   7.932   6.403   5.044
 1102SOL    HW214236   7.999   6.352   5.184
 1103SOL     OW14237   3.583   0.458   4.138
 1103SOL    HW114238   3.650   0.407   4.191
 1103SOL    HW214239   3.593   0.435   4.041
 1104SOL     OW14240   7.509   1.112   0.767
 1104SOL    HW114241   7.443   1.068   0.827
 1104SOL    HW214242   7.480   1.102   0.672
 1105SOL     OW14243   5.627   8.471   4.080
 1105SOL    HW114244   5.582   8.561   4.079
 1105SOL    HW214245   5.701   8.472   4.148
 1106SOL     OW14246   4.949   3.375   4.411
 1106SOL    HW114247   4.911   3.398   4.322
 1106SOL    HW214248   4.898   3.299   4.451
 1107SOL     OW14249   1.351   9.828   1.705
 1107SOL    HW114250   1.368   9.895   1.633
 1107SOL    HW214251   1.314   9.745   1.665
 1108SOL     OW14252   9.906   8.847   5.060
 1108SOL    HW114253   9.836   8.785   5.095
 1108SOL    HW214254   9.900   8.935   5.108
 1109SOL     OW14255   8.302   3.943   1.566
 1109SOL    HW114256   8.400   3.946   1.550
 1109SOL    HW214257   8.265   3.856   1.535
 1110SOL     OW14258   1.115   0.050   1.480
 1110SOL    HW114259   1.065   9.968   1.509
 1110SOL    HW214260   1.213   0.033   1.483
 1111SOL     OW14261   3.353   7.404   1.768
 1111SOL    HW114262   3.339   7.497   1.802
 1111SOL    HW214263   3.279   7.380   1.705
 1112SOL     OW14264   2.018   6.086   2.600
 1112SOL    HW114265   1.923   6.071   2.571
 1112SOL    HW214266   2.057   6.162   2.549
 1113SOL     OW14267   1.492   6.306   4.164
 1113SOL    HW114268   1.406   6.255   4.157
 1113SOL    HW214269   1.516   6.344   4.075
 1114SOL     OW14270   0.136   5.331   0.968
 1114SOL    HW114271   0.232   5.303   0.977
 1114SOL    HW214272   0.129   5.429   0.984
 1115SOL     OW14273   8.468   2.790   2.221
 1115SOL    HW114274   8.505   2.781   2.129
 1115SOL    HW214275   8.442   2.699   2.255
 1116SOL     OW14276   1.911   7.394   4.035
 1116SOL    HW114277   1.824   7.361   3.999
 1116SOL    HW214278   1.946   7.329   4.103
 1117SOL     OW14279   8.199   2.683   5.041
 1117SOL    HW114280   8.117   2.673   5.097
 1117SOL    HW214281   8.220   2.595   4.998
 1118SOL     OW14282   7.605   7.196   4.168
 1118SOL    HW114283   7.593   7.125   4.237
 1118SOL    HW214284   7.627   7.154   4.080
 1119SOL     OW14285   8.329   7.832   4.189
 1119SOL    HW114286   8.398   7.769   4.154
 1119SOL    HW214287   8.266   7.858   4.116
 1120SOL     OW14288   3.061   1.601   3.892
 1120SOL    HW114289   3.027   1.511   3.867
 1120SOL    HW214290   3.030   1.668   3.824
 1121SOL     OW14291   2.950   6.822   2.401
 1121SOL    HW114292   2.938   6.804   2.499
 1121SOL    HW214293   2.888   6.764   2.348
 1122SOL     OW14294   6.474   1.159   3.729
 1122SOL    HW114295   6.450   1.075   3.776
 1122SOL    HW214296   6.545   1.208   3.780
 1123SOL     OW14297   3.258   2.268   2.194
 1123SOL    HW114298   3.216   2.248   2.106
 1123SOL    HW214299   3.188   2.266   2.265
 1124SOL     OW14300   6.921   7.673   3.660
 1124SOL    HW114301   6.880   7.621   3.734
 1124SOL    HW214302   6.902   7.627   3.573
 1125SOL     OW14303   8.877   5.228   0.075
 1125SOL    HW114304   8.870   5.328   0.074
 1125SOL    HW214305   8.793   5.188   0.036
 1126SOL     OW14306   4.129   5.142   4.446
 1126SOL    HW114307   4.054   5.200   4.413
 1126SOL    HW214308   4.174   5.099   4.368
 1127SOL     OW14309   9.658   5.525   4.738
 1127SOL    HW114310   9.687   5.621   4.740
 1127SOL    HW214311   9.697   5.480   4.658
 1128SOL     OW14312   5.176   5.031   3.550
 1128SOL    HW114313   5.100   5.082   3.588
 1128SOL    HW214314   5.262   5.061   3.593
 1129SOL     OW14315   8.717   9.864   0.231
 1129SOL    HW114316   8.808   9.828   0.210
 1129SOL    HW214317   8.700   9.945   0.175
 1130SOL     OW14318   0.958   8.918   4.007
 1130SOL    HW114319   1.027   8.909   3.935
 1130SOL    HW214320   0.995   8.884   4.093
 1131SOL     OW14321   8.808   5.758   0.326
 1131SOL    HW114322   8.901   5.792   0.314
 1131SOL    HW214323   8.811   5.672   0.378
 1132SOL     OW14324   3.172   0.469   1.615
 1132SOL    HW114325   3.206   0.501   1.527
 1132SOL    HW214326   3.145   0.547   1.671
 1133SOL     OW14327   8.043   9.896   0.080
 1133SOL    HW114328   8.032   9.802   0.047
 1133SOL    HW214329   7.982   9.912   0.157
 1134SOL     OW14330   4.511   3.616   3.854
 1134SOL    HW114331   4.534   3.577   3.765
 1134SOL    HW214332   4.587   3.601   3.918
 1135SOL     OW14333   9.388   7.362   0.648
 1135SOL    HW114334   9.383   7.455   0.614
 1135SOL    HW214335   9.314   7.307   0.608
 1136SOL     OW14336   1.890   3.832   1.753
 1136SOL    HW114337   1.819   3.901   1.742
 1136SOL    HW214338   1.970   3.874   1.796
 1137SOL     OW14339   0.227   4.837   1.821
 1137SOL    HW114340   0.280   4.806   1.900
 1137SOL    HW214341   0.135   4.800   1.826
 1138SOL     OW14342   5.557   9.992   1.480
 1138SOL    HW114343   5.461   9.967   1.476
 1138SOL    HW214344   5.583   0.013   1.574
 1139SOL     OW14345   2.272   2.324   0.535
 1139SOL    HW114346   2.240   2.293   0.625
 1139SOL    HW214347   2.310   2.246   0.485
 1140SOL     OW14348   2.013   4.337   3.732
 1140SOL    HW114349   1.930   4.310   3.683
 1140SOL    HW214350   1.995   4.338   3.831
 1141SOL     OW14351   0.723   0.916   1.654
 1141SOL    HW114352   0.682   1.007   1.653
 1141SOL    HW214353   0.686   0.863   1.730
 1142SOL     OW14354   5.382   2.092   1.640
 1142SOL    HW114355   5.465   2.036   1.629
 1142SOL    HW214356   5.370   2.149   1.558
 1143SOL     OW14357   4.859   4.373   3.091
 1143SOL    HW114358   4.844   4.357   3.189
 1143SOL    HW214359   4.797   4.445   3.059
 1144SOL     OW14360   9.776   1.480   0.755
 1144SOL    HW114361   9.784   1.473   0.855
 1144SOL    HW214362   9.769   1.388   0.716
 1145SOL     OW14363   2.311   8.538   0.931
 1145SOL    HW114364   2.312   8.450   0.978
 1145SOL    HW214365   2.264   8.528   0.843
 1146SOL     OW14366   8.516   4.437   3.549
 1146SOL    HW114367   8.599   4.471   3.506
 1146SOL    HW214368   8.478   4.363   3.494
 1147SOL     OW14369   7.100   2.569   0.646
 1147SOL    HW114370   7.053   2.540   0.729
 1147SOL    HW214371   7.190   2.524   0.642
 1148SOL     OW14372   5.609   0.378   4.039
 1148SOL    HW114373   5.579   0.450   3.977
 1148SOL    HW214374   5.531   0.343   4.091
 1149SOL     OW14375   4.047   4.569   0.459
 1149SOL    HW114376   4.039   4.605   0.552
 1149SOL    HW214377   4.135   4.523   0.449
 1150SOL     OW14378   2.752   5.859   2.849
 1150SOL    HW114379   2.695   5.940   2.834
 1150SOL    HW214380   2.694   5.783   2.877
 1151SOL     OW14381   4.344   9.284   4.682
 1151SOL    HW114382   4.315   9.314   4.773
 1151SOL    HW214383   4.402   9.204   4.690
 1152SOL     OW14384   1.086   5.711   1.615
 1152SOL    HW114385   1.091   5.648   1.693
 1152SOL    HW214386   1.057   5.661   1.533
 1153SOL     OW14387   0.261   1.491   0.851
 1153SOL    HW114388   0.216   1.424   0.792
 1153SOL    HW214389   0.218   1.491   0.941
 1154SOL     OW14390   7.450   8.548   4.119
 1154SOL    HW114391   7.541   8.589   4.122
 1154SOL    HW214392   7.409   8.550   4.210
 1155SOL     OW14393   2.057   3.274   0.270
 1155SOL    HW114394   2.064   3.256   0.368
 1155SOL    HW214395   1.972   3.236   0.235
 1156SOL     OW14396   0.036   3.025   5.095
 1156SOL    HW114397   0.014   3.114   5.136
 1156SOL    HW214398   0.120   3.034   5.040
 1157SOL     OW14399   2.240   3.412   3.317
 1157SOL    HW114400   2.295   3.360   3.251
 1157SOL    HW214401   2.252   3.510   3.299
 1158SOL     OW14402   3.245   1.335   1.721
 1158SOL    HW114403   3.263   1.260   1.658
 1158SOL    HW214404   3.308   1.328   1.799
 1159SOL     OW14405   9.650   2.430   4.938
 1159SOL    HW114406   9.590   2.509   4.924
 1159SOL    HW214407   9.594   2.347   4.947
 1160SOL     OW14408   1.501   2.712   5.262
 1160SOL    HW114409   1.541   2.762   5.185
 1160SOL    HW214410   1.559   2.724   5.343
 1161SOL     OW14411   5.713   8.001   2.937
 1161SOL    HW114412   5.622   7.963   2.918
 1161SOL    HW214413   5.715   8.037   3.031
 1162SOL     OW14414   9.948   7.897   1.183
 1162SOL    HW114415   9.951   7.799   1.200
 1162SOL    HW214416   0.041   7.934   1.185
 1163SOL     OW14417   9.373   8.561   0.747
 1163SOL    HW114418   9.430   8.510   0.683
 1163SOL    HW214419   9.408   8.549   0.840
 1164SOL     OW14420   0.917   5.928   1.667
 1164SOL    HW114421   0.975   5.848   1.649
 1164SOL    HW214422   0.917   5.948   1.765
 1165SOL     OW14423   8.420   8.364   3.436
 1165SOL    HW114424   8.508   8.323   3.411
 1165SOL    HW214425   8.347   8.326   3.380
 1166SOL     OW14426   9.246   2.290   4.574
 1166SOL    HW114427   9.326   2.342   4.544
 1166SOL    HW214428   9.173   2.300   4.508
 1167SOL     OW14429   7.081   1.491   4.494
 1167SOL    HW114430   7.160   1.550   4.479
 1167SOL    HW214431   7.038   1.471   4.406
 1168SOL     OW14432   3.598   4.639   3.490
 1168SOL    HW114433   3.604   4.734   3.519
 1168SOL    HW214434   3.631   4.630   3.396
 1169SOL     OW14435   0.934   2.356   2.263
 1169SOL    HW114436   0.836   2.374   2.263
 1169SOL    HW214437   0.973   2.384   2.350
 1170SOL     OW14438   4.482   9.060   0.998
 1170SOL    HW114439   4.390   9.097   0.999
 1170SOL    HW214440   4.529   9.089   0.915
 1171SOL     OW14441   9.120   5.509   2.573
 1171SOL    HW114442   9.066   5.441   2.623
 1171SOL    HW214443   9.163   5.572   2.638
 1172SOL     OW14444   0.441   7.857   2.692
 1172SOL    HW114445   0.476   7.930   2.633
 1172SOL    HW214446   0.397   7.898   2.773
 1173SOL     OW14447   9.848   2.579   1.258
 1173SOL    HW114448   9.760   2.625   1.249
 1173SOL    HW214449   9.907   2.633   1.320
 1174SOL     OW14450   8.545   2.057   1.568
 1174SOL    HW114451   8.465   2.038   1.511
 1174SOL    HW214452   8.517   2.062   1.664
 1175SOL     OW14453   2.703   1.792   2.792
 1175SOL    HW114454   2.757   1.714   2.761
 1175SOL    HW214455   2.625   1.805   2.732
 1176SOL     OW14456   2.407   3.486   0.674
 1176SOL    HW114457   2.345   3.411   0.697
 1176SOL    HW214458   2.502   3.454   0.684
 1177SOL     OW14459   3.662   7.588   1.877
 1177SOL    HW114460   3.618   7.607   1.965
 1177SOL    HW214461   3.659   7.670   1.820
 1178SOL     OW14462   9.430   0.659   3.655
 1178SOL    HW114463   9.360   0.588   3.643
 1178SOL    HW214464   9.384   0.747   3.666
 1179SOL     OW14465   9.517   3.774   3.629
 1179SOL    HW114466   9.584   3.702   3.649
 1179SOL    HW214467   9.430   3.732   3.604
 1180SOL     OW14468   7.314   0.363   4.781
 1180SOL    HW114469   7.242   0.382   4.847
 1180SOL    HW214470   7.295   0.410   4.695
 1181SOL     OW14471   1.463   3.863   3.501
 1181SOL    HW114472   1.450   3.771   3.463
 1181SOL    HW214473   1.534   3.911   3.448
 1182SOL     OW14474   4.288   8.957   3.995
 1182SOL    HW114475   4.204   8.931   4.041
 1182SOL    HW214476   4.288   8.923   3.901
 1183SOL     OW14477   6.617   0.796   2.370
 1183SOL    HW114478   6.542   0.859   2.352
 1183SOL    HW214479   6.660   0.770   2.283
 1184SOL     OW14480   1.291   2.089   3.114
 1184SOL    HW114481   1.339   2.075   3.200
 1184SOL    HW214482   1.337   2.160   3.061
 1185SOL     OW14483   0.982   0.690   2.090
 1185SOL    HW114484   0.972   0.776   2.040
 1185SOL    HW214485   1.055   0.700   2.158
 1186SOL     OW14486   3.545   5.288   1.277
 1186SOL    HW114487   3.616   5.261   1.343
 1186SOL    HW214488   3.526   5.386   1.288
 1187SOL     OW14489   5.506   0.840   3.034
 1187SOL    HW114490   5.426   0.893   3.062
 1187SOL    HW214491   5.517   0.848   2.935
 1188SOL     OW14492   2.912   5.592   0.864
 1188SOL    HW114493   2.924   5.653   0.787
 1188SOL    HW214494   2.963   5.507   0.848
 1189SOL     OW14495   7.731   0.057   1.404
 1189SOL    HW114496   7.819   0.086   1.365
 1189SOL    HW214497   7.695   0.129   1.463
 1190SOL     OW14498   3.504   5.131   4.115
 1190SOL    HW114499   3.432   5.069   4.147
 1190SOL    HW214500   3.569   5.080   4.059
 1191SOL     OW14501   4.773   1.151   3.892
 1191SOL    HW114502   4.749   1.248   3.894
 1191SOL    HW214503   4.712   1.100   3.953
 1192SOL     OW14504   0.358   3.391   2.367
 1192SOL    HW114505   0.261   3.378   2.389
 1192SOL    HW214506   0.414   3.367   2.447
 1193SOL     OW14507   4.681   3.407   2.875
 1193SOL    HW114508   4.641   3.321   2.903
 1193SOL    HW214509   4.762   3.426   2.930
 1194SOL     OW14510   1.685   3.009   4.409
 1194SOL    HW114511   1.632   3.010   4.493
 1194SOL    HW214512   1.772   2.963   4.425
 1195SOL     OW14513   9.391   7.599   3.773
 1195SOL    HW114514   9.469   7.581   3.833
 1195SOL    HW214515   9.387   7.697   3.753
 1196SOL     OW14516   3.931   7.856   2.074
 1196SOL    HW114517   3.937   7.939   2.017
 1196SOL    HW214518   3.937   7.776   2.015
 1197SOL     OW14519   9.003   0.007   4.367
 1197SOL    HW114520   8.938   9.978   4.296
 1197SOL    HW214521   8.952   0.040   4.447
 1198SOL     OW14522   9.882   8.092   3.354
 1198SOL    HW114523   9.904   8.035   3.274
 1198SOL    HW214524   9.929   8.056   3.434
 1199SOL     OW14525   3.844   5.003   2.317
 1199SOL    HW114526   3.864   5.100   2.328
 1199SOL    HW214527   3.763   4.980   2.369
 1200SOL     OW14528   9.109   2.501   2.239
 1200SOL    HW114529   9.097   2.529   2.334
 1200SOL    HW214530   9.108   2.401   2.233
 1201SOL     OW14531   8.735   9.020   4.339
 1201SOL    HW114532   8.652   9.071   4.315
 1201SOL    HW214533   8.744   8.942   4.278
 1202SOL     OW14534   1.949   7.720   0.068
 1202SOL    HW114535   1.921   7.795   0.008
 1202SOL    HW214536   2.035   7.745   0.114
 1203SOL     OW14537   7.430   2.195   5.259
 1203SOL    HW114538   7.421   2.200   5.359
 1203SOL    HW214539   7.340   2.181   5.218
 1204SOL     OW14540   3.896   6.178   0.943
 1204SOL    HW114541   3.961   6.219   0.879
 1204SOL    HW214542   3.943   6.108   0.997
 1205SOL     OW14543   1.798   5.264   0.949
 1205SOL    HW114544   1.784   5.282   1.047
 1205SOL    HW214545   1.754   5.337   0.896
 1206SOL     OW14546   9.823   8.739   4.418
 1206SOL    HW114547   9.837   8.649   4.376
 1206SOL    HW214548   9.752   8.788   4.367
 1207SOL     OW14549   3.158   6.366   0.220
 1207SOL    HW114550   3.117   6.445   0.265
 1207SOL    HW214551   3.250   6.390   0.189
 1208SOL     OW14552   3.878   4.525   3.027
 1208SOL    HW114553   3.936   4.606   3.032
 1208SOL    HW214554   3.934   4.443   3.041
 1209SOL     OW14555   7.611   2.642   0.761
 1209SOL    HW114556   7.698   2.692   0.754
 1209SOL    HW214557   7.575   2.624   0.669
 1210SOL     OW14558   4.946   1.169   2.379
 1210SOL    HW114559   5.000   1.089   2.403
 1210SOL    HW214560   4.982   1.209   2.295
 1211SOL     OW14561   7.723   0.734   1.960
 1211SOL    HW114562   7.713   0.796   1.881
 1211SOL    HW214563   7.723   0.639   1.928
 1212SOL     OW14564   7.275   9.186   4.904
 1212SOL    HW114565   7.329   9.262   4.939
 1212SOL    HW214566   7.263   9.197   4.805
 1213SOL     OW14567   7.299   2.105   3.050
 1213SOL    HW114568   7.268   2.198   3.032
 1213SOL    HW214569   7.254   2.070   3.132
 1214SOL     OW14570   5.156   1.944   1.726
 1214SOL    HW114571   5.084   1.959   1.658
 1214SOL    HW214572   5.238   1.994   1.700
 1215SOL     OW14573   5.350   6.519   1.743
 1215SOL    HW114574   5.295   6.601   1.760
 1215SOL    HW214575   5.436   6.525   1.793
 1216SOL     OW14576   9.658   9.926   3.165
 1216SOL    HW114577   9.701   9.838   3.141
 1216SOL    HW214578   9.728   9.997   3.170
 1217SOL     OW14579   8.939   2.822   4.445
 1217SOL    HW114580   8.884   2.765   4.384
 1217SOL    HW214581   9.004   2.766   4.495
 1218SOL     OW14582   2.038   6.445   0.173
 1218SOL    HW114583   2.116   6.505   0.154
 1218SOL    HW214584   1.953   6.497   0.167
 1219SOL     OW14585   9.807   2.851   1.881
 1219SOL    HW114586   9.743   2.923   1.855
 1219SOL    HW214587   9.861   2.823   1.802
 1220SOL     OW14588   5.112   0.869   3.754
 1220SOL    HW114589   5.157   0.804   3.814
 1220SOL    HW214590   5.084   0.949   3.807
 1221SOL     OW14591   7.859   2.846   4.959
 1221SOL    HW114592   7.804   2.773   4.997
 1221SOL    HW214593   7.908   2.813   4.878
 1222SOL     OW14594   3.588   0.338   4.745
 1222SOL    HW114595   3.687   0.325   4.735
 1222SOL    HW214596   3.552   0.268   4.806
 1223SOL     OW14597   1.807   6.019   4.383
 1223SOL    HW114598   1.724   6.067   4.412
 1223SOL    HW214599   1.823   6.035   4.286
 1224SOL     OW14600   8.801   4.587   0.842
 1224SOL    HW114601   8.819   4.657   0.774
 1224SOL    HW214602   8.871   4.591   0.914
 1225SOL     OW14603   1.655   6.152   3.546
 1225SOL    HW114604   1.689   6.242   3.577
 1225SOL    HW214605   1.696   6.081   3.603
 1226SOL     OW14606   9.578   4.360   3.746
 1226SOL    HW114607   9.626   4.402   3.670
 1226SOL    HW214608   9.479   4.369   3.733
 1227SOL     OW14609   2.461   9.296   0.666
 1227SOL    HW114610   2.535   9.235   0.693
 1227SOL    HW214611   2.497   9.389   0.654
 1228SOL     OW14612   1.671   1.005   4.598
 1228SOL    HW114613   1.764   1.003   4.636
 1228SOL    HW214614   1.654   1.094   4.556
 1229SOL     OW14615   3.787   0.940   1.970
 1229SOL    HW114616   3.812   0.991   2.052
 1229SOL    HW214617   3.754   0.849   1.997
 1230SOL     OW14618   3.237   3.673   5.092
 1230SOL    HW114619   3.306   3.646   5.159
 1230SOL    HW214620   3.258   3.764   5.057
 1231SOL     OW14621   0.819   9.394   1.543
 1231SOL    HW114622   0.808   9.319   1.478
 1231SOL    HW214623   0.912   9.393   1.580
 1232SOL     OW14624   9.989   5.334   3.968
 1232SOL    HW114625   0.074   5.285   3.990
 1232SOL    HW214626   9.974   5.333   3.870
 1233SOL     OW14627   0.503   6.728   2.579
 1233SOL    HW114628   0.576   6.724   2.511
 1233SOL    HW214629   0.423   6.772   2.539
 1234SOL     OW14630   9.655   0.147   2.697
 1234SOL    HW114631   9.652   0.239   2.658
 1234SOL    HW214632   9.572   0.130   2.749
 1235SOL     OW14633   4.332   5.291   0.200
 1235SOL    HW114634   4.340   5.232   0.281
 1235SOL    HW214635   4.251   5.266   0.148
 1236SOL     OW14636   4.214   0.503   4.549
 1236SOL    HW114637   4.287   0.493   4.482
 1236SOL    HW214638   4.217   0.595   4.589
 1237SOL     OW14639   1.395   1.931   1.120
 1237SOL    HW114640   1.393   1.834   1.094
 1237SOL    HW214641   1.482   1.951   1.166
 1238SOL     OW14642   0.986   9.250   5.050
 1238SOL    HW114643   0.949   9.165   5.087
 1238SOL    HW214644   1.039   9.231   4.968
 1239SOL     OW14645   4.090   3.992   4.085
 1239SOL    HW114646   4.083   4.088   4.057
 1239SOL    HW214647   4.169   3.950   4.039
 1240SOL     OW14648   1.664   5.028   0.899
 1240SOL    HW114649   1.717   5.110   0.919
 1240SOL    HW214650   1.572   5.038   0.937
 1241SOL     OW14651   1.829   8.508   2.078
 1241SOL    HW114652   1.741   8.548   2.103
 1241SOL    HW214653   1.818   8.447   2.000
 1242SOL     OW14654   9.102   3.645   1.868
 1242SOL    HW114655   9.015   3.669   1.825
 1242SOL    HW214656   9.100   3.549   1.896
 1243SOL     OW14657   2.154   5.153   4.635
 1243SOL    HW114658   2.212   5.154   4.553
 1243SOL    HW214659   2.084   5.223   4.627
 1244SOL     OW14660   7.435   9.918   2.262
 1244SOL    HW114661   7.338   9.931   2.241
 1244SOL    HW214662   7.483   9.887   2.180
 1245SOL     OW14663   0.617   1.172   1.688
 1245SOL    HW114664   0.694   1.190   1.749
 1245SOL    HW214665   0.584   1.258   1.650
 1246SOL     OW14666   1.268   9.219   2.464
 1246SOL    HW114667   1.192   9.284   2.472
 1246SOL    HW214668   1.234   9.133   2.425
 1247SOL     OW14669   0.072   6.240   0.316
 1247SOL    HW114670   0.025   6.171   0.261
 1247SOL    HW214671   0.170   6.239   0.296
 1248SOL     OW14672   2.891   8.545   0.665
 1248SOL    HW114673   2.974   8.516   0.618
 1248SOL    HW214674   2.913   8.622   0.726
 1249SOL     OW14675   3.060   3.755   4.848
 1249SOL    HW114676   3.123   3.721   4.778
 1249SOL    HW214677   2.990   3.812   4.805
 1250SOL     OW14678   9.524   3.765   3.958
 1250SOL    HW114679   9.616   3.800   3.937
 1250SOL    HW214680   9.456   3.825   3.915
 1251SOL     OW14681   8.113   0.318   4.257
 1251SOL    HW114682   8.157   0.235   4.223
 1251SOL    HW214683   8.182   0.375   4.301
 1252SOL     OW14684   7.726   4.260   1.368
 1252SOL    HW114685   7.668   4.323   1.316
 1252SOL    HW214686   7.686   4.169   1.367
 1253SOL     OW14687   0.548   8.510   1.381
 1253SOL    HW114688   0.588   8.430   1.426
 1253SOL    HW214689   0.621   8.574   1.358
 1254SOL     OW14690   6.517   1.203   2.861
 1254SOL    HW114691   6.537   1.300   2.852
 1254SOL    HW214692   6.521   1.177   2.957
 1255SOL     OW14693   0.011   1.165   4.846
 1255SOL    HW114694   0.013   1.258   4.884
 1255SOL    HW214695   9.968   1.166   4.756
 1256SOL     OW14696   4.644   5.811   2.072
 1256SOL    HW114697   4.561   5.831   2.021
 1256SOL    HW214698   4.640   5.717   2.108
 1257SOL     OW14699   1.136   8.271   3.676
 1257SOL    HW114700   1.152   8.356   3.625
 1257SOL    HW214701   1.172   8.194   3.625
 1258SOL     OW14702   9.187   3.290   0.442
 1258SOL    HW114703   9.232   3.374   0.412
 1258SOL    HW214704   9.254   3.216   0.448
 1259SOL     OW14705   3.687   7.863   0.605
 1259SOL    HW114706   3.669   7.780   0.554
 1259SOL    HW214707   3.684   7.844   0.703
 1260SOL     OW14708   4.845   0.776   1.073
 1260SOL    HW114709   4.802   0.687   1.061
 1260SOL    HW214710   4.930   0.780   1.021
 1261SOL     OW14711   2.211   2.345   0.085
 1261SOL    HW114712   2.176   2.402   0.011
 1261SOL    HW214713   2.180   2.381   0.172
 1262SOL     OW14714   8.971   1.235   1.111
 1262SOL    HW114715   8.969   1.335   1.110
 1262SOL    HW214716   8.925   1.200   1.030
 1263SOL     OW14717   4.121   9.741   0.105
 1263SOL    HW114718   4.120   9.841   0.107
 1263SOL    HW214719   4.112   9.705   0.198
 1264SOL     OW14720   5.919   8.100   4.323
 1264SOL    HW114721   5.897   8.032   4.253
 1264SOL    HW214722   5.892   8.065   4.413
 1265SOL     OW14723   2.262   6.628   0.409
 1265SOL    HW114724   2.197   6.691   0.452
 1265SOL    HW214725   2.252   6.633   0.310
 1266SOL     OW14726   5.282   8.055   4.414
 1266SOL    HW114727   5.274   8.001   4.330
 1266SOL    HW214728   5.245   8.146   4.399
 1267SOL     OW14729   8.901   5.806   4.093
 1267SOL    HW114730   8.816   5.789   4.142
 1267SOL    HW214731   8.976   5.758   4.139
 1268SOL     OW14732   8.936   8.228   4.010
 1268SOL    HW114733   8.846   8.192   4.036
 1268SOL    HW214734   8.994   8.153   3.978
 1269SOL     OW14735   7.568   2.139   1.423
 1269SOL    HW114736   7.628   2.112   1.348
 1269SOL    HW214737   7.506   2.212   1.391
 1270SOL     OW14738   4.209   1.967   1.502
 1270SOL    HW114739   4.149   2.034   1.459
 1270SOL    HW214740   4.255   2.008   1.581
 1271SOL     OW14741   7.077   0.147   2.709
 1271SOL    HW114742   7.104   0.182   2.798
 1271SOL    HW214743   7.028   0.219   2.658
 1272SOL     OW14744   6.803   1.103   3.158
 1272SOL    HW114745   6.706   1.113   3.133
 1272SOL    HW214746   6.818   1.012   3.196
 1273SOL     OW14747   0.436   0.682   4.102
 1273SOL    HW114748   0.531   0.661   4.078
 1273SOL    HW214749   0.416   0.644   4.192
 1274SOL     OW14750   2.547   8.748   4.390
 1274SOL    HW114751   2.505   8.659   4.406
 1274SOL    HW214752   2.623   8.738   4.327
 1275SOL     OW14753   0.079   7.784   2.704
 1275SOL    HW114754   0.015   7.707   2.695
 1275SOL    HW214755   0.165   7.750   2.741
 1276SOL     OW14756   2.267   0.827   4.897
 1276SOL    HW114757   2.219   0.849   4.982
 1276SOL    HW214758   2.354   0.782   4.918
 1277SOL     OW14759   2.793   4.064   3.132
 1277SOL    HW114760   2.812   4.096   3.225
 1277SOL    HW214761   2.879   4.049   3.084
 1278SOL     OW14762   2.706   7.517   0.782
 1278SOL    HW114763   2.649   7.591   0.816
 1278SOL    HW214764   2.785   7.555   0.732
 1279SOL     OW14765   9.542   6.032   3.280
 1279SOL    HW114766   9.450   6.070   3.288
 1279SOL    HW214767   9.557   5.966   3.353
 1280SOL     OW14768   3.739   5.213   1.463
 1280SOL    HW114769   3.764   5.133   1.518
 1280SOL    HW214770   3.819   5.247   1.414
 1281SOL     OW14771   5.317   0.796   0.789
 1281SOL    HW114772   5.374   0.878   0.799
 1281SOL    HW214773   5.262   0.805   0.706
 1282SOL     OW14774   1.176   1.189   4.093
 1282SOL    HW114775   1.205   1.279   4.063
 1282SOL    HW214776   1.184   1.183   4.193
 1283SOL     OW14777   2.671   6.866   1.615
 1283SOL    HW114778   2.643   6.796   1.680
 1283SOL    HW214779   2.686   6.824   1.525
 1284SOL     OW14780   0.040   9.688   1.062
 1284SOL    HW114781   0.098   9.630   1.005
 1284SOL    HW214782   0.072   9.783   1.057
 1285SOL     OW14783   4.492   8.562   2.278
 1285SOL    HW114784   4.422   8.621   2.238
 1285SOL    HW214785   4.486   8.566   2.378
 1286SOL     OW14786   1.647   0.808   1.174
 1286SOL    HW114787   1.563   0.815   1.120
 1286SOL    HW214788   1.633   0.850   1.263
 1287SOL     OW14789   4.576   0.457   0.287
 1287SOL    HW114790   4.649   0.390   0.276
 1287SOL    HW214791   4.498   0.431   0.230
 1288SOL     OW14792   2.887   3.120   3.314
 1288SOL    HW114793   2.936   3.205   3.334
 1288SOL    HW214794   2.789   3.137   3.317
 1289SOL     OW14795   2.194   1.769   4.752
 1289SOL    HW114796   2.094   1.770   4.760
 1289SOL    HW214797   2.234   1.760   4.843
 1290SOL     OW14798   2.137   3.801   2.380
 1290SOL    HW114799   2.228   3.837   2.362
 1290SOL    HW214800   2.135   3.702   2.362
 1291SOL     OW14801   3.795   0.281   0.874
 1291SOL    HW114802   3.706   0.319   0.902
 1291SOL    HW214803   3.825   0.325   0.790
 1292SOL     OW14804   4.014   0.652   1.499
 1292SOL    HW114805   4.069   0.572   1.476
 1292SOL    HW214806   4.072   0.734   1.498
 1293SOL     OW14807   0.383   9.079   4.037
 1293SOL    HW114808   0.297   9.073   3.986
 1293SOL    HW214809   0.380   9.016   4.115
 1294SOL     OW14810   0.156   8.954   2.006
 1294SOL    HW114811   0.176   8.923   2.099
 1294SOL    HW214812   0.207   9.038   1.987
 1295SOL     OW14813   1.434   3.712   0.924
 1295SOL    HW114814   1.376   3.697   0.844
 1295SOL    HW214815   1.473   3.625   0.954
 1296SOL     OW14816   3.624   3.092   1.190
 1296SOL    HW114817   3.573   3.019   1.237
 1296SOL    HW214818   3.721   3.069   1.190
 1297SOL     OW14819   2.760   8.470   3.809
 1297SOL    HW114820   2.782   8.447   3.904
 1297SOL    HW214821   2.772   8.390   3.751
 1298SOL     OW14822   2.922   9.717   4.984
 1298SOL    HW114823   2.912   9.721   4.884
 1298SOL    HW214824   2.861   9.783   5.027
 1299SOL     OW14825   0.050   8.513   3.449
 1299SOL    HW114826   9.993   8.482   3.373
 1299SOL    HW214827   0.141   8.535   3.415
 1300SOL     OW14828   4.530   2.659   2.952
 1300SOL    HW114829   4.523   2.677   2.853
 1300SOL    HW214830   4.538   2.746   3.001
 1301SOL     OW14831   3.889   2.709   3.252
 1301SOL    HW114832   3.904   2.701   3.350
 1301SOL    HW214833   3.959   2.769   3.212
 1302SOL     OW14834   6.892   8.020   4.633
 1302SOL    HW114835   6.797   7.987   4.632
 1302SOL    HW214836   6.897   8.105   4.685
 1303SOL     OW14837   7.788   1.333   5.247
 1303SOL    HW114838   7.790   1.250   5.301
 1303SOL    HW214839   7.861   1.330   5.179
 1304SOL     OW14840   0.054   9.199   1.042
 1304SOL    HW114841   0.128   9.132   1.040
 1304SOL    HW214842   0.038   9.234   0.950
 1305SOL     OW14843   4.843   6.149   2.035
 1305SOL    HW114844   4.842   6.078   1.964
 1305SOL    HW214845   4.836   6.106   2.125
 1306SOL     OW14846   6.267   9.715   4.300
 1306SOL    HW114847   6.203   9.707   4.377
 1306SOL    HW214848   6.344   9.773   4.326
 1307SOL     OW14849   2.047   0.167   1.909
 1307SOL    HW114850   2.079   0.262   1.919
 1307SOL    HW214851   1.948   0.164   1.920
 1308SOL     OW14852   1.522   8.631   5.260
 1308SOL    HW114853   1.539   8.682   5.176
 1308SOL    HW214854   1.436   8.661   5.301
 1309SOL     OW14855   8.752   3.576   2.736
 1309SOL    HW114856   8.672   3.601   2.792
 1309SOL    HW214857   8.754   3.477   2.723
 1310SOL     OW14858   4.039   0.260   3.888
 1310SOL    HW114859   3.949   0.232   3.854
 1310SOL    HW214860   4.033   0.277   3.987
 1311SOL     OW14861   8.148   9.329   0.526
 1311SOL    HW114862   8.111   9.387   0.453
 1311SOL    HW214863   8.087   9.334   0.606
 1312SOL     OW14864   4.425   1.316   1.025
 1312SOL    HW114865   4.384   1.225   1.034
 1312SOL    HW214866   4.443   1.334   0.928
 1313SOL     OW14867   4.203   3.054   4.355
 1313SOL    HW114868   4.254   3.071   4.439
 1313SOL    HW214869   4.250   3.096   4.278
 1314SOL     OW14870   7.012   8.489   2.313
 1314SOL    HW114871   7.000   8.550   2.235
 1314SOL    HW214872   7.062   8.407   2.285
 1315SOL     OW14873   0.738   6.577   3.201
 1315SOL    HW114874   0.806   6.506   3.219
 1315SOL    HW214875   0.755   6.656   3.260
 1316SOL     OW14876   8.526   6.587   3.060
 1316SOL    HW114877   8.521   6.496   3.102
 1316SOL    HW214878   8.541   6.577   2.962
 1317SOL     OW14879   5.089   8.548   2.678
 1317SOL    HW114880   5.169   8.500   2.642
 1317SOL    HW214881   5.012   8.483   2.686
 1318SOL     OW14882   9.954   4.828   0.860
 1318SOL    HW114883   9.987   4.791   0.947
 1318SOL    HW214884   9.998   4.916   0.843
 1319SOL     OW14885   7.474   3.035   4.066
 1319SOL    HW114886   7.466   2.940   4.037
 1319SOL    HW214887   7.445   3.096   3.992
 1320SOL     OW14888   8.632   8.529   4.760
 1320SOL    HW114889   8.614   8.605   4.697
 1320SOL    HW214890   8.593   8.550   4.849
 1321SOL     OW14891   9.055   8.644   4.012
 1321SOL    HW114892   9.117   8.716   4.045
 1321SOL    HW214893   9.001   8.609   4.089
 1322SOL     OW14894   5.651   2.058   4.422
 1322SOL    HW114895   5.684   2.127   4.487
 1322SOL    HW214896   5.726   1.995   4.399
 1323SOL     OW14897   8.581   3.010   1.908
 1323SOL    HW114898   8.575   2.913   1.931
 1323SOL    HW214899   8.675   3.042   1.921
 1324SOL     OW14900   8.968   4.094   2.953
 1324SOL    HW114901   8.978   4.140   2.864
 1324SOL    HW214902   8.888   4.034   2.950
 1325SOL     OW14903   2.723   0.886   5.189
 1325SOL    HW114904   2.708   0.984   5.191
 1325SOL    HW214905   2.638   0.839   5.216
 1326SOL     OW14906   1.479   6.279   1.302
 1326SOL    HW114907   1.381   6.299   1.302
 1326SOL    HW214908   1.502   6.227   1.385
 1327SOL     OW14909   0.268   6.399   2.654
 1327SOL    HW114910   0.253   6.313   2.703
 1327SOL    HW214911   0.366   6.408   2.633
 1328SOL     OW14912   9.627   4.022   4.347
 1328SOL    HW114913   9.553   3.968   4.387
 1328SOL    HW214914   9.701   3.961   4.319
 1329SOL     OW14915   6.503   8.462   5.258
 1329SOL    HW114916   6.414   8.489   5.222
 1329SOL    HW214917   6.520   8.511   5.344
 1330SOL     OW14918   0.842   6.828   0.500
 1330SOL    HW114919   0.912   6.761   0.474
 1330SOL    HW214920   0.878   6.889   0.570
 1331SOL     OW14921   8.128   2.143   4.319
 1331SOL    HW114922   8.128   2.240   4.296
 1331SOL    HW214923   8.034   2.111   4.330
 1332SOL     OW14924   4.405   3.745   5.202
 1332SOL    HW114925   4.355   3.680   5.145
 1332SOL    HW214926   4.399   3.716   5.298
 1333SOL     OW14927   3.264   1.434   2.791
 1333SOL    HW114928   3.214   1.404   2.873
 1333SOL    HW214929   3.278   1.533   2.795
 1334SOL     OW14930   2.883   7.658   0.622
 1334SOL    HW114931   2.918   7.750   0.643
 1334SOL    HW214932   2.814   7.665   0.550
 1335SOL     OW14933   7.461   9.740   2.773
 1335SOL    HW114934   7.380   9.697   2.812
 1335SOL    HW214935   7.447   9.758   2.676
 1336SOL     OW14936   8.326   2.362   0.096
 1336SOL    HW114937   8.424   2.379   0.095
 1336SOL    HW214938   8.277   2.446   0.120
 1337SOL     OW14939   0.052   0.679   3.700
 1337SOL    HW114940   0.101   0.766   3.703
 1337SOL    HW214941   0.015   0.664   3.608
 1338SOL     OW14942   7.921   4.670   1.385
 1338SOL    HW114943   7.926   4.767   1.358
 1338SOL    HW214944   7.825   4.643   1.392
 1339SOL     OW14945   1.971   1.671   1.961
 1339SOL    HW114946   1.913   1.684   2.042
 1339SOL    HW214947   1.919   1.626   1.889
 1340SOL     OW14948   0.174   6.099   2.103
 1340SOL    HW114949   0.102   6.048   2.150
 1340SOL    HW214950   0.197   6.052   2.018
 1341SOL     OW14951   9.921   0.926   3.329
 1341SOL    HW114952   9.880   1.013   3.357
 1341SOL    HW214953   9.885   0.900   3.240
 1342SOL     OW14954   7.404   1.761   0.768
 1342SOL    HW114955   7.353   1.824   0.710
 1342SOL    HW214956   7.502   1.769   0.748
 1343SOL     OW14957   6.334   4.628   0.512
 1343SOL    HW114958   6.328   4.528   0.503
 1343SOL    HW214959   6.256   4.661   0.565
 1344SOL     OW14960   7.930   9.639   3.405
 1344SOL    HW114961   7.836   9.639   3.439
 1344SOL    HW214962   7.928   9.626   3.305
 1345SOL     OW14963   2.592   1.431   5.232
 1345SOL    HW114964   2.654   1.505   5.208
 1345SOL    HW214965   2.557   1.446   5.325
 1346SOL     OW14966   1.586   0.553   1.776
 1346SOL    HW114967   1.592   0.633   1.716
 1346SOL    HW214968   1.540   0.580   1.861
 1347SOL     OW14969   1.357   2.985   0.852
 1347SOL    HW114970   1.371   2.894   0.814
 1347SOL    HW214971   1.439   3.040   0.837
 1348SOL     OW14972   6.080   8.555   4.525
 1348SOL    HW114973   6.075   8.458   4.499
 1348SOL    HW214974   6.061   8.563   4.623
 1349SOL     OW14975   3.663   6.726   2.624
 1349SOL    HW114976   3.740   6.690   2.572
 1349SOL    HW214977   3.696   6.795   2.688
 1350SOL     OW14978   8.723   6.098   0.574
 1350SOL    HW114979   8.630   6.120   0.603
 1350SOL    HW214980   8.749   6.009   0.612
 1351SOL     OW14981   0.612   3.914   1.228
 1351SOL    HW114982   0.621   3.995   1.286
 1351SOL    HW214983   0.600   3.943   1.133
 1352SOL     OW14984   9.361   9.191   3.633
 1352SOL    HW114985   9.373   9.119   3.565
 1352SOL    HW214986   9.334   9.150   3.721
 1353SOL     OW14987   3.149   1.393   2.094
 1353SOL    HW114988   3.126   1.308   2.142
 1353SOL    HW214989   3.239   1.384   2.051
 1354SOL     OW14990   1.956   1.406   4.846
 1354SOL    HW114991   2.046   1.443   4.823
 1354SOL    HW214992   1.922   1.351   4.769
 1355SOL     OW14993   7.228   8.924   4.955
 1355SOL    HW114994   7.246   9.021   4.940
 1355SOL    HW214995   7.313   8.876   4.973
 1356SOL     OW14996   0.440   6.078   2.956
 1356SOL    HW114997   0.515   6.145   2.951
 1356SOL    HW214998   0.478   5.986   2.966
 1357SOL     OW14999   3.767   5.773   2.088
 1357SOL    HW115000   3.813   5.684   2.083
 1357SOL    HW215001   3.689   5.774   2.026
 1358SOL     OW15002   3.855   3.237   2.358
 1358SOL    HW115003   3.814   3.256   2.448
 1358SOL    HW215004   3.912   3.155   2.364
 1359SOL     OW15005   8.650   3.384   4.384
 1359SOL    HW115006   8.661   3.304   4.326
 1359SOL    HW215007   8.664   3.358   4.479
 1360SOL     OW15008   1.661   6.013   1.905
 1360SOL    HW115009   1.614   6.028   1.991
 1360SOL    HW215010   1.737   6.077   1.897
 1361SOL     OW15011   1.927   8.665   5.191
 1361SOL    HW115012   1.984   8.676   5.109
 1361SOL    HW215013   1.909   8.754   5.231
 1362SOL     OW15014   9.247   5.725   4.449
 1362SOL    HW115015   9.223   5.748   4.355
 1362SOL    HW215016   9.226   5.629   4.467
 1363SOL     OW15017   7.593   6.986   4.350
 1363SOL    HW115018   7.576   6.923   4.274
 1363SOL    HW215019   7.651   6.941   4.418
 1364SOL     OW15020   9.901   4.118   3.134
 1364SOL    HW115021   9.865   4.108   3.227
 1364SOL    HW215022   9.987   4.169   3.137
 1365SOL     OW15023   3.173   9.346   1.058
 1365SOL    HW115024   3.167   9.416   0.986
 1365SOL    HW215025   3.087   9.343   1.109
 1366SOL     OW15026   5.122   5.093   3.284
 1366SOL    HW115027   5.121   5.009   3.230
 1366SOL    HW215028   5.149   5.072   3.378
 1367SOL     OW15029   1.883   2.043   2.852
 1367SOL    HW115030   1.978   2.075   2.852
 1367SOL    HW215031   1.865   1.994   2.937
 1368SOL     OW15032   0.109   3.913   5.236
 1368SOL    HW115033   0.048   3.844   5.277
 1368SOL    HW215034   0.058   3.963   5.166
 1369SOL     OW15035   1.201   7.837   2.264
 1369SOL    HW115036   1.265   7.788   2.323
 1369SOL    HW215037   1.140   7.771   2.219
 1370SOL     OW15038   7.654   1.436   1.472
 1370SOL    HW115039   7.593   1.370   1.517
 1370SOL    HW215040   7.720   1.472   1.538
 1371SOL     OW15041   9.194   6.732   4.237
 1371SOL    HW115042   9.270   6.769   4.184
 1371SOL    HW215043   9.160   6.802   4.300
 1372SOL     OW15044   8.836   9.151   2.649
 1372SOL    HW115045   8.795   9.061   2.665
 1372SOL    HW215046   8.897   9.146   2.570
 1373SOL     OW15047   7.611   5.243   0.181
 1373SOL    HW115048   7.516   5.217   0.198
 1373SOL    HW215049   7.641   5.305   0.254
 1374SOL     OW15050   8.297   4.868   4.010
 1374SOL    HW115051   8.321   4.778   3.974
 1374SOL    HW215052   8.335   4.939   3.951
 1375SOL     OW15053   1.376   9.749   1.262
 1375SOL    HW115054   1.378   9.656   1.298
 1375SOL    HW215055   1.468   9.776   1.233
 1376SOL     OW15056   1.477   7.559   3.030
 1376SOL    HW115057   1.430   7.594   2.949
 1376SOL    HW215058   1.411   7.516   3.091
 1377SOL     OW15059   0.448   5.941   4.931
 1377SOL    HW115060   0.473   6.037   4.940
 1377SOL    HW215061   0.489   5.889   5.007
 1378SOL     OW15062   8.824   1.131   1.332
 1378SOL    HW115063   8.891   1.167   1.267
 1378SOL    HW215064   8.768   1.061   1.287
 1379SOL     OW15065   9.994   1.420   4.955
 1379SOL    HW115066   0.052   1.491   4.917
 1379SOL    HW215067   9.996   1.424   5.055
 1380SOL     OW15068   4.182   7.842   3.620
 1380SOL    HW115069   4.211   7.772   3.686
 1380SOL    HW215070   4.262   7.892   3.586
 1381SOL     OW15071   1.320   2.724   0.241
 1381SOL    HW115072   1.223   2.710   0.259
 1381SOL    HW215073   1.370   2.642   0.267
 1382SOL     OW15074   7.569   9.577   1.480
 1382SOL    HW115075   7.570   9.674   1.503
 1382SOL    HW215076   7.654   9.534   1.511
 1383SOL     OW15077   0.928   1.102   3.718
 1383SOL    HW115078   0.927   1.088   3.817
 1383SOL    HW215079   0.952   1.016   3.672
 1384SOL     OW15080   3.640   2.808   4.776
 1384SOL    HW115081   3.727   2.773   4.744
 1384SOL    HW215082   3.608   2.880   4.714
 1385SOL     OW15083   4.634   6.760   1.700
 1385SOL    HW115084   4.689   6.824   1.754
 1385SOL    HW215085   4.665   6.667   1.719
 1386SOL     OW15086   3.423   6.438   0.187
 1386SOL    HW115087   3.493   6.395   0.244
 1386SOL    HW215088   3.442   6.536   0.179
 1387SOL     OW15089   7.751   2.339   3.523
 1387SOL    HW115090   7.835   2.340   3.469
 1387SOL    HW215091   7.672   2.349   3.462
 1388SOL     OW15092   0.328   4.859   3.349
 1388SOL    HW115093   0.322   4.832   3.445
 1388SOL    HW215094   0.369   4.950   3.343
 1389SOL     OW15095   9.165   6.348   1.985
 1389SOL    HW115096   9.072   6.317   2.000
 1389SOL    HW215097   9.186   6.423   2.048
 1390SOL     OW15098   4.437   3.117   3.458
 1390SOL    HW115099   4.519   3.061   3.459
 1390SOL    HW215100   4.356   3.059   3.445
 1391SOL     OW15101   3.498   3.669   2.155
 1391SOL    HW115102   3.587   3.678   2.199
 1391SOL    HW215103   3.439   3.611   2.211
 1392SOL     OW15104   9.283   6.894   4.773
 1392SOL    HW115105   9.351   6.901   4.701
 1392SOL    HW215106   9.196   6.864   4.734
 1393SOL     OW15107   2.795   8.156   2.338
 1393SOL    HW115108   2.813   8.063   2.304
 1393SOL    HW215109   2.756   8.151   2.430
 1394SOL     OW15110   0.245   0.053   2.799
 1394SOL    HW115111   0.272   0.127   2.737
 1394SOL    HW215112   0.157   0.015   2.770
 1395SOL     OW15113   2.821   8.063   2.007
 1395SOL    HW115114   2.876   8.025   2.081
 1395SOL    HW215115   2.862   8.149   1.975
 1396SOL     OW15116   8.831   3.672   0.233
 1396SOL    HW115117   8.777   3.631   0.160
 1396SOL    HW215118   8.898   3.735   0.194
 1397SOL     OW15119   0.744   3.628   1.899
 1397SOL    HW115120   0.822   3.686   1.874
 1397SOL    HW215121   0.773   3.559   1.965
 1398SOL     OW15122   9.547   8.032   3.085
 1398SOL    HW115123   9.553   8.119   3.037
 1398SOL    HW215124   9.567   8.046   3.182
 1399SOL     OW15125   8.254   2.591   3.362
 1399SOL    HW115126   8.249   2.645   3.278
 1399SOL    HW215127   8.247   2.652   3.441
 1400SOL     OW15128   7.656   0.766   0.948
 1400SOL    HW115129   7.724   0.693   0.951
 1400SOL    HW215130   7.591   0.749   0.874
 1401SOL     OW15131   3.831   1.800   1.046
 1401SOL    HW115132   3.836   1.767   0.951
 1401SOL    HW215133   3.794   1.728   1.104
 1402SOL     OW15134   0.279   7.394   0.824
 1402SOL    HW115135   0.186   7.383   0.858
 1402SOL    HW215136   0.343   7.355   0.890
 1403SOL     OW15137   6.166   8.899   4.976
 1403SOL    HW115138   6.238   8.862   4.918
 1403SOL    HW215139   6.172   8.998   4.979
 1404SOL     OW15140   9.221   1.142   5.109
 1404SOL    HW115141   9.310   1.185   5.094
 1404SOL    HW215142   9.152   1.213   5.126
 1405SOL     OW15143   3.148   3.544   0.543
 1405SOL    HW115144   3.102   3.571   0.628
 1405SOL    HW215145   3.226   3.485   0.565
 1406SOL     OW15146   5.841   9.586   4.818
 1406SOL    HW115147   5.797   9.572   4.730
 1406SOL    HW215148   5.827   9.680   4.848
 1407SOL     OW15149   4.256   8.786   2.789
 1407SOL    HW115150   4.170   8.777   2.838
 1407SOL    HW215151   4.240   8.777   2.691
 1408SOL     OW15152   4.264   3.577   5.042
 1408SOL    HW115153   4.330   3.505   5.019
 1408SOL    HW215154   4.175   3.535   5.062
 1409SOL     OW15155   4.050   2.718   0.632
 1409SOL    HW115156   4.029   2.637   0.577
 1409SOL    HW215157   4.040   2.696   0.729
 1410SOL     OW15158   3.451   5.544   1.311
 1410SOL    HW115159   3.375   5.554   1.247
 1410SOL    HW215160   3.414   5.537   1.404
 1411SOL     OW15161   8.983   5.280   5.008
 1411SOL    HW115162   9.030   5.360   5.047
 1411SOL    HW215163   8.926   5.239   5.079
 1412SOL     OW15164   4.289   3.925   4.665
 1412SOL    HW115165   4.273   4.009   4.717
 1412SOL    HW215166   4.311   3.948   4.570
 1413SOL     OW15167   6.456   8.673   2.010
 1413SOL    HW115168   6.393   8.746   1.983
 1413SOL    HW215169   6.417   8.621   2.086
 1414SOL     OW15170   9.461   2.191   1.302
 1414SOL    HW115171   9.468   2.288   1.278
 1414SOL    HW215172   9.551   2.158   1.333
 1415SOL     OW15173   4.806   4.163   3.802
 1415SOL    HW115174   4.895   4.181   3.759
 1415SOL    HW215175   4.818   4.143   3.899
 1416SOL     OW15176   6.286   0.207   1.326
 1416SOL    HW115177   6.301   0.288   1.269
 1416SOL    HW215178   6.199   0.165   1.301
 1417SOL     OW15179   7.774   3.319   3.598
 1417SOL    HW115180   7.736   3.392   3.541
 1417SOL    HW215181   7.725   3.317   3.686
 1418SOL     OW15182   7.245   9.291   3.507
 1418SOL    HW115183   7.253   9.196   3.475
 1418SOL    HW215184   7.300   9.303   3.589
 1419SOL     OW15185   9.082   9.753   1.061
 1419SOL    HW115186   9.145   9.816   1.107
 1419SOL    HW215187   9.024   9.804   0.998
 1420SOL     OW15188   1.467   7.785   4.771
 1420SOL    HW115189   1.531   7.835   4.829
 1420SOL    HW215190   1.437   7.702   4.818
 1421SOL     OW15191   5.263   7.849   2.040
 1421SOL    HW115192   5.355   7.881   2.062
 1421SOL    HW215193   5.252   7.755   2.072
 1422SOL     OW15194   4.711   5.127   0.236
 1422SOL    HW115195   4.768   5.111   0.156
 1422SOL    HW215196   4.632   5.066   0.233
 1423SOL     OW15197   9.421   8.188   4.349
 1423SOL    HW115198   9.357   8.256   4.385
 1423SOL    HW215199   9.394   8.162   4.257
 1424SOL     OW15200   9.993   4.071   2.824
 1424SOL    HW115201   9.912   4.047   2.771
 1424SOL    HW215202   9.990   4.028   2.914
 1425SOL     OW15203   1.552   7.734   4.509
 1425SOL    HW115204   1.548   7.645   4.463
 1425SOL    HW215205   1.516   7.725   4.602
 1426SOL     OW15206   4.513   3.582   1.039
 1426SOL    HW115207   4.477   3.671   1.067
 1426SOL    HW215208   4.438   3.524   1.007
 1427SOL     OW15209   4.594   2.310   3.545
 1427SOL    HW115210   4.563   2.326   3.452
 1427SOL    HW215211   4.621   2.397   3.587
 1428SOL     OW15212   3.947   7.014   2.034
 1428SOL    HW115213   3.982   7.075   1.963
 1428SOL    HW215214   3.964   6.919   2.007
 1429SOL     OW15215   6.194   7.746   3.772
 1429SOL    HW115216   6.136   7.740   3.691
 1429SOL    HW215217   6.248   7.662   3.781
 1430SOL     OW15218   2.007   9.813   0.349
 1430SOL    HW115219   1.974   9.757   0.272
 1430SOL    HW215220   2.098   9.848   0.329
 1431SOL     OW15221   4.890   1.425   1.415
 1431SOL    HW115222   4.794   1.435   1.443
 1431SOL    HW215223   4.941   1.507   1.442
 1432SOL     OW15224   2.014   2.775   2.221
 1432SOL    HW115225   2.059   2.714   2.156
 1432SOL    HW215226   1.985   2.723   2.301
 1433SOL     OW15227   4.779   8.204   4.650
 1433SOL    HW115228   4.852   8.146   4.686
 1433SOL    HW215229   4.690   8.164   4.673
 1434SOL     OW15230   4.556   4.461   3.942
 1434SOL    HW115231   4.528   4.555   3.961
 1434SOL    HW215232   4.516   4.430   3.856
 1435SOL     OW15233   5.880   5.157   1.476
 1435SOL    HW115234   5.830   5.089   1.530
 1435SOL    HW215235   5.821   5.194   1.405
 1436SOL     OW15236   9.304   8.483   3.064
 1436SOL    HW115237   9.390   8.434   3.080
 1436SOL    HW215238   9.234   8.449   3.126
 1437SOL     OW15239   8.631   9.458   3.423
 1437SOL    HW115240   8.667   9.390   3.487
 1437SOL    HW215241   8.578   9.527   3.473
 1438SOL     OW15242   2.594   6.037   4.139
 1438SOL    HW115243   2.503   6.025   4.100
 1438SOL    HW215244   2.662   5.994   4.080
 1439SOL     OW15245   3.424   3.908   3.147
 1439SOL    HW115246   3.461   3.860   3.068
 1439SOL    HW215247   3.451   3.861   3.230
 1440SOL     OW15248   9.043   6.938   3.340
 1440SOL    HW115249   8.951   6.978   3.340
 1440SOL    HW215250   9.110   7.010   3.354
 1441SOL     OW15251   7.589   2.384   5.117
 1441SOL    HW115252   7.535   2.384   5.032
 1441SOL    HW215253   7.545   2.324   5.184
 1442SOL     OW15254   7.233   9.663   4.614
 1442SOL    HW115255   7.213   9.714   4.698
 1442SOL    HW215256   7.148   9.627   4.577
 1443SOL     OW15257   7.643   4.070   0.632
 1443SOL    HW115258   7.613   4.036   0.543
 1443SOL    HW215259   7.733   4.111   0.623
 1444SOL     OW15260   8.506   9.645   3.582
 1444SOL    HW115261   8.489   9.581   3.657
 1444SOL    HW215262   8.559   9.723   3.615
 1445SOL     OW15263   9.736   3.146   4.198
 1445SOL    HW115264   9.720   3.220   4.263
 1445SOL    HW215265   9.666   3.148   4.126
 1446SOL     OW15266   8.870   3.065   4.544
 1446SOL    HW115267   8.940   3.094   4.610
 1446SOL    HW215268   8.895   2.976   4.506
 1447SOL     OW15269   5.087   8.215   1.395
 1447SOL    HW115270   5.099   8.286   1.325
 1447SOL    HW215271   5.169   8.210   1.451
 1448SOL     OW15272   2.885   9.715   4.127
 1448SOL    HW115273   2.949   9.791   4.140
 1448SOL    HW215274   2.796   9.740   4.165
 1449SOL     OW15275   1.924   1.035   0.371
 1449SOL    HW115276   1.836   1.003   0.337
 1449SOL    HW215277   1.909   1.105   0.441
 1450SOL     OW15278   2.220   0.181   3.097
 1450SOL    HW115279   2.200   0.225   3.185
 1450SOL    HW215280   2.291   0.112   3.110
 1451SOL     OW15281   4.392   0.464   5.184
 1451SOL    HW115282   4.315   0.518   5.219
 1451SOL    HW215283   4.393   0.374   5.228
 1452SOL     OW15284   0.978   4.360   0.578
 1452SOL    HW115285   0.952   4.447   0.620
 1452SOL    HW215286   0.932   4.285   0.625
 1453SOL     OW15287   3.473   0.829   2.325
 1453SOL    HW115288   3.457   0.906   2.387
 1453SOL    HW215289   3.401   0.826   2.256
 1454SOL     OW15290   3.151   7.268   4.585
 1454SOL    HW115291   3.156   7.168   4.583
 1454SOL    HW215292   3.058   7.297   4.561
 1455SOL     OW15293   7.963   5.640   1.808
 1455SOL    HW115294   7.992   5.716   1.750
 1455SOL    HW215295   7.973   5.554   1.758
 1456SOL     OW15296   6.641   0.488   0.919
 1456SOL    HW115297   6.710   0.436   0.870
 1456SOL    HW215298   6.683   0.567   0.964
 1457SOL     OW15299   3.517   1.212   1.208
 1457SOL    HW115300   3.440   1.275   1.204
 1457SOL    HW215301   3.486   1.118   1.194
 1458SOL     OW15302   1.257   1.738   1.368
 1458SOL    HW115303   1.354   1.716   1.358
 1458SOL    HW215304   1.246   1.806   1.440
 1459SOL     OW15305   3.040   1.648   2.503
 1459SOL    HW115306   3.099   1.723   2.533
 1459SOL    HW215307   3.043   1.640   2.403
 1460SOL     OW15308   6.829   9.080   4.151
 1460SOL    HW115309   6.896   9.038   4.212
 1460SOL    HW215310   6.752   9.018   4.138
 1461SOL     OW15311   3.735   2.918   3.135
 1461SOL    HW115312   3.732   2.919   3.035
 1461SOL    HW215313   3.776   2.832   3.166
 1462SOL     OW15314   3.752   3.918   0.278
 1462SOL    HW115315   3.674   3.931   0.217
 1462SOL    HW215316   3.828   3.976   0.248
 1463SOL     OW15317   9.081   7.877   0.702
 1463SOL    HW115318   9.002   7.936   0.721
 1463SOL    HW215319   9.131   7.914   0.624
 1464SOL     OW15320   5.328   9.216   1.983
 1464SOL    HW115321   5.273   9.143   2.025
 1464SOL    HW215322   5.410   9.176   1.941
 1465SOL     OW15323   0.935   3.115   3.629
 1465SOL    HW115324   0.913   3.027   3.670
 1465SOL    HW215325   0.965   3.102   3.535
 1466SOL     OW15326   0.588   0.525   5.246
 1466SOL    HW115327   0.684   0.508   5.222
 1466SOL    HW215328   0.573   0.623   5.252
 1467SOL     OW15329   3.014   7.003   2.753
 1467SOL    HW115330   2.944   7.060   2.796
 1467SOL    HW215331   2.974   6.918   2.720
 1468SOL     OW15332   1.544   5.646   4.593
 1468SOL    HW115333   1.499   5.565   4.556
 1468SOL    HW215334   1.600   5.689   4.523
 1469SOL     OW15335   7.369   8.077   3.956
 1469SOL    HW115336   7.378   8.003   3.889
 1469SOL    HW215337   7.287   8.061   4.012
 1470SOL     OW15338   0.025   7.978   3.568
 1470SOL    HW115339   0.074   8.055   3.610
 1470SOL    HW215340   0.090   7.905   3.546
 1471SOL     OW15341   8.078   0.503   4.522
 1471SOL    HW115342   8.112   0.591   4.490
 1471SOL    HW215343   7.978   0.504   4.523
 1472SOL     OW15344   3.671   0.779   2.946
 1472SOL    HW115345   3.638   0.738   2.861
 1472SOL    HW215346   3.623   0.865   2.962
 1473SOL     OW15347   1.587   8.791   2.938
 1473SOL    HW115348   1.496   8.832   2.936
 1473SOL    HW215349   1.604   8.742   2.852
 1474SOL     OW15350   9.384   0.988   2.934
 1474SOL    HW115351   9.398   1.003   2.836
 1474SOL    HW215352   9.415   1.069   2.984
 1475SOL     OW15353   8.061   0.249   1.080
 1475SOL    HW115354   8.118   0.326   1.056
 1475SOL    HW215355   8.109   0.163   1.060
 1476SOL     OW15356   8.063   0.360   3.119
 1476SOL    HW115357   8.022   0.431   3.178
 1476SOL    HW215358   8.092   0.283   3.175
 1477SOL     OW15359   1.871   6.815   3.386
 1477SOL    HW115360   1.821   6.791   3.470
 1477SOL    HW215361   1.830   6.767   3.308
 1478SOL     OW15362   2.280   9.264   2.614
 1478SOL    HW115363   2.207   9.331   2.598
 1478SOL    HW215364   2.298   9.259   2.712
 1479SOL     OW15365   1.286   7.058   3.457
 1479SOL    HW115366   1.275   6.963   3.486
 1479SOL    HW215367   1.201   7.089   3.414
 1480SOL     OW15368   3.188   2.103   2.750
 1480SOL    HW115369   3.124   2.085   2.824
 1480SOL    HW215370   3.168   2.193   2.710
 1481SOL     OW15371   1.184   2.699   1.864
 1481SOL    HW115372   1.106   2.736   1.915
 1481SOL    HW215373   1.155   2.619   1.812
 1482SOL     OW15374   3.365   9.126   3.964
 1482SOL    HW115375   3.402   9.046   3.915
 1482SOL    HW215376   3.364   9.205   3.903
 1483SOL     OW15377   2.670   0.247   1.334
 1483SOL    HW115378   2.610   0.236   1.255
 1483SOL    HW215379   2.748   0.185   1.325
 1484SOL     OW15380   7.832   0.157   3.699
 1484SOL    HW115381   7.864   0.203   3.782
 1484SOL    HW215382   7.902   0.094   3.666
 1485SOL     OW15383   9.059   2.670   4.922
 1485SOL    HW115384   9.058   2.653   5.021
 1485SOL    HW215385   9.087   2.587   4.874
 1486SOL     OW15386   9.972   6.126   2.748
 1486SOL    HW115387   9.922   6.109   2.833
 1486SOL    HW215388   0.070   6.130   2.766
 1487SOL     OW15389   2.748   3.005   0.584
 1487SOL    HW115390   2.743   2.934   0.514
 1487SOL    HW215391   2.836   3.000   0.631
 1488SOL     OW15392   9.835   4.303   3.853
 1488SOL    HW115393   9.828   4.270   3.947
 1488SOL    HW215394   9.743   4.306   3.812
 1489SOL     OW15395   8.468   1.400   1.379
 1489SOL    HW115396   8.426   1.405   1.470
 1489SOL    HW215397   8.422   1.330   1.325
 1490SOL     OW15398   2.028   4.955   2.281
 1490SOL    HW115399   2.119   4.985   2.253
 1490SOL    HW215400   2.037   4.879   2.346
 1491SOL     OW15401   0.804   9.614   4.731
 1491SOL    HW115402   0.866   9.611   4.809
 1491SOL    HW215403   0.722   9.561   4.752
 1492SOL     OW15404   5.493   9.610   1.686
 1492SOL    HW115405   5.530   9.645   1.600
 1492SOL    HW215406   5.480   9.686   1.750
 1493SOL     OW15407   1.205   1.931   1.567
 1493SOL    HW115408   1.273   1.998   1.597
 1493SOL    HW215409   1.133   1.979   1.515
 1494SOL     OW15410   3.805   3.963   3.219
 1494SOL    HW115411   3.781   3.867   3.209
 1494SOL    HW215412   3.782   4.012   3.135
 1495SOL     OW15413   0.480   4.418   1.365
 1495SOL    HW115414   0.544   4.470   1.422
 1495SOL    HW215415   0.481   4.454   1.272
 1496SOL     OW15416   2.998   4.894   2.635
 1496SOL    HW115417   3.086   4.867   2.675
 1496SOL    HW215418   2.956   4.966   2.690
 1497SOL     OW15419   2.488   0.355   2.824
 1497SOL    HW115420   2.530   0.436   2.866
 1497SOL    HW215421   2.389   0.359   2.837
 1498SOL     OW15422   4.853   1.921   1.099
 1498SOL    HW115423   4.931   1.924   1.163
 1498SOL    HW215424   4.794   1.844   1.123
 1499SOL     OW15425   9.719   2.603   2.014
 1499SOL    HW115426   9.739   2.692   1.973
 1499SOL    HW215427   9.651   2.614   2.086
 1500SOL     OW15428   9.149   1.905   3.230
 1500SOL    HW115429   9.203   1.989   3.234
 1500SOL    HW215430   9.081   1.912   3.157
 1501SOL     OW15431   9.774   2.521   2.692
 1501SOL    HW115432   9.722   2.575   2.625
 1501SOL    HW215433   9.794   2.431   2.653
 1502SOL     OW15434   3.377   5.665   2.297
 1502SOL    HW115435   3.394   5.644   2.394
 1502SOL    HW215436   3.285   5.636   2.272
 1503SOL     OW15437   5.300   8.339   2.069
 1503SOL    HW115438   5.278   8.322   2.165
 1503SOL    HW215439   5.234   8.404   2.031
 1504SOL     OW15440   1.562   3.975   2.680
 1504SOL    HW115441   1.518   3.988   2.591
 1504SOL    HW215442   1.604   4.061   2.709
 1505SOL     OW15443   3.225   0.682   3.540
 1505SOL    HW115444   3.202   0.779   3.553
 1505SOL    HW215445   3.213   0.634   3.627
 1506SOL     OW15446   8.202   3.559   0.353
 1506SOL    HW115447   8.226   3.640   0.299
 1506SOL    HW215448   8.108   3.567   0.385
 1507SOL     OW15449   4.111   2.359   2.193
 1507SOL    HW115450   4.176   2.323   2.125
 1507SOL    HW215451   4.107   2.296   2.271
 1508SOL     OW15452   1.152   5.024   4.245
 1508SOL    HW115453   1.226   5.071   4.198
 1508SOL    HW215454   1.174   5.018   4.343
 1509SOL     OW15455   3.466   4.604   4.552
 1509SOL    HW115456   3.423   4.623   4.640
 1509SOL    HW215457   3.399   4.616   4.479
 1510SOL     OW15458   3.670   5.714   1.310
 1510SOL    HW115459   3.743   5.684   1.371
 1510SOL    HW215460   3.598   5.645   1.309
 1511SOL     OW15461   9.453   8.486   1.304
 1511SOL    HW115462   9.535   8.512   1.355
 1511SOL    HW215463   9.372   8.507   1.358
 1512SOL     OW15464   0.516   2.379   4.968
 1512SOL    HW115465   0.482   2.403   5.059
 1512SOL    HW215466   0.616   2.383   4.968
 1513SOL     OW15467   0.985   9.172   2.957
 1513SOL    HW115468   1.076   9.157   2.918
 1513SOL    HW215469   0.963   9.269   2.955
 1514SOL     OW15470   8.033   8.667   2.439
 1514SOL    HW115471   8.104   8.604   2.470
 1514SOL    HW215472   8.000   8.721   2.517
 1515SOL     OW15473   4.390   3.754   4.238
 1515SOL    HW115474   4.359   3.758   4.143
 1515SOL    HW215475   4.490   3.763   4.242
 1516SOL     OW15476   0.410   5.695   2.725
 1516SOL    HW115477   0.360   5.654   2.649
 1516SOL    HW215478   0.500   5.653   2.733
 1517SOL     OW15479   6.779   2.205   2.919
 1517SOL    HW115480   6.714   2.191   2.994
 1517SOL    HW215481   6.730   2.204   2.832
 1518SOL     OW15482   5.515   7.861   3.265
 1518SOL    HW115483   5.500   7.960   3.271
 1518SOL    HW215484   5.529   7.824   3.357
 1519SOL     OW15485   3.895   0.658   4.050
 1519SOL    HW115486   3.895   0.558   4.054
 1519SOL    HW215487   3.838   0.689   3.974
 1520SOL     OW15488   2.137   0.428   1.960
 1520SOL    HW115489   2.070   0.490   2.001
 1520SOL    HW215490   2.213   0.414   2.023
 1521SOL     OW15491   8.269   4.279   0.606
 1521SOL    HW115492   8.216   4.236   0.679
 1521SOL    HW215493   8.261   4.225   0.522
 1522SOL     OW15494   4.029   3.324   3.153
 1522SOL    HW115495   4.122   3.360   3.157
 1522SOL    HW215496   4.025   3.236   3.200
 1523SOL     OW15497   3.796   2.501   3.679
 1523SOL    HW115498   3.744   2.580   3.712
 1523SOL    HW215499   3.732   2.428   3.653
 1524SOL     OW15500   2.808   0.190   3.989
 1524SOL    HW115501   2.808   0.290   3.994
 1524SOL    HW215502   2.744   0.159   3.919
 1525SOL     OW15503   3.493   1.961   3.320
 1525SOL    HW115504   3.525   1.886   3.261
 1525SOL    HW215505   3.537   2.046   3.293
 1526SOL     OW15506   9.301   1.710   2.538
 1526SOL    HW115507   9.328   1.754   2.623
 1526SOL    HW215508   9.303   1.777   2.464
 1527SOL     OW15509   8.137   3.400   2.937
 1527SOL    HW115510   8.112   3.481   2.885
 1527SOL    HW215511   8.059   3.337   2.941
 1528SOL     OW15512   5.543   9.801   4.629
 1528SOL    HW115513   5.588   9.890   4.645
 1528SOL    HW215514   5.508   9.799   4.535
 1529SOL     OW15515   0.802   6.938   4.156
 1529SOL    HW115516   0.783   7.028   4.195
 1529SOL    HW215517   0.883   6.899   4.201
 1530SOL     OW15518   1.449   9.592   3.009
 1530SOL    HW115519   1.504   9.587   3.092
 1530SOL    HW215520   1.353   9.575   3.031
 1531SOL     OW15521   5.761   9.828   4.928
 1531SOL    HW115522   5.779   9.925   4.912
 1531SOL    HW215523   5.663   9.811   4.930
 1532SOL     OW15524   3.427   4.927   1.012
 1532SOL    HW115525   3.331   4.906   0.998
 1532SOL    HW215526   3.484   4.857   0.968
 1533SOL     OW15527   0.039   1.546   4.394
 1533SOL    HW115528   9.995   1.486   4.461
 1533SOL    HW215529   0.071   1.492   4.316
 1534SOL     OW15530   2.412   5.050   0.343
 1534SOL    HW115531   2.501   5.097   0.340
 1534SOL    HW215532   2.412   4.975   0.278
 1535SOL     OW15533   2.964   6.318   0.665
 1535SOL    HW115534   2.921   6.258   0.597
 1535SOL    HW215535   2.999   6.263   0.740
 1536SOL     OW15536   8.011   4.268   2.855
 1536SOL    HW115537   7.930   4.305   2.810
 1536SOL    HW215538   8.021   4.309   2.945
 1537SOL     OW15539   1.065   4.023   2.089
 1537SOL    HW115540   0.972   4.039   2.121
 1537SOL    HW215541   1.067   4.022   1.989
 1538SOL     OW15542   4.319   1.055   4.398
 1538SOL    HW115543   4.290   0.996   4.323
 1538SOL    HW215544   4.417   1.074   4.389
 1539SOL     OW15545   8.946   6.789   1.821
 1539SOL    HW115546   8.918   6.862   1.884
 1539SOL    HW215547   8.951   6.702   1.871
 1540SOL     OW15548   5.011   8.734   2.156
 1540SOL    HW115549   5.063   8.792   2.218
 1540SOL    HW215550   5.023   8.638   2.182
 1541SOL     OW15551   8.319   7.945   5.099
 1541SOL    HW115552   8.222   7.939   5.123
 1541SOL    HW215553   8.340   7.880   5.026
 1542SOL     OW15554   2.707   5.363   1.752
 1542SOL    HW115555   2.731   5.356   1.655
 1542SOL    HW215556   2.704   5.271   1.792
 1543SOL     OW15557   3.168   3.946   0.798
 1543SOL    HW115558   3.075   3.985   0.794
 1543SOL    HW215559   3.219   3.990   0.872
 1544SOL     OW15560   8.678   2.861   3.845
 1544SOL    HW115561   8.582   2.875   3.865
 1544SOL    HW215562   8.733   2.874   3.928
 1545SOL     OW15563   0.535   6.374   2.568
 1545SOL    HW115564   0.613   6.422   2.609
 1545SOL    HW215565   0.525   6.402   2.473
 1546SOL     OW15566   7.188   0.920   2.760
 1546SOL    HW115567   7.274   0.870   2.772
 1546SOL    HW215568   7.178   0.987   2.834
 1547SOL     OW15569   2.273   4.146   1.510
 1547SOL    HW115570   2.295   4.237   1.546
 1547SOL    HW215571   2.338   4.080   1.546
 1548SOL     OW15572   2.798   5.103   2.377
 1548SOL    HW115573   2.796   5.165   2.455
 1548SOL    HW215574   2.892   5.074   2.360
 1549SOL     OW15575   2.162   6.188   0.089
 1549SOL    HW115576   2.088   6.256   0.090
 1549SOL    HW215577   2.244   6.227   0.129
 1550SOL     OW15578   9.713   8.682   5.160
 1550SOL    HW115579   9.692   8.700   5.257
 1550SOL    HW215580   9.638   8.630   5.119
 1551SOL     OW15581   8.637   5.321   2.238
 1551SOL    HW115582   8.717   5.298   2.183
 1551SOL    HW215583   8.593   5.402   2.199
 1552SOL     OW15584   0.566   5.865   5.177
 1552SOL    HW115585   0.538   5.782   5.226
 1552SOL    HW215586   0.530   5.945   5.225
 1553SOL     OW15587   1.235   9.581   3.793
 1553SOL    HW115588   1.239   9.482   3.780
 1553SOL    HW215589   1.149   9.605   3.838
 1554SOL     OW15590   3.550   3.342   1.278
 1554SOL    HW115591   3.573   3.250   1.244
 1554SOL    HW215592   3.513   3.335   1.371
 1555SOL     OW15593   4.169   6.672   1.529
 1555SOL    HW115594   4.134   6.732   1.457
 1555SOL    HW215595   4.249   6.715   1.571
 1556SOL     OW15596   1.849   0.822   3.510
 1556SOL    HW115597   1.789   0.758   3.461
 1556SOL    HW215598   1.943   0.787   3.507
 1557SOL     OW15599   1.910   2.194   3.957
 1557SOL    HW115600   1.993   2.151   3.922
 1557SOL    HW215601   1.921   2.215   4.054
 1558SOL     OW15602   4.376   8.812   1.549
 1558SOL    HW115603   4.450   8.874   1.576
 1558SOL    HW215604   4.288   8.854   1.570
 1559SOL     OW15605   8.754   3.348   1.500
 1559SOL    HW115606   8.656   3.334   1.486
 1559SOL    HW215607   8.787   3.418   1.437
 1560SOL     OW15608   7.713   8.692   3.045
 1560SOL    HW115609   7.784   8.622   3.034
 1560SOL    HW215610   7.667   8.706   2.957
 1561SOL     OW15611   6.310   9.763   3.459
 1561SOL    HW115612   6.240   9.762   3.531
 1561SOL    HW215613   6.386   9.821   3.489
 1562SOL     OW15614   2.191   0.581   3.720
 1562SOL    HW115615   2.258   0.516   3.683
 1562SOL    HW215616   2.107   0.532   3.744
 1563SOL     OW15617   5.388   0.937   5.175
 1563SOL    HW115618   5.300   0.890   5.174
 1563SOL    HW215619   5.458   0.878   5.135
 1564SOL     OW15620   6.048   0.428   4.219
 1564SOL    HW115621   6.104   0.346   4.211
 1564SOL    HW215622   6.093   0.505   4.174
 1565SOL     OW15623   1.208   3.082   1.646
 1565SOL    HW115624   1.276   3.144   1.608
 1565SOL    HW215625   1.200   3.001   1.588
 1566SOL     OW15626   3.982   4.097   2.949
 1566SOL    HW115627   3.999   4.187   2.989
 1566SOL    HW215628   3.884   4.082   2.941
 1567SOL     OW15629   8.929   5.184   0.907
 1567SOL    HW115630   8.921   5.125   0.826
 1567SOL    HW215631   9.024   5.215   0.916
 1568SOL     OW15632   0.190   1.396   3.454
 1568SOL    HW115633   0.247   1.461   3.504
 1568SOL    HW215634   0.233   1.305   3.457
 1569SOL     OW15635   2.010   9.968   5.162
 1569SOL    HW115636   2.010   9.991   5.260
 1569SOL    HW215637   2.047   0.046   5.110
 1570SOL     OW15638   5.406   8.734   4.357
 1570SOL    HW115639   5.488   8.707   4.408
 1570SOL    HW215640   5.420   8.716   4.260
 1571SOL     OW15641   0.837   7.104   4.932
 1571SOL    HW115642   0.907   7.151   4.985
 1571SOL    HW215643   0.747   7.125   4.970
 1572SOL     OW15644   1.982   8.280   4.728
 1572SOL    HW115645   2.076   8.289   4.760
 1572SOL    HW215646   1.958   8.183   4.723
 1573SOL     OW15647   2.986   7.340   4.935
 1573SOL    HW115648   2.920   7.409   4.906
 1573SOL    HW215649   2.958   7.251   4.898
 1574SOL     OW15650   0.511   5.530   0.578
 1574SOL    HW115651   0.566   5.457   0.617
 1574SOL    HW215652   0.457   5.494   0.502
 1575SOL     OW15653   9.959   7.082   0.927
 1575SOL    HW115654   9.868   7.095   0.888
 1575SOL    HW215655   0.001   7.001   0.887
 1576SOL     OW15656   1.120   2.048   3.577
 1576SOL    HW115657   1.138   2.123   3.514
 1576SOL    HW215658   1.198   2.038   3.639
 1577SOL     OW15659   1.547   9.546   4.721
 1577SOL    HW115660   1.543   9.472   4.789
 1577SOL    HW215661   1.584   9.628   4.763
 1578SOL     OW15662   3.634   4.366   1.320
 1578SOL    HW115663   3.687   4.412   1.248
 1578SOL    HW215664   3.601   4.278   1.286
 1579SOL     OW15665   0.309   2.719   3.855
 1579SOL    HW115666   0.259   2.697   3.938
 1579SOL    HW215667   0.300   2.817   3.835
 1580SOL     OW15668   9.952   1.327   3.565
 1580SOL    HW115669   0.031   1.364   3.517
 1580SOL    HW215670   9.906   1.260   3.506
 1581SOL     OW15671   0.035   6.149   3.173
 1581SOL    HW115672   0.133   6.167   3.174
 1581SOL    HW215673   9.987   6.221   3.224
 1582SOL     OW15674   3.484   0.667   3.455
 1582SOL    HW115675   3.526   0.743   3.504
 1582SOL    HW215676   3.388   0.658   3.482
 1583SOL     OW15677   3.724   0.216   3.546
 1583SOL    HW115678   3.714   0.307   3.507
 1583SOL    HW215679   3.790   0.164   3.491
 1584SOL     OW15680   8.153   7.618   3.821
 1584SOL    HW115681   8.173   7.646   3.727
 1584SOL    HW215682   8.059   7.586   3.828
 1585SOL     OW15683   0.356   4.429   3.422
 1585SOL    HW115684   0.455   4.439   3.421
 1585SOL    HW215685   0.319   4.450   3.331
 1586SOL     OW15686   9.724   5.446   3.577
 1586SOL    HW115687   9.641   5.390   3.574
 1586SOL    HW215688   9.710   5.522   3.641
 1587SOL     OW15689   1.741   8.468   5.222
 1587SOL    HW115690   1.818   8.531   5.220
 1587SOL    HW215691   1.660   8.516   5.256
 1588SOL     OW15692   7.676   1.172   4.231
 1588SOL    HW115693   7.716   1.250   4.280
 1588SOL    HW215694   7.750   1.113   4.198
 1589SOL     OW15695   2.999   2.937   0.684
 1589SOL    HW115696   2.985   2.853   0.735
 1589SOL    HW215697   3.057   2.999   0.737
 1590SOL     OW15698   6.110   0.082   4.826
 1590SOL    HW115699   6.117   0.011   4.755
 1590SOL    HW215700   6.068   0.164   4.786
 1591SOL     OW15701   1.051   1.431   5.115
 1591SOL    HW115702   1.052   1.337   5.080
 1591SOL    HW215703   1.049   1.495   5.038
 1592SOL     OW15704   2.833   9.436   2.424
 1592SOL    HW115705   2.802   9.406   2.514
 1592SOL    HW215706   2.901   9.372   2.389
 1593SOL     OW15707   8.207   4.394   1.025
 1593SOL    HW115708   8.168   4.430   1.109
 1593SOL    HW215709   8.203   4.464   0.953
 1594SOL     OW15710   6.691   8.887   2.575
 1594SOL    HW115711   6.742   8.808   2.541
 1594SOL    HW215712   6.728   8.914   2.664
 1595SOL     OW15713   4.770   5.382   2.091
 1595SOL    HW115714   4.827   5.452   2.134
 1595SOL    HW215715   4.808   5.358   2.001
 1596SOL     OW15716   0.784   1.067   3.202
 1596SOL    HW115717   0.871   1.060   3.153
 1596SOL    HW215718   0.736   0.979   3.198
 1597SOL     OW15719   4.813   8.397   3.528
 1597SOL    HW115720   4.781   8.412   3.621
 1597SOL    HW215721   4.867   8.476   3.498
 1598SOL     OW15722   2.701   9.122   3.433
 1598SOL    HW115723   2.611   9.110   3.392
 1598SOL    HW215724   2.770   9.081   3.374
 1599SOL     OW15725   8.601   5.828   1.164
 1599SOL    HW115726   8.556   5.801   1.249
 1599SOL    HW215727   8.620   5.746   1.110
 1600SOL     OW15728   0.193   4.512   2.794
 1600SOL    HW115729   0.134   4.450   2.847
 1600SOL    HW215730   0.152   4.527   2.704
 1601SOL     OW15731   0.369   4.053   4.767
 1601SOL    HW115732   0.451   4.074   4.819
 1601SOL    HW215733   0.288   4.082   4.819
 1602SOL     OW15734   8.805   0.295   1.272
 1602SOL    HW115735   8.853   0.285   1.359
 1602SOL    HW215736   8.814   0.389   1.240
 1603SOL     OW15737   5.102   4.390   0.965
 1603SOL    HW115738   5.093   4.484   0.997
 1603SOL    HW215739   5.092   4.327   1.042
 1604SOL     OW15740   0.476   4.795   1.244
 1604SOL    HW115741   0.492   4.880   1.193
 1604SOL    HW215742   0.529   4.797   1.329
 1605SOL     OW15743   7.601   0.971   5.211
 1605SOL    HW115744   7.561   1.059   5.238
 1605SOL    HW215745   7.529   0.911   5.176
 1606SOL     OW15746   2.384   3.904   2.327
 1606SOL    HW115747   2.456   3.837   2.311
 1606SOL    HW215748   2.423   3.996   2.322
 1607SOL     OW15749   9.371   2.064   2.797
 1607SOL    HW115750   9.368   1.964   2.801
 1607SOL    HW215751   9.447   2.092   2.738
 1608SOL     OW15752   4.969   0.844   4.101
 1608SOL    HW115753   5.055   0.811   4.139
 1608SOL    HW215754   4.909   0.767   4.079
 1609SOL     OW15755   9.899   1.791   4.368
 1609SOL    HW115756   9.949   1.705   4.378
 1609SOL    HW215757   9.927   1.855   4.440
 1610SOL     OW15758   2.208   5.642   4.066
 1610SOL    HW115759   2.177   5.725   4.019
 1610SOL    HW215760   2.246   5.666   4.155
 1611SOL     OW15761   8.165   7.988   2.925
 1611SOL    HW115762   8.193   7.907   2.874
 1611SOL    HW215763   8.203   7.984   3.018
 1612SOL     OW15764   8.266   7.730   4.925
 1612SOL    HW115765   8.189   7.768   4.977
 1612SOL    HW215766   8.230   7.676   4.849
 1613SOL     OW15767   8.431   4.936   0.118
 1613SOL    HW115768   8.460   4.844   0.094
 1613SOL    HW215769   8.500   4.980   0.175
 1614SOL     OW15770   4.912   0.673   3.749
 1614SOL    HW115771   4.985   0.742   3.752
 1614SOL    HW215772   4.863   0.681   3.662
 1615SOL     OW15773   3.929   0.539   5.183
 1615SOL    HW115774   4.027   0.543   5.203
 1615SOL    HW215775   3.915   0.498   5.093
 1616SOL     OW15776   9.002   2.578   3.391
 1616SOL    HW115777   9.039   2.570   3.299
 1616SOL    HW215778   9.000   2.487   3.434
 1617SOL     OW15779   3.000   6.980   0.805
 1617SOL    HW115780   3.007   7.045   0.880
 1617SOL    HW215781   2.947   7.021   0.731
 1618SOL     OW15782   9.921   1.583   1.958
 1618SOL    HW115783   9.823   1.599   1.964
 1618SOL    HW215784   9.958   1.565   2.049
 1619SOL     OW15785   1.733   2.630   3.171
 1619SOL    HW115786   1.750   2.532   3.163
 1619SOL    HW215787   1.695   2.649   3.262
 1620SOL     OW15788   8.797   1.684   4.657
 1620SOL    HW115789   8.863   1.759   4.663
 1620SOL    HW215790   8.808   1.636   4.570
 1621SOL     OW15791   0.078   8.358   4.384
 1621SOL    HW115792   0.106   8.434   4.443
 1621SOL    HW215793   0.133   8.278   4.405
 1622SOL     OW15794   5.666   8.335   4.681
 1622SOL    HW115795   5.645   8.350   4.585
 1622SOL    HW215796   5.765   8.331   4.694
 1623SOL     OW15797   8.732   8.869   1.413
 1623SOL    HW115798   8.755   8.816   1.331
 1623SOL    HW215799   8.668   8.942   1.389
 1624SOL     OW15800   1.699   1.054   2.332
 1624SOL    HW115801   1.728   0.969   2.376
 1624SOL    HW215802   1.780   1.107   2.307
 1625SOL     OW15803   9.826   2.522   1.717
 1625SOL    HW115804   9.859   2.480   1.801
 1625SOL    HW215805   9.782   2.452   1.660
 1626SOL     OW15806   8.392   2.355   0.614
 1626SOL    HW115807   8.358   2.261   0.606
 1626SOL    HW215808   8.314   2.418   0.620
 1627SOL     OW15809   7.057   2.194   0.844
 1627SOL    HW115810   7.154   2.172   0.844
 1627SOL    HW215811   7.015   2.158   0.928
 1628SOL     OW15812   3.310   6.748   4.944
 1628SOL    HW115813   3.271   6.656   4.943
 1628SOL    HW215814   3.332   6.773   5.038
 1629SOL     OW15815   9.607   5.350   0.535
 1629SOL    HW115816   9.620   5.251   0.527
 1629SOL    HW215817   9.657   5.396   0.462
 1630SOL     OW15818   4.308   3.560   2.134
 1630SOL    HW115819   4.344   3.653   2.135
 1630SOL    HW215820   4.302   3.527   2.039
 1631SOL     OW15821   3.271   6.625   1.411
 1631SOL    HW115822   3.306   6.719   1.408
 1631SOL    HW215823   3.190   6.618   1.354
 1632SOL     OW15824   3.891   3.380   4.870
 1632SOL    HW115825   3.845   3.303   4.914
 1632SOL    HW215826   3.941   3.433   4.938
 1633SOL     OW15827   3.442   9.421   4.089
 1633SOL    HW115828   3.486   9.502   4.128
 1633SOL    HW215829   3.496   9.340   4.111
 1634SOL     OW15830   6.067   9.672   3.037
 1634SOL    HW115831   6.077   9.687   3.135
 1634SOL    HW215832   6.156   9.651   2.996
 1635SOL     OW15833   1.750   3.227   4.249
 1635SOL    HW115834   1.717   3.148   4.301
 1635SOL    HW215835   1.698   3.236   4.164
 1636SOL     OW15836   1.847   5.698   2.496
 1636SOL    HW115837   1.761   5.748   2.494
 1636SOL    HW215838   1.900   5.720   2.415
 1637SOL     OW15839   3.337   9.969   2.292
 1637SOL    HW115840   3.246   9.993   2.326
 1637SOL    HW215841   3.376   9.898   2.350
 1638SOL     OW15842   8.787   5.642   2.147
 1638SOL    HW115843   8.695   5.605   2.162
 1638SOL    HW215844   8.847   5.612   2.221
 1639SOL     OW15845   1.575   9.408   0.226
 1639SOL    HW115846   1.544   9.498   0.258
 1639SOL    HW215847   1.573   9.344   0.302
 1640SOL     OW15848   3.574   6.274   0.375
 1640SOL    HW115849   3.622   6.292   0.461
 1640SOL    HW215850   3.478   6.255   0.394
 1641SOL     OW15851   9.358   5.134   0.730
 1641SOL    HW115852   9.330   5.073   0.655
 1641SOL    HW215853   9.453   5.115   0.754
 1642SOL     OW15854   9.229   4.952   4.414
 1642SOL    HW115855   9.302   5.017   4.392
 1642SOL    HW215856   9.253   4.900   4.496
 1643SOL     OW15857   2.676   3.288   2.475
 1643SOL    HW115858   2.624   3.292   2.390
 1643SOL    HW215859   2.625   3.333   2.548
 1644SOL     OW15860   2.757   6.580   4.423
 1644SOL    HW115861   2.727   6.659   4.371
 1644SOL    HW215862   2.819   6.610   4.496
 1645SOL     OW15863   8.159   6.174   4.488
 1645SOL    HW115864   8.248   6.134   4.508
 1645SOL    HW215865   8.088   6.105   4.501
 1646SOL     OW15866   1.284   4.607   4.666
 1646SOL    HW115867   1.305   4.590   4.570
 1646SOL    HW215868   1.197   4.564   4.689
 1647SOL     OW15869   4.766   0.262   0.261
 1647SOL    HW115870   4.809   0.241   0.349
 1647SOL    HW215871   4.735   0.178   0.218
 1648SOL     OW15872   3.327   7.379   1.275
 1648SOL    HW115873   3.240   7.331   1.291
 1648SOL    HW215874   3.324   7.468   1.321
 1649SOL     OW15875   8.578   2.920   3.362
 1649SOL    HW115876   8.648   2.851   3.383
 1649SOL    HW215877   8.524   2.939   3.443
 1650SOL     OW15878   0.849   3.810   0.385
 1650SOL    HW115879   0.939   3.767   0.385
 1650SOL    HW215880   0.784   3.751   0.336
 1651SOL     OW15881   2.072   7.384   1.054
 1651SOL    HW115882   2.133   7.313   1.019
 1651SOL    HW215883   2.126   7.457   1.095
 1652SOL     OW15884   5.063   8.465   1.947
 1652SOL    HW115885   5.038   8.374   1.913
 1652SOL    HW215886   5.036   8.473   2.043
 1653SOL     OW15887   3.135   0.669   2.471
 1653SOL    HW115888   3.163   0.583   2.429
 1653SOL    HW215889   3.187   0.684   2.555
 1654SOL     OW15890   2.277   5.182   4.392
 1654SOL    HW115891   2.270   5.280   4.408
 1654SOL    HW215892   2.213   5.155   4.320
 1655SOL     OW15893   2.663   9.325   3.855
 1655SOL    HW115894   2.740   9.377   3.820
 1655SOL    HW215895   2.678   9.304   3.952
 1656SOL     OW15896   0.770   4.590   2.942
 1656SOL    HW115897   0.701   4.639   2.887
 1656SOL    HW215898   0.784   4.638   3.029
 1657SOL     OW15899   1.338   5.489   4.832
 1657SOL    HW115900   1.425   5.539   4.836
 1657SOL    HW215901   1.315   5.456   4.924
 1658SOL     OW15902   7.643   1.737   0.435
 1658SOL    HW115903   7.707   1.784   0.374
 1658SOL    HW215904   7.550   1.759   0.408
 1659SOL     OW15905   9.013   8.819   2.014
 1659SOL    HW115906   9.037   8.861   2.101
 1659SOL    HW215907   8.977   8.727   2.030
 1660SOL     OW15908   7.942   7.045   3.341
 1660SOL    HW115909   7.963   7.100   3.422
 1660SOL    HW215910   8.027   7.006   3.304
 1661SOL     OW15911   8.931   6.747   2.917
 1661SOL    HW115912   8.859   6.801   2.961
 1661SOL    HW215913   8.893   6.658   2.889
 1662SOL     OW15914   0.469   5.131   2.919
 1662SOL    HW115915   0.508   5.174   2.837
 1662SOL    HW215916   0.473   5.195   2.995
 1663SOL     OW15917   7.786   1.855   5.224
 1663SOL    HW115918   7.883   1.868   5.205
 1663SOL    HW215919   7.772   1.767   5.269
 1664SOL     OW15920   3.817   5.477   0.687
 1664SOL    HW115921   3.753   5.455   0.760
 1664SOL    HW215922   3.784   5.557   0.636
 1665SOL     OW15923   3.274   1.647   4.999
 1665SOL    HW115924   3.364   1.686   5.013
 1665SOL    HW215925   3.224   1.700   4.930
 1666SOL     OW15926   8.478   3.315   1.456
 1666SOL    HW115927   8.459   3.378   1.381
 1666SOL    HW215928   8.444   3.224   1.433
 1667SOL     OW15929   7.641   9.319   1.758
 1667SOL    HW115930   7.632   9.237   1.814
 1667SOL    HW215931   7.554   9.337   1.711
 1668SOL     OW15932   1.830   0.963   3.752
 1668SOL    HW115933   1.817   0.893   3.682
 1668SOL    HW215934   1.862   1.047   3.709
 1669SOL     OW15935   1.929   8.226   3.669
 1669SOL    HW115936   1.889   8.135   3.684
 1669SOL    HW215937   2.024   8.226   3.701
 1670SOL     OW15938   1.908   1.065   1.661
 1670SOL    HW115939   1.933   1.046   1.566
 1670SOL    HW215940   1.978   1.122   1.704
 1671SOL     OW15941   9.824   0.927   3.718
 1671SOL    HW115942   9.771   0.843   3.731
 1671SOL    HW215943   9.765   0.997   3.678
 1672SOL     OW15944   5.877   7.525   4.472
 1672SOL    HW115945   5.779   7.516   4.489
 1672SOL    HW215946   5.896   7.505   4.376
 1673SOL     OW15947   2.027   9.167   4.485
 1673SOL    HW115948   1.958   9.229   4.522
 1673SOL    HW215949   1.987   9.112   4.412
 1674SOL     OW15950   7.813   1.647   0.893
 1674SOL    HW115951   7.828   1.552   0.868
 1674SOL    HW215952   7.747   1.688   0.829
 1675SOL     OW15953   1.015   4.537   5.072
 1675SOL    HW115954   1.020   4.629   5.111
 1675SOL    HW215955   1.061   4.473   5.133
 1676SOL     OW15956   8.650   7.056   1.854
 1676SOL    HW115957   8.594   6.973   1.849
 1676SOL    HW215958   8.739   7.033   1.894
 1677SOL     OW15959   2.370   2.491   2.023
 1677SOL    HW115960   2.289   2.547   2.039
 1677SOL    HW215961   2.357   2.401   2.064
 1678SOL     OW15962   5.329   1.655   5.203
 1678SOL    HW115963   5.323   1.732   5.267
 1678SOL    HW215964   5.237   1.627   5.176
 1679SOL     OW15965   4.061   7.161   1.830
 1679SOL    HW115966   4.009   7.197   1.753
 1679SOL    HW215967   4.111   7.079   1.802
 1680SOL     OW15968   5.918   0.847   1.577
 1680SOL    HW115969   5.966   0.933   1.596
 1680SOL    HW215970   5.852   0.830   1.650
 1681SOL     OW15971   8.459   7.226   1.115
 1681SOL    HW115972   8.444   7.145   1.172
 1681SOL    HW215973   8.553   7.227   1.081
 1682SOL     OW15974   3.201   6.767   3.713
 1682SOL    HW115975   3.264   6.824   3.660
 1682SOL    HW215976   3.109   6.776   3.675
 1683SOL     OW15977   7.979   9.216   3.682
 1683SOL    HW115978   8.015   9.295   3.631
 1683SOL    HW215979   7.922   9.249   3.757
 1684SOL     OW15980   5.636   2.336   3.548
 1684SOL    HW115981   5.613   2.269   3.478
 1684SOL    HW215982   5.648   2.290   3.636
 1685SOL     OW15983   5.707   5.043   0.899
 1685SOL    HW115984   5.803   5.032   0.876
 1685SOL    HW215985   5.694   5.028   0.998
 1686SOL     OW15986   3.391   8.488   4.539
 1686SOL    HW115987   3.447   8.462   4.617
 1686SOL    HW215988   3.423   8.441   4.457
 1687SOL     OW15989   4.943   1.225   1.239
 1687SOL    HW115990   5.042   1.211   1.246
 1687SOL    HW215991   4.916   1.299   1.300
 1688SOL     OW15992   4.851   7.387   3.752
 1688SOL    HW115993   4.839   7.313   3.685
 1688SOL    HW215994   4.947   7.412   3.757
 1689SOL     OW15995   9.150   5.460   4.436
 1689SOL    HW115996   9.208   5.411   4.372
 1689SOL    HW215997   9.090   5.396   4.484
 1690SOL     OW15998   0.753   2.139   2.702
 1690SOL    HW115999   0.832   2.104   2.652
 1690SOL    HW216000   0.706   2.207   2.646
 1691SOL     OW16001   1.546   3.858   1.548
 1691SOL    HW116002   1.458   3.857   1.596
 1691SOL    HW216003   1.610   3.917   1.596
 1692SOL     OW16004   1.325   7.686   1.999
 1692SOL    HW116005   1.233   7.684   2.040
 1692SOL    HW216006   1.360   7.779   2.002
 1693SOL     OW16007   8.990   6.860   0.391
 1693SOL    HW116008   9.014   6.840   0.485
 1693SOL    HW216009   9.061   6.824   0.330
 1694SOL     OW16010   3.140   8.488   0.550
 1694SOL    HW116011   3.138   8.507   0.452
 1694SOL    HW216012   3.196   8.407   0.568
 1695SOL     OW16013   4.882   2.865   2.252
 1695SOL    HW116014   4.785   2.846   2.234
 1695SOL    HW216015   4.939   2.798   2.206
 1696SOL     OW16016   8.052   5.149   5.052
 1696SOL    HW116017   7.979   5.197   5.004
 1696SOL    HW216018   8.021   5.058   5.078
 1697SOL     OW16019   1.673   5.446   3.355
 1697SOL    HW116020   1.623   5.507   3.294
 1697SOL    HW216021   1.771   5.454   3.337
 1698SOL     OW16022   8.590   2.867   4.553
 1698SOL    HW116023   8.503   2.853   4.601
 1698SOL    HW216024   8.664   2.874   4.620
 1699SOL     OW16025   4.192   8.225   4.783
 1699SOL    HW116026   4.221   8.161   4.711
 1699SOL    HW216027   4.217   8.318   4.757
 1700SOL     OW16028   1.449   1.389   4.822
 1700SOL    HW116029   1.457   1.291   4.839
 1700SOL    HW216030   1.537   1.433   4.842
 1701SOL     OW16031   9.401   0.831   3.300
 1701SOL    HW116032   9.454   0.834   3.215
 1701SOL    HW216033   9.329   0.762   3.292
 1702SOL     OW16034   3.817   4.024   0.999
 1702SOL    HW116035   3.760   3.978   0.931
 1702SOL    HW216036   3.789   3.996   1.090
 1703SOL     OW16037   3.401   7.510   4.286
 1703SOL    HW116038   3.404   7.465   4.375
 1703SOL    HW216039   3.456   7.593   4.289
 1704SOL     OW16040   1.340   4.283   0.556
 1704SOL    HW116041   1.318   4.373   0.518
 1704SOL    HW216042   1.270   4.217   0.528
 1705SOL     OW16043   3.492   3.925   2.374
 1705SOL    HW116044   3.505   3.827   2.394
 1705SOL    HW216045   3.422   3.962   2.434
 1706SOL     OW16046   0.888   5.011   4.312
 1706SOL    HW116047   0.981   5.027   4.279
 1706SOL    HW216048   0.830   5.087   4.284
 1707SOL     OW16049   2.546   1.252   0.129
 1707SOL    HW116050   2.589   1.291   0.047
 1707SOL    HW216051   2.447   1.255   0.119
 1708SOL     OW16052   2.700   6.289   2.735
 1708SOL    HW116053   2.668   6.334   2.651
 1708SOL    HW216054   2.789   6.247   2.718
 1709SOL     OW16055   1.462   5.264   1.998
 1709SOL    HW116056   1.553   5.227   1.980
 1709SOL    HW216057   1.412   5.202   2.059
 1710SOL     OW16058   5.122   7.887   2.429
 1710SOL    HW116059   5.114   7.870   2.527
 1710SOL    HW216060   5.203   7.943   2.412
 1711SOL     OW16061   0.429   0.889   3.793
 1711SOL    HW116062   0.346   0.938   3.820
 1711SOL    HW216063   0.414   0.791   3.800
 1712SOL     OW16064   9.640   6.666   5.121
 1712SOL    HW116065   9.562   6.724   5.098
 1712SOL    HW216066   9.722   6.701   5.076
 1713SOL     OW16067   2.928   2.641   1.447
 1713SOL    HW116068   2.858   2.631   1.518
 1713SOL    HW216069   2.905   2.718   1.387
 1714SOL     OW16070   5.476   8.834   1.945
 1714SOL    HW116071   5.387   8.859   1.907
 1714SOL    HW216072   5.549   8.865   1.883
 1715SOL     OW16073   9.985   8.652   0.129
 1715SOL    HW116074   0.080   8.675   0.108
 1715SOL    HW216075   9.933   8.736   0.142
 1716SOL     OW16076   3.278   3.844   2.118
 1716SOL    HW116077   3.334   3.924   2.100
 1716SOL    HW216078   3.337   3.764   2.132
 1717SOL     OW16079   8.409   2.609   1.026
 1717SOL    HW116080   8.444   2.565   0.943
 1717SOL    HW216081   8.370   2.698   1.003
 1718SOL     OW16082   9.508   1.667   3.237
 1718SOL    HW116083   9.514   1.587   3.297
 1718SOL    HW216084   9.584   1.666   3.172
 1719SOL     OW16085   1.253   1.686   3.096
 1719SOL    HW116086   1.263   1.744   3.015
 1719SOL    HW216087   1.270   1.591   3.070
 1720SOL     OW16088   2.193   8.307   3.849
 1720SOL    HW116089   2.127   8.383   3.852
 1720SOL    HW216090   2.279   8.336   3.890
 1721SOL     OW16091   1.475   9.742   4.105
 1721SOL    HW116092   1.530   9.683   4.164
 1721SOL    HW216093   1.378   9.728   4.124
 1722SOL     OW16094   5.776   8.986   4.534
 1722SOL    HW116095   5.874   8.993   4.554
 1722SOL    HW216096   5.734   8.919   4.595
 1723SOL     OW16097   9.172   0.222   4.281
 1723SOL    HW116098   9.108   0.270   4.221
 1723SOL    HW216099   9.130   0.138   4.314
 1724SOL     OW16100   6.991   3.841   1.155
 1724SOL    HW116101   6.929   3.886   1.220
 1724SOL    HW216102   7.040   3.910   1.103
 1725SOL     OW16103   9.030   0.610   4.025
 1725SOL    HW116104   8.987   0.691   4.066
 1725SOL    HW216105   9.034   0.622   3.926
 1726SOL     OW16106   2.726   8.156   2.615
 1726SOL    HW116107   2.645   8.169   2.672
 1726SOL    HW216108   2.782   8.238   2.617
 1727SOL     OW16109   4.444   7.518   5.055
 1727SOL    HW116110   4.413   7.423   5.070
 1727SOL    HW216111   4.511   7.520   4.981
 1728SOL     OW16112   3.881   2.736   5.225
 1728SOL    HW116113   3.921   2.690   5.146
 1728SOL    HW216114   3.951   2.788   5.273
 1729SOL     OW16115   8.039   1.196   0.100
 1729SOL    HW116116   8.053   1.281   0.151
 1729SOL    HW216117   8.020   1.217   0.004
 1730SOL     OW16118   1.571   0.618   3.607
 1730SOL    HW116119   1.592   0.520   3.601
 1730SOL    HW216120   1.590   0.650   3.699
 1731SOL     OW16121   0.732   4.490   0.291
 1731SOL    HW116122   0.697   4.543   0.214
 1731SOL    HW216123   0.727   4.544   0.375
 1732SOL     OW16124   7.237   3.024   3.029
 1732SOL    HW116125   7.225   2.933   2.990
 1732SOL    HW216126   7.249   3.091   2.956
 1733SOL     OW16127   8.234   3.264   4.109
 1733SOL    HW116128   8.285   3.178   4.101
 1733SOL    HW216129   8.275   3.319   4.181
 1734SOL     OW16130   8.643   8.673   4.381
 1734SOL    HW116131   8.690   8.586   4.394
 1734SOL    HW216132   8.626   8.716   4.470
 1735SOL     OW16133   8.697   3.267   4.632
 1735SOL    HW116134   8.628   3.223   4.689
 1735SOL    HW216135   8.765   3.200   4.604
 1736SOL     OW16136   5.204   0.688   3.928
 1736SOL    HW116137   5.283   0.628   3.915
 1736SOL    HW216138   5.193   0.707   4.025
 1737SOL     OW16139   2.355   9.022   1.994
 1737SOL    HW116140   2.377   8.925   1.988
 1737SOL    HW216141   2.439   9.075   1.986
 1738SOL     OW16142   5.370   9.274   3.329
 1738SOL    HW116143   5.398   9.343   3.395
 1738SOL    HW216144   5.433   9.197   3.332
 1739SOL     OW16145   2.519   5.499   1.069
 1739SOL    HW116146   2.551   5.422   1.013
 1739SOL    HW216147   2.439   5.471   1.121
 1740SOL     OW16148   5.099   1.853   2.568
 1740SOL    HW116149   5.043   1.772   2.550
 1740SOL    HW216150   5.088   1.880   2.664
 1741SOL     OW16151   5.300   2.070   3.588
 1741SOL    HW116152   5.241   1.993   3.611
 1741SOL    HW216153   5.274   2.150   3.643
 1742SOL     OW16154   5.059   7.978   2.171
 1742SOL    HW116155   5.074   7.953   2.266
 1742SOL    HW216156   5.132   7.940   2.114
 1743SOL     OW16157   1.059   2.138   0.782
 1743SOL    HW116158   0.963   2.112   0.789
 1743SOL    HW216159   1.111   2.094   0.855
 1744SOL     OW16160   0.240   2.259   5.269
 1744SOL    HW116161   0.333   2.272   5.303
 1744SOL    HW216162   0.205   2.346   5.234
 1745SOL     OW16163   1.410   1.460   0.519
 1745SOL    HW116164   1.449   1.498   0.436
 1745SOL    HW216165   1.314   1.487   0.526
 1746SOL     OW16166   8.009   6.616   4.358
 1746SOL    HW116167   8.006   6.701   4.410
 1746SOL    HW216168   8.076   6.554   4.399
 1747SOL     OW16169   9.422   9.078   5.103
 1747SOL    HW116170   9.393   8.995   5.057
 1747SOL    HW216171   9.507   9.111   5.062
 1748SOL     OW16172   3.645   2.672   2.485
 1748SOL    HW116173   3.553   2.634   2.483
 1748SOL    HW216174   3.702   2.623   2.419
 1749SOL     OW16175   3.296   4.630   4.347
 1749SOL    HW116176   3.204   4.591   4.349
 1749SOL    HW216177   3.321   4.652   4.253
 1750SOL     OW16178   1.914   8.935   5.293
 1750SOL    HW116179   1.997   8.934   5.237
 1750SOL    HW216180   1.939   8.927   5.390
 1751SOL     OW16181   6.807   0.173   3.106
 1751SOL    HW116182   6.819   0.248   3.171
 1751SOL    HW216183   6.848   0.090   3.143
 1752SOL     OW16184   4.536   9.820   2.981
 1752SOL    HW116185   4.561   9.834   3.077
 1752SOL    HW216186   4.546   9.723   2.959
 1753SOL     OW16187   4.161   6.901   1.788
 1753SOL    HW116188   4.233   6.885   1.721
 1753SOL    HW216189   4.178   6.846   1.870
 1754SOL     OW16190   9.026   6.357   1.433
 1754SOL    HW116191   9.033   6.389   1.527
 1754SOL    HW216192   8.933   6.326   1.415
 1755SOL     OW16193   4.488   3.273   3.232
 1755SOL    HW116194   4.475   3.222   3.317
 1755SOL    HW216195   4.408   3.330   3.214
 1756SOL     OW16196   8.029   3.586   4.306
 1756SOL    HW116197   7.985   3.653   4.366
 1756SOL    HW216198   7.978   3.500   4.311
 1757SOL     OW16199   6.717   0.368   2.912
 1757SOL    HW116200   6.763   0.297   2.965
 1757SOL    HW216201   6.671   0.432   2.974
 1758SOL     OW16202   9.275   1.060   0.271
 1758SOL    HW116203   9.217   1.132   0.234
 1758SOL    HW216204   9.219   0.978   0.287
 1759SOL     OW16205   2.328   6.202   5.208
 1759SOL    HW116206   2.289   6.264   5.140
 1759SOL    HW216207   2.426   6.189   5.189
 1760SOL     OW16208   3.511   2.877   4.214
 1760SOL    HW116209   3.557   2.959   4.248
 1760SOL    HW216210   3.577   2.819   4.167
 1761SOL     OW16211   3.911   2.112   4.648
 1761SOL    HW116212   3.934   2.076   4.738
 1761SOL    HW216213   3.907   2.037   4.582
 1762SOL     OW16214   6.062   9.009   4.547
 1762SOL    HW116215   6.085   8.932   4.487
 1762SOL    HW216216   6.141   9.032   4.603
 1763SOL     OW16217   7.297   0.204   2.544
 1763SOL    HW116218   7.340   0.275   2.599
 1763SOL    HW216219   7.226   0.158   2.598
 1764SOL     OW16220   9.686   4.856   1.369
 1764SOL    HW116221   9.623   4.778   1.371
 1764SOL    HW216222   9.694   4.889   1.275
 1765SOL     OW16223   5.413   8.583   3.371
 1765SOL    HW116224   5.425   8.650   3.444
 1765SOL    HW216225   5.499   8.570   3.323
 1766SOL     OW16226   4.095   5.046   4.909
 1766SOL    HW116227   4.013   5.006   4.949
 1766SOL    HW216228   4.122   5.126   4.963
 1767SOL     OW16229   9.911   6.271   5.168
 1767SOL    HW116230   9.874   6.179   5.158
 1767SOL    HW216231   0.007   6.266   5.197
 1768SOL     OW16232   3.183   0.552   3.777
 1768SOL    HW116233   3.115   0.479   3.776
 1768SOL    HW216234   3.179   0.601   3.864
 1769SOL     OW16235   3.725   0.759   3.841
 1769SOL    HW116236   3.753   0.844   3.886
 1769SOL    HW216237   3.643   0.723   3.885
 1770SOL     OW16238   6.136   0.266   2.483
 1770SOL    HW116239   6.230   0.290   2.461
 1770SOL    HW216240   6.134   0.185   2.542
 1771SOL     OW16241   5.296   9.219   2.708
 1771SOL    HW116242   5.214   9.244   2.656
 1771SOL    HW216243   5.369   9.284   2.688
 1772SOL     OW16244   0.367   1.172   0.750
 1772SOL    HW116245   0.388   1.155   0.846
 1772SOL    HW216246   0.434   1.234   0.711
 1773SOL     OW16247   2.968   1.167   4.975
 1773SOL    HW116248   2.881   1.207   4.945
 1773SOL    HW216249   2.969   1.160   5.075
 1774SOL     OW16250   5.531   7.233   2.905
 1774SOL    HW116251   5.491   7.159   2.959
 1774SOL    HW216252   5.504   7.222   2.809
 1775SOL     OW16253   3.941   5.130   4.059
 1775SOL    HW116254   3.902   5.039   4.073
 1775SOL    HW216255   4.030   5.122   4.014
 1776SOL     OW16256   7.656   2.019   4.705
 1776SOL    HW116257   7.582   2.048   4.766
 1776SOL    HW216258   7.737   2.075   4.723
 1777SOL     OW16259   4.835   2.445   0.366
 1777SOL    HW116260   4.745   2.468   0.404
 1777SOL    HW216261   4.897   2.522   0.378
 1778SOL     OW16262   1.956   4.593   1.762
 1778SOL    HW116263   1.930   4.507   1.718
 1778SOL    HW216264   1.928   4.670   1.704
 1779SOL     OW16265   8.374   2.067   4.207
 1779SOL    HW116266   8.380   2.054   4.108
 1779SOL    HW216267   8.280   2.088   4.233
 1780SOL     OW16268   3.099   6.297   2.359
 1780SOL    HW116269   3.011   6.328   2.323
 1780SOL    HW216270   3.171   6.318   2.293
 1781SOL     OW16271   3.975   0.948   1.773
 1781SOL    HW116272   3.908   0.934   1.845
 1781SOL    HW216273   4.046   0.877   1.778
 1782SOL     OW16274   9.928   4.852   4.285
 1782SOL    HW116275   9.998   4.905   4.237
 1782SOL    HW216276   9.950   4.754   4.279
 1783SOL     OW16277   8.376   6.148   2.264
 1783SOL    HW116278   8.304   6.079   2.272
 1783SOL    HW216279   8.444   6.117   2.197
 1784SOL     OW16280   9.786   2.670   3.425
 1784SOL    HW116281   9.773   2.627   3.335
 1784SOL    HW216282   9.724   2.748   3.434
 1785SOL     OW16283   4.131   3.776   0.725
 1785SOL    HW116284   4.107   3.831   0.645
 1785SOL    HW216285   4.102   3.824   0.808
 1786SOL     OW16286   2.167   1.003   1.909
 1786SOL    HW116287   2.163   0.922   1.849
 1786SOL    HW216288   2.141   0.977   2.002
 1787SOL     OW16289   1.208   2.500   3.683
 1787SOL    HW116290   1.189   2.591   3.720
 1787SOL    HW216291   1.283   2.505   3.618
 1788SOL     OW16292   1.472   8.304   4.942
 1788SOL    HW116293   1.455   8.271   4.849
 1788SOL    HW216294   1.413   8.254   5.006
 1789SOL     OW16295   3.750   3.990   1.956
 1789SOL    HW116296   3.819   4.022   2.020
 1789SOL    HW216297   3.782   4.003   1.862
 1790SOL     OW16298   8.225   2.318   3.321
 1790SOL    HW116299   8.237   2.417   3.323
 1790SOL    HW216300   8.273   2.277   3.399
 1791SOL     OW16301   9.514   8.423   0.540
 1791SOL    HW116302   9.504   8.356   0.467
 1791SOL    HW216303   9.538   8.512   0.500
 1792SOL     OW16304   4.928   9.049   3.367
 1792SOL    HW116305   4.992   9.124   3.382
 1792SOL    HW216306   4.834   9.081   3.379
 1793SOL     OW16307   2.635   7.461   1.767
 1793SOL    HW116308   2.710   7.501   1.713
 1793SOL    HW216309   2.585   7.395   1.711
 1794SOL     OW16310   9.610   8.270   1.640
 1794SOL    HW116311   9.530   8.328   1.657
 1794SOL    HW216312   9.590   8.210   1.562
 1795SOL     OW16313   3.579   2.675   1.183
 1795SOL    HW116314   3.535   2.623   1.256
 1795SOL    HW216315   3.601   2.613   1.107
 1796SOL     OW16316   6.760   4.089   0.688
 1796SOL    HW116317   6.739   4.179   0.724
 1796SOL    HW216318   6.829   4.045   0.746
 1797SOL     OW16319   1.644   0.374   0.688
 1797SOL    HW116320   1.736   0.395   0.722
 1797SOL    HW216321   1.614   0.448   0.626
 1798SOL     OW16322   0.804   9.359   2.449
 1798SOL    HW116323   0.755   9.311   2.522
 1798SOL    HW216324   0.773   9.455   2.446
 1799SOL     OW16325   2.421   0.669   3.210
 1799SOL    HW116326   2.420   0.698   3.114
 1799SOL    HW216327   2.332   0.630   3.234
 1800SOL     OW16328   0.383   0.567   4.343
 1800SOL    HW116329   0.369   0.479   4.300
 1800SOL    HW216330   0.307   0.587   4.404
 1801SOL     OW16331   0.974   3.593   5.034
 1801SOL    HW116332   0.965   3.588   5.133
 1801SOL    HW216333   0.955   3.686   5.003
 1802SOL     OW16334   5.995   8.100   3.737
 1802SOL    HW116335   5.975   8.198   3.741
 1802SOL    HW216336   6.090   8.084   3.765
 1803SOL     OW16337   6.110   7.784   4.420
 1803SOL    HW116338   6.025   7.749   4.380
 1803SOL    HW216339   6.094   7.807   4.516
 1804SOL     OW16340   7.803   8.708   2.296
 1804SOL    HW116341   7.736   8.642   2.330
 1804SOL    HW216342   7.890   8.695   2.344
 1805SOL     OW16343   2.635   7.791   4.774
 1805SOL    HW116344   2.548   7.757   4.738
 1805SOL    HW216345   2.617   7.848   4.855
 1806SOL     OW16346   7.735   0.878   1.707
 1806SOL    HW116347   7.761   0.946   1.639
 1806SOL    HW216348   7.808   0.810   1.715
 1807SOL     OW16349   9.576   1.497   3.814
 1807SOL    HW116350   9.587   1.541   3.903
 1807SOL    HW216351   9.479   1.497   3.789
 1808SOL     OW16352   8.717   9.465   0.114
 1808SOL    HW116353   8.653   9.530   0.157
 1808SOL    HW216354   8.683   9.442   0.022
 1809SOL     OW16355   3.587   0.775   0.250
 1809SOL    HW116356   3.512   0.740   0.194
 1809SOL    HW216357   3.666   0.714   0.243
 1810SOL     OW16358   1.332   6.869   1.960
 1810SOL    HW116359   1.386   6.842   1.880
 1810SOL    HW216360   1.310   6.788   2.014
 1811SOL     OW16361   8.862   1.258   2.078
 1811SOL    HW116362   8.899   1.212   1.997
 1811SOL    HW216363   8.809   1.338   2.048
 1812SOL     OW16364   4.245   1.071   3.361
 1812SOL    HW116365   4.277   1.029   3.446
 1812SOL    HW216366   4.252   1.005   3.286
 1813SOL     OW16367   9.824   9.930   2.622
 1813SOL    HW116368   9.774   0.009   2.658
 1813SOL    HW216369   9.872   9.884   2.696
 1814SOL     OW16370   9.065   3.116   0.911
 1814SOL    HW116371   9.085   3.158   0.999
 1814SOL    HW216372   9.086   3.181   0.838
 1815SOL     OW16373   0.405   0.288   2.372
 1815SOL    HW116374   0.338   0.263   2.301
 1815SOL    HW216375   0.477   0.345   2.331
 1816SOL     OW16376   8.926   9.952   3.545
 1816SOL    HW116377   8.979   0.037   3.543
 1816SOL    HW216378   8.875   9.942   3.460
 1817SOL     OW16379   2.648   2.043   4.362
 1817SOL    HW116380   2.680   1.956   4.325
 1817SOL    HW216381   2.570   2.076   4.309
 1818SOL     OW16382   1.928   3.740   1.180
 1818SOL    HW116383   2.001   3.722   1.114
 1818SOL    HW216384   1.869   3.660   1.188
 1819SOL     OW16385   0.258   5.332   1.935
 1819SOL    HW116386   0.302   5.254   1.891
 1819SOL    HW216387   0.190   5.300   2.000
 1820SOL     OW16388   5.274   8.191   1.836
 1820SOL    HW116389   5.174   8.184   1.835
 1820SOL    HW216390   5.302   8.243   1.916
 1821SOL     OW16391   8.529   8.628   4.992
 1821SOL    HW116392   8.582   8.608   5.074
 1821SOL    HW216393   8.532   8.726   4.974
 1822SOL     OW16394   4.854   2.343   3.072
 1822SOL    HW116395   4.940   2.367   3.028
 1822SOL    HW216396   4.778   2.369   3.012
 1823SOL     OW16397   5.485   1.754   1.899
 1823SOL    HW116398   5.561   1.816   1.878
 1823SOL    HW216399   5.520   1.673   1.946
 1824SOL     OW16400   3.154   2.285   5.106
 1824SOL    HW116401   3.200   2.301   5.193
 1824SOL    HW216402   3.218   2.304   5.031
 1825SOL     OW16403   4.277   6.021   2.322
 1825SOL    HW116404   4.353   6.079   2.293
 1825SOL    HW216405   4.193   6.049   2.276
 1826SOL     OW16406   4.097   8.737   5.202
 1826SOL    HW116407   4.019   8.675   5.214
 1826SOL    HW216408   4.064   8.832   5.202
 1827SOL     OW16409   3.844   5.295   3.639
 1827SOL    HW116410   3.936   5.328   3.621
 1827SOL    HW216411   3.779   5.342   3.579
 1828SOL     OW16412   2.041   6.773   1.250
 1828SOL    HW116413   1.960   6.785   1.194
 1828SOL    HW216414   2.100   6.853   1.242
 1829SOL     OW16415   2.176   5.005   5.208
 1829SOL    HW116416   2.256   4.971   5.159
 1829SOL    HW216417   2.165   5.103   5.190
 1830SOL     OW16418   1.467   5.256   3.367
 1830SOL    HW116419   1.508   5.165   3.375
 1830SOL    HW216420   1.540   5.325   3.359
 1831SOL     OW16421   8.865   4.040   4.867
 1831SOL    HW116422   8.876   4.059   4.965
 1831SOL    HW216423   8.774   4.001   4.851
 1832SOL     OW16424   6.643   1.379   0.199
 1832SOL    HW116425   6.633   1.418   0.290
 1832SOL    HW216426   6.555   1.386   0.151
 1833SOL     OW16427   2.551   6.654   3.135
 1833SOL    HW116428   2.629   6.674   3.194
 1833SOL    HW216429   2.577   6.584   3.068
 1834SOL     OW16430   3.026   4.566   0.650
 1834SOL    HW116431   3.002   4.558   0.553
 1834SOL    HW216432   3.027   4.662   0.677
 1835SOL     OW16433   7.947   2.769   0.345
 1835SOL    HW116434   8.013   2.837   0.313
 1835SOL    HW216435   7.868   2.816   0.385
 1836SOL     OW16436   2.162   9.423   1.137
 1836SOL    HW116437   2.180   9.475   1.221
 1836SOL    HW216438   2.217   9.460   1.063
 1837SOL     OW16439   0.241   3.523   4.981
 1837SOL    HW116440   0.221   3.519   4.883
 1837SOL    HW216441   0.307   3.597   4.998
 1838SOL     OW16442   1.465   3.620   0.524
 1838SOL    HW116443   1.514   3.550   0.471
 1838SOL    HW216444   1.520   3.703   0.528
 1839SOL     OW16445   2.743   2.632   1.655
 1839SOL    HW116446   2.665   2.575   1.629
 1839SOL    HW216447   2.747   2.642   1.754
 1840SOL     OW16448   8.482   9.580   0.493
 1840SOL    HW116449   8.440   9.670   0.506
 1840SOL    HW216450   8.516   9.547   0.580
 1841SOL     OW16451   8.287   3.617   0.827
 1841SOL    HW116452   8.322   3.532   0.866
 1841SOL    HW216453   8.225   3.661   0.893
 1842SOL     OW16454   0.826   6.470   4.136
 1842SOL    HW116455   0.779   6.557   4.126
 1842SOL    HW216456   0.809   6.433   4.228
 1843SOL     OW16457   9.691   9.781   1.897
 1843SOL    HW116458   9.666   9.877   1.910
 1843SOL    HW216459   9.634   9.723   1.955
 1844SOL     OW16460   8.208   0.374   4.716
 1844SOL    HW116461   8.148   0.303   4.752
 1844SOL    HW216462   8.162   0.423   4.643
 1845SOL     OW16463   1.561   3.195   0.258
 1845SOL    HW116464   1.540   3.099   0.276
 1845SOL    HW216465   1.485   3.238   0.210
 1846SOL     OW16466   9.278   9.839   4.408
 1846SOL    HW116467   9.199   9.782   4.431
 1846SOL    HW216468   9.272   9.925   4.458
 1847SOL     OW16469   2.625   1.031   0.283
 1847SOL    HW116470   2.605   1.111   0.226
 1847SOL    HW216471   2.712   1.045   0.330
 1848SOL     OW16472   8.193   3.292   1.288
 1848SOL    HW116473   8.129   3.320   1.359
 1848SOL    HW216474   8.223   3.198   1.305
 1849SOL     OW16475   8.939   4.459   4.189
 1849SOL    HW116476   8.925   4.460   4.090
 1849SOL    HW216477   8.851   4.445   4.235
 1850SOL     OW16478   8.728   4.265   2.773
 1850SOL    HW116479   8.693   4.176   2.743
 1850SOL    HW216480   8.665   4.305   2.840
 1851SOL     OW16481   9.101   4.849   0.373
 1851SOL    HW116482   9.107   4.754   0.403
 1851SOL    HW216483   9.157   4.862   0.292
 1852SOL     OW16484   0.934   6.385   1.420
 1852SOL    HW116485   0.895   6.468   1.460
 1852SOL    HW216486   0.889   6.305   1.460
 1853SOL     OW16487   1.247   4.428   3.624
 1853SOL    HW116488   1.160   4.450   3.580
 1853SOL    HW216489   1.266   4.492   3.698
 1854SOL     OW16490   9.384   8.436   1.686
 1854SOL    HW116491   9.331   8.447   1.602
 1854SOL    HW216492   9.410   8.525   1.721
 1855SOL     OW16493   4.270   9.645   4.656
 1855SOL    HW116494   4.181   9.640   4.702
 1855SOL    HW216495   4.279   9.568   4.593
 1856SOL     OW16496   2.160   6.867   1.965
 1856SOL    HW116497   2.191   6.949   1.917
 1856SOL    HW216498   2.204   6.786   1.926
 1857SOL     OW16499   9.551   1.593   2.508
 1857SOL    HW116500   9.456   1.624   2.511
 1857SOL    HW216501   9.565   1.537   2.427
 1858SOL     OW16502   9.782   3.214   3.156
 1858SOL    HW116503   9.800   3.219   3.057
 1858SOL    HW216504   9.842   3.145   3.197
 1859SOL     OW16505   2.779   9.451   0.544
 1859SOL    HW116506   2.843   9.525   0.522
 1859SOL    HW216507   2.694   9.490   0.578
 1860SOL     OW16508   0.182   0.977   3.873
 1860SOL    HW116509   0.158   1.061   3.826
 1860SOL    HW216510   0.100   0.930   3.904
 1861SOL     OW16511   9.766   8.151   2.636
 1861SOL    HW116512   9.824   8.098   2.698
 1861SOL    HW216513   9.814   8.165   2.549
 1862SOL     OW16514   8.604   3.644   1.199
 1862SOL    HW116515   8.532   3.578   1.218
 1862SOL    HW216516   8.650   3.619   1.114
 1863SOL     OW16517   4.948   4.311   4.719
 1863SOL    HW116518   4.904   4.235   4.767
 1863SOL    HW216519   4.939   4.298   4.621
 1864SOL     OW16520   9.743   7.020   2.855
 1864SOL    HW116521   9.722   7.073   2.773
 1864SOL    HW216522   9.661   6.972   2.885
 1865SOL     OW16523   8.096   6.010   2.708
 1865SOL    HW116524   8.035   6.014   2.787
 1865SOL    HW216525   8.121   5.915   2.691
 1866SOL     OW16526   8.207   0.371   0.526
 1866SOL    HW116527   8.186   0.329   0.615
 1866SOL    HW216528   8.287   0.326   0.486
 1867SOL     OW16529   8.610   2.803   1.307
 1867SOL    HW116530   8.524   2.752   1.307
 1867SOL    HW216531   8.622   2.849   1.396
 1868SOL     OW16532   2.618   0.115   3.809
 1868SOL    HW116533   2.520   0.135   3.816
 1868SOL    HW216534   2.630   0.021   3.777
 1869SOL     OW16535   1.888   9.044   4.275
 1869SOL    HW116536   1.841   9.112   4.219
 1869SOL    HW216537   1.834   8.960   4.278
 1870SOL     OW16538   0.586   5.218   4.585
 1870SOL    HW116539   0.526   5.266   4.650
 1870SOL    HW216540   0.581   5.119   4.602
 1871SOL     OW16541   5.029   8.661   3.180
 1871SOL    HW116542   4.955   8.660   3.114
 1871SOL    HW216543   5.064   8.754   3.191
 1872SOL     OW16544   3.469   9.880   4.765
 1872SOL    HW116545   3.373   9.856   4.753
 1872SOL    HW216546   3.515   9.810   4.820
 1873SOL     OW16547   7.032   8.977   4.319
 1873SOL    HW116548   7.043   9.067   4.361
 1873SOL    HW216549   7.122   8.932   4.314
 1874SOL     OW16550   4.721   9.196   4.238
 1874SOL    HW116551   4.632   9.155   4.220
 1874SOL    HW216552   4.715   9.295   4.221
 1875SOL     OW16553   8.285   4.064   1.248
 1875SOL    HW116554   8.271   4.054   1.150
 1875SOL    HW216555   8.365   4.012   1.277
 1876SOL     OW16556   6.114   7.889   5.289
 1876SOL    HW116557   6.166   7.912   5.371
 1876SOL    HW216558   6.127   7.960   5.220
 1877SOL     OW16559   4.057   2.884   3.119
 1877SOL    HW116560   4.152   2.857   3.136
 1877SOL    HW216561   4.037   2.968   3.170
 1878SOL     OW16562   5.920   8.135   4.937
 1878SOL    HW116563   5.928   8.188   4.852
 1878SOL    HW216564   5.875   8.191   5.007
 1879SOL     OW16565   8.177   0.005   2.684
 1879SOL    HW116566   8.120   9.982   2.605
 1879SOL    HW216567   8.169   0.102   2.703
 1880SOL     OW16568   8.900   0.910   2.690
 1880SOL    HW116569   8.922   0.923   2.593
 1880SOL    HW216570   8.884   1.000   2.732
 1881SOL     OW16571   2.373   5.191   2.739
 1881SOL    HW116572   2.386   5.280   2.695
 1881SOL    HW216573   2.330   5.128   2.675
 1882SOL     OW16574   3.272   7.665   1.868
 1882SOL    HW116575   3.303   7.726   1.941
 1882SOL    HW216576   3.175   7.646   1.879
 1883SOL     OW16577   6.567   1.889   3.633
 1883SOL    HW116578   6.628   1.810   3.628
 1883SOL    HW216579   6.495   1.871   3.700
 1884SOL     OW16580   5.316   2.189   1.889
 1884SOL    HW116581   5.346   2.167   1.796
 1884SOL    HW216582   5.340   2.115   1.951
 1885SOL     OW16583   8.084   1.523   1.024
 1885SOL    HW116584   8.039   1.604   1.060
 1885SOL    HW216585   8.028   1.482   0.952
 1886SOL     OW16586   3.253   2.210   3.662
 1886SOL    HW116587   3.297   2.128   3.699
 1886SOL    HW216588   3.298   2.235   3.576
 1887SOL     OW16589   8.829   6.063   0.051
 1887SOL    HW116590   8.800   6.091   0.142
 1887SOL    HW216591   8.805   5.968   0.036
 1888SOL     OW16592   7.143   2.454   4.658
 1888SOL    HW116593   7.114   2.378   4.716
 1888SOL    HW216594   7.084   2.459   4.577
 1889SOL     OW16595   9.022   1.390   2.265
 1889SOL    HW116596   8.971   1.331   2.203
 1889SOL    HW216597   9.016   1.354   2.358
 1890SOL     OW16598   7.385   3.379   4.514
 1890SOL    HW116599   7.381   3.354   4.610
 1890SOL    HW216600   7.308   3.337   4.466
 1891SOL     OW16601   2.700   2.538   3.400
 1891SOL    HW116602   2.759   2.563   3.477
 1891SOL    HW216603   2.703   2.611   3.331
 1892SOL     OW16604   1.808   9.692   1.610
 1892SOL    HW116605   1.752   9.676   1.529
 1892SOL    HW216606   1.846   9.606   1.642
 1893SOL     OW16607   1.622   1.059   4.155
 1893SOL    HW116608   1.706   1.076   4.207
 1893SOL    HW216609   1.570   0.986   4.198
 1894SOL     OW16610   1.056   5.113   1.350
 1894SOL    HW116611   1.134   5.122   1.412
 1894SOL    HW216612   1.048   5.019   1.320
 1895SOL     OW16613   0.333   0.506   2.997
 1895SOL    HW116614   0.294   0.433   3.054
 1895SOL    HW216615   0.268   0.582   2.992
 1896SOL     OW16616   9.320   3.513   0.358
 1896SOL    HW116617   9.292   3.599   0.401
 1896SOL    HW216618   9.420   3.509   0.353
 1897SOL     OW16619   7.970   5.615   3.072
 1897SOL    HW116620   7.986   5.623   3.170
 1897SOL    HW216621   7.981   5.704   3.029
 1898SOL     OW16622   0.580   5.622   1.811
 1898SOL    HW116623   0.627   5.548   1.764
 1898SOL    HW216624   0.538   5.587   1.895
 1899SOL     OW16625   9.409   5.306   5.059
 1899SOL    HW116626   9.393   5.212   5.091
 1899SOL    HW216627   9.337   5.332   4.995
 1900SOL     OW16628   3.301   3.782   0.127
 1900SOL    HW116629   3.273   3.854   0.190
 1900SOL    HW216630   3.220   3.739   0.088
 1901SOL     OW16631   1.001   0.877   3.568
 1901SOL    HW116632   1.054   0.872   3.483
 1901SOL    HW216633   0.904   0.869   3.547
 1902SOL     OW16634   4.844   8.100   2.071
 1902SOL    HW116635   4.766   8.096   2.133
 1902SOL    HW216636   4.925   8.064   2.117
 1903SOL     OW16637   2.606   7.070   0.816
 1903SOL    HW116638   2.518   7.105   0.784
 1903SOL    HW216639   2.598   6.972   0.835
 1904SOL     OW16640   2.922   2.316   4.149
 1904SOL    HW116641   2.840   2.341   4.098
 1904SOL    HW216642   2.947   2.221   4.130
 1905SOL     OW16643   3.147   8.718   1.805
 1905SOL    HW116644   3.091   8.779   1.862
 1905SOL    HW216645   3.240   8.716   1.839
 1906SOL     OW16646   7.655   2.954   4.257
 1906SOL    HW116647   7.739   3.007   4.249
 1906SOL    HW216648   7.587   2.988   4.192
 1907SOL     OW16649   1.090   0.486   0.338
 1907SOL    HW116650   1.158   0.413   0.331
 1907SOL    HW216651   1.136   0.575   0.335
 1908SOL     OW16652   2.428   3.222   4.013
 1908SOL    HW116653   2.409   3.210   3.916
 1908SOL    HW216654   2.413   3.135   4.061
 1909SOL     OW16655   2.271   8.391   5.092
 1909SOL    HW116656   2.325   8.315   5.128
 1909SOL    HW216657   2.211   8.426   5.164
 1910SOL     OW16658   2.170   9.032   3.823
 1910SOL    HW116659   2.087   9.076   3.857
 1910SOL    HW216660   2.238   9.029   3.897
 1911SOL     OW16661   8.302   2.080   0.580
 1911SOL    HW116662   8.290   2.023   0.662
 1911SOL    HW216663   8.369   2.037   0.519
 1912SOL     OW16664   2.537   5.774   4.665
 1912SOL    HW116665   2.560   5.856   4.612
 1912SOL    HW216666   2.468   5.798   4.734
 1913SOL     OW16667   4.391   8.590   1.393
 1913SOL    HW116668   4.311   8.595   1.334
 1913SOL    HW216669   4.394   8.669   1.453
 1914SOL     OW16670   3.567   1.407   4.382
 1914SOL    HW116671   3.479   1.413   4.429
 1914SOL    HW216672   3.640   1.400   4.450
 1915SOL     OW16673   4.536   2.835   5.306
 1915SOL    HW116674   4.474   2.764   5.337
 1915SOL    HW216675   4.562   2.818   5.211
 1916SOL     OW16676   0.248   0.101   1.826
 1916SOL    HW116677   0.177   0.075   1.891
 1916SOL    HW216678   0.336   0.108   1.874
 1917SOL     OW16679   3.325   7.663   3.545
 1917SOL    HW116680   3.254   7.700   3.484
 1917SOL    HW216681   3.354   7.735   3.609
 1918SOL     OW16682   9.085   7.153   1.890
 1918SOL    HW116683   9.067   7.154   1.792
 1918SOL    HW216684   9.146   7.229   1.914
 1919SOL     OW16685   1.222   0.904   0.877
 1919SOL    HW116686   1.192   0.833   0.813
 1919SOL    HW216687   1.284   0.864   0.944
 1920SOL     OW16688   9.453   7.585   3.105
 1920SOL    HW116689   9.491   7.622   3.189
 1920SOL    HW216690   9.521   7.527   3.060
 1921SOL     OW16691   7.070   8.794   5.140
 1921SOL    HW116692   7.129   8.837   5.072
 1921SOL    HW216693   7.014   8.863   5.185
 1922SOL     OW16694   5.856   1.013   4.303
 1922SOL    HW116695   5.852   1.090   4.367
 1922SOL    HW216696   5.763   0.985   4.279
 1923SOL     OW16697   7.758   7.943   2.881
 1923SOL    HW116698   7.811   8.012   2.931
 1923SOL    HW216699   7.803   7.922   2.795
 1924SOL     OW16700   8.940   1.801   1.088
 1924SOL    HW116701   8.961   1.847   1.002
 1924SOL    HW216702   8.993   1.844   1.162
 1925SOL     OW16703   0.120   6.563   0.603
 1925SOL    HW116704   0.193   6.504   0.570
 1925SOL    HW216705   0.066   6.597   0.526
 1926SOL     OW16706   3.575   5.651   0.938
 1926SOL    HW116707   3.649   5.718   0.949
 1926SOL    HW216708   3.613   5.559   0.939
 1927SOL     OW16709   8.533   2.562   3.387
 1927SOL    HW116710   8.561   2.511   3.305
 1927SOL    HW216711   8.435   2.580   3.383
 1928SOL     OW16712   5.758   7.970   2.257
 1928SOL    HW116713   5.851   7.935   2.246
 1928SOL    HW216714   5.761   8.053   2.313
 1929SOL     OW16715   6.350   0.617   2.947
 1929SOL    HW116716   6.344   0.562   2.864
 1929SOL    HW216717   6.347   0.714   2.923
 1930SOL     OW16718   7.928   8.659   4.551
 1930SOL    HW116719   7.999   8.729   4.556
 1930SOL    HW216720   7.955   8.589   4.485
 1931SOL     OW16721   9.485   5.049   2.570
 1931SOL    HW116722   9.386   5.049   2.587
 1931SOL    HW216723   9.524   4.963   2.602
 1932SOL     OW16724   5.078   3.613   0.468
 1932SOL    HW116725   5.115   3.603   0.375
 1932SOL    HW216726   5.039   3.526   0.497
 1933SOL     OW16727   3.956   8.087   1.921
 1933SOL    HW116728   3.893   8.150   1.875
 1933SOL    HW216729   4.046   8.094   1.880
 1934SOL     OW16730   2.703   7.297   0.161
 1934SOL    HW116731   2.735   7.203   0.168
 1934SOL    HW216732   2.603   7.298   0.154
 1935SOL     OW16733   3.160   0.936   3.870
 1935SOL    HW116734   3.162   1.024   3.918
 1935SOL    HW216735   3.148   0.863   3.937
 1936SOL     OW16736   1.230   4.969   1.769
 1936SOL    HW116737   1.202   4.990   1.863
 1936SOL    HW216738   1.323   4.933   1.770
 1937SOL     OW16739   2.673   4.333   1.461
 1937SOL    HW116740   2.768   4.354   1.483
 1937SOL    HW216741   2.635   4.272   1.531
 1938SOL     OW16742   1.578   1.582   0.327
 1938SOL    HW116743   1.580   1.679   0.351
 1938SOL    HW216744   1.671   1.547   0.321
 1939SOL     OW16745   7.260   8.219   5.070
 1939SOL    HW116746   7.297   8.270   4.992
 1939SOL    HW216747   7.193   8.275   5.118
 1940SOL     OW16748   4.878   2.491   2.308
 1940SOL    HW116749   4.949   2.421   2.321
 1940SOL    HW216750   4.909   2.558   2.241
 1941SOL     OW16751   2.387   7.345   0.515
 1941SOL    HW116752   2.333   7.306   0.441
 1941SOL    HW216753   2.361   7.441   0.529
 1942SOL     OW16754   0.372   6.155   4.538
 1942SOL    HW116755   0.419   6.086   4.593
 1942SOL    HW216756   0.368   6.126   4.443
 1943SOL     OW16757   6.177   8.325   2.800
 1943SOL    HW116758   6.092   8.368   2.771
 1943SOL    HW216759   6.243   8.328   2.724
 1944SOL     OW16760   5.515   2.940   3.897
 1944SOL    HW116761   5.557   2.898   3.817
 1944SOL    HW216762   5.428   2.894   3.917
 1945SOL     OW16763   5.872   0.232   2.419
 1945SOL    HW116764   5.971   0.247   2.427
 1945SOL    HW216765   5.854   0.133   2.416
 1946SOL     OW16766   4.421   3.728   3.024
 1946SOL    HW116767   4.371   3.654   2.982
 1946SOL    HW216768   4.502   3.692   3.071
 1947SOL     OW16769   1.941   8.001   1.058
 1947SOL    HW116770   1.895   7.978   0.972
 1947SOL    HW216771   1.873   8.008   1.131
 1948SOL     OW16772   4.888   9.084   2.070
 1948SOL    HW116773   4.842   8.997   2.055
 1948SOL    HW216774   4.986   9.068   2.079
 1949SOL     OW16775   0.351   3.768   2.060
 1949SOL    HW116776   0.418   3.754   2.134
 1949SOL    HW216777   0.398   3.764   1.972
 1950SOL     OW16778   9.382   7.127   1.384
 1950SOL    HW116779   9.451   7.067   1.344
 1950SOL    HW216780   9.420   7.219   1.394
 1951SOL     OW16781   4.667   3.742   5.105
 1951SOL    HW116782   4.703   3.832   5.079
 1951SOL    HW216783   4.576   3.752   5.143
 1952SOL     OW16784   3.293   0.582   1.384
 1952SOL    HW116785   3.381   0.608   1.424
 1952SOL    HW216786   3.265   0.651   1.317
 1953SOL     OW16787   3.714   5.702   3.336
 1953SOL    HW116788   3.708   5.618   3.389
 1953SOL    HW216789   3.792   5.697   3.274
 1954SOL     OW16790   8.388   3.816   3.158
 1954SOL    HW116791   8.433   3.793   3.244
 1954SOL    HW216792   8.366   3.732   3.108
 1955SOL     OW16793   8.353   4.889   5.099
 1955SOL    HW116794   8.327   4.952   5.026
 1955SOL    HW216795   8.384   4.941   5.179
 1956SOL     OW16796   7.190   3.423   0.771
 1956SOL    HW116797   7.179   3.523   0.765
 1956SOL    HW216798   7.278   3.397   0.733
 1957SOL     OW16799   0.547   5.824   2.970
 1957SOL    HW116800   0.501   5.764   2.904
 1957SOL    HW216801   0.644   5.831   2.946
 1958SOL     OW16802   8.279   7.486   1.539
 1958SOL    HW116803   8.277   7.392   1.571
 1958SOL    HW216804   8.373   7.520   1.539
 1959SOL     OW16805   6.871   2.334   3.248
 1959SOL    HW116806   6.800   2.394   3.212
 1959SOL    HW216807   6.897   2.267   3.178
 1960SOL     OW16808   8.576   9.124   4.582
 1960SOL    HW116809   8.620   9.038   4.553
 1960SOL    HW216810   8.604   9.198   4.521
 1961SOL     OW16811   2.229   8.820   1.752
 1961SOL    HW116812   2.256   8.799   1.658
 1961SOL    HW216813   2.130   8.836   1.755
 1962SOL     OW16814   7.240   4.267   0.367
 1962SOL    HW116815   7.194   4.178   0.357
 1962SOL    HW216816   7.180   4.339   0.333
 1963SOL     OW16817   3.713   0.454   1.426
 1963SOL    HW116818   3.636   0.514   1.449
 1963SOL    HW216819   3.686   0.359   1.442
 1964SOL     OW16820   2.388   3.172   3.742
 1964SOL    HW116821   2.449   3.130   3.674
 1964SOL    HW216822   2.357   3.261   3.708
 1965SOL     OW16823   1.740   1.241   5.216
 1965SOL    HW116824   1.725   1.201   5.306
 1965SOL    HW216825   1.666   1.305   5.194
 1966SOL     OW16826   0.431   9.097   2.633
 1966SOL    HW116827   0.366   9.104   2.709
 1966SOL    HW216828   0.422   9.008   2.589
 1967SOL     OW16829   2.883   5.732   0.217
 1967SOL    HW116830   2.825   5.651   0.208
 1967SOL    HW216831   2.979   5.705   0.203
 1968SOL     OW16832   2.874   9.402   1.023
 1968SOL    HW116833   2.829   9.441   1.103
 1968SOL    HW216834   2.819   9.326   0.988
 1969SOL     OW16835   0.103   6.979   3.242
 1969SOL    HW116836   0.037   6.961   3.316
 1969SOL    HW216837   0.101   6.903   3.177
 1970SOL     OW16838   8.509   7.701   4.029
 1970SOL    HW116839   8.608   7.695   4.042
 1970SOL    HW216840   8.489   7.765   3.955
 1971SOL     OW16841   5.602   1.538   2.016
 1971SOL    HW116842   5.595   1.517   2.113
 1971SOL    HW216843   5.633   1.457   1.966
 1972SOL     OW16844   1.728   0.734   2.888
 1972SOL    HW116845   1.767   0.652   2.845
 1972SOL    HW216846   1.666   0.778   2.823
 1973SOL     OW16847   3.746   7.186   4.358
 1973SOL    HW116848   3.774   7.279   4.337
 1973SOL    HW216849   3.826   7.126   4.359
 1974SOL     OW16850   0.480   9.176   3.060
 1974SOL    HW116851   0.544   9.233   3.009
 1974SOL    HW216852   0.477   9.085   3.021
 1975SOL     OW16853   8.335   3.130   4.986
 1975SOL    HW116854   8.286   3.216   5.001
 1975SOL    HW216855   8.409   3.121   5.053
 1976SOL     OW16856   0.880   0.414   0.770
 1976SOL    HW116857   0.874   0.315   0.753
 1976SOL    HW216858   0.918   0.459   0.689
 1977SOL     OW16859   5.839   2.307   4.152
 1977SOL    HW116860   5.895   2.355   4.219
 1977SOL    HW216861   5.845   2.355   4.064
 1978SOL     OW16862   4.111   8.338   1.260
 1978SOL    HW116863   4.188   8.275   1.259
 1978SOL    HW216864   4.144   8.431   1.246
 1979SOL     OW16865   1.354   6.995   4.202
 1979SOL    HW116866   1.341   6.949   4.290
 1979SOL    HW216867   1.429   7.060   4.209
 1980SOL     OW16868   4.769   4.942   1.162
 1980SOL    HW116869   4.799   4.874   1.095
 1980SOL    HW216870   4.848   4.972   1.216
 1981SOL     OW16871   4.405   7.849   4.783
 1981SOL    HW116872   4.311   7.814   4.785
 1981SOL    HW216873   4.445   7.841   4.875
 1982SOL     OW16874   2.029   6.514   3.588
 1982SOL    HW116875   2.101   6.461   3.634
 1982SOL    HW216876   2.020   6.603   3.632
 1983SOL     OW16877   1.770   3.353   3.360
 1983SOL    HW116878   1.763   3.349   3.460
 1983SOL    HW216879   1.686   3.317   3.319
 1984SOL     OW16880   4.130   1.874   5.190
 1984SOL    HW116881   4.182   1.954   5.222
 1984SOL    HW216882   4.193   1.802   5.162
 1985SOL     OW16883   8.945   9.175   1.470
 1985SOL    HW116884   8.859   9.194   1.517
 1985SOL    HW216885   8.930   9.174   1.372
 1986SOL     OW16886   4.856   8.394   2.716
 1986SOL    HW116887   4.793   8.472   2.709
 1986SOL    HW216888   4.803   8.309   2.713
 1987SOL     OW16889   1.599   4.532   1.020
 1987SOL    HW116890   1.629   4.440   1.049
 1987SOL    HW216891   1.670   4.574   0.963
 1988SOL     OW16892   8.001   6.591   3.591
 1988SOL    HW116893   8.086   6.616   3.544
 1988SOL    HW216894   8.020   6.517   3.656
 1989SOL     OW16895   1.116   9.260   3.541
 1989SOL    HW116896   1.047   9.313   3.590
 1989SOL    HW216897   1.072   9.187   3.490
 1990SOL     OW16898   0.850   9.216   2.219
 1990SOL    HW116899   0.813   9.266   2.141
 1990SOL    HW216900   0.841   9.271   2.301
 1991SOL     OW16901   2.212   0.347   2.872
 1991SOL    HW116902   2.155   0.298   2.805
 1991SOL    HW216903   2.216   0.295   2.957
 1992SOL     OW16904   1.941   1.185   2.267
 1992SOL    HW116905   1.970   1.206   2.174
 1992SOL    HW216906   1.973   1.256   2.329
 1993SOL     OW16907   0.306   6.179   3.172
 1993SOL    HW116908   0.351   6.140   3.092
 1993SOL    HW216909   0.357   6.156   3.254
 1994SOL     OW16910   8.221   1.726   3.994
 1994SOL    HW116911   8.262   1.673   4.069
 1994SOL    HW216912   8.126   1.747   4.016
 1995SOL     OW16913   3.762   8.809   2.843
 1995SOL    HW116914   3.727   8.833   2.752
 1995SOL    HW216915   3.758   8.709   2.855
 1996SOL     OW16916   8.974   9.061   4.931
 1996SOL    HW116917   8.994   9.140   4.873
 1996SOL    HW216918   9.031   9.065   5.013
 1997SOL     OW16919   4.417   4.250   3.235
 1997SOL    HW116920   4.402   4.161   3.192
 1997SOL    HW216921   4.401   4.323   3.169
 1998SOL     OW16922   2.980   3.811   3.181
 1998SOL    HW116923   3.055   3.765   3.229
 1998SOL    HW216924   3.014   3.896   3.140
 1999SOL     OW16925   3.077   2.679   3.378
 1999SOL    HW116926   3.012   2.745   3.414
 1999SOL    HW216927   3.115   2.712   3.291
 2000SOL     OW16928   3.806   7.188   3.520
 2000SOL    HW116929   3.763   7.278   3.533
 2000SOL    HW216930   3.843   7.183   3.427
 2001SOL     OW16931   1.223   5.010   4.507
 2001SOL    HW116932   1.177   4.953   4.574
 2001SOL    HW216933   1.313   4.973   4.487
 2002SOL     OW16934   2.899   5.241   1.013
 2002SOL    HW116935   2.959   5.264   0.936
 2002SOL    HW216936   2.891   5.142   1.021
 2003SOL     OW16937   2.517   9.469   3.470
 2003SOL    HW116938   2.484   9.440   3.560
 2003SOL    HW216939   2.476   9.411   3.399
 2004SOL     OW16940   2.942   8.980   1.105
 2004SOL    HW116941   2.879   8.915   1.063
 2004SOL    HW216942   2.889   9.052   1.150
 2005SOL     OW16943   8.999   4.495   5.098
 2005SOL    HW116944   8.912   4.496   5.049
 2005SOL    HW216945   9.011   4.581   5.147
 2006SOL     OW16946   0.301   8.665   5.055
 2006SOL    HW116947   0.216   8.664   5.003
 2006SOL    HW216948   0.379   8.669   4.992
 2007SOL     OW16949   4.954   3.302   3.398
 2007SOL    HW116950   4.980   3.388   3.354
 2007SOL    HW216951   5.006   3.227   3.356
 2008SOL     OW16952   2.416   9.076   1.507
 2008SOL    HW116953   2.498   9.031   1.471
 2008SOL    HW216954   2.429   9.175   1.504
 2009SOL     OW16955   8.118   2.965   3.043
 2009SOL    HW116956   8.139   3.038   3.108
 2009SOL    HW216957   8.166   2.982   2.957
 2010SOL     OW16958   3.502   8.566   1.345
 2010SOL    HW116959   3.436   8.561   1.420
 2010SOL    HW216960   3.461   8.526   1.263
 2011SOL     OW16961   1.549   2.343   3.716
 2011SOL    HW116962   1.641   2.358   3.753
 2011SOL    HW216963   1.542   2.248   3.683
 2012SOL     OW16964   2.809   7.121   3.984
 2012SOL    HW116965   2.904   7.119   3.952
 2012SOL    HW216966   2.783   7.215   4.005
 2013SOL     OW16967   7.181   0.483   1.208
 2013SOL    HW116968   7.083   0.479   1.189
 2013SOL    HW216969   7.232   0.468   1.123
 2014SOL     OW16970   4.680   8.003   1.483
 2014SOL    HW116971   4.709   8.085   1.432
 2014SOL    HW216972   4.757   7.939   1.490
 2015SOL     OW16973   5.617   7.528   4.195
 2015SOL    HW116974   5.611   7.622   4.230
 2015SOL    HW216975   5.713   7.500   4.194
 2016SOL     OW16976   7.002   9.066   3.931
 2016SOL    HW116977   6.942   9.082   4.009
 2016SOL    HW216978   6.960   9.000   3.868
 2017SOL     OW16979   2.221   1.877   3.638
 2017SOL    HW116980   2.286   1.846   3.568
 2017SOL    HW216981   2.186   1.797   3.688
 2018SOL     OW16982   2.835   9.777   1.021
 2018SOL    HW116983   2.872   9.761   0.930
 2018SOL    HW216984   2.737   9.756   1.022
 2019SOL     OW16985   0.309   9.607   3.683
 2019SOL    HW116986   0.239   9.656   3.735
 2019SOL    HW216987   0.309   9.511   3.710
 2020SOL     OW16988   6.440   0.434   3.951
 2020SOL    HW116989   6.483   0.369   4.014
 2020SOL    HW216990   6.466   0.527   3.978
 2021SOL     OW16991   5.850   9.630   1.527
 2021SOL    HW116992   5.915   9.703   1.546
 2021SOL    HW216993   5.760   9.669   1.511
 2022SOL     OW16994   2.670   9.079   2.195
 2022SOL    HW116995   2.664   8.979   2.197
 2022SOL    HW216996   2.624   9.118   2.274
 2023SOL     OW16997   4.854   3.337   1.970
 2023SOL    HW116998   4.897   3.426   1.989
 2023SOL    HW216999   4.878   3.272   2.042
 2024SOL     OW17000   5.104   9.889   3.787
 2024SOL    HW117001   5.101   9.920   3.692
 2024SOL    HW217002   5.168   9.945   3.838
 2025SOL     OW17003   1.296   2.282   4.641
 2025SOL    HW117004   1.220   2.221   4.617
 2025SOL    HW217005   1.307   2.285   4.740
 2026SOL     OW17006   4.103   8.985   3.598
 2026SOL    HW117007   4.070   9.077   3.575
 2026SOL    HW217008   4.035   8.938   3.654
 2027SOL     OW17009   3.005   5.061   3.011
 2027SOL    HW117010   2.952   5.073   2.926
 2027SOL    HW217011   2.953   5.005   3.075
 2028SOL     OW17012   9.803   8.068   1.710
 2028SOL    HW117013   9.877   8.059   1.644
 2028SOL    HW217014   9.748   8.149   1.688
 2029SOL     OW17015   7.957   0.991   0.266
 2029SOL    HW117016   7.987   1.061   0.202
 2029SOL    HW217017   8.037   0.945   0.306
 2030SOL     OW17018   1.951   3.194   3.902
 2030SOL    HW117019   1.984   3.249   3.825
 2030SOL    HW217020   1.925   3.103   3.869
 2031SOL     OW17021   2.965   6.808   3.569
 2031SOL    HW117022   2.920   6.893   3.597
 2031SOL    HW217023   3.013   6.823   3.483
 2032SOL     OW17024   3.184   3.973   0.290
 2032SOL    HW117025   3.118   3.915   0.336
 2032SOL    HW217026   3.213   4.047   0.352
 2033SOL     OW17027   4.332   7.234   2.297
 2033SOL    HW117028   4.370   7.271   2.213
 2033SOL    HW217029   4.243   7.191   2.277
 2034SOL     OW17030   0.057   6.838   0.836
 2034SOL    HW117031   0.122   6.841   0.760
 2034SOL    HW217032   0.086   6.767   0.901
 2035SOL     OW17033   3.147   9.718   2.470
 2035SOL    HW117034   3.204   9.702   2.390
 2035SOL    HW217035   3.193   9.684   2.552
 2036SOL     OW17036   0.854   9.583   0.697
 2036SOL    HW117037   0.810   9.505   0.652
 2036SOL    HW217038   0.785   9.647   0.728
 2037SOL     OW17039   6.866   9.633   2.375
 2037SOL    HW117040   6.889   9.574   2.297
 2037SOL    HW217041   6.826   9.718   2.341
 2038SOL     OW17042   8.383   2.530   2.308
 2038SOL    HW117043   8.297   2.561   2.347
 2038SOL    HW217044   8.368   2.446   2.256
 2039SOL     OW17045   0.076   9.844   0.329
 2039SOL    HW117046   0.026   9.927   0.354
 2039SOL    HW217047   0.170   9.867   0.305
 2040SOL     OW17048   8.676   6.729   3.257
 2040SOL    HW117049   8.620   6.758   3.335
 2040SOL    HW217050   8.622   6.670   3.197
 2041SOL     OW17051   0.629   3.613   0.976
 2041SOL    HW117052   0.635   3.516   0.953
 2041SOL    HW217053   0.627   3.624   1.075
 2042SOL     OW17054   4.190   0.452   1.433
 2042SOL    HW117055   4.238   0.418   1.514
 2042SOL    HW217056   4.144   0.377   1.387
 2043SOL     OW17057   1.601   7.184   4.479
 2043SOL    HW117058   1.645   7.268   4.510
 2043SOL    HW217059   1.650   7.105   4.516
 2044SOL     OW17060   2.036   0.256   3.585
 2044SOL    HW117061   2.035   0.168   3.632
 2044SOL    HW217062   2.009   0.328   3.649
 2045SOL     OW17063   3.309   4.757   2.157
 2045SOL    HW117064   3.247   4.768   2.235
 2045SOL    HW217065   3.380   4.827   2.162
 2046SOL     OW17066   1.176   9.674   3.294
 2046SOL    HW117067   1.255   9.639   3.345
 2046SOL    HW217068   1.102   9.696   3.357
 2047SOL     OW17069   3.926   2.696   3.529
 2047SOL    HW117070   3.889   2.614   3.572
 2047SOL    HW217071   3.875   2.777   3.561
 2048SOL     OW17072   8.279   4.355   4.629
 2048SOL    HW117073   8.282   4.319   4.536
 2048SOL    HW217074   8.259   4.453   4.627
 2049SOL     OW17075   4.419   4.212   4.516
 2049SOL    HW117076   4.425   4.121   4.475
 2049SOL    HW217077   4.326   4.247   4.504
 2050SOL     OW17078   0.296   8.548   1.486
 2050SOL    HW117079   0.304   8.574   1.583
 2050SOL    HW217080   0.387   8.534   1.447
 2051SOL     OW17081   0.094   0.630   4.022
 2051SOL    HW117082   0.037   0.704   3.989
 2051SOL    HW217083   0.147   0.661   4.102
 2052SOL     OW17084   8.792   3.949   2.438
 2052SOL    HW117085   8.866   3.898   2.393
 2052SOL    HW217086   8.781   4.038   2.393
 2053SOL     OW17087   9.337   3.938   0.173
 2053SOL    HW117088   9.395   3.857   0.173
 2053SOL    HW217089   9.394   4.020   0.162
 2054SOL     OW17090   0.492   5.643   3.494
 2054SOL    HW117091   0.437   5.711   3.542
 2054SOL    HW217092   0.501   5.669   3.398
 2055SOL     OW17093   9.071   6.433   1.698
 2055SOL    HW117094   9.014   6.461   1.775
 2055SOL    HW217095   9.157   6.484   1.699
 2056SOL     OW17096   3.350   7.069   3.800
 2056SOL    HW117097   3.332   7.050   3.703
 2056SOL    HW217098   3.421   7.138   3.808
 2057SOL     OW17099   9.125   3.319   1.697
 2057SOL    HW117100   9.063   3.250   1.660
 2057SOL    HW217101   9.118   3.320   1.797
 2058SOL     OW17102   9.896   7.375   2.202
 2058SOL    HW117103   9.802   7.351   2.228
 2058SOL    HW217104   9.921   7.326   2.119
 2059SOL     OW17105   6.848   8.654   2.464
 2059SOL    HW117106   6.757   8.631   2.429
 2059SOL    HW217107   6.916   8.593   2.423
 2060SOL     OW17108   0.086   6.531   1.255
 2060SOL    HW117109   0.060   6.587   1.334
 2060SOL    HW217110   0.007   6.477   1.225
 2061SOL     OW17111   8.340   2.227   3.553
 2061SOL    HW117112   8.387   2.290   3.615
 2061SOL    HW217113   8.250   2.204   3.590
 2062SOL     OW17114   9.933   1.395   2.594
 2062SOL    HW117115   9.913   1.375   2.690
 2062SOL    HW217116   9.952   1.493   2.584
 2063SOL     OW17117   1.310   1.530   5.168
 2063SOL    HW117118   1.218   1.491   5.167
 2063SOL    HW217119   1.305   1.630   5.163
 2064SOL     OW17120   0.728   7.442   2.644
 2064SOL    HW117121   0.648   7.496   2.620
 2064SOL    HW217122   0.805   7.468   2.585
 2065SOL     OW17123   3.277   6.769   1.705
 2065SOL    HW117124   3.246   6.860   1.734
 2065SOL    HW217125   3.204   6.724   1.654
 2066SOL     OW17126   1.373   5.151   4.148
 2066SOL    HW117127   1.440   5.160   4.222
 2066SOL    HW217128   1.418   5.115   4.066
 2067SOL     OW17129   8.479   6.827   4.001
 2067SOL    HW117130   8.462   6.746   4.058
 2067SOL    HW217131   8.396   6.850   3.949
 2068SOL     OW17132   9.052   9.286   4.788
 2068SOL    HW117133   9.049   9.377   4.830
 2068SOL    HW217134   9.146   9.252   4.789
 2069SOL     OW17135   4.559   9.008   1.621
 2069SOL    HW117136   4.519   9.098   1.605
 2069SOL    HW217137   4.635   8.994   1.557
 2070SOL     OW17138   4.664   1.167   4.655
 2070SOL    HW117139   4.733   1.101   4.685
 2070SOL    HW217140   4.701   1.259   4.664
 2071SOL     OW17141   2.586   7.742   1.633
 2071SOL    HW117142   2.501   7.701   1.668
 2071SOL    HW217143   2.582   7.745   1.533
 2072SOL     OW17144   4.263   6.325   2.681
 2072SOL    HW117145   4.202   6.246   2.686
 2072SOL    HW217146   4.291   6.339   2.586
 2073SOL     OW17147   4.917   0.692   0.110
 2073SOL    HW117148   4.952   0.765   0.051
 2073SOL    HW217149   4.823   0.713   0.137
 2074SOL     OW17150   5.081   7.815   2.690
 2074SOL    HW117151   4.986   7.785   2.699
 2074SOL    HW217152   5.102   7.879   2.763
 2075SOL     OW17153   3.272   5.919   4.483
 2075SOL    HW117154   3.182   5.957   4.462
 2075SOL    HW217155   3.294   5.938   4.579
 2076SOL     OW17156   0.573   6.579   0.052
 2076SOL    HW117157   0.614   6.573   0.143
 2076SOL    HW217158   0.579   6.673   0.019
 2077SOL     OW17159   4.711   9.297   5.167
 2077SOL    HW117160   4.732   9.387   5.207
 2077SOL    HW217161   4.695   9.307   5.069
 2078SOL     OW17162   3.232   7.927   4.484
 2078SOL    HW117163   3.289   7.908   4.563
 2078SOL    HW217164   3.224   7.844   4.428
 2079SOL     OW17165   0.020   6.152   0.573
 2079SOL    HW117166   0.038   6.190   0.482
 2079SOL    HW217167   9.957   6.074   0.564
 2080SOL     OW17168   8.856   6.930   1.470
 2080SOL    HW117169   8.887   6.835   1.462
 2080SOL    HW217170   8.757   6.932   1.479
 2081SOL     OW17171   2.339   9.545   0.949
 2081SOL    HW117172   2.371   9.450   0.946
 2081SOL    HW217173   2.417   9.606   0.964
 2082SOL     OW17174   1.454   0.451   1.393
 2082SOL    HW117175   1.548   0.483   1.380
 2082SOL    HW217176   1.446   0.406   1.482
 2083SOL     OW17177   2.910   5.465   3.638
 2083SOL    HW117178   2.948   5.543   3.688
 2083SOL    HW217179   2.821   5.490   3.601
 2084SOL     OW17180   8.441   2.054   2.563
 2084SOL    HW117181   8.456   2.060   2.465
 2084SOL    HW217182   8.346   2.027   2.581
 2085SOL     OW17183   4.018   1.337   5.125
 2085SOL    HW117184   4.094   1.286   5.166
 2085SOL    HW217185   3.938   1.331   5.184
 2086SOL     OW17186   5.427   7.927   3.798
 2086SOL    HW117187   5.511   7.874   3.794
 2086SOL    HW217188   5.373   7.899   3.878
 2087SOL     OW17189   8.559   4.724   1.134
 2087SOL    HW117190   8.488   4.694   1.197
 2087SOL    HW217191   8.641   4.669   1.146
 2088SOL     OW17192   3.262   7.912   2.740
 2088SOL    HW117193   3.243   8.005   2.710
 2088SOL    HW217194   3.353   7.908   2.781
 2089SOL     OW17195   8.952   1.522   1.063
 2089SOL    HW117196   8.912   1.505   0.973
 2089SOL    HW217197   8.939   1.618   1.088
 2090SOL     OW17198   9.610   8.248   0.726
 2090SOL    HW117199   9.529   8.208   0.769
 2090SOL    HW217200   9.582   8.313   0.656
 2091SOL     OW17201   8.167   2.350   1.369
 2091SOL    HW117202   8.140   2.316   1.459
 2091SOL    HW217203   8.262   2.324   1.350
 2092SOL     OW17204   2.192   5.179   3.167
 2092SOL    HW117205   2.130   5.244   3.123
 2092SOL    HW217206   2.150   5.088   3.167
 2093SOL     OW17207   0.881   0.408   1.275
 2093SOL    HW117208   0.876   0.364   1.365
 2093SOL    HW217209   0.901   0.505   1.286
 2094SOL     OW17210   2.796   0.466   3.996
 2094SOL    HW117211   2.819   0.544   3.938
 2094SOL    HW217212   2.698   0.464   4.012
 2095SOL     OW17213   5.206   2.340   4.347
 2095SOL    HW117214   5.148   2.276   4.297
 2095SOL    HW217215   5.284   2.366   4.291
 2096SOL     OW17216   9.038   8.129   4.389
 2096SOL    HW117217   8.966   8.149   4.454
 2096SOL    HW217218   9.106   8.203   4.389
 2097SOL     OW17219   8.330   6.013   0.252
 2097SOL    HW117220   8.413   5.959   0.265
 2097SOL    HW217221   8.264   5.961   0.197
 2098SOL     OW17222   0.315   9.913   5.084
 2098SOL    HW117223   0.314   9.871   4.993
 2098SOL    HW217224   0.221   9.919   5.119
 2099SOL     OW17225   0.351   9.034   0.239
 2099SOL    HW117226   0.408   9.117   0.241
 2099SOL    HW217227   0.255   9.060   0.232
 2100SOL     OW17228   7.578   0.372   2.265
 2100SOL    HW117229   7.498   0.396   2.211
 2100SOL    HW217230   7.560   0.287   2.315
 2101SOL     OW17231   3.025   9.126   3.722
 2101SOL    HW117232   3.021   9.169   3.812
 2101SOL    HW217233   3.075   9.185   3.659
 2102SOL     OW17234   2.886   6.561   1.464
 2102SOL    HW117235   2.930   6.597   1.546
 2102SOL    HW217236   2.949   6.569   1.386
 2103SOL     OW17237   4.489   0.678   2.677
 2103SOL    HW117238   4.390   0.696   2.676
 2103SOL    HW217239   4.512   0.618   2.601
 2104SOL     OW17240   3.893   9.560   2.519
 2104SOL    HW117241   3.831   9.535   2.594
 2104SOL    HW217242   3.986   9.532   2.542
 2105SOL     OW17243   0.145   7.865   0.573
 2105SOL    HW117244   0.111   7.833   0.661
 2105SOL    HW217245   0.234   7.824   0.554
 2106SOL     OW17246   7.721   6.903   5.112
 2106SOL    HW117247   7.801   6.900   5.172
 2106SOL    HW217248   7.731   6.834   5.041
 2107SOL     OW17249   2.226   1.183   0.682
 2107SOL    HW117250   2.192   1.230   0.764
 2107SOL    HW217251   2.198   1.087   0.684
 2108SOL     OW17252   9.007   4.307   4.851
 2108SOL    HW117253   8.996   4.347   4.942
 2108SOL    HW217254   8.947   4.227   4.844
 2109SOL     OW17255   9.388   6.679   3.632
 2109SOL    HW117256   9.373   6.580   3.622
 2109SOL    HW217257   9.409   6.699   3.727
 2110SOL     OW17258   8.841   4.322   1.320
 2110SOL    HW117259   8.934   4.344   1.350
 2110SOL    HW217260   8.845   4.286   1.227
 2111SOL     OW17261   0.280   3.858   3.373
 2111SOL    HW117262   0.234   3.794   3.435
 2111SOL    HW217263   0.365   3.817   3.340
 2112SOL     OW17264   8.255   4.007   0.982
 2112SOL    HW117265   8.345   4.004   0.938
 2112SOL    HW217266   8.196   4.070   0.933
 2113SOL     OW17267   8.030   1.743   4.474
 2113SOL    HW117268   8.070   1.682   4.406
 2113SOL    HW217269   8.091   1.822   4.487
 2114SOL     OW17270   3.517   1.609   1.375
 2114SOL    HW117271   3.536   1.518   1.412
 2114SOL    HW217272   3.472   1.665   1.445
 2115SOL     OW17273   3.488   7.247   0.617
 2115SOL    HW117274   3.504   7.204   0.528
 2115SOL    HW217275   3.450   7.179   0.680
 2116SOL     OW17276   1.676   3.683   3.293
 2116SOL    HW117277   1.587   3.651   3.326
 2116SOL    HW217278   1.711   3.619   3.224
 2117SOL     OW17279   4.020   9.641   4.766
 2117SOL    HW117280   3.976   9.667   4.852
 2117SOL    HW217281   3.957   9.585   4.712
 2118SOL     OW17282   8.024   0.174   4.763
 2118SOL    HW117283   8.000   0.181   4.666
 2118SOL    HW217284   8.074   0.089   4.778
 2119SOL     OW17285   2.673   8.214   3.096
 2119SOL    HW117286   2.601   8.154   3.063
 2119SOL    HW217287   2.637   8.272   3.169
 2120SOL     OW17288   0.240   4.128   3.359
 2120SOL    HW117289   0.251   4.028   3.362
 2120SOL    HW217290   0.327   4.171   3.385
 2121SOL     OW17291   2.952   3.796   4.381
 2121SOL    HW117292   2.869   3.815   4.328
 2121SOL    HW217293   2.938   3.714   4.436
 2122SOL     OW17294   7.224   0.724   0.920
 2122SOL    HW117295   7.141   0.760   0.962
 2122SOL    HW217296   7.250   0.638   0.965
 2123SOL     OW17297   1.465   8.076   0.014
 2123SOL    HW117298   1.479   8.168   0.051
 2123SOL    HW217299   1.448   8.081   6.664
 2124SOL     OW17300   3.068   3.131   4.529
 2124SOL    HW117301   3.049   3.178   4.615
 2124SOL    HW217302   3.014   3.047   4.524
 2125SOL     OW17303   8.692   0.520   3.809
 2125SOL    HW117304   8.620   0.490   3.746
 2125SOL    HW217305   8.677   0.615   3.834
 2126SOL     OW17306   2.644   6.748   2.777
 2126SOL    HW117307   2.578   6.792   2.837
 2126SOL    HW217308   2.596   6.706   2.700
 2127SOL     OW17309   7.842   1.520   3.068
 2127SOL    HW117310   7.921   1.471   3.034
 2127SOL    HW217311   7.792   1.462   3.133
 2128SOL     OW17312   0.755   9.082   4.855
 2128SOL    HW117313   0.800   9.088   4.765
 2128SOL    HW217314   0.690   9.158   4.864
 2129SOL     OW17315   6.998   9.533   2.836
 2129SOL    HW117316   7.003   9.511   2.738
 2129SOL    HW217317   6.912   9.579   2.856
 2130SOL     OW17318   3.387   0.705   3.186
 2130SOL    HW117319   3.374   0.804   3.182
 2130SOL    HW217320   3.431   0.681   3.273
 2131SOL     OW17321   0.969   3.127   1.761
 2131SOL    HW117322   1.059   3.104   1.726
 2131SOL    HW217323   0.902   3.061   1.728
 2132SOL     OW17324   4.218   6.117   3.388
 2132SOL    HW117325   4.121   6.120   3.412
 2132SOL    HW217326   4.242   6.024   3.358
 2133SOL     OW17327   1.582   0.010   0.794
 2133SOL    HW117328   1.574   0.093   0.848
 2133SOL    HW217329   1.497   9.993   0.745
 2134SOL     OW17330   9.066   2.232   2.225
 2134SOL    HW117331   8.974   2.192   2.223
 2134SOL    HW217332   9.109   2.212   2.313
 2135SOL     OW17333   3.260   8.963   4.707
 2135SOL    HW117334   3.305   8.875   4.695
 2135SOL    HW217335   3.162   8.952   4.696
 2136SOL     OW17336   9.808   0.863   3.086
 2136SOL    HW117337   9.709   0.854   3.082
 2136SOL    HW217338   9.851   0.775   3.066
 2137SOL     OW17339   4.841   3.220   0.891
 2137SOL    HW117340   4.782   3.300   0.900
 2137SOL    HW217341   4.826   3.178   0.802
 2138SOL     OW17342   0.306   4.735   2.908
 2138SOL    HW117343   0.264   4.746   2.998
 2138SOL    HW217344   0.269   4.655   2.862
 2139SOL     OW17345   2.538   1.070   2.426
 2139SOL    HW117346   2.548   0.999   2.356
 2139SOL    HW217347   2.626   1.083   2.472
 2140SOL     OW17348   0.680   2.400   0.875
 2140SOL    HW117349   0.756   2.353   0.920
 2140SOL    HW217350   0.704   2.416   0.779
 2141SOL     OW17351   8.655   7.176   2.755
 2141SOL    HW117352   8.691   7.179   2.662
 2141SOL    HW217353   8.684   7.259   2.804
 2142SOL     OW17354   3.531   6.096   5.069
 2142SOL    HW117355   3.534   6.176   5.129
 2142SOL    HW217356   3.523   6.126   4.974
 2143SOL     OW17357   9.012   0.424   3.454
 2143SOL    HW117358   8.948   0.413   3.530
 2143SOL    HW217359   8.965   0.466   3.377
 2144SOL     OW17360   0.383   3.290   0.978
 2144SOL    HW117361   0.480   3.312   0.983
 2144SOL    HW217362   0.329   3.372   0.994
 2145SOL     OW17363   4.507   4.309   4.170
 2145SOL    HW117364   4.532   4.359   4.087
 2145SOL    HW217365   4.509   4.211   4.152
 2146SOL     OW17366   9.163   1.234   1.400
 2146SOL    HW117367   9.175   1.203   1.306
 2146SOL    HW217368   9.246   1.280   1.431
 2147SOL     OW17369   1.493   5.864   4.270
 2147SOL    HW117370   1.565   5.825   4.327
 2147SOL    HW217371   1.519   5.860   4.174
 2148SOL     OW17372   1.693   1.435   3.898
 2148SOL    HW117373   1.695   1.335   3.895
 2148SOL    HW217374   1.640   1.470   3.821
 2149SOL     OW17375   4.464   9.935   2.563
 2149SOL    HW117376   4.508   9.850   2.592
 2149SOL    HW217377   4.366   9.930   2.585
 2150SOL     OW17378   9.318   3.495   4.256
 2150SOL    HW117379   9.298   3.401   4.229
 2150SOL    HW217380   9.233   3.548   4.258
 2151SOL     OW17381   7.778   0.087   2.500
 2151SOL    HW117382   7.688   0.102   2.460
 2151SOL    HW217383   7.773   0.097   2.599
 2152SOL     OW17384   2.982   0.395   4.186
 2152SOL    HW117385   3.046   0.330   4.144
 2152SOL    HW217386   2.914   0.423   4.119
 2153SOL     OW17387   4.183   0.519   4.203
 2153SOL    HW117388   4.258   0.504   4.267
 2153SOL    HW217389   4.211   0.585   4.134
 2154SOL     OW17390   9.524   9.777   4.283
 2154SOL    HW117391   9.467   9.831   4.345
 2154SOL    HW217392   9.469   9.744   4.206
 2155SOL     OW17393   1.102   4.140   0.460
 2155SOL    HW117394   1.067   4.213   0.518
 2155SOL    HW217395   1.031   4.110   0.396
 2156SOL     OW17396   4.414   0.727   0.758
 2156SOL    HW117397   4.469   0.809   0.744
 2156SOL    HW217398   4.330   0.750   0.806
 2157SOL     OW17399   0.936   2.617   3.100
 2157SOL    HW117400   0.844   2.651   3.118
 2157SOL    HW217401   0.974   2.663   3.019
 2158SOL     OW17402   9.720   1.662   4.666
 2158SOL    HW117403   9.659   1.657   4.587
 2158SOL    HW217404   9.744   1.570   4.695
 2159SOL     OW17405   7.694   7.779   3.092
 2159SOL    HW117406   7.726   7.688   3.065
 2159SOL    HW217407   7.713   7.845   3.019
 2160SOL     OW17408   6.915   2.085   2.621
 2160SOL    HW117409   6.933   1.987   2.610
 2160SOL    HW217410   6.990   2.128   2.671
 2161SOL     OW17411   3.658   9.852   2.944
 2161SOL    HW117412   3.624   9.946   2.940
 2161SOL    HW217413   3.676   9.827   3.039
 2162SOL     OW17414   8.468   4.242   4.101
 2162SOL    HW117415   8.429   4.331   4.126
 2162SOL    HW217416   8.515   4.202   4.180
 2163SOL     OW17417   7.930   1.002   4.530
 2163SOL    HW117418   7.838   1.014   4.492
 2163SOL    HW217419   7.925   0.998   4.629
 2164SOL     OW17420   2.288   5.971   4.390
 2164SOL    HW117421   2.339   6.046   4.347
 2164SOL    HW217422   2.281   5.987   4.488
 2165SOL     OW17423   0.659   7.622   4.247
 2165SOL    HW117424   0.751   7.588   4.226
 2165SOL    HW217425   0.648   7.714   4.208
 2166SOL     OW17426   8.902   3.696   4.568
 2166SOL    HW117427   8.839   3.642   4.623
 2166SOL    HW217428   8.884   3.682   4.471
 2167SOL     OW17429   8.058   4.507   0.367
 2167SOL    HW117430   7.993   4.577   0.335
 2167SOL    HW217431   8.014   4.417   0.364
 2168SOL     OW17432   5.492   7.399   3.332
 2168SOL    HW117433   5.587   7.374   3.350
 2168SOL    HW217434   5.482   7.429   3.237
 2169SOL     OW17435   0.487   3.631   2.725
 2169SOL    HW117436   0.402   3.580   2.737
 2169SOL    HW217437   0.559   3.568   2.694
 2170SOL     OW17438   4.892   3.626   1.967
 2170SOL    HW117439   4.973   3.670   1.928
 2170SOL    HW217440   4.889   3.642   2.066
 2171SOL     OW17441   9.324   5.372   2.433
 2171SOL    HW117442   9.244   5.417   2.472
 2171SOL    HW217443   9.399   5.373   2.500
 2172SOL     OW17444   7.305   0.185   3.270
 2172SOL    HW117445   7.356   0.100   3.255
 2172SOL    HW217446   7.313   0.244   3.190
 2173SOL     OW17447   6.215   9.240   1.771
 2173SOL    HW117448   6.291   9.295   1.805
 2173SOL    HW217449   6.192   9.268   1.678
 2174SOL     OW17450   7.047   9.069   2.708
 2174SOL    HW117451   7.077   9.139   2.642
 2174SOL    HW217452   7.041   8.981   2.662
 2175SOL     OW17453   1.555   4.731   2.333
 2175SOL    HW117454   1.609   4.671   2.273
 2175SOL    HW217455   1.461   4.696   2.340
 2176SOL     OW17456   9.671   8.827   2.389
 2176SOL    HW117457   9.666   8.727   2.384
 2176SOL    HW217458   9.648   8.857   2.481
 2177SOL     OW17459   3.092   5.938   2.669
 2177SOL    HW117460   3.142   5.979   2.592
 2177SOL    HW217461   3.025   5.873   2.634
 2178SOL     OW17462   2.354   7.037   3.456
 2178SOL    HW117463   2.268   6.989   3.471
 2178SOL    HW217464   2.394   7.062   3.545
 2179SOL     OW17465   4.581   5.597   2.871
 2179SOL    HW117466   4.581   5.579   2.773
 2179SOL    HW217467   4.641   5.674   2.892
 2180SOL     OW17468   7.455   0.755   0.768
 2180SOL    HW117469   7.371   0.722   0.810
 2180SOL    HW217470   7.433   0.823   0.698
 2181SOL     OW17471   4.629   0.960   1.047
 2181SOL    HW117472   4.707   0.898   1.052
 2181SOL    HW217473   4.545   0.909   1.066
 2182SOL     OW17474   3.049   6.603   1.249
 2182SOL    HW117475   3.040   6.671   1.175
 2182SOL    HW217476   3.051   6.511   1.209
 2183SOL     OW17477   8.310   1.051   2.447
 2183SOL    HW117478   8.363   0.971   2.475
 2183SOL    HW217479   8.269   1.034   2.358
 2184SOL     OW17480   2.893   6.938   0.409
 2184SOL    HW117481   2.876   6.843   0.436
 2184SOL    HW217482   2.883   6.998   0.488
 2185SOL     OW17483   3.412   1.469   5.164
 2185SOL    HW117484   3.380   1.374   5.165
 2185SOL    HW217485   3.344   1.525   5.117
 2186SOL     OW17486   7.787   1.876   3.342
 2186SOL    HW117487   7.807   1.813   3.417
 2186SOL    HW217488   7.836   1.847   3.260
 2187SOL     OW17489   6.104   2.712   3.939
 2187SOL    HW117490   6.066   2.692   4.030
 2187SOL    HW217491   6.118   2.626   3.890
 2188SOL     OW17492   2.362   2.006   3.091
 2188SOL    HW117493   2.330   1.912   3.082
 2188SOL    HW217494   2.456   2.013   3.058
 2189SOL     OW17495   9.774   0.533   3.295
 2189SOL    HW117496   9.687   0.567   3.330
 2189SOL    HW217497   9.779   0.434   3.310
 2190SOL     OW17498   1.711   9.354   2.578
 2190SOL    HW117499   1.735   9.389   2.487
 2190SOL    HW217500   1.633   9.405   2.614
 2191SOL     OW17501   8.233   1.522   4.896
 2191SOL    HW117502   8.144   1.546   4.935
 2191SOL    HW217503   8.292   1.603   4.897
 2192SOL     OW17504   8.794   2.941   3.606
 2192SOL    HW117505   8.748   2.924   3.693
 2192SOL    HW217506   8.776   2.865   3.544
 2193SOL     OW17507   3.148   8.648   3.055
 2193SOL    HW117508   3.054   8.616   3.063
 2193SOL    HW217509   3.148   8.747   3.038
 2194SOL     OW17510   2.582   2.811   3.899
 2194SOL    HW117511   2.495   2.852   3.873
 2194SOL    HW217512   2.594   2.723   3.854
 2195SOL     OW17513   9.796   8.369   5.006
 2195SOL    HW117514   9.791   8.432   5.083
 2195SOL    HW217515   9.888   8.372   4.966
 2196SOL     OW17516   9.075   6.777   4.625
 2196SOL    HW117517   8.984   6.737   4.630
 2196SOL    HW217518   9.085   6.829   4.540
 2197SOL     OW17519   3.248   1.709   0.454
 2197SOL    HW117520   3.191   1.789   0.475
 2197SOL    HW217521   3.340   1.739   0.431
 2198SOL     OW17522   4.109   5.016   2.420
 2198SOL    HW117523   4.092   5.052   2.512
 2198SOL    HW217524   4.021   5.001   2.374
 2199SOL     OW17525   6.920   7.727   4.003
 2199SOL    HW117526   6.871   7.657   3.952
 2199SOL    HW217527   7.016   7.701   4.012
 2200SOL     OW17528   1.568   7.233   2.865
 2200SOL    HW117529   1.503   7.258   2.792
 2200SOL    HW217530   1.622   7.314   2.890
 2201SOL     OW17531   9.655   4.308   0.874
 2201SOL    HW117532   9.584   4.378   0.861
 2201SOL    HW217533   9.693   4.282   0.786
 2202SOL     OW17534   0.802   8.733   1.082
 2202SOL    HW117535   0.870   8.785   1.030
 2202SOL    HW217536   0.848   8.663   1.136
 2203SOL     OW17537   2.888   8.781   2.367
 2203SOL    HW117538   2.901   8.851   2.437
 2203SOL    HW217539   2.851   8.699   2.409
 2204SOL     OW17540   9.505   3.689   4.221
 2204SOL    HW117541   9.446   3.609   4.230
 2204SOL    HW217542   9.510   3.716   4.125
 2205SOL     OW17543   1.904   0.385   0.136
 2205SOL    HW117544   1.816   0.338   0.130
 2205SOL    HW217545   1.925   0.407   0.231
 2206SOL     OW17546   5.723   0.924   3.175
 2206SOL    HW117547   5.646   0.896   3.118
 2206SOL    HW217548   5.711   0.887   3.267
 2207SOL     OW17549   4.235   7.204   4.044
 2207SOL    HW117550   4.148   7.156   4.035
 2207SOL    HW217551   4.284   7.202   3.956
 2208SOL     OW17552   5.752   9.083   3.602
 2208SOL    HW117553   5.803   9.088   3.688
 2208SOL    HW217554   5.799   9.135   3.531
 2209SOL     OW17555   5.322   7.810   4.855
 2209SOL    HW117556   5.288   7.865   4.779
 2209SOL    HW217557   5.394   7.748   4.823
 2210SOL     OW17558   9.693   2.210   0.485
 2210SOL    HW117559   9.637   2.222   0.567
 2210SOL    HW217560   9.653   2.259   0.409
 2211SOL     OW17561   3.931   1.287   0.752
 2211SOL    HW117562   3.921   1.196   0.711
 2211SOL    HW217563   4.023   1.321   0.737
 2212SOL     OW17564   5.482   1.066   2.684
 2212SOL    HW117565   5.410   1.083   2.752
 2212SOL    HW217566   5.531   0.982   2.707
 2213SOL     OW17567   7.005   0.267   4.893
 2213SOL    HW117568   6.990   0.288   4.990
 2213SOL    HW217569   7.001   0.351   4.840
 2214SOL     OW17570   0.413   2.693   1.240
 2214SOL    HW117571   0.459   2.725   1.157
 2214SOL    HW217572   0.396   2.595   1.232
 2215SOL     OW17573   4.968   9.658   1.420
 2215SOL    HW117574   4.935   9.666   1.514
 2215SOL    HW217575   5.068   9.670   1.418
 2216SOL     OW17576   9.887   4.580   1.155
 2216SOL    HW117577   9.939   4.500   1.187
 2216SOL    HW217578   9.949   4.657   1.143
 2217SOL     OW17579   4.230   7.686   5.066
 2217SOL    HW117580   4.252   7.774   5.109
 2217SOL    HW217581   4.311   7.628   5.065
 2218SOL     OW17582   8.466   9.472   3.795
 2218SOL    HW117583   8.522   9.406   3.846
 2218SOL    HW217584   8.429   9.540   3.858
 2219SOL     OW17585   6.433   3.778   0.401
 2219SOL    HW117586   6.516   3.814   0.443
 2219SOL    HW217587   6.371   3.854   0.380
 2220SOL     OW17588   7.954   8.033   4.881
 2220SOL    HW117589   7.904   7.992   4.804
 2220SOL    HW217590   7.983   8.126   4.855
 2221SOL     OW17591   6.098   8.857   2.391
 2221SOL    HW117592   6.136   8.936   2.343
 2221SOL    HW217593   6.162   8.826   2.461
 2222SOL     OW17594   9.535   4.863   5.116
 2222SOL    HW117595   9.621   4.859   5.066
 2222SOL    HW217596   9.480   4.782   5.093
 2223SOL     OW17597   1.227   4.687   2.850
 2223SOL    HW117598   1.298   4.757   2.856
 2223SOL    HW217599   1.268   4.600   2.823
 2224SOL     OW17600   8.017   0.931   3.881
 2224SOL    HW117601   8.076   0.943   3.961
 2224SOL    HW217602   8.072   0.908   3.801
 2225SOL     OW17603   4.505   9.529   0.162
 2225SOL    HW117604   4.447   9.457   0.123
 2225SOL    HW217605   4.497   9.527   0.262
 2226SOL     OW17606   7.110   0.908   3.916
 2226SOL    HW117607   7.011   0.903   3.908
 2226SOL    HW217608   7.146   0.819   3.943
 2227SOL     OW17609   1.162   0.524   3.518
 2227SOL    HW117610   1.164   0.502   3.615
 2227SOL    HW217611   1.222   0.603   3.501
 2228SOL     OW17612   9.903   2.403   1.950
 2228SOL    HW117613   9.996   2.413   1.986
 2228SOL    HW217614   9.842   2.468   1.996
 2229SOL     OW17615   8.199   2.553   0.645
 2229SOL    HW117616   8.243   2.641   0.631
 2229SOL    HW217617   8.110   2.553   0.598
 2230SOL     OW17618   3.599   2.441   3.098
 2230SOL    HW117619   3.697   2.457   3.087
 2230SOL    HW217620   3.549   2.483   3.023
 2231SOL     OW17621   5.951   0.164   3.562
 2231SOL    HW117622   5.933   0.188   3.658
 2231SOL    HW217623   6.031   0.103   3.558
 2232SOL     OW17624   7.941   2.979   5.186
 2232SOL    HW117625   7.954   2.915   5.261
 2232SOL    HW217626   7.924   2.929   5.101
 2233SOL     OW17627   5.085   3.127   2.877
 2233SOL    HW117628   5.146   3.055   2.844
 2233SOL    HW217629   4.994   3.088   2.895
 2234SOL     OW17630   2.497   7.770   2.954
 2234SOL    HW117631   2.427   7.744   3.020
 2234SOL    HW217632   2.487   7.715   2.870
 2235SOL     OW17633   4.019   3.474   5.102
 2235SOL    HW117634   3.942   3.509   5.156
 2235SOL    HW217635   4.029   3.376   5.118
 2236SOL     OW17636   8.017   3.177   3.563
 2236SOL    HW117637   8.078   3.224   3.500
 2236SOL    HW217638   7.933   3.231   3.573
 2237SOL     OW17639   2.759   0.891   1.637
 2237SOL    HW117640   2.808   0.817   1.591
 2237SOL    HW217641   2.825   0.955   1.676
 2238SOL     OW17642   8.322   7.141   2.553
 2238SOL    HW117643   8.409   7.096   2.532
 2238SOL    HW217644   8.337   7.240   2.565
 2239SOL     OW17645   9.751   3.247   1.518
 2239SOL    HW117646   9.787   3.330   1.475
 2239SOL    HW217647   9.772   3.168   1.461
 2240SOL     OW17648   4.599   5.368   0.149
 2240SOL    HW117649   4.503   5.341   0.144
 2240SOL    HW217650   4.654   5.290   0.177
 2241SOL     OW17651   6.425   2.704   3.488
 2241SOL    HW117652   6.458   2.614   3.519
 2241SOL    HW217653   6.391   2.755   3.567
 2242SOL     OW17654   2.603   7.178   2.167
 2242SOL    HW117655   2.675   7.126   2.213
 2242SOL    HW217656   2.644   7.231   2.092
 2243SOL     OW17657   1.914   1.640   2.504
 2243SOL    HW117658   1.939   1.588   2.586
 2243SOL    HW217659   1.902   1.737   2.528
 2244SOL     OW17660   4.065   4.165   5.136
 2244SOL    HW117661   4.070   4.235   5.065
 2244SOL    HW217662   4.143   4.102   5.126
 2245SOL     OW17663   9.427   7.107   2.669
 2245SOL    HW117664   9.522   7.131   2.648
 2245SOL    HW217665   9.424   7.018   2.714
 2246SOL     OW17666   0.363   6.600   3.451
 2246SOL    HW117667   0.264   6.583   3.448
 2246SOL    HW217668   0.382   6.674   3.514
 2247SOL     OW17669   0.857   8.146   4.589
 2247SOL    HW117670   0.861   8.085   4.668
 2247SOL    HW217671   0.888   8.096   4.508
 2248SOL     OW17672   6.374   8.518   2.220
 2248SOL    HW117673   6.346   8.429   2.183
 2248SOL    HW217674   6.317   8.539   2.300
 2249SOL     OW17675   7.561   0.543   2.490
 2249SOL    HW117676   7.647   0.592   2.508
 2249SOL    HW217677   7.570   0.490   2.406
 2250SOL     OW17678   4.631   6.989   3.531
 2250SOL    HW117679   4.706   7.051   3.550
 2250SOL    HW217680   4.572   6.981   3.611
 2251SOL     OW17681   8.411   7.687   2.586
 2251SOL    HW117682   8.373   7.767   2.539
 2251SOL    HW217683   8.509   7.681   2.567
 2252SOL     OW17684   4.347   5.954   1.398
 2252SOL    HW117685   4.352   5.920   1.304
 2252SOL    HW217686   4.357   6.054   1.399
 2253SOL     OW17687   1.435   7.135   3.680
 2253SOL    HW117688   1.382   7.112   3.599
 2253SOL    HW217689   1.393   7.214   3.725
 2254SOL     OW17690   1.048   0.044   3.593
 2254SOL    HW117691   1.080   0.064   3.501
 2254SOL    HW217692   1.097   9.964   3.629
 2255SOL     OW17693   3.647   8.258   3.031
 2255SOL    HW117694   3.653   8.338   3.092
 2255SOL    HW217695   3.657   8.175   3.085
 2256SOL     OW17696   5.741   0.449   2.301
 2256SOL    HW117697   5.653   0.431   2.258
 2256SOL    HW217698   5.782   0.363   2.331
 2257SOL     OW17699   8.267   6.229   2.709
 2257SOL    HW117700   8.347   6.216   2.767
 2257SOL    HW217701   8.212   6.146   2.709
 2258SOL     OW17702   3.152   4.748   2.385
 2258SOL    HW117703   3.088   4.674   2.407
 2258SOL    HW217704   3.104   4.835   2.388
 2259SOL     OW17705   8.435   4.457   1.498
 2259SOL    HW117706   8.417   4.531   1.433
 2259SOL    HW217707   8.374   4.380   1.481
 2260SOL     OW17708   7.569   0.292   3.907
 2260SOL    HW117709   7.611   0.209   3.943
 2260SOL    HW217710   7.470   0.280   3.904
 2261SOL     OW17711   7.185   1.793   0.937
 2261SOL    HW117712   7.267   1.779   0.881
 2261SOL    HW217713   7.211   1.837   1.023
 2262SOL     OW17714   1.225   6.820   1.616
 2262SOL    HW117715   1.152   6.854   1.675
 2262SOL    HW217716   1.311   6.818   1.666
 2263SOL     OW17717   9.663   4.468   0.451
 2263SOL    HW117718   9.759   4.447   0.470
 2263SOL    HW217719   9.611   4.383   0.446
 2264SOL     OW17720   0.064   0.232   0.371
 2264SOL    HW117721   0.112   0.198   0.290
 2264SOL    HW217722   9.998   0.163   0.402
 2265SOL     OW17723   4.477   4.575   1.490
 2265SOL    HW117724   4.391   4.557   1.538
 2265SOL    HW217725   4.465   4.555   1.392
 2266SOL     OW17726   3.962   6.861   4.604
 2266SOL    HW117727   3.888   6.798   4.629
 2266SOL    HW217728   3.996   6.906   4.686
 2267SOL     OW17729   2.264   8.716   2.529
 2267SOL    HW117730   2.174   8.746   2.496
 2267SOL    HW217731   2.308   8.790   2.578
 2268SOL     OW17732   6.595   1.769   1.780
 2268SOL    HW117733   6.677   1.780   1.836
 2268SOL    HW217734   6.608   1.816   1.693
 2269SOL     OW17735   2.355   0.134   0.882
 2269SOL    HW117736   2.398   0.178   0.802
 2269SOL    HW217737   2.256   0.126   0.866
 2270SOL     OW17738   0.909   5.048   2.435
 2270SOL    HW117739   0.995   5.065   2.482
 2270SOL    HW217740   0.833   5.055   2.500
 2271SOL     OW17741   9.259   4.294   4.102
 2271SOL    HW117742   9.336   4.235   4.124
 2271SOL    HW217743   9.192   4.292   4.176
 2272SOL     OW17744   8.554   1.852   2.723
 2272SOL    HW117745   8.542   1.764   2.677
 2272SOL    HW217746   8.517   1.925   2.665
 2273SOL     OW17747   5.843   0.656   2.149
 2273SOL    HW117748   5.823   0.574   2.203
 2273SOL    HW217749   5.789   0.653   2.064
 2274SOL     OW17750   6.821   8.823   3.186
 2274SOL    HW117751   6.882   8.804   3.108
 2274SOL    HW217752   6.726   8.809   3.158
 2275SOL     OW17753   2.028   7.223   5.067
 2275SOL    HW117754   2.058   7.212   4.973
 2275SOL    HW217755   1.948   7.165   5.084
 2276SOL     OW17756   1.531   8.409   2.823
 2276SOL    HW117757   1.596   8.482   2.804
 2276SOL    HW217758   1.567   8.349   2.895
 2277SOL     OW17759   3.906   5.181   3.189
 2277SOL    HW117760   3.840   5.255   3.177
 2277SOL    HW217761   3.989   5.217   3.232
 2278SOL     OW17762   7.849   0.255   4.179
 2278SOL    HW117763   7.792   0.331   4.211
 2278SOL    HW217764   7.942   0.267   4.213
 2279SOL     OW17765   3.745   2.573   0.472
 2279SOL    HW117766   3.691   2.539   0.395
 2279SOL    HW217767   3.837   2.532   0.469
 2280SOL     OW17768   4.513   4.944   0.213
 2280SOL    HW117769   4.431   4.929   0.268
 2280SOL    HW217770   4.536   4.861   0.163
 2281SOL     OW17771   8.810   8.718   1.206
 2281SOL    HW117772   8.832   8.740   1.111
 2281SOL    HW217773   8.810   8.619   1.218
 2282SOL     OW17774   0.435   9.762   1.226
 2282SOL    HW117775   0.403   9.676   1.266
 2282SOL    HW217776   0.376   9.837   1.257
 2283SOL     OW17777   5.993   0.280   4.681
 2283SOL    HW117778   5.903   0.318   4.658
 2283SOL    HW217779   6.040   0.251   4.598
 2284SOL     OW17780   9.398   2.518   3.170
 2284SOL    HW117781   9.435   2.510   3.077
 2284SOL    HW217782   9.444   2.452   3.230
 2285SOL     OW17783   9.642   2.479   0.076
 2285SOL    HW117784   9.708   2.554   0.088
 2285SOL    HW217785   9.549   2.517   0.072
 2286SOL     OW17786   2.166   4.825   4.278
 2286SOL    HW117787   2.242   4.797   4.218
 2286SOL    HW217788   2.105   4.747   4.293
 2287SOL     OW17789   1.570   1.126   1.020
 2287SOL    HW117790   1.533   1.102   0.930
 2287SOL    HW217791   1.510   1.090   1.091
 2288SOL     OW17792   8.961   7.897   1.970
 2288SOL    HW117793   8.954   7.913   1.872
 2288SOL    HW217794   8.874   7.922   2.014
 2289SOL     OW17795   0.750   9.662   1.530
 2289SOL    HW117796   0.671   9.688   1.586
 2289SOL    HW217797   0.766   9.563   1.540
 2290SOL     OW17798   3.350   1.206   5.139
 2290SOL    HW117799   3.312   1.174   5.053
 2290SOL    HW217800   3.434   1.156   5.159
 2291SOL     OW17801   1.301   3.178   4.961
 2291SOL    HW117802   1.359   3.244   4.915
 2291SOL    HW217803   1.322   3.086   4.928
 2292SOL     OW17804   4.219   7.527   2.065
 2292SOL    HW117805   4.137   7.471   2.049
 2292SOL    HW217806   4.297   7.466   2.080
 2293SOL     OW17807   3.813   5.140   1.060
 2293SOL    HW117808   3.843   5.233   1.079
 2293SOL    HW217809   3.720   5.141   1.024
 2294SOL     OW17810   9.662   5.228   2.460
 2294SOL    HW117811   9.731   5.239   2.531
 2294SOL    HW217812   9.589   5.169   2.493
 2295SOL     OW17813   9.533   6.866   4.323
 2295SOL    HW117814   9.486   6.851   4.236
 2295SOL    HW217815   9.623   6.823   4.321
 2296SOL     OW17816   0.548   6.840   2.200
 2296SOL    HW117817   0.606   6.822   2.280
 2296SOL    HW217818   0.601   6.890   2.131
 2297SOL     OW17819   3.678   9.964   1.713
 2297SOL    HW117820   3.595   9.907   1.714
 2297SOL    HW217821   3.731   9.945   1.795
 2298SOL     OW17822   2.876   3.821   1.996
 2298SOL    HW117823   2.968   3.824   1.958
 2298SOL    HW217824   2.821   3.753   1.947
 2299SOL     OW17825   4.244   0.379   3.738
 2299SOL    HW117826   4.164   0.346   3.789
 2299SOL    HW217827   4.222   0.386   3.641
 2300SOL     OW17828   2.161   3.223   2.238
 2300SOL    HW117829   2.227   3.157   2.204
 2300SOL    HW217830   2.200   3.271   2.317
 2301SOL     OW17831   5.526   0.650   0.910
 2301SOL    HW117832   5.444   0.680   0.861
 2301SOL    HW217833   5.590   0.726   0.918
 2302SOL     OW17834   9.706   7.753   2.543
 2302SOL    HW117835   9.647   7.834   2.542
 2302SOL    HW217836   9.721   7.721   2.450
 2303SOL     OW17837   3.859   7.658   1.199
 2303SOL    HW117838   3.862   7.738   1.140
 2303SOL    HW217839   3.952   7.636   1.230
 2304SOL     OW17840   3.117   5.041   1.198
 2304SOL    HW117841   3.038   5.027   1.258
 2304SOL    HW217842   3.193   5.076   1.252
 2305SOL     OW17843   2.327   7.787   3.696
 2305SOL    HW117844   2.421   7.806   3.666
 2305SOL    HW217845   2.316   7.689   3.713
 2306SOL     OW17846   7.940   3.568   0.428
 2306SOL    HW117847   7.930   3.471   0.453
 2306SOL    HW217848   7.894   3.584   0.340
 2307SOL     OW17849   3.491   1.323   3.628
 2307SOL    HW117850   3.579   1.306   3.674
 2307SOL    HW217851   3.455   1.236   3.594
 2308SOL     OW17852   0.661   8.016   1.355
 2308SOL    HW117853   0.597   7.955   1.401
 2308SOL    HW217854   0.754   7.980   1.362
 2309SOL     OW17855   8.282   4.485   2.095
 2309SOL    HW117856   8.272   4.437   2.008
 2309SOL    HW217857   8.350   4.438   2.151
 2310SOL     OW17858   3.438   6.936   4.028
 2310SOL    HW117859   3.403   6.978   3.945
 2310SOL    HW217860   3.490   7.004   4.080
 2311SOL     OW17861   1.308   4.944   0.265
 2311SOL    HW117862   1.264   5.022   0.221
 2311SOL    HW217863   1.398   4.972   0.298
 2312SOL     OW17864   0.832   7.674   0.588
 2312SOL    HW117865   0.855   7.631   0.500
 2312SOL    HW217866   0.799   7.766   0.571
 2313SOL     OW17867   1.941   3.570   1.460
 2313SOL    HW117868   1.908   3.547   1.552
 2313SOL    HW217869   1.956   3.669   1.454
 2314SOL     OW17870   0.431   1.664   3.354
 2314SOL    HW117871   0.519   1.624   3.327
 2314SOL    HW217872   0.400   1.621   3.439
 2315SOL     OW17873   1.277   6.525   3.026
 2315SOL    HW117874   1.337   6.504   2.948
 2315SOL    HW217875   1.233   6.613   3.010
 2316SOL     OW17876   1.263   5.859   1.779
 2316SOL    HW117877   1.219   5.929   1.835
 2316SOL    HW217878   1.194   5.811   1.725
 2317SOL     OW17879   7.492   7.596   3.593
 2317SOL    HW117880   7.591   7.596   3.609
 2317SOL    HW217881   7.455   7.686   3.617
 2318SOL     OW17882   0.373   5.463   0.344
 2318SOL    HW117883   0.315   5.409   0.283
 2318SOL    HW217884   0.350   5.560   0.335
 2319SOL     OW17885   8.231   2.773   3.561
 2319SOL    HW117886   8.306   2.838   3.570
 2319SOL    HW217887   8.146   2.822   3.543
 2320SOL     OW17888   9.032   1.221   0.540
 2320SOL    HW117889   9.121   1.185   0.567
 2320SOL    HW217890   9.044   1.309   0.494
 2321SOL     OW17891   7.674   2.465   0.318
 2321SOL    HW117892   7.725   2.517   0.249
 2321SOL    HW217893   7.739   2.419   0.379
 2322SOL     OW17894   3.208   9.799   4.750
 2322SOL    HW117895   3.160   9.788   4.663
 2322SOL    HW217896   3.192   9.719   4.807
 2323SOL     OW17897   8.880   5.476   3.807
 2323SOL    HW117898   8.818   5.544   3.847
 2323SOL    HW217899   8.829   5.418   3.744
 2324SOL     OW17900   4.097   1.505   0.988
 2324SOL    HW117901   3.997   1.513   0.988
 2324SOL    HW217902   4.126   1.454   1.069
 2325SOL     OW17903   5.783   7.362   2.876
 2325SOL    HW117904   5.763   7.460   2.885
 2325SOL    HW217905   5.701   7.309   2.894
 2326SOL     OW17906   1.038   7.246   0.680
 2326SOL    HW117907   1.129   7.243   0.722
 2326SOL    HW217908   0.981   7.312   0.729
 2327SOL     OW17909   9.578   7.852   0.192
 2327SOL    HW117910   9.488   7.886   0.164
 2327SOL    HW217911   9.566   7.784   0.265
 2328SOL     OW17912   8.675   0.694   3.219
 2328SOL    HW117913   8.677   0.768   3.152
 2328SOL    HW217914   8.588   0.645   3.212
 2329SOL     OW17915   2.091   0.312   4.194
 2329SOL    HW117916   2.067   0.270   4.106
 2329SOL    HW217917   2.102   0.410   4.181
 2330SOL     OW17918   2.126   1.911   1.341
 2330SOL    HW117919   2.035   1.877   1.368
 2330SOL    HW217920   2.196   1.856   1.385
 2331SOL     OW17921   4.557   0.148   2.712
 2331SOL    HW117922   4.629   0.105   2.766
 2331SOL    HW217923   4.513   0.080   2.654
 2332SOL     OW17924   1.193   3.374   3.288
 2332SOL    HW117925   1.207   3.387   3.386
 2332SOL    HW217926   1.234   3.450   3.238
 2333SOL     OW17927   4.588   7.524   2.986
 2333SOL    HW117928   4.528   7.445   2.976
 2333SOL    HW217929   4.684   7.493   2.986
 2334SOL     OW17930   8.103   1.234   2.488
 2334SOL    HW117931   8.147   1.321   2.509
 2334SOL    HW217932   8.173   1.163   2.476
 2335SOL     OW17933   7.742   2.911   0.959
 2335SOL    HW117934   7.683   2.991   0.960
 2335SOL    HW217935   7.728   2.858   1.044
 2336SOL     OW17936   1.312   8.973   3.999
 2336SOL    HW117937   1.295   9.054   4.055
 2336SOL    HW217938   1.409   8.965   3.979
 2337SOL     OW17939   4.169   8.438   4.291
 2337SOL    HW117940   4.249   8.387   4.321
 2337SOL    HW217941   4.192   8.535   4.282
 2338SOL     OW17942   6.645   9.370   2.773
 2338SOL    HW117943   6.649   9.413   2.683
 2338SOL    HW217944   6.560   9.319   2.782
 2339SOL     OW17945   9.031   8.491   2.305
 2339SOL    HW117946   8.989   8.421   2.363
 2339SOL    HW217947   9.062   8.567   2.361
 2340SOL     OW17948   3.818   3.414   0.342
 2340SOL    HW117949   3.795   3.503   0.382
 2340SOL    HW217950   3.852   3.428   0.248
 2341SOL     OW17951   2.123   9.795   3.507
 2341SOL    HW117952   2.164   9.786   3.417
 2341SOL    HW217953   2.036   9.844   3.499
 2342SOL     OW17954   0.224   3.067   0.999
 2342SOL    HW117955   0.240   3.010   1.079
 2342SOL    HW217956   0.291   3.140   0.996
 2343SOL     OW17957   9.086   8.512   4.596
 2343SOL    HW117958   9.107   8.591   4.538
 2343SOL    HW217959   9.146   8.511   4.675
 2344SOL     OW17960   8.785   5.353   1.313
 2344SOL    HW117961   8.688   5.375   1.301
 2344SOL    HW217962   8.808   5.274   1.257
 2345SOL     OW17963   2.179   3.997   4.478
 2345SOL    HW117964   2.268   4.019   4.516
 2345SOL    HW217965   2.121   3.956   4.550
 2346SOL     OW17966   3.310   9.518   0.765
 2346SOL    HW117967   3.214   9.520   0.790
 2346SOL    HW217968   3.345   9.611   0.757
 2347SOL     OW17969   3.699   5.874   5.084
 2347SOL    HW117970   3.643   5.957   5.089
 2347SOL    HW217971   3.770   5.877   5.154
 2348SOL     OW17972   4.692   8.175   2.722
 2348SOL    HW117973   4.705   8.106   2.794
 2348SOL    HW217974   4.698   8.131   2.633
 2349SOL     OW17975   4.148   6.653   3.322
 2349SOL    HW117976   4.153   6.553   3.323
 2349SOL    HW217977   4.108   6.684   3.236
 2350SOL     OW17978   7.522   0.014   1.221
 2350SOL    HW117979   7.554   9.993   1.129
 2350SOL    HW217980   7.600   0.031   1.281
 2351SOL     OW17981   5.118   0.141   2.848
 2351SOL    HW117982   5.161   0.061   2.807
 2351SOL    HW217983   5.089   0.204   2.777
 2352SOL     OW17984   3.407   5.997   0.259
 2352SOL    HW117985   3.501   6.013   0.229
 2352SOL    HW217986   3.370   6.080   0.301
 2353SOL     OW17987   2.769   8.907   3.896
 2353SOL    HW117988   2.742   8.978   3.831
 2353SOL    HW217989   2.817   8.948   3.973
 2354SOL     OW17990   6.377   1.552   4.883
 2354SOL    HW117991   6.303   1.581   4.822
 2354SOL    HW217992   6.344   1.481   4.945
 2355SOL     OW17993   1.820   4.757   4.022
 2355SOL    HW117994   1.828   4.855   4.001
 2355SOL    HW217995   1.912   4.717   4.030
 2356SOL     OW17996   3.565   9.000   4.390
 2356SOL    HW117997   3.473   9.039   4.399
 2356SOL    HW217998   3.577   8.927   4.457
 2357SOL     OW17999   1.916   8.524   4.831
 2357SOL    HW118000   1.824   8.528   4.869
 2357SOL    HW218001   1.936   8.431   4.800
 2358SOL     OW18002   6.986   0.733   2.714
 2358SOL    HW118003   7.047   0.812   2.724
 2358SOL    HW218004   7.039   0.653   2.684
 2359SOL     OW18005   4.238   1.195   5.200
 2359SOL    HW118006   4.310   1.235   5.143
 2359SOL    HW218007   4.262   1.100   5.221
 2360SOL     OW18008   8.126   8.996   2.552
 2360SOL    HW118009   8.135   9.002   2.453
 2360SOL    HW218010   8.093   9.083   2.588
 2361SOL     OW18011   3.054   9.787   4.511
 2361SOL    HW118012   3.092   9.726   4.441
 2361SOL    HW218013   3.028   9.874   4.469
 2362SOL     OW18014   0.008   9.618   4.498
 2362SOL    HW118015   9.960   9.693   4.453
 2362SOL    HW218016   0.033   9.549   4.431
 2363SOL     OW18017   9.262   6.536   2.171
 2363SOL    HW118018   9.247   6.598   2.249
 2363SOL    HW218019   9.298   6.449   2.205
 2364SOL     OW18020   9.293   1.664   3.556
 2364SOL    HW118021   9.292   1.759   3.589
 2364SOL    HW218022   9.295   1.602   3.634
 2365SOL     OW18023   1.422   1.675   1.026
 2365SOL    HW118024   1.518   1.647   1.028
 2365SOL    HW218025   1.364   1.595   1.016
 2366SOL     OW18026   4.089   8.593   1.527
 2366SOL    HW118027   4.115   8.614   1.433
 2366SOL    HW218028   4.034   8.509   1.528
 2367SOL     OW18029   0.672   6.703   4.119
 2367SOL    HW118030   0.594   6.708   4.182
 2367SOL    HW218031   0.726   6.787   4.127
 2368SOL     OW18032   3.670   6.519   4.144
 2368SOL    HW118033   3.704   6.603   4.102
 2368SOL    HW218034   3.599   6.480   4.086
 2369SOL     OW18035   3.688   9.415   2.316
 2369SOL    HW118036   3.741   9.499   2.306
 2369SOL    HW218037   3.725   9.361   2.391
 2370SOL     OW18038   4.132   4.631   4.281
 2370SOL    HW118039   4.159   4.546   4.236
 2370SOL    HW218040   4.202   4.659   4.346
 2371SOL     OW18041   7.233   0.775   3.363
 2371SOL    HW118042   7.237   0.804   3.267
 2371SOL    HW218043   7.218   0.677   3.367
 2372SOL     OW18044   0.080   1.526   3.853
 2372SOL    HW118045   0.063   1.439   3.807
 2372SOL    HW218046   9.993   1.574   3.865
 2373SOL     OW18047   4.264   4.710   2.669
 2373SOL    HW118048   4.310   4.630   2.706
 2373SOL    HW218049   4.307   4.793   2.706
 2374SOL     OW18050   7.857   4.236   3.609
 2374SOL    HW118051   7.921   4.202   3.677
 2374SOL    HW218052   7.806   4.314   3.646
 2375SOL     OW18053   2.665   3.005   2.118
 2375SOL    HW118054   2.737   2.950   2.159
 2375SOL    HW218055   2.693   3.034   2.026
 2376SOL     OW18056   3.359   7.077   5.228
 2376SOL    HW118057   3.337   7.098   5.323
 2376SOL    HW218058   3.367   6.978   5.217
 2377SOL     OW18059   7.545   1.399   2.223
 2377SOL    HW118060   7.602   1.425   2.144
 2377SOL    HW218061   7.545   1.300   2.232
 2378SOL     OW18062   8.806   1.229   5.202
 2378SOL    HW118063   8.800   1.141   5.154
 2378SOL    HW218064   8.715   1.269   5.210
 2379SOL     OW18065   8.511   8.179   0.584
 2379SOL    HW118066   8.417   8.200   0.557
 2379SOL    HW218067   8.556   8.263   0.614
 2380SOL     OW18068   5.644   0.147   5.153
 2380SOL    HW118069   5.719   0.132   5.218
 2380SOL    HW218070   5.592   0.228   5.179
 2381SOL     OW18071   1.346   7.038   1.167
 2381SOL    HW118072   1.277   6.991   1.112
 2381SOL    HW218073   1.360   6.989   1.253
 2382SOL     OW18074   1.763   2.665   4.408
 2382SOL    HW118075   1.795   2.601   4.338
 2382SOL    HW218076   1.837   2.730   4.429
 2383SOL     OW18077   1.779   5.033   2.841
 2383SOL    HW118078   1.856   5.061   2.783
 2383SOL    HW218079   1.695   5.074   2.807
 2384SOL     OW18080   0.927   2.269   2.879
 2384SOL    HW118081   0.856   2.220   2.829
 2384SOL    HW218082   0.935   2.362   2.844
 2385SOL     OW18083   9.340   0.392   0.392
 2385SOL    HW118084   9.395   0.350   0.463
 2385SOL    HW218085   9.399   0.421   0.316
 2386SOL     OW18086   2.527   2.368   2.744
 2386SOL    HW118087   2.625   2.345   2.741
 2386SOL    HW218088   2.494   2.385   2.652
 2387SOL     OW18089   9.199   1.875   4.663
 2387SOL    HW118090   9.279   1.895   4.719
 2387SOL    HW218091   9.206   1.781   4.629
 2388SOL     OW18092   3.017   5.095   0.315
 2388SOL    HW118093   3.061   5.031   0.251
 2388SOL    HW218094   2.992   5.178   0.266
 2389SOL     OW18095   8.867   5.243   3.430
 2389SOL    HW118096   8.809   5.280   3.358
 2389SOL    HW218097   8.908   5.157   3.400
 2390SOL     OW18098   0.672   2.701   4.746
 2390SOL    HW118099   0.686   2.714   4.844
 2390SOL    HW218100   0.713   2.614   4.718
 2391SOL     OW18101   2.100   3.083   4.402
 2391SOL    HW118102   2.077   3.125   4.314
 2391SOL    HW218103   2.189   3.038   4.395
 2392SOL     OW18104   0.149   1.592   1.501
 2392SOL    HW118105   0.247   1.607   1.488
 2392SOL    HW218106   0.097   1.656   1.444
 2393SOL     OW18107   4.735   8.426   3.794
 2393SOL    HW118108   4.820   8.379   3.817
 2393SOL    HW218109   4.703   8.477   3.874
 2394SOL     OW18110   1.567   4.190   3.797
 2394SOL    HW118111   1.509   4.198   3.716
 2394SOL    HW218112   1.522   4.133   3.865
 2395SOL     OW18113   9.094   1.422   3.271
 2395SOL    HW118114   9.143   1.503   3.239
 2395SOL    HW218115   9.003   1.449   3.302
 2396SOL     OW18116   3.709   2.304   4.059
 2396SOL    HW118117   3.740   2.333   4.150
 2396SOL    HW218118   3.667   2.382   4.013
 2397SOL     OW18119   9.308   1.711   1.724
 2397SOL    HW118120   9.250   1.631   1.736
 2397SOL    HW218121   9.381   1.710   1.793
 2398SOL     OW18122   5.106   2.331   2.331
 2398SOL    HW118123   5.162   2.345   2.249
 2398SOL    HW218124   5.114   2.236   2.361
 2399SOL     OW18125   1.522   1.809   2.821
 2399SOL    HW118126   1.532   1.814   2.721
 2399SOL    HW218127   1.431   1.842   2.846
 2400SOL     OW18128   0.226   7.905   2.257
 2400SOL    HW118129   0.297   7.841   2.286
 2400SOL    HW218130   0.169   7.930   2.335
 2401SOL     OW18131   1.863   1.853   1.448
 2401SOL    HW118132   1.916   1.908   1.512
 2401SOL    HW218133   1.803   1.791   1.498
 2402SOL     OW18134   3.344   8.346   2.661
 2402SOL    HW118135   3.271   8.278   2.662
 2402SOL    HW218136   3.313   8.428   2.613
 2403SOL     OW18137   0.027   0.397   2.922
 2403SOL    HW118138   0.083   0.375   3.002
 2403SOL    HW218139   0.085   0.426   2.847
 2404SOL     OW18140   1.781   5.037   1.297
 2404SOL    HW118141   1.724   4.955   1.289
 2404SOL    HW218142   1.875   5.011   1.318
 2405SOL     OW18143   9.729   8.772   3.335
 2405SOL    HW118144   9.723   8.823   3.421
 2405SOL    HW218145   9.693   8.680   3.349
 2406SOL     OW18146   9.743   6.352   4.182
 2406SOL    HW118147   9.762   6.328   4.086
 2406SOL    HW218148   9.827   6.346   4.235
 2407SOL     OW18149   5.331   9.697   3.357
 2407SOL    HW118150   5.383   9.782   3.358
 2407SOL    HW218151   5.391   9.621   3.382
 2408SOL     OW18152   8.890   4.370   1.891
 2408SOL    HW118153   8.883   4.451   1.832
 2408SOL    HW218154   8.838   4.295   1.850
 2409SOL     OW18155   8.358   9.287   0.717
 2409SOL    HW118156   8.425   9.217   0.694
 2409SOL    HW218157   8.286   9.288   0.648
 2410SOL     OW18158   3.622   5.250   2.361
 2410SOL    HW118159   3.595   5.242   2.457
 2410SOL    HW218160   3.541   5.248   2.303
 2411SOL     OW18161   7.402   9.779   4.430
 2411SOL    HW118162   7.343   9.739   4.500
 2411SOL    HW218163   7.487   9.728   4.425
 2412SOL     OW18164   9.992   6.101   2.475
 2412SOL    HW118165   0.044   6.182   2.447
 2412SOL    HW218166   9.992   6.095   2.574
 2413SOL     OW18167   5.335   0.100   3.521
 2413SOL    HW118168   5.385   0.024   3.478
 2413SOL    HW218169   5.241   0.072   3.541
 2414SOL     OW18170   1.877   1.569   3.136
 2414SOL    HW118171   1.821   1.609   3.063
 2414SOL    HW218172   1.952   1.632   3.158
 2415SOL     OW18173   5.216   7.967   4.666
 2415SOL    HW118174   5.133   8.013   4.698
 2415SOL    HW218175   5.241   8.001   4.575
 2416SOL     OW18176   0.688   1.951   2.269
 2416SOL    HW118177   0.615   2.019   2.278
 2416SOL    HW218178   0.684   1.910   2.178
 2417SOL     OW18179   2.863   0.164   0.852
 2417SOL    HW118180   2.809   0.233   0.901
 2417SOL    HW218181   2.911   0.107   0.919
 2418SOL     OW18182   4.133   5.675   2.897
 2418SOL    HW118183   4.122   5.763   2.944
 2418SOL    HW218184   4.045   5.628   2.894
 2419SOL     OW18185   8.628   3.288   2.722
 2419SOL    HW118186   8.683   3.217   2.765
 2419SOL    HW218187   8.543   3.300   2.774
 2420SOL     OW18188   1.914   7.079   3.831
 2420SOL    HW118189   1.818   7.058   3.810
 2420SOL    HW218190   1.936   7.049   3.924
 2421SOL     OW18191   3.509   1.629   3.854
 2421SOL    HW118192   3.489   1.611   3.758
 2421SOL    HW218193   3.583   1.696   3.861
 2422SOL     OW18194   9.589   4.406   3.083
 2422SOL    HW118195   9.663   4.436   3.023
 2422SOL    HW218196   9.513   4.372   3.028
 2423SOL     OW18197   3.713   8.489   0.079
 2423SOL    HW118198   3.619   8.519   0.095
 2423SOL    HW218199   3.737   8.500   6.731
 2424SOL     OW18200   4.197   4.767   3.562
 2424SOL    HW118201   4.213   4.850   3.508
 2424SOL    HW218202   4.278   4.708   3.556
 2425SOL     OW18203   4.569   9.483   0.861
 2425SOL    HW118204   4.654   9.477   0.810
 2425SOL    HW218205   4.497   9.434   0.812
 2426SOL     OW18206   4.225   7.699   1.539
 2426SOL    HW118207   4.216   7.671   1.635
 2426SOL    HW218208   4.190   7.792   1.528
 2427SOL     OW18209   7.973   2.362   3.008
 2427SOL    HW118210   7.884   2.349   3.050
 2427SOL    HW218211   8.000   2.280   2.958
 2428SOL     OW18212   8.786   5.611   1.435
 2428SOL    HW118213   8.850   5.683   1.410
 2428SOL    HW218214   8.806   5.529   1.380
 2429SOL     OW18215   8.642   8.269   5.229
 2429SOL    HW118216   8.561   8.246   5.175
 2429SOL    HW218217   8.657   8.368   5.225
 2430SOL     OW18218   0.998   9.919   4.776
 2430SOL    HW118219   0.935   9.969   4.717
 2430SOL    HW218220   0.946   9.873   4.849
 2431SOL     OW18221   6.142   4.930   1.049
 2431SOL    HW118222   6.154   4.835   1.022
 2431SOL    HW218223   6.229   4.978   1.040
 2432SOL     OW18224   3.228   3.188   0.754
 2432SOL    HW118225   3.275   3.270   0.724
 2432SOL    HW218226   3.278   3.107   0.723
 2433SOL     OW18227   6.416   0.010   2.834
 2433SOL    HW118228   6.440   9.937   2.770
 2433SOL    HW218229   6.394   9.970   2.923
 2434SOL     OW18230   9.044   9.026   1.029
 2434SOL    HW118231   9.002   9.070   1.108
 2434SOL    HW218232   9.117   8.965   1.060
 2435SOL     OW18233   6.550   4.069   0.283
 2435SOL    HW118234   6.602   4.020   0.352
 2435SOL    HW218235   6.455   4.037   0.283
 2436SOL     OW18236   4.723   1.416   3.855
 2436SOL    HW118237   4.787   1.491   3.875
 2436SOL    HW218238   4.715   1.406   3.756
 2437SOL     OW18239   2.787   7.986   1.448
 2437SOL    HW118240   2.809   7.974   1.351
 2437SOL    HW218241   2.872   7.984   1.502
 2438SOL     OW18242   3.112   2.664   4.246
 2438SOL    HW118243   3.030   2.617   4.277
 2438SOL    HW218244   3.152   2.716   4.322
 2439SOL     OW18245   0.109   5.011   4.834
 2439SOL    HW118246   0.071   5.033   4.744
 2439SOL    HW218247   0.084   5.083   4.899
 2440SOL     OW18248   8.193   6.748   2.514
 2440SOL    HW118249   8.191   6.815   2.588
 2440SOL    HW218250   8.117   6.684   2.526
 2441SOL     OW18251   3.476   1.842   0.363
 2441SOL    HW118252   3.409   1.898   0.315
 2441SOL    HW218253   3.536   1.797   0.297
 2442SOL     OW18254   9.987   9.431   4.937
 2442SOL    HW118255   0.054   9.359   4.917
 2442SOL    HW218256   9.950   9.466   4.851
 2443SOL     OW18257   3.420   6.699   4.698
 2443SOL    HW118258   3.426   6.777   4.636
 2443SOL    HW218259   3.400   6.731   4.790
 2444SOL     OW18260   3.494   4.973   2.176
 2444SOL    HW118261   3.534   4.955   2.086
 2444SOL    HW218262   3.457   5.066   2.178
 2445SOL     OW18263   4.009   4.892   1.400
 2445SOL    HW118264   4.075   4.955   1.358
 2445SOL    HW218265   3.924   4.893   1.347
 2446SOL     OW18266   4.281   7.092   3.018
 2446SOL    HW118267   4.258   7.088   3.116
 2446SOL    HW218268   4.199   7.115   2.966
 2447SOL     OW18269   3.387   3.387   4.430
 2447SOL    HW118270   3.366   3.318   4.360
 2447SOL    HW218271   3.408   3.474   4.385
 2448SOL     OW18272   7.862   9.790   0.986
 2448SOL    HW118273   7.825   9.700   0.962
 2448SOL    HW218274   7.915   9.784   1.070
 2449SOL     OW18275   4.372   4.994   4.955
 2449SOL    HW118276   4.443   4.982   4.885
 2449SOL    HW218277   4.284   5.011   4.910
 2450SOL     OW18278   9.789   7.237   3.167
 2450SOL    HW118279   9.884   7.231   3.136
 2450SOL    HW218280   9.758   7.147   3.196
 2451SOL     OW18281   4.068   7.471   4.745
 2451SOL    HW118282   3.971   7.450   4.734
 2451SOL    HW218283   4.120   7.417   4.679
 2452SOL     OW18284   0.145   4.265   3.147
 2452SOL    HW118285   0.174   4.208   3.223
 2452SOL    HW218286   0.190   4.354   3.152
 2453SOL     OW18287   1.822   4.679   0.528
 2453SOL    HW118288   1.780   4.691   0.438
 2453SOL    HW218289   1.804   4.759   0.585
 2454SOL     OW18290   6.257   2.810   4.228
 2454SOL    HW118291   6.306   2.837   4.146
 2454SOL    HW218292   6.321   2.799   4.304
 2455SOL     OW18293   1.213   2.887   3.023
 2455SOL    HW118294   1.280   2.841   3.080
 2455SOL    HW218295   1.185   2.973   3.065
 2456SOL     OW18296   0.430   8.822   3.272
 2456SOL    HW118297   0.381   8.869   3.198
 2456SOL    HW218298   0.528   8.839   3.262
 2457SOL     OW18299   2.342   1.524   4.148
 2457SOL    HW118300   2.406   1.489   4.216
 2457SOL    HW218301   2.357   1.478   4.061
 2458SOL     OW18302   9.489   3.429   3.657
 2458SOL    HW118303   9.575   3.480   3.652
 2458SOL    HW218304   9.442   3.451   3.742
 2459SOL     OW18305   9.768   7.696   1.494
 2459SOL    HW118306   9.717   7.754   1.558
 2459SOL    HW218307   9.803   7.616   1.542
 2460SOL     OW18308   5.080   8.994   4.985
 2460SOL    HW118309   5.052   8.987   5.081
 2460SOL    HW218310   5.172   8.958   4.974
 2461SOL     OW18311   2.079   5.732   0.784
 2461SOL    HW118312   2.077   5.633   0.768
 2461SOL    HW218313   2.172   5.765   0.770
 2462SOL     OW18314   3.499   4.250   0.283
 2462SOL    HW118315   3.463   4.217   0.196
 2462SOL    HW218316   3.575   4.312   0.266
 2463SOL     OW18317   6.174   5.298   0.822
 2463SOL    HW118318   6.147   5.230   0.754
 2463SOL    HW218319   6.273   5.294   0.835
 2464SOL     OW18320   8.049   0.581   2.926
 2464SOL    HW118321   8.029   0.537   2.838
 2464SOL    HW218322   8.043   0.514   2.999
 2465SOL     OW18323   3.954   8.386   0.412
 2465SOL    HW118324   3.949   8.465   0.351
 2465SOL    HW218325   3.994   8.309   0.362
 2466SOL     OW18326   8.186   0.750   4.475
 2466SOL    HW118327   8.271   0.748   4.422
 2466SOL    HW218328   8.208   0.758   4.572
 2467SOL     OW18329   3.194   4.305   3.057
 2467SOL    HW118330   3.150   4.319   2.968
 2467SOL    HW218331   3.211   4.394   3.100
 2468SOL     OW18332   4.211   5.007   4.212
 2468SOL    HW118333   4.132   4.947   4.221
 2468SOL    HW218334   4.217   5.042   4.119
 2469SOL     OW18335   9.526   6.396   0.720
 2469SOL    HW118336   9.595   6.325   0.732
 2469SOL    HW218337   9.556   6.479   0.766
 2470SOL     OW18338   8.856   5.281   2.067
 2470SOL    HW118339   8.904   5.220   2.129
 2470SOL    HW218340   8.922   5.337   2.017
 2471SOL     OW18341   9.334   8.050   1.074
 2471SOL    HW118342   9.236   8.031   1.077
 2471SOL    HW218343   9.356   8.120   1.142
 2472SOL     OW18344   2.866   4.018   0.507
 2472SOL    HW118345   2.908   3.937   0.466
 2472SOL    HW218346   2.775   3.994   0.541
 2473SOL     OW18347   0.671   5.333   0.686
 2473SOL    HW118348   0.631   5.248   0.719
 2473SOL    HW218349   0.761   5.314   0.646
 2474SOL     OW18350   1.010   0.732   4.652
 2474SOL    HW118351   1.026   0.825   4.687
 2474SOL    HW218352   0.913   0.709   4.665
 2475SOL     OW18353   9.210   1.513   4.350
 2475SOL    HW118354   9.176   1.426   4.387
 2475SOL    HW218355   9.295   1.497   4.300
 2476SOL     OW18356   9.275   7.847   1.836
 2476SOL    HW118357   9.312   7.924   1.889
 2476SOL    HW218358   9.228   7.784   1.897
 2477SOL     OW18359   0.144   6.404   3.673
 2477SOL    HW118360   0.211   6.456   3.726
 2477SOL    HW218361   0.108   6.461   3.600
 2478SOL     OW18362   1.062   4.909   4.940
 2478SOL    HW118363   1.034   5.004   4.948
 2478SOL    HW218364   1.041   4.860   5.025
 2479SOL     OW18365   3.642   5.157   4.351
 2479SOL    HW118366   3.588   5.160   4.268
 2479SOL    HW218367   3.588   5.191   4.428
 2480SOL     OW18368   0.642   5.255   1.249
 2480SOL    HW118369   0.584   5.330   1.217
 2480SOL    HW218370   0.736   5.287   1.258
 2481SOL     OW18371   1.693   7.444   4.532
 2481SOL    HW118372   1.651   7.468   4.445
 2481SOL    HW218373   1.765   7.510   4.554
 2482SOL     OW18374   8.958   7.012   3.970
 2482SOL    HW118375   8.973   7.107   3.998
 2482SOL    HW218376   8.860   6.992   3.973
 2483SOL     OW18377   6.250   4.977   0.261
 2483SOL    HW118378   6.293   4.886   0.262
 2483SOL    HW218379   6.316   5.045   0.229
 2484SOL     OW18380   4.435   5.112   5.191
 2484SOL    HW118381   4.396   5.049   5.258
 2484SOL    HW218382   4.415   5.079   5.099
 2485SOL     OW18383   2.145   6.131   1.734
 2485SOL    HW118384   2.085   6.211   1.730
 2485SOL    HW218385   2.096   6.054   1.776
 2486SOL     OW18386   4.534   2.154   0.701
 2486SOL    HW118387   4.563   2.225   0.765
 2486SOL    HW218388   4.590   2.072   0.715
 2487SOL     OW18389   9.008   0.399   4.509
 2487SOL    HW118390   8.943   0.398   4.433
 2487SOL    HW218391   8.960   0.376   4.594
 2488SOL     OW18392   6.939   7.302   3.574
 2488SOL    HW118393   6.882   7.276   3.653
 2488SOL    HW218394   7.024   7.249   3.577
 2489SOL     OW18395   9.619   7.381   3.004
 2489SOL    HW118396   9.680   7.334   3.067
 2489SOL    HW218397   9.534   7.329   2.993
 2490SOL     OW18398   8.696   2.660   3.061
 2490SOL    HW118399   8.673   2.571   3.101
 2490SOL    HW218400   8.621   2.724   3.078
 2491SOL     OW18401   0.445   8.799   3.554
 2491SOL    HW118402   0.461   8.703   3.575
 2491SOL    HW218403   0.431   8.809   3.455
 2492SOL     OW18404   0.030   4.334   1.202
 2492SOL    HW118405   0.009   4.263   1.269
 2492SOL    HW218406   9.984   4.314   1.116
 2493SOL     OW18407   4.809   4.728   0.986
 2493SOL    HW118408   4.710   4.727   0.973
 2493SOL    HW218409   4.854   4.704   0.900
 2494SOL     OW18410   6.359   8.306   2.592
 2494SOL    HW118411   6.404   8.223   2.623
 2494SOL    HW218412   6.305   8.287   2.510
 2495SOL     OW18413   2.321   7.720   3.160
 2495SOL    HW118414   2.323   7.812   3.201
 2495SOL    HW218415   2.362   7.655   3.223
 2496SOL     OW18416   1.025   9.997   4.217
 2496SOL    HW118417   1.031   0.002   4.117
 2496SOL    HW218418   1.116   0.010   4.257
 2497SOL     OW18419   6.481   1.507   4.097
 2497SOL    HW118420   6.423   1.434   4.131
 2497SOL    HW218421   6.473   1.514   3.998
 2498SOL     OW18422   5.609   0.513   3.474
 2498SOL    HW118423   5.525   0.565   3.458
 2498SOL    HW218424   5.586   0.421   3.508
 2499SOL     OW18425   9.404   2.593   0.120
 2499SOL    HW118426   9.309   2.562   0.110
 2499SOL    HW218427   9.418   2.629   0.212
 2500SOL     OW18428   4.220   1.474   3.554
 2500SOL    HW118429   4.174   1.410   3.492
 2500SOL    HW218430   4.211   1.441   3.648
 2501SOL     OW18431   9.617   2.675   2.527
 2501SOL    HW118432   9.570   2.731   2.460
 2501SOL    HW218433   9.555   2.656   2.604
 2502SOL     OW18434   2.557   1.683   0.857
 2502SOL    HW118435   2.614   1.703   0.936
 2502SOL    HW218436   2.536   1.767   0.808
 2503SOL     OW18437   0.635   5.920   2.131
 2503SOL    HW118438   0.633   5.825   2.161
 2503SOL    HW218439   0.586   5.929   2.044
 2504SOL     OW18440   9.708   2.310   1.592
 2504SOL    HW118441   9.750   2.308   1.501
 2504SOL    HW218442   9.759   2.249   1.653
 2505SOL     OW18443   1.903   6.549   0.585
 2505SOL    HW118444   1.987   6.495   0.579
 2505SOL    HW218445   1.922   6.644   0.563
 2506SOL     OW18446   4.546   0.535   3.960
 2506SOL    HW118447   4.526   0.513   3.865
 2506SOL    HW218448   4.603   0.464   4.000
 2507SOL     OW18449   2.118   2.436   0.325
 2507SOL    HW118450   2.172   2.403   0.402
 2507SOL    HW218451   2.021   2.418   0.342
 2508SOL     OW18452   1.719   5.174   1.966
 2508SOL    HW118453   1.754   5.150   2.057
 2508SOL    HW218454   1.726   5.095   1.906
 2509SOL     OW18455   9.224   9.450   4.374
 2509SOL    HW118456   9.202   9.374   4.436
 2509SOL    HW218457   9.148   9.465   4.312
 2510SOL     OW18458   7.316   2.722   3.750
 2510SOL    HW118459   7.346   2.627   3.749
 2510SOL    HW218460   7.253   2.737   3.673
 2511SOL     OW18461   4.371   6.222   1.487
 2511SOL    HW118462   4.275   6.232   1.515
 2511SOL    HW218463   4.423   6.180   1.561
 2512SOL     OW18464   9.362   6.220   0.277
 2512SOL    HW118465   9.382   6.288   0.347
 2512SOL    HW218466   9.263   6.204   0.274
 2513SOL     OW18467   3.116   4.103   4.712
 2513SOL    HW118468   3.143   4.038   4.640
 2513SOL    HW218469   3.191   4.167   4.727
 2514SOL     OW18470   8.460   9.268   2.453
 2514SOL    HW118471   8.447   9.312   2.364
 2514SOL    HW218472   8.483   9.172   2.440
 2515SOL     OW18473   4.395   9.118   4.988
 2515SOL    HW118474   4.346   9.205   4.982
 2515SOL    HW218475   4.428   9.093   4.897
 2516SOL     OW18476   8.762   8.425   4.406
 2516SOL    HW118477   8.814   8.369   4.471
 2516SOL    HW218478   8.691   8.369   4.364
 2517SOL     OW18479   2.515   0.117   0.058
 2517SOL    HW118480   2.519   0.148   6.711
 2517SOL    HW218481   2.474   0.189   0.115
 2518SOL     OW18482   1.058   8.105   4.152
 2518SOL    HW118483   1.093   8.184   4.201
 2518SOL    HW218484   1.086   8.111   4.056
 2519SOL     OW18485   3.989   0.598   2.606
 2519SOL    HW118486   3.954   0.551   2.524
 2519SOL    HW218487   3.975   0.539   2.686
 2520SOL     OW18488   7.320   3.794   0.263
 2520SOL    HW118489   7.388   3.777   0.191
 2520SOL    HW218490   7.228   3.781   0.225
 2521SOL     OW18491   9.636   7.850   1.677
 2521SOL    HW118492   9.694   7.930   1.695
 2521SOL    HW218493   9.547   7.880   1.644
 2522SOL     OW18494   3.380   8.288   1.710
 2522SOL    HW118495   3.291   8.243   1.705
 2522SOL    HW218496   3.382   8.349   1.789
 2523SOL     OW18497   2.897   8.934   2.606
 2523SOL    HW118498   2.815   8.950   2.661
 2523SOL    HW218499   2.965   8.885   2.660
 2524SOL     OW18500   0.398   2.120   3.389
 2524SOL    HW118501   0.442   2.036   3.421
 2524SOL    HW218502   0.311   2.097   3.346
 2525SOL     OW18503   3.104   4.297   2.390
 2525SOL    HW118504   3.190   4.291   2.339
 2525SOL    HW218505   3.038   4.232   2.351
 2526SOL     OW18506   7.598   7.441   4.590
 2526SOL    HW118507   7.643   7.478   4.509
 2526SOL    HW218508   7.650   7.362   4.623
 2527SOL     OW18509   9.959   8.197   3.918
 2527SOL    HW118510   9.951   8.239   3.828
 2527SOL    HW218511   0.018   8.253   3.976
 2528SOL     OW18512   3.018   4.720   4.539
 2528SOL    HW118513   3.036   4.640   4.596
 2528SOL    HW218514   2.942   4.773   4.578
 2529SOL     OW18515   3.916   1.872   4.510
 2529SOL    HW118516   4.000   1.819   4.505
 2529SOL    HW218517   3.868   1.867   4.423
 2530SOL     OW18518   9.012   8.257   2.744
 2530SOL    HW118519   9.103   8.274   2.707
 2530SOL    HW218520   9.016   8.185   2.813
 2531SOL     OW18521   8.444   7.207   4.931
 2531SOL    HW118522   8.409   7.123   4.972
 2531SOL    HW218523   8.394   7.226   4.846
 2532SOL     OW18524   1.422   9.390   4.520
 2532SOL    HW118525   1.354   9.449   4.477
 2532SOL    HW218526   1.464   9.438   4.597
 2533SOL     OW18527   4.922   3.978   2.517
 2533SOL    HW118528   5.011   4.017   2.491
 2533SOL    HW218529   4.861   3.981   2.438
 2534SOL     OW18530   8.207   6.998   3.594
 2534SOL    HW118531   8.239   7.040   3.510
 2534SOL    HW218532   8.211   7.064   3.669
 2535SOL     OW18533   1.575   6.552   5.154
 2535SOL    HW118534   1.504   6.511   5.096
 2535SOL    HW218535   1.627   6.619   5.100
 2536SOL     OW18536   2.301   1.589   0.880
 2536SOL    HW118537   2.264   1.586   0.787
 2536SOL    HW218538   2.397   1.618   0.876
 2537SOL     OW18539   9.443   3.148   0.286
 2537SOL    HW118540   9.375   3.180   0.220
 2537SOL    HW218541   9.531   3.192   0.267
 2538SOL     OW18542   2.314   9.597   0.450
 2538SOL    HW118543   2.255   9.517   0.462
 2538SOL    HW218544   2.326   9.615   0.353
 2539SOL     OW18545   3.543   7.174   0.119
 2539SOL    HW118546   3.518   7.179   0.216
 2539SOL    HW218547   3.496   7.247   0.069
 2540SOL     OW18548   4.256   7.103   3.294
 2540SOL    HW118549   4.272   7.043   3.372
 2540SOL    HW218550   4.316   7.183   3.300
 2541SOL     OW18551   0.017   4.701   0.623
 2541SOL    HW118552   0.107   4.667   0.652
 2541SOL    HW218553   9.970   4.740   0.701
 2542SOL     OW18554   8.853   2.166   0.263
 2542SOL    HW118555   8.885   2.115   0.183
 2542SOL    HW218556   8.932   2.205   0.311
 2543SOL     OW18557   7.182   3.494   0.106
 2543SOL    HW118558   7.278   3.479   0.081
 2543SOL    HW218559   7.132   3.407   0.099
 2544SOL     OW18560   1.608   3.540   4.943
 2544SOL    HW118561   1.631   3.634   4.916
 2544SOL    HW218562   1.533   3.542   5.010
 2545SOL     OW18563   2.749   5.602   1.387
 2545SOL    HW118564   2.747   5.599   1.287
 2545SOL    HW218565   2.824   5.662   1.417
 2546SOL     OW18566   2.171   9.997   2.584
 2546SOL    HW118567   2.144   9.932   2.513
 2546SOL    HW218568   2.207   9.947   2.663
 2547SOL     OW18569   4.716   8.648   1.035
 2547SOL    HW118570   4.681   8.607   1.120
 2547SOL    HW218571   4.656   8.622   0.959
 2548SOL     OW18572   2.414   9.298   3.280
 2548SOL    HW118573   2.409   9.346   3.192
 2548SOL    HW218574   2.443   9.203   3.264
 2549SOL     OW18575   2.777   3.519   2.773
 2549SOL    HW118576   2.779   3.589   2.844
 2549SOL    HW218577   2.854   3.533   2.710
 2550SOL     OW18578   2.580   1.617   1.191
 2550SOL    HW118579   2.651   1.561   1.233
 2550SOL    HW218580   2.578   1.707   1.233
 2551SOL     OW18581   4.446   8.394   1.579
 2551SOL    HW118582   4.427   8.455   1.502
 2551SOL    HW218583   4.433   8.299   1.551
 2552SOL     OW18584   0.756   0.009   4.150
 2552SOL    HW118585   0.848   9.997   4.187
 2552SOL    HW218586   0.753   0.093   4.096
 2553SOL     OW18587   3.157   8.402   1.239
 2553SOL    HW118588   3.105   8.478   1.277
 2553SOL    HW218589   3.178   8.336   1.311
 2554SOL     OW18590   3.180   3.684   3.318
 2554SOL    HW118591   3.158   3.634   3.401
 2554SOL    HW218592   3.219   3.621   3.250
 2555SOL     OW18593   7.577   8.125   4.126
 2555SOL    HW118594   7.513   8.105   4.052
 2555SOL    HW218595   7.529   8.124   4.214
 2556SOL     OW18596   8.759   6.303   1.378
 2556SOL    HW118597   8.715   6.365   1.443
 2556SOL    HW218598   8.713   6.214   1.381
 2557SOL     OW18599   9.914   5.010   2.066
 2557SOL    HW118600   9.958   4.926   2.096
 2557SOL    HW218601   9.857   4.991   1.986
 2558SOL     OW18602   3.579   7.579   4.919
 2558SOL    HW118603   3.639   7.636   4.862
 2558SOL    HW218604   3.629   7.549   5.000
 2559SOL     OW18605   4.536   0.846   2.888
 2559SOL    HW118606   4.569   0.923   2.834
 2559SOL    HW218607   4.516   0.769   2.827
 2560SOL     OW18608   4.764   1.230   1.747
 2560SOL    HW118609   4.723   1.318   1.772
 2560SOL    HW218610   4.700   1.156   1.767
 2561SOL     OW18611   7.863   4.237   1.611
 2561SOL    HW118612   7.805   4.252   1.531
 2561SOL    HW218613   7.923   4.158   1.595
 2562SOL     OW18614   0.154   5.055   1.205
 2562SOL    HW118615   0.207   5.131   1.242
 2562SOL    HW218616   0.177   4.971   1.254
 2563SOL     OW18617   6.913   3.616   1.008
 2563SOL    HW118618   6.935   3.695   1.065
 2563SOL    HW218619   6.982   3.545   1.023
 2564SOL     OW18620   5.865   1.901   4.358
 2564SOL    HW118621   5.896   1.806   4.352
 2564SOL    HW218622   5.895   1.952   4.277
 2565SOL     OW18623   9.126   1.529   0.753
 2565SOL    HW118624   9.124   1.584   0.670
 2565SOL    HW218625   9.188   1.452   0.740
 2566SOL     OW18626   2.607   8.084   4.501
 2566SOL    HW118627   2.684   8.141   4.474
 2566SOL    HW218628   2.625   7.989   4.474
 2567SOL     OW18629   4.968   2.935   3.754
 2567SOL    HW118630   5.006   2.975   3.837
 2567SOL    HW218631   4.880   2.978   3.733
 2568SOL     OW18632   7.988   2.874   4.482
 2568SOL    HW118633   8.081   2.910   4.486
 2568SOL    HW218634   7.970   2.838   4.391
 2569SOL     OW18635   2.887   3.084   2.875
 2569SOL    HW118636   2.911   3.105   2.781
 2569SOL    HW218637   2.860   3.168   2.923
 2570SOL     OW18638   2.552   8.093   1.523
 2570SOL    HW118639   2.570   8.167   1.588
 2570SOL    HW218640   2.638   8.048   1.499
 2571SOL     OW18641   1.130   5.028   2.023
 2571SOL    HW118642   1.070   4.966   2.075
 2571SOL    HW218643   1.201   5.063   2.084
 2572SOL     OW18644   1.046   5.755   4.954
 2572SOL    HW118645   0.951   5.779   4.975
 2572SOL    HW218646   1.104   5.835   4.966
 2573SOL     OW18647   0.395   7.551   5.147
 2573SOL    HW118648   0.311   7.591   5.111
 2573SOL    HW218649   0.381   7.454   5.167
 2574SOL     OW18650   1.802   1.230   1.414
 2574SOL    HW118651   1.784   1.239   1.316
 2574SOL    HW218652   1.729   1.276   1.466
 2575SOL     OW18653   8.563   3.537   2.348
 2575SOL    HW118654   8.528   3.456   2.395
 2575SOL    HW218655   8.594   3.604   2.416
 2576SOL     OW18656   4.194   2.142   0.067
 2576SOL    HW118657   4.271   2.147   0.003
 2576SOL    HW218658   4.222   2.179   0.155
 2577SOL     OW18659   6.820   9.888   3.938
 2577SOL    HW118660   6.870   9.801   3.943
 2577SOL    HW218661   6.877   9.956   3.892
 2578SOL     OW18662   9.660   6.047   3.944
 2578SOL    HW118663   9.717   6.036   4.025
 2578SOL    HW218664   9.614   6.135   3.947
 2579SOL     OW18665   0.828   9.165   4.027
 2579SOL    HW118666   0.882   9.081   4.030
 2579SOL    HW218667   0.742   9.147   3.980
 2580SOL     OW18668   6.977   2.401   2.887
 2580SOL    HW118669   6.901   2.336   2.896
 2580SOL    HW218670   6.948   2.478   2.831
 2581SOL     OW18671   3.366   6.373   1.436
 2581SOL    HW118672   3.461   6.369   1.469
 2581SOL    HW218673   3.337   6.468   1.428
 2582SOL     OW18674   2.761   2.817   0.127
 2582SOL    HW118675   2.786   2.721   0.114
 2582SOL    HW218676   2.667   2.832   0.094
 2583SOL     OW18677   2.956   7.555   3.417
 2583SOL    HW118678   3.011   7.477   3.387
 2583SOL    HW218679   2.945   7.550   3.517
 2584SOL     OW18680   1.532   8.909   2.177
 2584SOL    HW118681   1.531   8.906   2.277
 2584SOL    HW218682   1.453   8.960   2.144
 2585SOL     OW18683   1.609   1.837   0.433
 2585SOL    HW118684   1.651   1.889   0.358
 2585SOL    HW218685   1.517   1.872   0.450
 2586SOL     OW18686   8.009   0.531   3.641
 2586SOL    HW118687   7.987   0.550   3.736
 2586SOL    HW218688   7.973   0.604   3.583
 2587SOL     OW18689   2.331   3.425   3.659
 2587SOL    HW118690   2.339   3.489   3.583
 2587SOL    HW218691   2.346   3.473   3.745
 2588SOL     OW18692   1.390   7.541   0.934
 2588SOL    HW118693   1.336   7.625   0.946
 2588SOL    HW218694   1.341   7.465   0.976
 2589SOL     OW18695   7.699   9.758   0.374
 2589SOL    HW118696   7.634   9.830   0.351
 2589SOL    HW218697   7.696   9.741   0.473
 2590SOL     OW18698   4.027   9.177   0.781
 2590SOL    HW118699   3.980   9.249   0.834
 2590SOL    HW218700   4.009   9.190   0.684
 2591SOL     OW18701   8.300   4.195   2.158
 2591SOL    HW118702   8.243   4.148   2.090
 2591SOL    HW218703   8.241   4.234   2.229
 2592SOL     OW18704   3.523   0.186   0.672
 2592SOL    HW118705   3.484   0.153   0.586
 2592SOL    HW218706   3.556   0.279   0.660
 2593SOL     OW18707   1.602   2.947   4.675
 2593SOL    HW118708   1.594   2.851   4.650
 2593SOL    HW218709   1.694   2.965   4.710
 2594SOL     OW18710   2.152   0.294   1.531
 2594SOL    HW118711   2.133   0.207   1.576
 2594SOL    HW218712   2.187   0.277   1.439
 2595SOL     OW18713   0.009   2.624   4.504
 2595SOL    HW118714   0.092   2.609   4.557
 2595SOL    HW218715   9.975   2.536   4.471
 2596SOL     OW18716   8.857   9.564   3.021
 2596SOL    HW118717   8.853   9.468   2.991
 2596SOL    HW218718   8.952   9.588   3.042
 2597SOL     OW18719   1.225   0.494   4.443
 2597SOL    HW118720   1.237   0.525   4.538
 2597SOL    HW218721   1.216   0.395   4.442
 2598SOL     OW18722   0.231   8.111   1.432
 2598SOL    HW118723   0.321   8.111   1.476
 2598SOL    HW218724   0.239   8.075   1.339
 2599SOL     OW18725   3.552   1.916   1.304
 2599SOL    HW118726   3.621   1.856   1.344
 2599SOL    HW218727   3.591   1.966   1.227
 2600SOL     OW18728   2.185   0.290   3.354
 2600SOL    HW118729   2.115   0.281   3.425
 2600SOL    HW218730   2.271   0.251   3.387
 2601SOL     OW18731   9.134   3.107   3.046
 2601SOL    HW118732   9.069   3.113   3.121
 2601SOL    HW218733   9.089   3.132   2.960
 2602SOL     OW18734   1.557   7.964   0.247
 2602SOL    HW118735   1.527   7.990   0.155
 2602SOL    HW218736   1.505   7.883   0.277
 2603SOL     OW18737   4.409   3.899   2.811
 2603SOL    HW118738   4.422   3.830   2.882
 2603SOL    HW218739   4.478   3.971   2.822
 2604SOL     OW18740   9.287   6.044   3.973
 2604SOL    HW118741   9.275   6.126   4.028
 2604SOL    HW218742   9.346   5.979   4.022
 2605SOL     OW18743   1.388   3.808   5.198
 2605SOL    HW118744   1.294   3.832   5.225
 2605SOL    HW218745   1.418   3.868   5.125
 2606SOL     OW18746   9.451   2.436   4.472
 2606SOL    HW118747   9.490   2.359   4.421
 2606SOL    HW218748   9.525   2.492   4.510
 2607SOL     OW18749   3.642   7.464   0.678
 2607SOL    HW118750   3.655   7.524   0.599
 2607SOL    HW218751   3.594   7.381   0.650
 2608SOL     OW18752   1.667   1.266   4.482
 2608SOL    HW118753   1.619   1.350   4.456
 2608SOL    HW218754   1.744   1.289   4.542
 2609SOL     OW18755   1.734   9.308   3.287
 2609SOL    HW118756   1.665   9.243   3.319
 2609SOL    HW218757   1.805   9.319   3.357
 2610SOL     OW18758   1.997   9.030   0.288
 2610SOL    HW118759   1.938   8.979   0.225
 2610SOL    HW218760   1.948   9.050   0.372
 2611SOL     OW18761   7.431   0.183   2.991
 2611SOL    HW118762   7.467   0.105   2.940
 2611SOL    HW218763   7.504   0.225   3.045
 2612SOL     OW18764   0.060   7.230   3.127
 2612SOL    HW118765   0.085   7.141   3.165
 2612SOL    HW218766   0.093   7.303   3.187
 2613SOL     OW18767   6.112   0.044   2.643
 2613SOL    HW118768   6.137   0.082   2.732
 2613SOL    HW218769   6.027   9.992   2.652
 2614SOL     OW18770   8.927   8.857   4.741
 2614SOL    HW118771   8.920   8.765   4.780
 2614SOL    HW218772   8.944   8.922   4.815
 2615SOL     OW18773   9.004   7.403   1.254
 2615SOL    HW118774   9.094   7.410   1.211
 2615SOL    HW218775   9.015   7.386   1.352
 2616SOL     OW18776   9.201   8.352   4.392
 2616SOL    HW118777   9.154   8.405   4.463
 2616SOL    HW218778   9.190   8.397   4.304
 2617SOL     OW18779   1.847   3.447   5.033
 2617SOL    HW118780   1.895   3.535   5.042
 2617SOL    HW218781   1.755   3.463   4.997
 2618SOL     OW18782   0.628   6.851   0.020
 2618SOL    HW118783   0.604   6.932   0.074
 2618SOL    HW218784   0.727   6.839   0.020
 2619SOL     OW18785   2.523   4.978   4.809
 2619SOL    HW118786   2.550   5.070   4.837
 2619SOL    HW218787   2.589   4.912   4.844
 2620SOL     OW18788   0.713   7.729   2.996
 2620SOL    HW118789   0.615   7.746   3.010
 2620SOL    HW218790   0.755   7.810   2.954
 2621SOL     OW18791   1.796   1.696   2.178
 2621SOL    HW118792   1.836   1.672   2.267
 2621SOL    HW218793   1.722   1.633   2.157
 2622SOL     OW18794   2.912   9.851   2.015
 2622SOL    HW118795   2.976   9.775   2.025
 2622SOL    HW218796   2.880   9.880   2.105
 2623SOL     OW18797   1.514   8.966   0.368
 2623SOL    HW118798   1.526   8.928   0.277
 2623SOL    HW218799   1.434   8.925   0.411
 2624SOL     OW18800   9.842   0.738   1.297
 2624SOL    HW118801   9.762   0.732   1.237
 2624SOL    HW218802   9.925   0.719   1.245
 2625SOL     OW18803   2.507   0.670   1.987
 2625SOL    HW118804   2.525   0.692   1.891
 2625SOL    HW218805   2.427   0.721   2.018
 2626SOL     OW18806   3.847   9.075   4.131
 2626SOL    HW118807   3.871   9.116   4.043
 2626SOL    HW218808   3.747   9.072   4.141
 2627SOL     OW18809   0.194   5.159   2.351
 2627SOL    HW118810   0.136   5.219   2.405
 2627SOL    HW218811   0.196   5.068   2.392
 2628SOL     OW18812   3.705   5.545   0.206
 2628SOL    HW118813   3.625   5.488   0.227
 2628SOL    HW218814   3.688   5.638   0.238
 2629SOL     OW18815   1.154   9.420   4.139
 2629SOL    HW118816   1.082   9.399   4.073
 2629SOL    HW218817   1.188   9.513   4.123
 2630SOL     OW18818   2.348   6.846   0.961
 2630SOL    HW118819   2.437   6.826   0.919
 2630SOL    HW218820   2.354   6.832   1.060
 2631SOL     OW18821   4.802   8.211   1.344
 2631SOL    HW118822   4.899   8.186   1.338
 2631SOL    HW218823   4.794   8.302   1.385
 2632SOL     OW18824   0.154   0.475   2.673
 2632SOL    HW118825   0.197   0.544   2.615
 2632SOL    HW218826   0.060   0.459   2.642
 2633SOL     OW18827   2.782   9.556   2.178
 2633SOL    HW118828   2.796   9.509   2.265
 2633SOL    HW218829   2.719   9.632   2.191
 2634SOL     OW18830   1.087   3.715   1.571
 2634SOL    HW118831   1.043   3.737   1.484
 2634SOL    HW218832   1.126   3.623   1.566
 2635SOL     OW18833   6.257   1.120   2.787
 2635SOL    HW118834   6.344   1.164   2.808
 2635SOL    HW218835   6.247   1.113   2.688
 2636SOL     OW18836   0.127   9.795   1.692
 2636SOL    HW118837   0.092   9.844   1.613
 2636SOL    HW218838   0.060   9.797   1.766
 2637SOL     OW18839   2.644   2.012   2.575
 2637SOL    HW118840   2.713   2.037   2.644
 2637SOL    HW218841   2.653   2.073   2.496
 2638SOL     OW18842   9.979   1.535   2.230
 2638SOL    HW118843   0.049   1.466   2.214
 2638SOL    HW218844   9.998   1.583   2.316
 2639SOL     OW18845   1.478   9.220   1.968
 2639SOL    HW118846   1.407   9.170   2.017
 2639SOL    HW218847   1.564   9.214   2.019
 2640SOL     OW18848   9.749   2.523   3.196
 2640SOL    HW118849   9.683   2.456   3.231
 2640SOL    HW218850   9.769   2.503   3.100
 2641SOL     OW18851   3.536   9.056   4.753
 2641SOL    HW118852   3.575   9.128   4.695
 2641SOL    HW218853   3.449   9.025   4.715
 2642SOL     OW18854   7.276   8.678   3.182
 2642SOL    HW118855   7.220   8.710   3.259
 2642SOL    HW218856   7.372   8.692   3.203
 2643SOL     OW18857   4.178   6.389   3.015
 2643SOL    HW118858   4.183   6.476   2.966
 2643SOL    HW218859   4.256   6.332   2.989
 2644SOL     OW18860   7.368   1.716   2.333
 2644SOL    HW118861   7.466   1.732   2.321
 2644SOL    HW218862   7.317   1.771   2.266
 2645SOL     OW18863   7.482   8.620   5.234
 2645SOL    HW118864   7.388   8.590   5.220
 2645SOL    HW218865   7.492   8.654   5.328
 2646SOL     OW18866   3.588   3.846   4.348
 2646SOL    HW118867   3.620   3.886   4.262
 2646SOL    HW218868   3.524   3.908   4.393
 2647SOL     OW18869   0.395   2.919   3.293
 2647SOL    HW118870   0.429   3.006   3.256
 2647SOL    HW218871   0.440   2.900   3.381
 2648SOL     OW18872   0.891   4.358   2.494
 2648SOL    HW118873   0.837   4.369   2.578
 2648SOL    HW218874   0.938   4.270   2.496
 2649SOL     OW18875   4.337   9.179   3.673
 2649SOL    HW118876   4.264   9.199   3.738
 2649SOL    HW218877   4.316   9.222   3.585
 2650SOL     OW18878   4.138   3.046   1.296
 2650SOL    HW118879   4.218   2.989   1.276
 2650SOL    HW218880   4.161   3.142   1.285
 2651SOL     OW18881   1.167   6.534   0.647
 2651SOL    HW118882   1.091   6.571   0.700
 2651SOL    HW218883   1.241   6.507   0.708
 2652SOL     OW18884   3.508   8.040   1.801
 2652SOL    HW118885   3.500   8.053   1.900
 2652SOL    HW218886   3.476   8.122   1.754
 2653SOL     OW18887   4.737   2.214   4.749
 2653SOL    HW118888   4.816   2.267   4.780
 2653SOL    HW218889   4.727   2.133   4.807
 2654SOL     OW18890   8.986   9.127   2.397
 2654SOL    HW118891   9.054   9.198   2.379
 2654SOL    HW218892   9.016   9.041   2.356
 2655SOL     OW18893   4.467   6.532   1.192
 2655SOL    HW118894   4.521   6.494   1.117
 2655SOL    HW218895   4.499   6.494   1.279
 2656SOL     OW18896   5.293   1.718   3.856
 2656SOL    HW118897   5.374   1.734   3.799
 2656SOL    HW218898   5.262   1.624   3.844
 2657SOL     OW18899   4.081   6.970   2.650
 2657SOL    HW118900   4.153   6.941   2.587
 2657SOL    HW218901   3.999   6.994   2.599
 2658SOL     OW18902   3.193   6.675   2.989
 2658SOL    HW118903   3.218   6.580   2.972
 2658SOL    HW218904   3.203   6.728   2.904
 2659SOL     OW18905   8.820   2.775   0.711
 2659SOL    HW118906   8.720   2.769   0.709
 2659SOL    HW218907   8.852   2.761   0.805
 2660SOL     OW18908   2.623   3.170   5.084
 2660SOL    HW118909   2.649   3.250   5.138
 2660SOL    HW218910   2.528   3.181   5.053
 2661SOL     OW18911   9.429   6.405   0.461
 2661SOL    HW118912   9.417   6.502   0.440
 2661SOL    HW218913   9.465   6.395   0.554
 2662SOL     OW18914   7.882   1.755   2.308
 2662SOL    HW118915   7.802   1.813   2.320
 2662SOL    HW218916   7.956   1.808   2.267
 2663SOL     OW18917   1.209   5.283   4.508
 2663SOL    HW118918   1.215   5.184   4.509
 2663SOL    HW218919   1.129   5.311   4.455
 2664SOL     OW18920   3.199   3.259   1.266
 2664SOL    HW118921   3.177   3.240   1.170
 2664SOL    HW218922   3.253   3.183   1.303
 2665SOL     OW18923   9.701   5.756   2.908
 2665SOL    HW118924   9.773   5.687   2.896
 2665SOL    HW218925   9.718   5.807   2.993
 2666SOL     OW18926   6.817   7.222   4.643
 2666SOL    HW118927   6.874   7.274   4.707
 2666SOL    HW218928   6.789   7.136   4.686
 2667SOL     OW18929   4.855   7.656   4.853
 2667SOL    HW118930   4.923   7.722   4.885
 2667SOL    HW218931   4.883   7.618   4.765
 2668SOL     OW18932   7.564   2.132   0.772
 2668SOL    HW118933   7.597   2.224   0.790
 2668SOL    HW218934   7.590   2.104   0.680
 2669SOL     OW18935   0.566   5.912   2.612
 2669SOL    HW118936   0.620   5.966   2.677
 2669SOL    HW218937   0.507   5.849   2.662
 2670SOL     OW18938   7.566   8.277   3.099
 2670SOL    HW118939   7.513   8.198   3.067
 2670SOL    HW218940   7.633   8.302   3.030
 2671SOL     OW18941   9.378   7.251   2.999
 2671SOL    HW118942   9.355   7.154   2.991
 2671SOL    HW218943   9.303   7.307   2.965
 2672SOL     OW18944   1.200   9.221   4.578
 2672SOL    HW118945   1.285   9.273   4.564
 2672SOL    HW218946   1.123   9.275   4.546
 2673SOL     OW18947   8.937   0.395   0.637
 2673SOL    HW118948   8.894   0.330   0.700
 2673SOL    HW218949   8.867   0.433   0.576
 2674SOL     OW18950   8.847   6.973   0.743
 2674SOL    HW118951   8.806   6.938   0.828
 2674SOL    HW218952   8.915   6.909   0.709
 2675SOL     OW18953   6.468   7.838   2.927
 2675SOL    HW118954   6.468   7.738   2.930
 2675SOL    HW218955   6.375   7.870   2.910
 2676SOL     OW18956   3.127   8.488   0.271
 2676SOL    HW118957   3.178   8.430   0.209
 2676SOL    HW218958   3.032   8.455   0.277
 2677SOL     OW18959   9.563   8.748   4.837
 2677SOL    HW118960   9.600   8.657   4.816
 2677SOL    HW218961   9.636   8.816   4.829
 2678SOL     OW18962   0.618   4.938   4.917
 2678SOL    HW118963   0.670   5.017   4.950
 2678SOL    HW218964   0.521   4.953   4.935
 2679SOL     OW18965   8.473   0.677   1.721
 2679SOL    HW118966   8.527   0.762   1.724
 2679SOL    HW218967   8.514   0.610   1.783
 2680SOL     OW18968   7.152   2.010   4.513
 2680SOL    HW118969   7.165   2.010   4.612
 2680SOL    HW218970   7.063   1.969   4.491
 2681SOL     OW18971   9.386   2.741   3.331
 2681SOL    HW118972   9.382   2.668   3.263
 2681SOL    HW218973   9.301   2.794   3.328
 2682SOL     OW18974   3.660   9.192   1.457
 2682SOL    HW118975   3.640   9.286   1.483
 2682SOL    HW218976   3.586   9.157   1.400
 2683SOL     OW18977   3.838   9.061   1.621
 2683SOL    HW118978   3.857   8.972   1.580
 2683SOL    HW218979   3.772   9.110   1.563
 2684SOL     OW18980   9.154   3.632   3.333
 2684SOL    HW118981   9.233   3.681   3.295
 2684SOL    HW218982   9.072   3.688   3.326
 2685SOL     OW18983   4.591   2.518   0.466
 2685SOL    HW118984   4.549   2.427   0.462
 2685SOL    HW218985   4.567   2.561   0.553
 2686SOL     OW18986   1.046   5.647   4.464
 2686SOL    HW118987   1.123   5.669   4.404
 2686SOL    HW218988   1.077   5.645   4.559
 2687SOL     OW18989   1.307   4.865   2.576
 2687SOL    HW118990   1.292   4.786   2.517
 2687SOL    HW218991   1.351   4.835   2.661
 2688SOL     OW18992   0.916   5.521   4.852
 2688SOL    HW118993   0.970   5.447   4.811
 2688SOL    HW218994   0.978   5.588   4.893
 2689SOL     OW18995   3.552   8.422   4.744
 2689SOL    HW118996   3.597   8.500   4.788
 2689SOL    HW218997   3.516   8.361   4.815
 2690SOL     OW18998   8.043   9.822   1.198
 2690SOL    HW118999   8.105   9.828   1.276
 2690SOL    HW219000   8.065   9.895   1.133
 2691SOL     OW19001   0.499   6.217   1.953
 2691SOL    HW119002   0.491   6.120   1.932
 2691SOL    HW219003   0.583   6.233   2.004
 2692SOL     OW19004   4.860   4.880   2.281
 2692SOL    HW119005   4.804   4.845   2.206
 2692SOL    HW219006   4.920   4.952   2.247
 2693SOL     OW19007   4.040   6.802   3.959
 2693SOL    HW119008   4.098   6.834   3.884
 2693SOL    HW219009   4.086   6.728   4.008
 2694SOL     OW19010   4.233   4.188   3.797
 2694SOL    HW119011   4.176   4.225   3.870
 2694SOL    HW219012   4.301   4.126   3.836
 2695SOL     OW19013   1.916   8.299   1.188
 2695SOL    HW119014   1.971   8.268   1.266
 2695SOL    HW219015   1.970   8.291   1.104
 2696SOL     OW19016   4.580   9.951   4.955
 2696SOL    HW119017   4.549   0.036   4.997
 2696SOL    HW219018   4.501   9.902   4.916
 2697SOL     OW19019   8.683   8.730   1.638
 2697SOL    HW119020   8.721   8.780   1.716
 2697SOL    HW219021   8.699   8.782   1.555
 2698SOL     OW19022   7.670   1.412   2.470
 2698SOL    HW119023   7.628   1.416   2.380
 2698SOL    HW219024   7.728   1.330   2.477
 2699SOL     OW19025   1.027   7.083   1.220
 2699SOL    HW119026   1.078   7.024   1.158
 2699SOL    HW219027   1.025   7.176   1.183
 2700SOL     OW19028   9.297   2.955   1.212
 2700SOL    HW119029   9.345   3.042   1.201
 2700SOL    HW219030   9.270   2.920   1.122
 2701SOL     OW19031   8.629   5.575   1.055
 2701SOL    HW119032   8.575   5.551   0.975
 2701SOL    HW219033   8.597   5.522   1.134
 2702SOL     OW19034   3.700   4.875   0.463
 2702SOL    HW119035   3.799   4.888   0.460
 2702SOL    HW219036   3.677   4.785   0.426
 2703SOL     OW19037   3.175   5.752   4.129
 2703SOL    HW119038   3.085   5.736   4.090
 2703SOL    HW219039   3.186   5.849   4.151
 2704SOL     OW19040   2.320   9.015   4.048
 2704SOL    HW119041   2.351   9.100   4.091
 2704SOL    HW219042   2.247   8.975   4.102
 2705SOL     OW19043   2.925   8.467   5.267
 2705SOL    HW119044   2.879   8.441   5.183
 2705SOL    HW219045   2.965   8.558   5.257
 2706SOL     OW19046   7.298   2.587   4.846
 2706SOL    HW119047   7.235   2.551   4.778
 2706SOL    HW219048   7.246   2.630   4.920
 2707SOL     OW19049   8.510   4.450   0.349
 2707SOL    HW119050   8.592   4.499   0.317
 2707SOL    HW219051   8.525   4.417   0.442
 2708SOL     OW19052   3.488   6.431   0.967
 2708SOL    HW119053   3.553   6.365   1.005
 2708SOL    HW219054   3.498   6.435   0.868
 2709SOL     OW19055   2.037   8.842   1.234
 2709SOL    HW119056   2.076   8.813   1.147
 2709SOL    HW219057   2.098   8.909   1.277
 2710SOL     OW19058   9.521   9.638   2.074
 2710SOL    HW119059   9.518   9.560   2.137
 2710SOL    HW219060   9.432   9.648   2.030
 2711SOL     OW19061   3.486   7.100   0.386
 2711SOL    HW119062   3.535   7.024   0.343
 2711SOL    HW219063   3.395   7.069   0.414
 2712SOL     OW19064   0.883   0.098   3.132
 2712SOL    HW119065   0.790   0.087   3.097
 2712SOL    HW219066   0.949   0.070   3.062
 2713SOL     OW19067   8.517   2.310   4.918
 2713SOL    HW119068   8.425   2.349   4.922
 2713SOL    HW219069   8.579   2.376   4.874
 2714SOL     OW19070   0.782   2.962   1.629
 2714SOL    HW119071   0.788   2.982   1.531
 2714SOL    HW219072   0.688   2.975   1.660
 2715SOL     OW19073   1.040   4.549   3.002
 2715SOL    HW119074   1.112   4.596   2.951
 2715SOL    HW219075   0.951   4.571   2.962
 2716SOL     OW19076   9.384   7.928   1.595
 2716SOL    HW119077   9.313   7.900   1.530
 2716SOL    HW219078   9.349   7.916   1.688
 2717SOL     OW19079   5.423   5.192   0.396
 2717SOL    HW119080   5.492   5.260   0.420
 2717SOL    HW219081   5.337   5.214   0.443
 2718SOL     OW19082   9.933   2.182   3.881
 2718SOL    HW119083   9.866   2.255   3.873
 2718SOL    HW219084   9.990   2.197   3.962
 2719SOL     OW19085   5.806   1.481   4.585
 2719SOL    HW119086   5.751   1.530   4.518
 2719SOL    HW219087   5.801   1.528   4.673
 2720SOL     OW19088   1.009   7.477   3.773
 2720SOL    HW119089   0.931   7.519   3.820
 2720SOL    HW219090   0.977   7.397   3.722
 2721SOL     OW19091   8.447   6.345   4.649
 2721SOL    HW119092   8.382   6.359   4.723
 2721SOL    HW219093   8.423   6.404   4.572
 2722SOL     OW19094   0.546   4.242   3.238
 2722SOL    HW119095   0.582   4.314   3.298
 2722SOL    HW219096   0.587   4.154   3.263
 2723SOL     OW19097   0.575   1.480   2.328
 2723SOL    HW119098   0.636   1.400   2.328
 2723SOL    HW219099   0.627   1.562   2.349
 2724SOL     OW19100   7.916   0.569   3.898
 2724SOL    HW119101   7.975   0.580   3.979
 2724SOL    HW219102   7.837   0.630   3.906
 2725SOL     OW19103   3.232   5.102   4.571
 2725SOL    HW119104   3.189   5.049   4.499
 2725SOL    HW219105   3.276   5.041   4.637
 2726SOL     OW19106   8.411   8.252   4.522
 2726SOL    HW119107   8.472   8.263   4.444
 2726SOL    HW219108   8.336   8.190   4.497
 2727SOL     OW19109   1.744   7.914   4.565
 2727SOL    HW119110   1.701   8.005   4.566
 2727SOL    HW219111   1.676   7.845   4.539
 2728SOL     OW19112   1.201   1.747   0.757
 2728SOL    HW119113   1.159   1.719   0.843
 2728SOL    HW219114   1.293   1.783   0.775
 2729SOL     OW19115   0.839   1.257   1.834
 2729SOL    HW119116   0.827   1.347   1.876
 2729SOL    HW219117   0.909   1.205   1.883
 2730SOL     OW19118   2.279   8.536   4.173
 2730SOL    HW119119   2.309   8.622   4.133
 2730SOL    HW219120   2.185   8.544   4.204
 2731SOL     OW19121   5.492   6.481   2.430
 2731SOL    HW119122   5.496   6.393   2.479
 2731SOL    HW219123   5.506   6.465   2.332
 2732SOL     OW19124   8.714   1.835   1.930
 2732SOL    HW119125   8.744   1.761   1.870
 2732SOL    HW219126   8.743   1.923   1.892
 2733SOL     OW19127   3.370   6.801   5.209
 2733SOL    HW119128   3.460   6.782   5.247
 2733SOL    HW219129   3.305   6.732   5.241
 2734SOL     OW19130   2.891   3.960   4.765
 2734SOL    HW119131   2.836   4.013   4.829
 2734SOL    HW219132   2.979   4.006   4.751
 2735SOL     OW19133   1.751   6.061   2.520
 2735SOL    HW119134   1.688   6.118   2.573
 2735SOL    HW219135   1.710   5.971   2.506
 2736SOL     OW19136   1.254   6.355   0.452
 2736SOL    HW119137   1.330   6.301   0.490
 2736SOL    HW219138   1.216   6.413   0.523
 2737SOL     OW19139   5.680   9.937   2.932
 2737SOL    HW119140   5.716   9.862   2.987
 2737SOL    HW219141   5.674   0.020   2.989
 2738SOL     OW19142   8.116   9.496   4.291
 2738SOL    HW119143   8.084   9.402   4.276
 2738SOL    HW219144   8.117   9.514   4.390
 2739SOL     OW19145   4.037   2.375   3.730
 2739SOL    HW119146   3.947   2.416   3.719
 2739SOL    HW219147   4.026   2.276   3.742
 2740SOL     OW19148   1.127   6.126   0.742
 2740SOL    HW119149   1.065   6.204   0.760
 2740SOL    HW219150   1.090   6.072   0.667
 2741SOL     OW19151   1.367   1.321   0.766
 2741SOL    HW119152   1.400   1.227   0.764
 2741SOL    HW219153   1.385   1.366   0.678
 2742SOL     OW19154   3.426   5.150   1.766
 2742SOL    HW119155   3.387   5.086   1.700
 2742SOL    HW219156   3.490   5.102   1.826
 2743SOL     OW19157   0.935   8.107   2.544
 2743SOL    HW119158   0.994   8.182   2.574
 2743SOL    HW219159   0.853   8.103   2.600
 2744SOL     OW19160   9.249   8.546   3.483
 2744SOL    HW119161   9.156   8.580   3.481
 2744SOL    HW219162   9.274   8.522   3.577
 2745SOL     OW19163   8.609   7.146   3.762
 2745SOL    HW119164   8.617   7.047   3.749
 2745SOL    HW219165   8.547   7.165   3.839
 2746SOL     OW19166   3.285   8.591   4.922
 2746SOL    HW119167   3.257   8.498   4.898
 2746SOL    HW219168   3.350   8.587   4.998
 2747SOL     OW19169   4.687   7.158   2.161
 2747SOL    HW119170   4.779   7.127   2.136
 2747SOL    HW219171   4.691   7.255   2.187
 2748SOL     OW19172   6.918   9.619   5.206
 2748SOL    HW119173   6.994   9.554   5.201
 2748SOL    HW219174   6.858   9.594   5.282
 2749SOL     OW19175   3.650   9.471   1.196
 2749SOL    HW119176   3.671   9.488   1.099
 2749SOL    HW219177   3.679   9.549   1.251
 2750SOL     OW19178   1.652   4.422   2.455
 2750SOL    HW119179   1.663   4.509   2.503
 2750SOL    HW219180   1.568   4.377   2.486
 2751SOL     OW19181   0.222   6.545   1.680
 2751SOL    HW119182   0.236   6.619   1.747
 2751SOL    HW219183   0.232   6.457   1.726
 2752SOL     OW19184   8.945   5.614   4.322
 2752SOL    HW119185   8.912   5.687   4.383
 2752SOL    HW219186   9.017   5.563   4.368
 2753SOL     OW19187   4.320   0.290   1.178
 2753SOL    HW119188   4.236   0.269   1.229
 2753SOL    HW219189   4.391   0.321   1.242
 2754SOL     OW19190   2.210   9.200   2.142
 2754SOL    HW119191   2.260   9.132   2.089
 2754SOL    HW219192   2.209   9.173   2.239
 2755SOL     OW19193   7.602   1.147   0.272
 2755SOL    HW119194   7.630   1.051   0.266
 2755SOL    HW219195   7.539   1.168   0.198
 2756SOL     OW19196   4.664   5.897   3.111
 2756SOL    HW119197   4.601   5.955   3.163
 2756SOL    HW219198   4.676   5.810   3.159
 2757SOL     OW19199   0.919   7.052   3.122
 2757SOL    HW119200   0.960   7.063   3.212
 2757SOL    HW219201   0.853   7.125   3.106
 2758SOL     OW19202   3.275   0.707   4.742
 2758SOL    HW119203   3.199   0.673   4.687
 2758SOL    HW219204   3.360   0.668   4.710
 2759SOL     OW19205   8.913   4.225   3.193
 2759SOL    HW119206   8.840   4.290   3.176
 2759SOL    HW219207   8.937   4.178   3.108
 2760SOL     OW19208   4.690   1.448   4.645
 2760SOL    HW119209   4.720   1.478   4.555
 2760SOL    HW219210   4.591   1.454   4.652
 2761SOL     OW19211   0.171   0.353   3.160
 2761SOL    HW119212   0.158   0.262   3.200
 2761SOL    HW219213   0.172   0.421   3.233
 2762SOL     OW19214   0.340   5.834   3.621
 2762SOL    HW119215   0.359   5.818   3.718
 2762SOL    HW219216   0.242   5.823   3.605
 2763SOL     OW19217   9.447   0.041   2.121
 2763SOL    HW119218   9.504   0.033   2.202
 2763SOL    HW219219   9.505   0.050   2.040
 2764SOL     OW19220   8.624   8.437   0.597
 2764SOL    HW119221   8.631   8.532   0.628
 2764SOL    HW219222   8.695   8.419   0.530
 2765SOL     OW19223   4.490   9.929   1.819
 2765SOL    HW119224   4.590   9.933   1.821
 2765SOL    HW219225   4.458   9.944   1.725
 2766SOL     OW19226   4.800   3.188   4.533
 2766SOL    HW119227   4.702   3.210   4.540
 2766SOL    HW219228   4.811   3.089   4.530
 2767SOL     OW19229   0.977   5.506   1.015
 2767SOL    HW119230   0.918   5.525   1.094
 2767SOL    HW219231   0.976   5.407   0.997
 2768SOL     OW19232   4.816   2.160   3.502
 2768SOL    HW119233   4.728   2.204   3.518
 2768SOL    HW219234   4.890   2.225   3.518
 2769SOL     OW19235   8.401   1.608   1.209
 2769SOL    HW119236   8.436   1.543   1.276
 2769SOL    HW219237   8.398   1.564   1.119
 2770SOL     OW19238   9.459   0.407   2.039
 2770SOL    HW119239   9.390   0.474   2.067
 2770SOL    HW219240   9.423   0.350   1.965
 2771SOL     OW19241   3.703   9.788   4.345
 2771SOL    HW119242   3.709   9.790   4.445
 2771SOL    HW219243   3.703   9.881   4.309
 2772SOL     OW19244   8.405   7.570   2.146
 2772SOL    HW119245   8.440   7.517   2.223
 2772SOL    HW219246   8.338   7.515   2.096
 2773SOL     OW19247   8.630   4.110   1.121
 2773SOL    HW119248   8.563   4.170   1.077
 2773SOL    HW219249   8.582   4.036   1.168
 2774SOL     OW19250   8.299   3.719   4.604
 2774SOL    HW119251   8.383   3.704   4.657
 2774SOL    HW219252   8.323   3.740   4.509
 2775SOL     OW19253   7.548   3.336   1.172
 2775SOL    HW119254   7.624   3.395   1.200
 2775SOL    HW219255   7.473   3.392   1.137
 2776SOL     OW19256   5.519   8.260   3.353
 2776SOL    HW119257   5.423   8.238   3.372
 2776SOL    HW219258   5.524   8.349   3.308
 2777SOL     OW19259   9.740   5.191   0.986
 2777SOL    HW119260   9.814   5.213   1.049
 2777SOL    HW219261   9.713   5.274   0.935
 2778SOL     OW19262   1.895   6.565   1.019
 2778SOL    HW119263   1.954   6.552   0.939
 2778SOL    HW219264   1.823   6.497   1.020
 2779SOL     OW19265   3.972   5.346   0.389
 2779SOL    HW119266   3.979   5.383   0.297
 2779SOL    HW219267   3.876   5.326   0.410
 2780SOL     OW19268   6.868   8.006   2.999
 2780SOL    HW119269   6.914   7.926   3.039
 2780SOL    HW219270   6.928   8.086   3.007
 2781SOL     OW19271   7.079   0.247   3.413
 2781SOL    HW119272   7.155   0.222   3.353
 2781SOL    HW219273   7.077   0.184   3.491
 2782SOL     OW19274   9.200   6.100   2.647
 2782SOL    HW119275   9.250   6.179   2.683
 2782SOL    HW219276   9.233   6.078   2.555
 2783SOL     OW19277   5.463   9.804   4.364
 2783SOL    HW119278   5.384   9.865   4.355
 2783SOL    HW219279   5.444   9.719   4.315
 2784SOL     OW19280   5.509   8.524   4.807
 2784SOL    HW119281   5.567   8.451   4.770
 2784SOL    HW219282   5.416   8.514   4.771
 2785SOL     OW19283   0.543   9.271   3.697
 2785SOL    HW119284   0.558   9.247   3.601
 2785SOL    HW219285   0.576   9.196   3.755
 2786SOL     OW19286   4.711   9.986   4.720
 2786SOL    HW119287   4.666   9.974   4.808
 2786SOL    HW219288   4.733   9.897   4.681
 2787SOL     OW19289   1.189   0.736   2.265
 2787SOL    HW119290   1.255   0.774   2.200
 2787SOL    HW219291   1.236   0.670   2.324
 2788SOL     OW19292   3.622   6.925   0.770
 2788SOL    HW119293   3.685   7.001   0.758
 2788SOL    HW219294   3.673   6.843   0.795
 2789SOL     OW19295   9.541   1.755   5.115
 2789SOL    HW119296   9.540   1.854   5.129
 2789SOL    HW219297   9.455   1.716   5.147
 2790SOL     OW19298   1.524   9.682   2.346
 2790SOL    HW119299   1.457   9.734   2.292
 2790SOL    HW219300   1.489   9.589   2.360
 2791SOL     OW19301   0.323   9.707   2.998
 2791SOL    HW119302   0.371   9.652   3.066
 2791SOL    HW219303   0.226   9.686   3.000
 2792SOL     OW19304   6.618   9.943   4.591
 2792SOL    HW119305   6.531   9.905   4.623
 2792SOL    HW219306   6.667   9.983   4.668
 2793SOL     OW19307   0.282   0.906   4.124
 2793SOL    HW119308   0.256   0.943   4.034
 2793SOL    HW219309   0.345   0.830   4.111
 2794SOL     OW19310   4.333   1.317   3.252
 2794SOL    HW119311   4.302   1.230   3.289
 2794SOL    HW219312   4.259   1.360   3.201
 2795SOL     OW19313   2.662   3.315   1.329
 2795SOL    HW119314   2.633   3.389   1.268
 2795SOL    HW219315   2.761   3.320   1.342
 2796SOL     OW19316   7.905   0.072   2.127
 2796SOL    HW119317   7.872   9.982   2.153
 2796SOL    HW219318   7.941   0.120   2.208
 2797SOL     OW19319   2.272   7.206   4.057
 2797SOL    HW119320   2.266   7.305   4.042
 2797SOL    HW219321   2.256   7.158   3.971
 2798SOL     OW19322   4.632   6.791   2.258
 2798SOL    HW119323   4.650   6.853   2.335
 2798SOL    HW219324   4.595   6.843   2.181
 2799SOL     OW19325   9.852   7.369   0.459
 2799SOL    HW119326   9.931   7.413   0.500
 2799SOL    HW219327   9.793   7.333   0.532
 2800SOL     OW19328   3.714   9.577   3.510
 2800SOL    HW119329   3.668   9.529   3.435
 2800SOL    HW219330   3.809   9.546   3.516
 2801SOL     OW19331   6.731   1.838   3.178
 2801SOL    HW119332   6.686   1.894   3.249
 2801SOL    HW219333   6.800   1.893   3.132
 2802SOL     OW19334   9.401   6.026   4.695
 2802SOL    HW119335   9.430   5.968   4.619
 2802SOL    HW219336   9.448   6.114   4.689
 2803SOL     OW19337   8.537   5.023   4.624
 2803SOL    HW119338   8.588   5.028   4.538
 2803SOL    HW219339   8.467   5.094   4.626
 2804SOL     OW19340   1.818   3.659   0.904
 2804SOL    HW119341   1.790   3.638   0.810
 2804SOL    HW219342   1.767   3.737   0.937
 2805SOL     OW19343   0.090   5.155   3.546
 2805SOL    HW119344   0.022   5.113   3.485
 2805SOL    HW219345   0.119   5.088   3.614
 2806SOL     OW19346   3.790   7.707   4.787
 2806SOL    HW119347   3.817   7.777   4.853
 2806SOL    HW219348   3.834   7.725   4.699
 2807SOL     OW19349   1.304   5.408   5.089
 2807SOL    HW119350   1.254   5.472   5.147
 2807SOL    HW219351   1.276   5.314   5.112
 2808SOL     OW19352   8.193   0.229   3.830
 2808SOL    HW119353   8.102   0.246   3.867
 2808SOL    HW219354   8.254   0.304   3.856
 2809SOL     OW19355   9.039   1.650   1.938
 2809SOL    HW119356   9.087   1.738   1.931
 2809SOL    HW219357   9.071   1.590   1.865
 2810SOL     OW19358   2.095   8.129   0.020
 2810SOL    HW119359   2.187   8.120   6.729
 2810SOL    HW219360   2.097   8.199   0.092
 2811SOL     OW19361   5.104   9.148   4.754
 2811SOL    HW119362   5.186   9.115   4.706
 2811SOL    HW219363   5.090   9.093   4.837
 2812SOL     OW19364   4.513   1.707   4.738
 2812SOL    HW119365   4.566   1.734   4.658
 2812SOL    HW219366   4.477   1.615   4.725
 2813SOL     OW19367   2.886   9.047   4.108
 2813SOL    HW119368   2.836   9.133   4.096
 2813SOL    HW219369   2.882   9.019   4.203
 2814SOL     OW19370   1.269   0.957   4.478
 2814SOL    HW119371   1.316   0.945   4.565
 2814SOL    HW219372   1.217   0.874   4.456
 2815SOL     OW19373   4.310   2.802   3.184
 2815SOL    HW119374   4.392   2.847   3.149
 2815SOL    HW219375   4.318   2.703   3.172
 2816SOL     OW19376   3.652   5.791   0.314
 2816SOL    HW119377   3.569   5.794   0.368
 2816SOL    HW219378   3.671   5.882   0.277
 2817SOL     OW19379   9.508   1.605   0.436
 2817SOL    HW119380   9.503   1.568   0.529
 2817SOL    HW219381   9.495   1.704   0.438
 2818SOL     OW19382   4.840   8.782   4.274
 2818SOL    HW119383   4.766   8.828   4.224
 2818SOL    HW219384   4.884   8.847   4.336
 2819SOL     OW19385   9.022   6.500   1.194
 2819SOL    HW119386   8.950   6.452   1.144
 2819SOL    HW219387   9.042   6.451   1.279
 2820SOL     OW19388   1.938   2.862   0.764
 2820SOL    HW119389   1.839   2.863   0.745
 2820SOL    HW219390   1.961   2.778   0.813
 2821SOL     OW19391   8.446   1.366   4.140
 2821SOL    HW119392   8.353   1.343   4.110
 2821SOL    HW219393   8.464   1.323   4.229
 2822SOL     OW19394   1.477   6.241   0.560
 2822SOL    HW119395   1.455   6.219   0.655
 2822SOL    HW219396   1.545   6.315   0.558
 2823SOL     OW19397   2.627   5.209   0.683
 2823SOL    HW119398   2.674   5.274   0.623
 2823SOL    HW219399   2.627   5.245   0.777
 2824SOL     OW19400   9.138   8.124   1.364
 2824SOL    HW119401   9.227   8.161   1.337
 2824SOL    HW219402   9.120   8.148   1.460
 2825SOL     OW19403   8.408   6.308   5.070
 2825SOL    HW119404   8.500   6.340   5.091
 2825SOL    HW219405   8.408   6.208   5.063
 2826SOL     OW19406   7.338   8.000   2.686
 2826SOL    HW119407   7.284   8.061   2.744
 2826SOL    HW219408   7.395   7.942   2.744
 2827SOL     OW19409   5.469   0.457   1.691
 2827SOL    HW119410   5.539   0.519   1.654
 2827SOL    HW219411   5.387   0.461   1.633
 2828SOL     OW19412   2.646   9.557   2.805
 2828SOL    HW119413   2.693   9.480   2.762
 2828SOL    HW219414   2.651   9.637   2.746
 2829SOL     OW19415   0.003   8.873   4.054
 2829SOL    HW119416   9.906   8.883   4.031
 2829SOL    HW219417   0.058   8.933   3.996
 2830SOL     OW19418   4.000   1.919   4.173
 2830SOL    HW119419   4.044   1.998   4.214
 2830SOL    HW219420   3.902   1.921   4.194
 2831SOL     OW19421   9.439   3.976   1.262
 2831SOL    HW119422   9.440   4.026   1.349
 2831SOL    HW219423   9.487   4.029   1.192
 2832SOL     OW19424   2.028   1.535   1.266
 2832SOL    HW119425   2.103   1.533   1.332
 2832SOL    HW219426   2.054   1.593   1.188
 2833SOL     OW19427   7.459   4.317   0.213
 2833SOL    HW119428   7.381   4.289   0.269
 2833SOL    HW219429   7.451   4.276   0.122
 2834SOL     OW19430   3.760   1.381   3.173
 2834SOL    HW119431   3.804   1.308   3.120
 2834SOL    HW219432   3.772   1.468   3.125
 2835SOL     OW19433   1.682   8.630   2.722
 2835SOL    HW119434   1.654   8.634   2.626
 2835SOL    HW219435   1.781   8.641   2.729
 2836SOL     OW19436   9.340   2.875   0.550
 2836SOL    HW119437   9.418   2.881   0.487
 2836SOL    HW219438   9.322   2.966   0.589
 2837SOL     OW19439   8.803   3.660   5.001
 2837SOL    HW119440   8.794   3.698   4.909
 2837SOL    HW219441   8.739   3.706   5.062
 2838SOL     OW19442   8.309   3.871   0.703
 2838SOL    HW119443   8.308   3.784   0.752
 2838SOL    HW219444   8.372   3.934   0.748
 2839SOL     OW19445   0.481   4.407   4.564
 2839SOL    HW119446   0.490   4.437   4.659
 2839SOL    HW219447   0.474   4.487   4.505
 2840SOL     OW19448   8.465   2.869   0.394
 2840SOL    HW119449   8.428   2.792   0.342
 2840SOL    HW219450   8.563   2.878   0.375
 2841SOL     OW19451   9.671   3.111   1.121
 2841SOL    HW119452   9.676   3.094   1.023
 2841SOL    HW219453   9.580   3.143   1.145
 2842SOL     OW19454   4.417   3.192   0.293
 2842SOL    HW119455   4.389   3.288   0.301
 2842SOL    HW219456   4.507   3.187   0.250
 2843SOL     OW19457   0.369   5.098   0.104
 2843SOL    HW119458   0.425   5.094   0.186
 2843SOL    HW219459   0.427   5.084   0.023
 2844SOL     OW19460   8.305   5.055   4.229
 2844SOL    HW119461   8.284   4.977   4.170
 2844SOL    HW219462   8.384   5.104   4.191
 2845SOL     OW19463   3.941   9.220   4.342
 2845SOL    HW119464   4.037   9.242   4.324
 2845SOL    HW219465   3.907   9.160   4.269
 2846SOL     OW19466   9.654   9.063   1.521
 2846SOL    HW119467   9.616   9.018   1.602
 2846SOL    HW219468   9.591   9.133   1.489
 2847SOL     OW19469   2.628   8.474   4.672
 2847SOL    HW119470   2.718   8.498   4.634
 2847SOL    HW219471   2.577   8.557   4.693
 2848SOL     OW19472   3.495   0.409   5.067
 2848SOL    HW119473   3.586   0.367   5.061
 2848SOL    HW219474   3.436   0.353   5.125
 2849SOL     OW19475   4.142   2.503   3.953
 2849SOL    HW119476   4.206   2.572   3.918
 2849SOL    HW219477   4.110   2.445   3.877
 2850SOL     OW19478   4.065   7.465   3.574
 2850SOL    HW119479   4.010   7.481   3.656
 2850SOL    HW219480   4.005   7.447   3.496
 2851SOL     OW19481   7.418   1.763   1.602
 2851SOL    HW119482   7.467   1.693   1.653
 2851SOL    HW219483   7.396   1.729   1.510
 2852SOL     OW19484   4.258   9.462   3.124
 2852SOL    HW119485   4.315   9.428   3.049
 2852SOL    HW219486   4.162   9.439   3.105
 2853SOL     OW19487   9.477   3.685   1.867
 2853SOL    HW119488   9.481   3.601   1.812
 2853SOL    HW219489   9.407   3.746   1.831
 2854SOL     OW19490   3.170   4.644   3.406
 2854SOL    HW119491   3.233   4.626   3.482
 2854SOL    HW219492   3.079   4.610   3.430
 2855SOL     OW19493   3.760   6.689   0.816
 2855SOL    HW119494   3.845   6.674   0.867
 2855SOL    HW219495   3.765   6.643   0.728
 2856SOL     OW19496   8.019   8.288   4.800
 2856SOL    HW119497   7.961   8.370   4.808
 2856SOL    HW219498   8.113   8.312   4.827
 2857SOL     OW19499   1.478   0.333   3.316
 2857SOL    HW119500   1.379   0.346   3.323
 2857SOL    HW219501   1.499   0.273   3.238
 2858SOL     OW19502   1.654   3.718   2.714
 2858SOL    HW119503   1.620   3.810   2.695
 2858SOL    HW219504   1.753   3.717   2.703
 2859SOL     OW19505   9.119   1.282   0.179
 2859SOL    HW119506   9.099   1.350   0.249
 2859SOL    HW219507   9.207   1.302   0.136
 2860SOL     OW19508   8.713   5.021   4.418
 2860SOL    HW119509   8.806   5.017   4.454
 2860SOL    HW219510   8.706   4.963   4.337
 2861SOL     OW19511   7.013   4.705   1.420
 2861SOL    HW119512   6.964   4.618   1.419
 2861SOL    HW219513   7.111   4.689   1.431
 2862SOL     OW19514   7.314   7.447   4.559
 2862SOL    HW119515   7.275   7.402   4.478
 2862SOL    HW219516   7.412   7.430   4.563
 2863SOL     OW19517   2.482   4.009   4.880
 2863SOL    HW119518   2.446   4.039   4.792
 2863SOL    HW219519   2.537   3.926   4.868
 2864SOL     OW19520   8.389   5.178   2.292
 2864SOL    HW119521   8.484   5.207   2.280
 2864SOL    HW219522   8.387   5.080   2.314
 2865SOL     OW19523   4.792   4.766   1.806
 2865SOL    HW119524   4.722   4.771   1.734
 2865SOL    HW219525   4.853   4.690   1.787
 2866SOL     OW19526   9.477   9.181   4.609
 2866SOL    HW119527   9.502   9.144   4.519
 2866SOL    HW219528   9.555   9.232   4.646
 2867SOL     OW19529   3.735   7.792   3.942
 2867SOL    HW119530   3.811   7.848   3.973
 2867SOL    HW219531   3.753   7.760   3.849
 2868SOL     OW19532   2.604   9.827   0.372
 2868SOL    HW119533   2.517   9.847   0.417
 2868SOL    HW219534   2.595   9.741   0.320
 2869SOL     OW19535   9.503   9.441   2.272
 2869SOL    HW119536   9.425   9.378   2.269
 2869SOL    HW219537   9.516   9.474   2.365
 2870SOL     OW19538   6.494   7.344   4.829
 2870SOL    HW119539   6.584   7.385   4.838
 2870SOL    HW219540   6.428   7.412   4.798
 2871SOL     OW19541   1.389   3.284   5.208
 2871SOL    HW119542   1.342   3.242   5.131
 2871SOL    HW219543   1.463   3.224   5.239
 2872SOL     OW19544   3.738   4.342   2.671
 2872SOL    HW119545   3.675   4.287   2.726
 2872SOL    HW219546   3.743   4.435   2.709
 2873SOL     OW19547   9.365   8.915   2.326
 2873SOL    HW119548   9.374   8.986   2.396
 2873SOL    HW219549   9.390   8.826   2.364
 2874SOL     OW19550   8.824   7.117   3.349
 2874SOL    HW119551   8.859   7.174   3.274
 2874SOL    HW219552   8.814   7.174   3.431
 2875SOL     OW19553   4.179   9.873   0.607
 2875SOL    HW119554   4.154   9.934   0.531
 2875SOL    HW219555   4.097   9.826   0.640
 2876SOL     OW19556   1.110   1.440   1.387
 2876SOL    HW119557   1.053   1.408   1.464
 2876SOL    HW219558   1.066   1.518   1.343
 2877SOL     OW19559   0.214   7.542   4.300
 2877SOL    HW119560   0.125   7.499   4.311
 2877SOL    HW219561   0.202   7.636   4.268
 2878SOL     OW19562   4.368   0.385   2.175
 2878SOL    HW119563   4.405   0.472   2.142
 2878SOL    HW219564   4.296   0.403   2.242
 2879SOL     OW19565   2.726   2.915   0.978
 2879SOL    HW119566   2.787   2.868   1.041
 2879SOL    HW219567   2.692   2.850   0.910
 2880SOL     OW19568   2.235   0.208   1.283
 2880SOL    HW119569   2.182   0.125   1.264
 2880SOL    HW219570   2.320   0.207   1.229
 2881SOL     OW19571   5.630   8.766   4.722
 2881SOL    HW119572   5.583   8.683   4.754
 2881SOL    HW219573   5.666   8.816   4.801
 2882SOL     OW19574   9.864   3.229   2.621
 2882SOL    HW119575   9.852   3.130   2.630
 2882SOL    HW219576   9.787   3.267   2.570
 2883SOL     OW19577   8.677   6.016   5.156
 2883SOL    HW119578   8.738   5.961   5.098
 2883SOL    HW219579   8.699   6.000   5.252
 2884SOL     OW19580   2.241   9.060   4.633
 2884SOL    HW119581   2.275   9.136   4.687
 2884SOL    HW219582   2.159   9.088   4.582
 2885SOL     OW19583   3.321   6.328   2.192
 2885SOL    HW119584   3.384   6.395   2.232
 2885SOL    HW219585   3.371   6.244   2.172
 2886SOL     OW19586   7.840   7.840   3.313
 2886SOL    HW119587   7.787   7.841   3.398
 2886SOL    HW219588   7.779   7.825   3.236
 2887SOL     OW19589   0.679   9.209   2.652
 2887SOL    HW119590   0.730   9.138   2.701
 2887SOL    HW219591   0.586   9.176   2.632
 2888SOL     OW19592   5.789   8.925   2.185
 2888SOL    HW119593   5.826   8.914   2.277
 2888SOL    HW219594   5.690   8.909   2.186
 2889SOL     OW19595   3.119   1.256   4.239
 2889SOL    HW119596   3.145   1.349   4.211
 2889SOL    HW219597   3.048   1.262   4.309
 2890SOL     OW19598   5.505   7.884   2.194
 2890SOL    HW119599   5.511   7.784   2.202
 2890SOL    HW219600   5.595   7.924   2.208
 2891SOL     OW19601   8.575   9.124   0.650
 2891SOL    HW119602   8.669   9.153   0.668
 2891SOL    HW219603   8.561   9.112   0.552
 2892SOL     OW19604   2.600   7.475   2.453
 2892SOL    HW119605   2.536   7.440   2.386
 2892SOL    HW219606   2.658   7.400   2.486
 2893SOL     OW19607   0.279   7.169   3.604
 2893SOL    HW119608   0.300   7.154   3.508
 2893SOL    HW219609   0.191   7.215   3.614
 2894SOL     OW19610   0.147   4.135   4.901
 2894SOL    HW119611   0.122   4.232   4.906
 2894SOL    HW219612   0.078   4.081   4.949
 2895SOL     OW19613   8.732   8.817   4.161
 2895SOL    HW119614   8.655   8.827   4.098
 2895SOL    HW219615   8.708   8.751   4.232
 2896SOL     OW19616   2.907   5.477   2.101
 2896SOL    HW119617   2.900   5.510   2.007
 2896SOL    HW219618   2.877   5.382   2.105
 2897SOL     OW19619   4.817   3.216   5.227
 2897SOL    HW119620   4.835   3.264   5.312
 2897SOL    HW219621   4.858   3.266   5.151
 2898SOL     OW19622   1.237   5.676   2.451
 2898SOL    HW119623   1.222   5.697   2.355
 2898SOL    HW219624   1.148   5.664   2.497
 2899SOL     OW19625   0.437   1.610   4.241
 2899SOL    HW119626   0.393   1.640   4.326
 2899SOL    HW219627   0.367   1.596   4.170
 2900SOL     OW19628   3.113   7.186   2.048
 2900SOL    HW119629   3.107   7.131   2.132
 2900SOL    HW219630   3.208   7.192   2.019
 2901SOL     OW19631   9.433   8.899   1.271
 2901SOL    HW119632   9.370   8.917   1.347
 2901SOL    HW219633   9.515   8.854   1.306
 2902SOL     OW19634   8.124   1.168   3.635
 2902SOL    HW119635   8.131   1.069   3.648
 2902SOL    HW219636   8.064   1.207   3.705
 2903SOL     OW19637   8.530   2.687   1.696
 2903SOL    HW119638   8.544   2.769   1.640
 2903SOL    HW219639   8.506   2.610   1.636
 2904SOL     OW19640   3.978   4.452   4.558
 2904SOL    HW119641   3.897   4.396   4.578
 2904SOL    HW219642   3.959   4.547   4.583
 2905SOL     OW19643   3.379   0.251   3.462
 2905SOL    HW119644   3.303   0.193   3.433
 2905SOL    HW219645   3.444   0.260   3.386
 2906SOL     OW19646   8.830   9.890   4.184
 2906SOL    HW119647   8.745   9.928   4.220
 2906SOL    HW219648   8.829   9.790   4.195
 2907SOL     OW19649   8.268   6.841   0.877
 2907SOL    HW119650   8.254   6.818   0.780
 2907SOL    HW219651   8.294   6.937   0.885
 2908SOL     OW19652   2.976   2.589   2.297
 2908SOL    HW119653   2.942   2.495   2.294
 2908SOL    HW219654   3.041   2.603   2.223
 2909SOL     OW19655   7.220   8.188   2.844
 2909SOL    HW119656   7.158   8.191   2.922
 2909SOL    HW219657   7.213   8.274   2.793
 2910SOL     OW19658   3.922   8.807   2.537
 2910SOL    HW119659   3.997   8.873   2.546
 2910SOL    HW219660   3.835   8.853   2.555
 2911SOL     OW19661   2.221   1.364   0.471
 2911SOL    HW119662   2.213   1.290   0.538
 2911SOL    HW219663   2.310   1.359   0.426
 2912SOL     OW19664   2.641   8.657   0.636
 2912SOL    HW119665   2.733   8.617   0.642
 2912SOL    HW219666   2.640   8.727   0.564
 2913SOL     OW19667   2.241   8.804   4.747
 2913SOL    HW119668   2.335   8.770   4.748
 2913SOL    HW219669   2.239   8.897   4.711
 2914SOL     OW19670   1.543   3.237   3.253
 2914SOL    HW119671   1.510   3.304   3.187
 2914SOL    HW219672   1.550   3.147   3.209
 2915SOL     OW19673   2.643   5.778   2.416
 2915SOL    HW119674   2.635   5.850   2.347
 2915SOL    HW219675   2.586   5.802   2.495
 2916SOL     OW19676   7.710   0.968   2.414
 2916SOL    HW119677   7.672   0.928   2.497
 2916SOL    HW219678   7.697   0.905   2.337
 2917SOL     OW19679   3.626   3.278   4.514
 2917SOL    HW119680   3.676   3.352   4.558
 2917SOL    HW219681   3.534   3.310   4.489
 2918SOL     OW19682   7.304   4.244   1.042
 2918SOL    HW119683   7.346   4.153   1.049
 2918SOL    HW219684   7.345   4.293   0.966
 2919SOL     OW19685   2.044   4.456   0.823
 2919SOL    HW119686   2.130   4.478   0.868
 2919SOL    HW219687   1.975   4.524   0.848
 2920SOL     OW19688   6.639   8.319   2.396
 2920SOL    HW119689   6.646   8.418   2.384
 2920SOL    HW219690   6.657   8.296   2.492
 2921SOL     OW19691   3.025   3.526   1.139
 2921SOL    HW119692   2.986   3.469   1.211
 2921SOL    HW219693   2.952   3.564   1.082
 2922SOL     OW19694   0.770   6.666   4.702
 2922SOL    HW119695   0.690   6.685   4.646
 2922SOL    HW219696   0.775   6.732   4.777
 2923SOL     OW19697   1.440   6.107   3.906
 2923SOL    HW119698   1.490   6.192   3.890
 2923SOL    HW219699   1.366   6.123   3.971
 2924SOL     OW19700   2.066   3.230   0.543
 2924SOL    HW119701   2.066   3.130   0.541
 2924SOL    HW219702   2.132   3.262   0.610
 2925SOL     OW19703   0.523   7.445   0.206
 2925SOL    HW119704   0.528   7.545   0.210
 2925SOL    HW219705   0.428   7.416   0.220
 2926SOL     OW19706   0.721   0.700   0.127
 2926SOL    HW119707   0.628   0.721   0.157
 2926SOL    HW219708   0.723   0.691   0.028
 2927SOL     OW19709   2.259   2.508   0.887
 2927SOL    HW119710   2.317   2.534   0.810
 2927SOL    HW219711   2.179   2.568   0.890
 2928SOL     OW19712   2.050   1.053   3.145
 2928SOL    HW119713   2.017   0.973   3.097
 2928SOL    HW219714   2.008   1.135   3.106
 2929SOL     OW19715   0.683   1.561   3.296
 2929SOL    HW119716   0.705   1.465   3.313
 2929SOL    HW219717   0.749   1.619   3.343
 2930SOL     OW19718   9.825   4.223   4.115
 2930SOL    HW119719   9.834   4.125   4.133
 2930SOL    HW219720   9.753   4.261   4.172
 2931SOL     OW19721   9.702   1.883   1.187
 2931SOL    HW119722   9.626   1.830   1.150
 2931SOL    HW219723   9.725   1.957   1.124
 2932SOL     OW19724   3.353   5.060   0.588
 2932SOL    HW119725   3.406   4.990   0.635
 2932SOL    HW219726   3.256   5.035   0.589
 2933SOL     OW19727   4.699   0.245   0.857
 2933SOL    HW119728   4.659   0.161   0.821
 2933SOL    HW219729   4.638   0.322   0.837
 2934SOL     OW19730   7.818   1.606   4.260
 2934SOL    HW119731   7.749   1.579   4.193
 2934SOL    HW219732   7.791   1.691   4.305
 2935SOL     OW19733   6.463   1.605   4.359
 2935SOL    HW119734   6.370   1.602   4.394
 2935SOL    HW219735   6.465   1.567   4.266
 2936SOL     OW19736   9.497   4.566   2.654
 2936SOL    HW119737   9.575   4.505   2.667
 2936SOL    HW219738   9.451   4.544   2.568
 2937SOL     OW19739   8.890   6.392   4.563
 2937SOL    HW119740   8.836   6.360   4.641
 2937SOL    HW219741   8.891   6.322   4.491
 2938SOL     OW19742   8.051   9.416   1.453
 2938SOL    HW119743   8.149   9.433   1.463
 2938SOL    HW219744   8.017   9.462   1.371
 2939SOL     OW19745   4.508   4.413   0.562
 2939SOL    HW119746   4.436   4.427   0.493
 2939SOL    HW219747   4.468   4.379   0.646
 2940SOL     OW19748   9.507   9.815   0.573
 2940SOL    HW119749   9.605   9.798   0.564
 2940SOL    HW219750   9.467   9.827   0.482
 2941SOL     OW19751   0.539   0.476   3.404
 2941SOL    HW119752   0.520   0.495   3.501
 2941SOL    HW219753   0.605   0.401   3.398
 2942SOL     OW19754   0.769   5.204   3.001
 2942SOL    HW119755   0.839   5.205   3.072
 2942SOL    HW219756   0.773   5.118   2.951
 2943SOL     OW19757   3.085   3.547   2.916
 2943SOL    HW119758   3.083   3.462   2.862
 2943SOL    HW219759   3.138   3.532   2.999
 2944SOL     OW19760   0.028   3.925   4.458
 2944SOL    HW119761   0.041   4.023   4.442
 2944SOL    HW219762   0.105   3.874   4.419
 2945SOL     OW19763   4.272   3.523   2.914
 2945SOL    HW119764   4.195   3.580   2.885
 2945SOL    HW219765   4.284   3.448   2.848
 2946SOL     OW19766   0.192   0.483   2.074
 2946SOL    HW119767   0.141   0.533   2.144
 2946SOL    HW219768   0.228   0.548   2.006
 2947SOL     OW19769   8.907   7.553   1.678
 2947SOL    HW119770   8.950   7.643   1.689
 2947SOL    HW219771   8.838   7.540   1.748
 2948SOL     OW19772   9.464   3.868   0.873
 2948SOL    HW119773   9.406   3.810   0.930
 2948SOL    HW219774   9.558   3.865   0.907
 2949SOL     OW19775   4.944   8.494   4.915
 2949SOL    HW119776   4.857   8.541   4.936
 2949SOL    HW219777   4.967   8.508   4.819
 2950SOL     OW19778   2.593   3.533   1.176
 2950SOL    HW119779   2.506   3.582   1.166
 2950SOL    HW219780   2.648   3.580   1.245
 2951SOL     OW19781   9.888   2.164   1.747
 2951SOL    HW119782   9.873   2.186   1.843
 2951SOL    HW219783   9.912   2.068   1.738
 2952SOL     OW19784   4.313   9.001   5.222
 2952SOL    HW119785   4.386   8.946   5.262
 2952SOL    HW219786   4.346   9.043   5.137
 2953SOL     OW19787   5.516   6.982   2.440
 2953SOL    HW119788   5.483   7.045   2.510
 2953SOL    HW219789   5.505   6.888   2.473
 2954SOL     OW19790   1.636   9.997   2.680
 2954SOL    HW119791   1.656   9.905   2.647
 2954SOL    HW219792   1.537   0.006   2.694
 2955SOL     OW19793   4.490   4.952   2.055
 2955SOL    HW119794   4.447   4.974   1.967
 2955SOL    HW219795   4.521   5.036   2.099
 2956SOL     OW19796   0.337   1.755   1.736
 2956SOL    HW119797   0.288   1.804   1.663
 2956SOL    HW219798   0.277   1.686   1.776
 2957SOL     OW19799   1.949   6.726   2.612
 2957SOL    HW119800   1.859   6.769   2.609
 2957SOL    HW219801   2.001   6.765   2.689
 2958SOL     OW19802   9.301   9.754   0.754
 2958SOL    HW119803   9.234   9.828   0.743
 2958SOL    HW219804   9.373   9.765   0.685
 2959SOL     OW19805   3.964   5.869   1.321
 2959SOL    HW119806   3.927   5.813   1.396
 2959SOL    HW219807   3.960   5.965   1.347
 2960SOL     OW19808   4.464   2.987   4.588
 2960SOL    HW119809   4.496   2.934   4.509
 2960SOL    HW219810   4.540   3.000   4.652
 2961SOL     OW19811   3.894   2.276   2.023
 2961SOL    HW119812   3.891   2.183   2.059
 2961SOL    HW219813   3.967   2.326   2.069
 2962SOL     OW19814   0.140   5.642   4.518
 2962SOL    HW119815   0.103   5.733   4.502
 2962SOL    HW219816   0.115   5.612   4.611
 2963SOL     OW19817   5.160   9.737   1.065
 2963SOL    HW119818   5.075   9.769   1.107
 2963SOL    HW219819   5.155   9.639   1.049
 2964SOL     OW19820   7.723   1.599   5.301
 2964SOL    HW119821   7.634   1.595   5.347
 2964SOL    HW219822   7.755   1.507   5.281
 2965SOL     OW19823   0.380   3.569   1.403
 2965SOL    HW119824   0.411   3.644   1.461
 2965SOL    HW219825   0.281   3.559   1.412
 2966SOL     OW19826   1.915   4.525   3.311
 2966SOL    HW119827   1.974   4.528   3.392
 2966SOL    HW219828   1.819   4.517   3.340
 2967SOL     OW19829   1.653   4.480   0.697
 2967SOL    HW119830   1.617   4.389   0.716
 2967SOL    HW219831   1.644   4.500   0.600
 2968SOL     OW19832   0.267   0.388   0.792
 2968SOL    HW119833   0.364   0.382   0.819
 2968SOL    HW219834   0.259   0.365   0.695
 2969SOL     OW19835   7.506   1.950   1.788
 2969SOL    HW119836   7.578   2.004   1.746
 2969SOL    HW219837   7.467   1.887   1.720
 2970SOL     OW19838   2.196   4.445   1.340
 2970SOL    HW119839   2.225   4.415   1.431
 2970SOL    HW219840   2.222   4.377   1.272
 2971SOL     OW19841   8.985   8.626   3.462
 2971SOL    HW119842   8.906   8.575   3.427
 2971SOL    HW219843   8.978   8.634   3.561
 2972SOL     OW19844   9.185   4.101   1.987
 2972SOL    HW119845   9.163   4.096   1.890
 2972SOL    HW219846   9.181   4.009   2.027
 2973SOL     OW19847   0.081   5.547   4.764
 2973SOL    HW119848   0.138   5.570   4.842
 2973SOL    HW219849   0.009   5.484   4.792
 2974SOL     OW19850   9.815   8.748   3.789
 2974SOL    HW119851   9.787   8.800   3.869
 2974SOL    HW219852   9.791   8.652   3.801
 2975SOL     OW19853   8.443   7.228   3.974
 2975SOL    HW119854   8.488   7.206   4.060
 2975SOL    HW219855   8.417   7.325   3.973
 2976SOL     OW19856   7.910   2.911   0.062
 2976SOL    HW119857   7.882   2.989   0.006
 2976SOL    HW219858   7.983   2.939   0.125
 2977SOL     OW19859   9.743   3.740   1.845
 2977SOL    HW119860   9.790   3.782   1.922
 2977SOL    HW219861   9.646   3.731   1.866
 2978SOL     OW19862   8.916   2.800   1.409
 2978SOL    HW119863   8.892   2.703   1.410
 2978SOL    HW219864   8.889   2.841   1.497
 2979SOL     OW19865   8.527   4.036   3.069
 2979SOL    HW119866   8.478   3.954   3.099
 2979SOL    HW219867   8.467   4.115   3.077
 2980SOL     OW19868   0.912   9.007   3.667
 2980SOL    HW119869   0.881   9.091   3.712
 2980SOL    HW219870   0.992   8.972   3.715
 2981SOL     OW19871   4.574   7.805   1.997
 2981SOL    HW119872   4.576   7.888   1.941
 2981SOL    HW219873   4.574   7.725   1.937
 2982SOL     OW19874   5.140   1.288   2.755
 2982SOL    HW119875   5.205   1.223   2.794
 2982SOL    HW219876   5.049   1.246   2.750
 2983SOL     OW19877   7.858   3.747   0.979
 2983SOL    HW119878   7.831   3.784   1.068
 2983SOL    HW219879   7.811   3.796   0.906
 2984SOL     OW19880   3.665   3.093   4.292
 2984SOL    HW119881   3.640   3.159   4.363
 2984SOL    HW219882   3.762   3.104   4.268
 2985SOL     OW19883   8.207   7.710   3.559
 2985SOL    HW119884   8.182   7.652   3.481
 2985SOL    HW219885   8.208   7.805   3.530
 2986SOL     OW19886   3.933   7.480   3.863
 2986SOL    HW119887   3.864   7.489   3.935
 2986SOL    HW219888   4.024   7.497   3.902
 2987SOL     OW19889   6.116   0.826   3.264
 2987SOL    HW119890   6.072   0.852   3.178
 2987SOL    HW219891   6.111   0.903   3.329
 2988SOL     OW19892   0.710   8.387   2.322
 2988SOL    HW119893   0.809   8.391   2.339
 2988SOL    HW219894   0.689   8.437   2.238
 2989SOL     OW19895   9.668   6.154   4.903
 2989SOL    HW119896   9.622   6.099   4.973
 2989SOL    HW219897   9.604   6.173   4.829
 2990SOL     OW19898   1.838   1.898   2.604
 2990SOL    HW119899   1.854   1.947   2.690
 2990SOL    HW219900   1.742   1.872   2.598
 2991SOL     OW19901   4.102   2.222   5.223
 2991SOL    HW119902   4.180   2.222   5.160
 2991SOL    HW219903   4.103   2.307   5.277
 2992SOL     OW19904   6.956   8.116   3.756
 2992SOL    HW119905   6.919   8.065   3.834
 2992SOL    HW219906   6.907   8.089   3.673
 2993SOL     OW19907   7.438   1.113   0.496
 2993SOL    HW119908   7.508   1.129   0.426
 2993SOL    HW219909   7.365   1.181   0.486
 2994SOL     OW19910   3.301   9.887   3.201
 2994SOL    HW119911   3.245   9.934   3.270
 2994SOL    HW219912   3.335   9.953   3.135
 2995SOL     OW19913   0.759   2.415   0.613
 2995SOL    HW119914   0.780   2.505   0.575
 2995SOL    HW219915   0.828   2.349   0.582
 2996SOL     OW19916   8.349   6.282   0.191
 2996SOL    HW119917   8.349   6.188   0.224
 2996SOL    HW219918   8.298   6.287   0.105
 2997SOL     OW19919   2.442   0.264   0.655
 2997SOL    HW119920   2.517   0.327   0.672
 2997SOL    HW219921   2.461   0.210   0.573
 2998SOL     OW19922   9.037   6.501   3.578
 2998SOL    HW119923   8.990   6.571   3.525
 2998SOL    HW219924   9.025   6.519   3.676
 2999SOL     OW19925   3.214   2.188   3.138
 2999SOL    HW119926   3.175   2.272   3.177
 2999SOL    HW219927   3.216   2.117   3.208
 3000SOL     OW19928   0.460   0.146   5.047
 3000SOL    HW119929   0.456   0.153   4.947
 3000SOL    HW219930   0.409   0.066   5.078
 3001SOL     OW19931   3.400   7.723   1.052
 3001SOL    HW119932   3.465   7.717   1.128
 3001SOL    HW219933   3.420   7.651   0.986
 3002SOL     OW19934   0.463   5.117   2.270
 3002SOL    HW119935   0.379   5.166   2.293
 3002SOL    HW219936   0.451   5.020   2.293
 3003SOL     OW19937   2.683   9.339   0.315
 3003SOL    HW119938   2.708   9.378   0.404
 3003SOL    HW219939   2.742   9.261   0.295
 3004SOL     OW19940   3.005   6.384   1.766
 3004SOL    HW119941   3.058   6.384   1.851
 3004SOL    HW219942   3.040   6.313   1.704
 3005SOL     OW19943   2.992   5.407   1.221
 3005SOL    HW119944   2.974   5.328   1.163
 3005SOL    HW219945   2.921   5.476   1.207
 3006SOL     OW19946   9.843   3.017   0.373
 3006SOL    HW119947   9.902   3.083   0.419
 3006SOL    HW219948   9.892   2.931   0.362
 3007SOL     OW19949   8.071   6.114   2.450
 3007SOL    HW119950   8.070   6.080   2.544
 3007SOL    HW219951   8.110   6.045   2.390
 3008SOL     OW19952   3.827   8.281   3.277
 3008SOL    HW119953   3.773   8.214   3.327
 3008SOL    HW219954   3.878   8.338   3.341
 3009SOL     OW19955   0.924   4.448   4.538
 3009SOL    HW119956   0.853   4.378   4.548
 3009SOL    HW219957   0.972   4.460   4.625
 3010SOL     OW19958   3.393   9.306   3.741
 3010SOL    HW119959   3.304   9.315   3.697
 3010SOL    HW219960   3.436   9.396   3.749
 3011SOL     OW19961   8.829   5.850   4.424
 3011SOL    HW119962   8.795   5.925   4.481
 3011SOL    HW219963   8.761   5.828   4.355
 3012SOL     OW19964   8.868   1.211   2.774
 3012SOL    HW119965   8.957   1.213   2.819
 3012SOL    HW219966   8.878   1.235   2.678
 3013SOL     OW19967   9.145   3.828   3.785
 3013SOL    HW119968   9.228   3.883   3.782
 3013SOL    HW219969   9.150   3.764   3.862
 3014SOL     OW19970   4.038   5.898   2.533
 3014SOL    HW119971   4.129   5.863   2.512
 3014SOL    HW219972   3.979   5.887   2.454
 3015SOL     OW19973   6.338   6.997   4.323
 3015SOL    HW119974   6.423   6.948   4.342
 3015SOL    HW219975   6.335   7.023   4.226
 3016SOL     OW19976   6.358   7.961   3.540
 3016SOL    HW119977   6.418   8.039   3.527
 3016SOL    HW219978   6.300   7.976   3.620
 3017SOL     OW19979   0.388   8.916   2.958
 3017SOL    HW119980   0.334   8.991   2.920
 3017SOL    HW219981   0.353   8.829   2.923
 3018SOL     OW19982   0.796   1.631   1.635
 3018SOL    HW119983   0.872   1.688   1.665
 3018SOL    HW219984   0.830   1.541   1.608
 3019SOL     OW19985   5.935   9.920   3.261
 3019SOL    HW119986   5.857   9.887   3.208
 3019SOL    HW219987   5.989   9.842   3.293
 3020SOL     OW19988   9.967   6.614   3.239
 3020SOL    HW119989   0.023   6.655   3.166
 3020SOL    HW219990   9.878   6.658   3.240
 3021SOL     OW19991   8.513   3.672   4.776
 3021SOL    HW119992   8.471   3.614   4.845
 3021SOL    HW219993   8.543   3.757   4.818
 3022SOL     OW19994   9.626   3.198   3.606
 3022SOL    HW119995   9.625   3.182   3.508
 3022SOL    HW219996   9.573   3.279   3.628
 3023SOL     OW19997   9.554   0.331   4.986
 3023SOL    HW119998   9.588   0.237   4.989
 3023SOL    HW219999   9.464   0.333   4.944
 3024SOL     OW20000   0.029   2.980   3.710
 3024SOL    HW120001   0.119   2.971   3.752
 3024SOL    HW220002   0.023   2.922   3.629
 3025SOL     OW20003   9.847   6.755   4.960
 3025SOL    HW120004   9.924   6.692   4.948
 3025SOL    HW220005   9.787   6.751   4.880
 3026SOL     OW20006   5.760   1.677   3.371
 3026SOL    HW120007   5.802   1.768   3.376
 3026SOL    HW220008   5.821   1.614   3.324
 3027SOL     OW20009   4.702   5.227   3.463
 3027SOL    HW120010   4.704   5.139   3.509
 3027SOL    HW220011   4.766   5.227   3.386
 3028SOL     OW20012   6.803   2.684   3.706
 3028SOL    HW120013   6.865   2.612   3.675
 3028SOL    HW220014   6.788   2.675   3.804
 3029SOL     OW20015   7.530   4.894   0.749
 3029SOL    HW120016   7.536   4.909   0.650
 3029SOL    HW220017   7.544   4.796   0.769
 3030SOL     OW20018   5.203   8.773   5.190
 3030SOL    HW120019   5.163   8.681   5.184
 3030SOL    HW220020   5.134   8.837   5.223
 3031SOL     OW20021   8.815   3.161   4.104
 3031SOL    HW120022   8.773   3.151   4.194
 3031SOL    HW220023   8.831   3.071   4.064
 3032SOL     OW20024   2.700   2.074   1.392
 3032SOL    HW120025   2.736   2.115   1.308
 3032SOL    HW220026   2.767   2.011   1.430
 3033SOL     OW20027   2.823   9.704   3.859
 3033SOL    HW120028   2.837   9.615   3.814
 3033SOL    HW220029   2.837   9.694   3.957
 3034SOL     OW20030   0.854   6.766   5.178
 3034SOL    HW120031   0.759   6.757   5.207
 3034SOL    HW220032   0.900   6.835   5.235
 3035SOL     OW20033   5.155   9.790   4.917
 3035SOL    HW120034   5.254   9.795   4.929
 3035SOL    HW220035   5.110   9.840   4.992
 3036SOL     OW20036   3.698   8.134   0.794
 3036SOL    HW120037   3.639   8.107   0.870
 3036SOL    HW220038   3.642   8.144   0.711
 3037SOL     OW20039   6.409   0.071   3.757
 3037SOL    HW120040   6.428   0.166   3.732
 3037SOL    HW220041   6.459   0.009   3.696
 3038SOL     OW20042   9.190   6.652   1.439
 3038SOL    HW120043   9.215   6.630   1.533
 3038SOL    HW220044   9.091   6.669   1.434
 3039SOL     OW20045   1.668   1.061   1.925
 3039SOL    HW120046   1.721   1.146   1.922
 3039SOL    HW220047   1.636   1.038   1.834
 3040SOL     OW20048   2.248   0.464   4.652
 3040SOL    HW120049   2.207   0.396   4.592
 3040SOL    HW220050   2.176   0.515   4.699
 3041SOL     OW20051   1.492   4.167   2.013
 3041SOL    HW120052   1.523   4.234   2.080
 3041SOL    HW220053   1.525   4.076   2.039
 3042SOL     OW20054   5.014   1.699   2.194
 3042SOL    HW120055   4.934   1.749   2.225
 3042SOL    HW220056   5.040   1.730   2.103
 3043SOL     OW20057   4.237   2.566   1.696
 3043SOL    HW120058   4.223   2.470   1.720
 3043SOL    HW220059   4.282   2.572   1.607
 3044SOL     OW20060   9.137   9.084   4.165
 3044SOL    HW120061   9.220   9.138   4.180
 3044SOL    HW220062   9.066   9.114   4.229
 3045SOL     OW20063   6.447   1.425   1.010
 3045SOL    HW120064   6.477   1.331   1.023
 3045SOL    HW220065   6.444   1.446   0.912
 3046SOL     OW20066   9.286   9.171   3.906
 3046SOL    HW120067   9.220   9.138   3.974
 3046SOL    HW220068   9.260   9.263   3.875
 3047SOL     OW20069   2.801   5.357   1.491
 3047SOL    HW120070   2.773   5.444   1.452
 3047SOL    HW220071   2.901   5.355   1.499
 3048SOL     OW20072   2.090   0.115   0.809
 3048SOL    HW120073   2.004   0.064   0.811
 3048SOL    HW220074   2.072   0.211   0.830
 3049SOL     OW20075   6.211   9.175   4.950
 3049SOL    HW120076   6.277   9.198   5.021
 3049SOL    HW220077   6.155   9.255   4.929
 3050SOL     OW20078   9.168   6.387   4.531
 3050SOL    HW120079   9.069   6.395   4.539
 3050SOL    HW220080   9.213   6.452   4.593
 3051SOL     OW20081   4.435   4.839   4.227
 3051SOL    HW120082   4.407   4.773   4.296
 3051SOL    HW220083   4.365   4.910   4.218
 3052SOL     OW20084   2.879   7.481   1.629
 3052SOL    HW120085   2.914   7.416   1.697
 3052SOL    HW220086   2.930   7.470   1.543
 3053SOL     OW20087   4.669   1.099   3.228
 3053SOL    HW120088   4.645   1.185   3.274
 3053SOL    HW220089   4.592   1.069   3.171
 3054SOL     OW20090   9.228   1.264   4.485
 3054SOL    HW120091   9.323   1.284   4.510
 3054SOL    HW220092   9.224   1.177   4.435
 3055SOL     OW20093   7.874   9.878   3.858
 3055SOL    HW120094   7.908   9.784   3.872
 3055SOL    HW220095   7.915   9.916   3.775
 3056SOL     OW20096   2.333   5.837   0.763
 3056SOL    HW120097   2.383   5.792   0.837
 3056SOL    HW220098   2.319   5.933   0.787
 3057SOL     OW20099   2.499   2.078   4.834
 3057SOL    HW120100   2.515   2.176   4.821
 3057SOL    HW220101   2.476   2.060   4.930
 3058SOL     OW20102   0.414   6.404   4.846
 3058SOL    HW120103   0.468   6.431   4.767
 3058SOL    HW220104   0.388   6.486   4.898
 3059SOL     OW20105   1.841   7.301   0.548
 3059SOL    HW120106   1.747   7.326   0.524
 3059SOL    HW220107   1.903   7.332   0.476
 3060SOL     OW20108   6.708   2.251   3.467
 3060SOL    HW120109   6.749   2.217   3.552
 3060SOL    HW220110   6.781   2.283   3.405
 3061SOL     OW20111   6.142   2.174   3.953
 3061SOL    HW120112   6.071   2.124   4.003
 3061SOL    HW220113   6.108   2.196   3.861
 3062SOL     OW20114   9.943   7.945   3.139
 3062SOL    HW120115   9.873   7.902   3.082
 3062SOL    HW220116   0.034   7.915   3.107
 3063SOL     OW20117   8.963   7.469   3.563
 3063SOL    HW120118   8.895   7.398   3.581
 3063SOL    HW220119   9.032   7.468   3.636
 3064SOL     OW20120   1.490   1.124   4.869
 3064SOL    HW120121   1.583   1.116   4.905
 3064SOL    HW220122   1.473   1.049   4.805
 3065SOL     OW20123   4.344   3.167   4.145
 3065SOL    HW120124   4.315   3.194   4.053
 3065SOL    HW220125   4.424   3.108   4.140
 3066SOL     OW20126   9.900   5.448   2.086
 3066SOL    HW120127   9.943   5.535   2.110
 3066SOL    HW220128   9.963   5.373   2.104
 3067SOL     OW20129   8.149   5.855   3.087
 3067SOL    HW120130   8.206   5.785   3.044
 3067SOL    HW220131   8.205   5.937   3.106
 3068SOL     OW20132   2.840   5.201   2.100
 3068SOL    HW120133   2.809   5.166   2.189
 3068SOL    HW220134   2.924   5.154   2.074
 3069SOL     OW20135   0.069   2.165   4.906
 3069SOL    HW120136   0.142   2.141   4.971
 3069SOL    HW220137   0.023   2.247   4.938
 3070SOL     OW20138   2.232   9.934   2.273
 3070SOL    HW120139   2.265   9.999   2.204
 3070SOL    HW220140   2.151   9.886   2.239
 3071SOL     OW20141   6.037   0.808   5.229
 3071SOL    HW120142   6.058   0.877   5.299
 3071SOL    HW220143   6.058   0.846   5.138
 3072SOL     OW20144   9.190   8.912   3.036
 3072SOL    HW120145   9.232   8.840   2.982
 3072SOL    HW220146   9.140   8.872   3.112
 3073SOL     OW20147   9.295   9.105   1.720
 3073SOL    HW120148   9.249   9.164   1.654
 3073SOL    HW220149   9.342   9.162   1.788
 3074SOL     OW20150   4.727   8.109   4.150
 3074SOL    HW120151   4.708   8.061   4.236
 3074SOL    HW220152   4.825   8.118   4.137
 3075SOL     OW20153   7.276   0.375   1.864
 3075SOL    HW120154   7.200   0.373   1.799
 3075SOL    HW220155   7.350   0.430   1.827
 3076SOL     OW20156   7.893   7.532   3.833
 3076SOL    HW120157   7.842   7.558   3.751
 3076SOL    HW220158   7.846   7.569   3.914
 3077SOL     OW20159   2.366   9.841   1.822
 3077SOL    HW120160   2.361   9.899   1.741
 3077SOL    HW220161   2.275   9.805   1.843
 3078SOL     OW20162   9.437   2.626   2.732
 3078SOL    HW120163   9.354   2.575   2.712
 3078SOL    HW220164   9.414   2.713   2.775
 3079SOL     OW20165   0.488   3.085   1.295
 3079SOL    HW120166   0.465   3.167   1.347
 3079SOL    HW220167   0.531   3.111   1.209
 3080SOL     OW20168   5.266   8.525   3.141
 3080SOL    HW120169   5.177   8.569   3.149
 3080SOL    HW220170   5.321   8.547   3.221
 3081SOL     OW20171   9.993   7.416   2.466
 3081SOL    HW120172   9.968   7.384   2.375
 3081SOL    HW220173   0.047   7.346   2.513
 3082SOL     OW20174   7.612   0.150   4.359
 3082SOL    HW120175   7.685   0.180   4.297
 3082SOL    HW220176   7.626   0.054   4.383
 3083SOL     OW20177   8.894   0.846   4.098
 3083SOL    HW120178   8.856   0.919   4.154
 3083SOL    HW220179   8.884   0.868   4.001
 3084SOL     OW20180   9.623   8.911   2.649
 3084SOL    HW120181   9.587   9.004   2.663
 3084SOL    HW220182   9.601   8.855   2.729
 3085SOL     OW20183   9.509   6.008   0.371
 3085SOL    HW120184   9.461   6.081   0.323
 3085SOL    HW220185   9.539   6.041   0.461
 3086SOL     OW20186   0.817   7.811   4.552
 3086SOL    HW120187   0.836   7.879   4.482
 3086SOL    HW220188   0.862   7.725   4.529
 3087SOL     OW20189   1.739   5.937   5.148
 3087SOL    HW120190   1.656   5.985   5.122
 3087SOL    HW220191   1.785   5.988   5.220
 3088SOL     OW20192   3.331   7.851   2.071
 3088SOL    HW120193   3.292   7.851   2.163
 3088SOL    HW220194   3.384   7.934   2.058
 3089SOL     OW20195   2.604   3.700   4.521
 3089SOL    HW120196   2.660   3.618   4.516
 3089SOL    HW220197   2.507   3.676   4.511
 3090SOL     OW20198   3.265   3.687   4.668
 3090SOL    HW120199   3.229   3.598   4.640
 3090SOL    HW220200   3.361   3.678   4.693
 3091SOL     OW20201   4.540   2.256   2.727
 3091SOL    HW120202   4.579   2.323   2.790
 3091SOL    HW220203   4.505   2.178   2.779
 3092SOL     OW20204   2.441   3.760   0.715
 3092SOL    HW120205   2.431   3.662   0.695
 3092SOL    HW220206   2.437   3.774   0.814
 3093SOL     OW20207   3.540   4.134   1.208
 3093SOL    HW120208   3.455   4.105   1.251
 3093SOL    HW220209   3.610   4.064   1.221
 3094SOL     OW20210   6.945   1.177   4.259
 3094SOL    HW120211   7.040   1.145   4.258
 3094SOL    HW220212   6.944   1.277   4.266
 3095SOL     OW20213   6.735   9.039   2.076
 3095SOL    HW120214   6.796   9.043   2.155
 3095SOL    HW220215   6.771   9.095   2.002
 3096SOL     OW20216   5.215   5.084   4.650
 3096SOL    HW120217   5.292   5.144   4.670
 3096SOL    HW220218   5.160   5.073   4.733
 3097SOL     OW20219   1.742   1.967   0.230
 3097SOL    HW120220   1.750   1.885   0.173
 3097SOL    HW220221   1.833   1.996   0.260
 3098SOL     OW20222   1.285   8.156   5.088
 3098SOL    HW120223   1.219   8.175   5.160
 3098SOL    HW220224   1.306   8.058   5.087
 3099SOL     OW20225   3.218   0.775   1.197
 3099SOL    HW120226   3.192   0.753   1.103
 3099SOL    HW220227   3.137   0.807   1.247
 3100SOL     OW20228   6.625   2.169   3.138
 3100SOL    HW120229   6.626   2.264   3.166
 3100SOL    HW220230   6.603   2.110   3.216
 3101SOL     OW20231   4.037   5.608   0.473
 3101SOL    HW120232   4.023   5.510   0.465
 3101SOL    HW220233   3.952   5.652   0.500
 3102SOL     OW20234   1.667   9.777   0.911
 3102SOL    HW120235   1.632   9.862   0.872
 3102SOL    HW220236   1.620   9.699   0.869
 3103SOL     OW20237   3.413   6.903   4.518
 3103SOL    HW120238   3.481   6.975   4.524
 3103SOL    HW220239   3.395   6.882   4.421
 3104SOL     OW20240   1.494   9.590   3.878
 3104SOL    HW120241   1.400   9.580   3.845
 3104SOL    HW220242   1.494   9.646   3.961
 3105SOL     OW20243   6.430   1.173   2.346
 3105SOL    HW120244   6.435   1.152   2.248
 3105SOL    HW220245   6.501   1.240   2.369
 3106SOL     OW20246   7.386   9.373   2.868
 3106SOL    HW120247   7.329   9.294   2.887
 3106SOL    HW220248   7.337   9.457   2.891
 3107SOL     OW20249   7.669   8.239   2.479
 3107SOL    HW120250   7.575   8.241   2.514
 3107SOL    HW220251   7.697   8.144   2.466
 3108SOL     OW20252   8.857   0.888   0.153
 3108SOL    HW120253   8.872   0.800   0.197
 3108SOL    HW220254   8.902   0.961   0.205
 3109SOL     OW20255   3.515   8.788   3.367
 3109SOL    HW120256   3.543   8.808   3.273
 3109SOL    HW220257   3.451   8.859   3.398
 3110SOL     OW20258   1.632   5.709   1.978
 3110SOL    HW120259   1.676   5.771   1.913
 3110SOL    HW220260   1.630   5.750   2.069
 3111SOL     OW20261   8.026   4.790   0.827
 3111SOL    HW120262   7.975   4.790   0.913
 3111SOL    HW220263   7.965   4.763   0.752
 3112SOL     OW20264   9.415   0.787   2.130
 3112SOL    HW120265   9.499   0.765   2.082
 3112SOL    HW220266   9.349   0.712   2.119
 3113SOL     OW20267   2.257   5.442   4.456
 3113SOL    HW120268   2.347   5.484   4.468
 3113SOL    HW220269   2.186   5.513   4.462
 3114SOL     OW20270   0.366   1.714   0.381
 3114SOL    HW120271   0.288   1.728   0.443
 3114SOL    HW220272   0.411   1.802   0.363
 3115SOL     OW20273   5.045   5.031   4.862
 3115SOL    HW120274   5.012   4.937   4.858
 3115SOL    HW220275   4.983   5.086   4.917
 3116SOL     OW20276   0.351   1.565   3.597
 3116SOL    HW120277   0.316   1.605   3.683
 3116SOL    HW220278   0.429   1.506   3.617
 3117SOL     OW20279   7.559   9.007   4.337
 3117SOL    HW120280   7.631   8.989   4.270
 3117SOL    HW220281   7.600   9.034   4.424
 3118SOL     OW20282   0.989   8.392   2.401
 3118SOL    HW120283   1.034   8.338   2.329
 3118SOL    HW220284   1.026   8.364   2.490
 3119SOL     OW20285   5.287   0.271   2.296
 3119SOL    HW120286   5.353   0.234   2.362
 3119SOL    HW220287   5.195   0.265   2.334
 3120SOL     OW20288   8.320   9.111   3.466
 3120SOL    HW120289   8.304   9.179   3.538
 3120SOL    HW220290   8.243   9.048   3.461
 3121SOL     OW20291   2.682   0.521   0.166
 3121SOL    HW120292   2.586   0.520   0.194
 3121SOL    HW220293   2.718   0.428   0.168
 3122SOL     OW20294   4.709   3.293   1.246
 3122SOL    HW120295   4.615   3.261   1.261
 3122SOL    HW220296   4.766   3.217   1.215
 3123SOL     OW20297   5.294   6.306   1.586
 3123SOL    HW120298   5.219   6.333   1.526
 3123SOL    HW220299   5.323   6.385   1.640
 3124SOL     OW20300   8.159   9.360   4.729
 3124SOL    HW120301   8.208   9.280   4.695
 3124SOL    HW220302   8.213   9.405   4.800
 3125SOL     OW20303   5.476   1.486   2.539
 3125SOL    HW120304   5.521   1.402   2.570
 3125SOL    HW220305   5.377   1.473   2.539
 3126SOL     OW20306   1.851   0.855   1.990
 3126SOL    HW120307   1.779   0.924   1.998
 3126SOL    HW220308   1.861   0.828   1.894
 3127SOL     OW20309   8.500   7.862   3.460
 3127SOL    HW120310   8.501   7.793   3.387
 3127SOL    HW220311   8.409   7.902   3.466
 3128SOL     OW20312   8.124   2.547   0.231
 3128SOL    HW120313   8.068   2.625   0.255
 3128SOL    HW220314   8.070   2.463   0.236
 3129SOL     OW20315   3.773   3.357   4.163
 3129SOL    HW120316   3.778   3.438   4.222
 3129SOL    HW220317   3.846   3.294   4.186
 3130SOL     OW20318   2.654   0.435   0.681
 3130SOL    HW120319   2.720   0.470   0.748
 3130SOL    HW220320   2.700   0.416   0.595
 3131SOL     OW20321   0.922   7.230   1.441
 3131SOL    HW120322   0.971   7.171   1.376
 3131SOL    HW220323   0.824   7.217   1.431
 3132SOL     OW20324   2.549   1.419   4.311
 3132SOL    HW120325   2.634   1.402   4.260
 3132SOL    HW220326   2.539   1.350   4.383
 3133SOL     OW20327   4.209   3.034   2.010
 3133SOL    HW120328   4.253   3.040   2.099
 3133SOL    HW220329   4.177   3.125   1.982
 3134SOL     OW20330   4.805   0.652   4.723
 3134SOL    HW120331   4.705   0.651   4.719
 3134SOL    HW220332   4.838   0.560   4.745
 3135SOL     OW20333   9.674   0.513   0.526
 3135SOL    HW120334   9.749   0.487   0.466
 3135SOL    HW220335   9.606   0.440   0.530
 3136SOL     OW20336   4.772   8.833   0.432
 3136SOL    HW120337   4.792   8.769   0.358
 3136SOL    HW220338   4.681   8.872   0.419
 3137SOL     OW20339   0.228   5.523   1.333
 3137SOL    HW120340   0.139   5.557   1.365
 3137SOL    HW220341   0.266   5.588   1.267
 3138SOL     OW20342   3.463   8.533   5.118
 3138SOL    HW120343   3.542   8.567   5.169
 3138SOL    HW220344   3.473   8.435   5.103
 3139SOL     OW20345   3.679   6.993   3.184
 3139SOL    HW120346   3.753   7.006   3.118
 3139SOL    HW220347   3.698   6.911   3.239
 3140SOL     OW20348   1.312   3.109   4.587
 3140SOL    HW120349   1.325   3.037   4.655
 3140SOL    HW220350   1.258   3.073   4.511
 3141SOL     OW20351   1.437   3.030   4.000
 3141SOL    HW120352   1.349   3.050   4.044
 3141SOL    HW220353   1.496   2.981   4.064
 3142SOL     OW20354   4.819   8.741   4.728
 3142SOL    HW120355   4.906   8.749   4.680
 3142SOL    HW220356   4.819   8.801   4.808
 3143SOL     OW20357   2.293   1.514   2.249
 3143SOL    HW120358   2.261   1.498   2.156
 3143SOL    HW220359   2.367   1.450   2.271
 3144SOL     OW20360   3.589   7.700   1.253
 3144SOL    HW120361   3.569   7.673   1.347
 3144SOL    HW220362   3.684   7.675   1.231
 3145SOL     OW20363   1.825   8.884   0.133
 3145SOL    HW120364   1.858   8.822   0.062
 3145SOL    HW220365   1.725   8.880   0.136
 3146SOL     OW20366   6.452   7.946   2.358
 3146SOL    HW120367   6.530   7.905   2.406
 3146SOL    HW220368   6.381   7.968   2.425
 3147SOL     OW20369   0.000   4.356   0.050
 3147SOL    HW120370   9.962   4.437   0.094
 3147SOL    HW220371   0.089   4.379   0.010
 3148SOL     OW20372   7.150   2.034   3.275
 3148SOL    HW120373   7.097   2.072   3.351
 3148SOL    HW220374   7.131   1.936   3.267
 3149SOL     OW20375   3.877   2.304   2.460
 3149SOL    HW120376   3.964   2.256   2.446
 3149SOL    HW220377   3.885   2.363   2.540
 3150SOL     OW20378   8.970   5.072   4.061
 3150SOL    HW120379   8.875   5.047   4.045
 3150SOL    HW220380   8.974   5.151   4.122
 3151SOL     OW20381   2.494   5.971   3.166
 3151SOL    HW120382   2.432   5.959   3.244
 3151SOL    HW220383   2.443   6.009   3.089
 3152SOL     OW20384   2.071   0.202   5.038
 3152SOL    HW120385   2.149   0.232   4.983
 3152SOL    HW220386   1.996   0.267   5.029
 3153SOL     OW20387   4.249   1.728   2.201
 3153SOL    HW120388   4.334   1.684   2.172
 3153SOL    HW220389   4.191   1.743   2.121
 3154SOL     OW20390   2.343   4.378   5.146
 3154SOL    HW120391   2.369   4.396   5.051
 3154SOL    HW220392   2.307   4.462   5.187
 3155SOL     OW20393   8.901   5.621   1.009
 3155SOL    HW120394   8.922   5.714   1.037
 3155SOL    HW220395   8.807   5.598   1.035
 3156SOL     OW20396   4.548   1.612   3.731
 3156SOL    HW120397   4.565   1.552   3.809
 3156SOL    HW220398   4.468   1.670   3.750
 3157SOL     OW20399   7.675   1.694   1.351
 3157SOL    HW120400   7.654   1.606   1.392
 3157SOL    HW220401   7.591   1.736   1.316
 3158SOL     OW20402   7.292   0.622   2.454
 3158SOL    HW120403   7.242   0.598   2.537
 3158SOL    HW220404   7.389   0.606   2.469
 3159SOL     OW20405   0.051   8.379   2.359
 3159SOL    HW120406   0.145   8.347   2.348
 3159SOL    HW220407   0.052   8.477   2.379
 3160SOL     OW20408   7.351   1.513   0.338
 3160SOL    HW120409   7.356   1.613   0.344
 3160SOL    HW220410   7.438   1.473   0.369
 3161SOL     OW20411   2.640   3.955   0.648
 3161SOL    HW120412   2.584   3.874   0.666
 3161SOL    HW220413   2.607   4.031   0.704
 3162SOL     OW20414   7.799   5.888   4.749
 3162SOL    HW120415   7.838   5.797   4.756
 3162SOL    HW220416   7.705   5.887   4.782
 3163SOL     OW20417   3.463   6.488   0.690
 3163SOL    HW120418   3.366   6.469   0.682
 3163SOL    HW220419   3.482   6.581   0.659
 3164SOL     OW20420   8.254   6.597   3.783
 3164SOL    HW120421   8.340   6.564   3.820
 3164SOL    HW220422   8.185   6.525   3.790
 3165SOL     OW20423   8.533   8.397   3.856
 3165SOL    HW120424   8.452   8.401   3.796
 3165SOL    HW220425   8.504   8.409   3.951
 3166SOL     OW20426   2.829   8.242   4.456
 3166SOL    HW120427   2.910   8.191   4.428
 3166SOL    HW220428   2.856   8.316   4.518
 3167SOL     OW20429   6.414   1.235   1.476
 3167SOL    HW120430   6.361   1.199   1.400
 3167SOL    HW220431   6.367   1.214   1.562
 3168SOL     OW20432   0.824   1.953   4.209
 3168SOL    HW120433   0.778   1.867   4.184
 3168SOL    HW220434   0.769   2.030   4.179
 3169SOL     OW20435   9.867   3.742   5.122
 3169SOL    HW120436   9.928   3.667   5.149
 3169SOL    HW220437   9.773   3.720   5.148
 3170SOL     OW20438   3.441   5.747   2.665
 3170SOL    HW120439   3.535   5.740   2.631
 3170SOL    HW220440   3.406   5.839   2.647
 3171SOL     OW20441   9.805   7.217   4.714
 3171SOL    HW120442   9.722   7.164   4.731
 3171SOL    HW220443   9.860   7.221   4.798
 3172SOL     OW20444   3.657   1.240   4.921
 3172SOL    HW120445   3.600   1.233   4.839
 3172SOL    HW220446   3.658   1.334   4.953
 3173SOL     OW20447   6.101   0.365   3.443
 3173SOL    HW120448   6.051   0.446   3.413
 3173SOL    HW220449   6.037   0.298   3.480
 3174SOL     OW20450   9.137   3.597   4.681
 3174SOL    HW120451   9.063   3.642   4.631
 3174SOL    HW220452   9.213   3.579   4.618
 3175SOL     OW20453   3.681   7.786   0.229
 3175SOL    HW120454   3.739   7.864   0.207
 3175SOL    HW220455   3.663   7.733   0.147
 3176SOL     OW20456   2.952   2.706   0.829
 3176SOL    HW120457   2.998   2.666   0.909
 3176SOL    HW220458   2.873   2.650   0.804
 3177SOL     OW20459   8.579   9.795   4.496
 3177SOL    HW120460   8.510   9.725   4.474
 3177SOL    HW220461   8.662   9.751   4.528
 3178SOL     OW20462   0.723   0.718   4.692
 3178SOL    HW120463   0.684   0.702   4.602
 3178SOL    HW220464   0.668   0.672   4.761
 3179SOL     OW20465   2.734   4.842   1.827
 3179SOL    HW120466   2.824   4.798   1.833
 3179SOL    HW220467   2.679   4.795   1.758
 3180SOL     OW20468   4.440   2.251   4.332
 3180SOL    HW120469   4.367   2.309   4.296
 3180SOL    HW220470   4.493   2.213   4.256
 3181SOL     OW20471   3.310   6.215   0.398
 3181SOL    HW120472   3.254   6.280   0.347
 3181SOL    HW220473   3.251   6.144   0.437
 3182SOL     OW20474   2.538   1.226   4.503
 3182SOL    HW120475   2.588   1.170   4.569
 3182SOL    HW220476   2.442   1.198   4.501
 3183SOL     OW20477   3.407   4.617   0.618
 3183SOL    HW120478   3.436   4.712   0.631
 3183SOL    HW220479   3.339   4.593   0.688
 3184SOL     OW20480   9.773   3.486   3.200
 3184SOL    HW120481   9.869   3.513   3.187
 3184SOL    HW220482   9.765   3.387   3.189
 3185SOL     OW20483   0.813   0.146   3.680
 3185SOL    HW120484   0.836   0.232   3.726
 3185SOL    HW220485   0.897   0.103   3.645
 3186SOL     OW20486   9.442   0.941   0.693
 3186SOL    HW120487   9.523   0.967   0.640
 3186SOL    HW220488   9.430   1.006   0.769
 3187SOL     OW20489   1.926   0.594   2.054
 3187SOL    HW120490   1.855   0.565   2.118
 3187SOL    HW220491   1.917   0.692   2.036
 3188SOL     OW20492   6.724   0.059   4.815
 3188SOL    HW120493   6.704   0.019   4.904
 3188SOL    HW220494   6.676   0.146   4.806
 3189SOL     OW20495   9.401   9.961   3.057
 3189SOL    HW120496   9.410   0.021   2.978
 3189SOL    HW220497   9.492   9.945   3.097
 3190SOL     OW20498   4.581   0.614   1.280
 3190SOL    HW120499   4.569   0.525   1.323
 3190SOL    HW220500   4.624   0.602   1.190
 3191SOL     OW20501   0.339   2.712   2.571
 3191SOL    HW120502   0.425   2.750   2.536
 3191SOL    HW220503   0.270   2.713   2.498
 3192SOL     OW20504   0.278   4.678   0.353
 3192SOL    HW120505   0.237   4.753   0.301
 3192SOL    HW220506   0.215   4.599   0.352
 3193SOL     OW20507   1.300   7.126   0.226
 3193SOL    HW120508   1.395   7.141   0.254
 3193SOL    HW220509   1.241   7.132   0.306
 3194SOL     OW20510   1.861   7.469   4.862
 3194SOL    HW120511   1.926   7.433   4.795
 3194SOL    HW220512   1.909   7.533   4.922
 3195SOL     OW20513   2.869   1.666   0.347
 3195SOL    HW120514   2.862   1.760   0.379
 3195SOL    HW220515   2.954   1.655   0.296
 3196SOL     OW20516   2.972   8.491   4.861
 3196SOL    HW120517   3.054   8.434   4.867
 3196SOL    HW220518   2.993   8.583   4.894
 3197SOL     OW20519   2.356   1.471   5.079
 3197SOL    HW120520   2.327   1.389   5.029
 3197SOL    HW220521   2.446   1.455   5.119
 3198SOL     OW20522   3.392   9.419   4.628
 3198SOL    HW120523   3.460   9.464   4.569
 3198SOL    HW220524   3.302   9.421   4.582
 3199SOL     OW20525   6.975   1.338   2.735
 3199SOL    HW120526   6.966   1.310   2.831
 3199SOL    HW220527   7.064   1.309   2.700
 3200SOL     OW20528   7.808   3.701   2.380
 3200SOL    HW120529   7.905   3.709   2.403
 3200SOL    HW220530   7.799   3.661   2.289
 3201SOL     OW20531   2.446   5.779   0.504
 3201SOL    HW120532   2.397   5.811   0.586
 3201SOL    HW220533   2.383   5.776   0.427
 3202SOL     OW20534   6.674   0.075   3.405
 3202SOL    HW120535   6.669   0.171   3.434
 3202SOL    HW220536   6.768   0.055   3.376
 3203SOL     OW20537   4.278   1.963   2.341
 3203SOL    HW120538   4.376   1.969   2.361
 3203SOL    HW220539   4.259   1.880   2.289
 3204SOL     OW20540   8.450   1.495   4.553
 3204SOL    HW120541   8.517   1.502   4.627
 3204SOL    HW220542   8.434   1.586   4.515
 3205SOL     OW20543   5.408   1.010   4.402
 3205SOL    HW120544   5.342   1.067   4.352
 3205SOL    HW220545   5.474   0.972   4.339
 3206SOL     OW20546   9.000   8.585   0.847
 3206SOL    HW120547   8.984   8.589   0.749
 3206SOL    HW220548   8.951   8.660   0.892
 3207SOL     OW20549   0.565   5.080   2.018
 3207SOL    HW120550   0.525   5.106   2.106
 3207SOL    HW220551   0.602   4.987   2.025
 3208SOL     OW20552   4.284   6.880   2.488
 3208SOL    HW120553   4.345   6.809   2.523
 3208SOL    HW220554   4.283   6.877   2.389
 3209SOL     OW20555   0.989   7.338   1.115
 3209SOL    HW120556   0.960   7.364   1.023
 3209SOL    HW220557   0.943   7.396   1.182
 3210SOL     OW20558   9.697   6.462   3.791
 3210SOL    HW120559   9.769   6.524   3.821
 3210SOL    HW220560   9.723   6.420   3.704
 3211SOL     OW20561   4.311   8.095   3.316
 3211SOL    HW120562   4.249   8.155   3.367
 3211SOL    HW220563   4.334   8.137   3.229
 3212SOL     OW20564   9.764   3.732   1.323
 3212SOL    HW120565   9.779   3.816   1.271
 3212SOL    HW220566   9.754   3.754   1.420
 3213SOL     OW20567   2.435   6.762   1.387
 3213SOL    HW120568   2.534   6.746   1.383
 3213SOL    HW220569   2.388   6.676   1.408
 3214SOL     OW20570   2.133   8.816   0.735
 3214SOL    HW120571   2.060   8.851   0.676
 3214SOL    HW220572   2.150   8.720   0.712
 3215SOL     OW20573   3.243   7.412   3.914
 3215SOL    HW120574   3.242   7.511   3.928
 3215SOL    HW220575   3.181   7.369   3.979
 3216SOL     OW20576   3.236   6.991   4.842
 3216SOL    HW120577   3.198   6.992   4.750
 3216SOL    HW220578   3.254   6.896   4.870
 3217SOL     OW20579   8.474   6.152   0.677
 3217SOL    HW120580   8.493   6.159   0.775
 3217SOL    HW220581   8.418   6.230   0.649
 3218SOL     OW20582   4.179   5.964   1.619
 3218SOL    HW120583   4.240   5.943   1.542
 3218SOL    HW220584   4.140   6.055   1.608
 3219SOL     OW20585   1.560   3.487   1.026
 3219SOL    HW120586   1.630   3.515   1.092
 3219SOL    HW220587   1.508   3.410   1.063
 3220SOL     OW20588   8.748   1.252   2.442
 3220SOL    HW120589   8.752   1.173   2.380
 3220SOL    HW220590   8.840   1.277   2.471
 3221SOL     OW20591   1.297   3.405   1.993
 3221SOL    HW120592   1.206   3.366   1.975
 3221SOL    HW220593   1.310   3.415   2.092
 3222SOL     OW20594   4.389   4.246   2.719
 3222SOL    HW120595   4.436   4.214   2.637
 3222SOL    HW220596   4.306   4.192   2.733
 3223SOL     OW20597   4.521   3.200   2.162
 3223SOL    HW120598   4.522   3.280   2.222
 3223SOL    HW220599   4.451   3.136   2.194
 3224SOL     OW20600   3.946   3.598   2.469
 3224SOL    HW120601   3.960   3.692   2.500
 3224SOL    HW220602   4.031   3.563   2.429
 3225SOL     OW20603   0.785   1.015   0.661
 3225SOL    HW120604   0.742   1.048   0.745
 3225SOL    HW220605   0.880   1.046   0.659
 3226SOL     OW20606   9.996   7.568   4.079
 3226SOL    HW120607   9.984   7.497   4.149
 3226SOL    HW220608   0.007   7.525   3.989
 3227SOL     OW20609   1.824   9.418   2.829
 3227SOL    HW120610   1.799   9.350   2.898
 3227SOL    HW220611   1.800   9.384   2.738
 3228SOL     OW20612   5.136   2.696   4.581
 3228SOL    HW120613   5.222   2.716   4.535
 3228SOL    HW220614   5.154   2.646   4.666
 3229SOL     OW20615   8.154   3.675   2.557
 3229SOL    HW120616   8.247   3.693   2.590
 3229SOL    HW220617   8.156   3.660   2.459
 3230SOL     OW20618   9.410   0.212   0.110
 3230SOL    HW120619   9.423   0.141   0.178
 3230SOL    HW220620   9.339   0.185   0.045
 3231SOL     OW20621   4.938   9.494   1.198
 3231SOL    HW120622   4.844   9.491   1.163
 3231SOL    HW220623   4.942   9.555   1.277
 3232SOL     OW20624   4.727   1.492   2.404
 3232SOL    HW120625   4.629   1.511   2.409
 3232SOL    HW220626   4.749   1.414   2.462
 3233SOL     OW20627   0.769   7.728   2.517
 3233SOL    HW120628   0.755   7.793   2.441
 3233SOL    HW220629   0.682   7.688   2.542
 3234SOL     OW20630   3.622   4.907   4.720
 3234SOL    HW120631   3.648   4.854   4.639
 3234SOL    HW220632   3.623   4.848   4.801
 3235SOL     OW20633   9.303   1.602   5.192
 3235SOL    HW120634   9.305   1.564   5.285
 3235SOL    HW220635   9.296   1.527   5.126
 3236SOL     OW20636   9.060   6.825   0.653
 3236SOL    HW120637   9.127   6.890   0.690
 3236SOL    HW220638   9.097   6.733   0.657
 3237SOL     OW20639   0.970   9.820   1.536
 3237SOL    HW120640   0.886   9.766   1.542
 3237SOL    HW220641   1.025   9.788   1.459
 3238SOL     OW20642   5.849   1.993   3.866
 3238SOL    HW120643   5.848   2.021   3.770
 3238SOL    HW220644   5.865   1.894   3.872
 3239SOL     OW20645   8.370   1.456   0.202
 3239SOL    HW120646   8.415   1.367   0.207
 3239SOL    HW220647   8.271   1.443   0.210
 3240SOL     OW20648   4.513   9.548   0.448
 3240SOL    HW120649   4.606   9.581   0.465
 3240SOL    HW220650   4.502   9.458   0.490
 3241SOL     OW20651   1.632   9.255   5.160
 3241SOL    HW120652   1.614   9.158   5.148
 3241SOL    HW220653   1.727   9.269   5.186
 3242SOL     OW20654   1.690   2.236   0.198
 3242SOL    HW120655   1.624   2.264   0.128
 3242SOL    HW220656   1.708   2.138   0.190
 3243SOL     OW20657   2.108   6.753   2.386
 3243SOL    HW120658   2.113   6.666   2.337
 3243SOL    HW220659   2.048   6.743   2.466
 3244SOL     OW20660   9.872   9.874   0.797
 3244SOL    HW120661   9.816   9.885   0.879
 3244SOL    HW220662   9.964   9.844   0.824
 3245SOL     OW20663   3.625   3.212   2.940
 3245SOL    HW120664   3.706   3.271   2.935
 3245SOL    HW220665   3.606   3.190   3.036
 3246SOL     OW20666   3.985   5.832   0.850
 3246SOL    HW120667   4.023   5.741   0.837
 3246SOL    HW220668   3.892   5.825   0.887
 3247SOL     OW20669   5.355   2.731   4.427
 3247SOL    HW120670   5.435   2.675   4.407
 3247SOL    HW220671   5.312   2.759   4.341
 3248SOL     OW20672   1.453   1.264   4.236
 3248SOL    HW120673   1.509   1.186   4.207
 3248SOL    HW220674   1.378   1.231   4.293
 3249SOL     OW20675   7.934   7.620   2.562
 3249SOL    HW120676   7.920   7.713   2.596
 3249SOL    HW220677   7.931   7.620   2.462
 3250SOL     OW20678   0.682   1.582   5.303
 3250SOL    HW120679   0.750   1.655   5.295
 3250SOL    HW220680   0.718   1.498   5.263
 3251SOL     OW20681   5.263   1.888   4.254
 3251SOL    HW120682   5.257   1.926   4.162
 3251SOL    HW220683   5.175   1.897   4.300
 3252SOL     OW20684   3.670   3.907   0.805
 3252SOL    HW120685   3.583   3.858   0.794
 3252SOL    HW220686   3.707   3.929   0.715
 3253SOL     OW20687   2.266   5.508   2.973
 3253SOL    HW120688   2.173   5.482   3.000
 3253SOL    HW220689   2.332   5.458   3.029
 3254SOL     OW20690   6.206   1.707   2.030
 3254SOL    HW120691   6.257   1.626   2.060
 3254SOL    HW220692   6.129   1.723   2.092
 3255SOL     OW20693   0.216   1.933   1.553
 3255SOL    HW120694   0.271   2.013   1.577
 3255SOL    HW220695   0.210   1.926   1.453
 3256SOL     OW20696   8.330   1.277   3.501
 3256SOL    HW120697   8.249   1.245   3.551
 3256SOL    HW220698   8.304   1.349   3.438
 3257SOL     OW20699   3.607   8.116   0.531
 3257SOL    HW120700   3.549   8.114   0.449
 3257SOL    HW220701   3.639   8.024   0.551
 3258SOL     OW20702   8.205   2.119   3.130
 3258SOL    HW120703   8.210   2.188   3.202
 3258SOL    HW220704   8.194   2.029   3.172
 3259SOL     OW20705   4.424   8.974   2.249
 3259SOL    HW120706   4.515   8.986   2.289
 3259SOL    HW220707   4.416   9.030   2.166
 3260SOL     OW20708   6.288   0.515   3.561
 3260SOL    HW120709   6.318   0.582   3.493
 3260SOL    HW220710   6.225   0.450   3.518
 3261SOL     OW20711   4.193   7.309   4.566
 3261SOL    HW120712   4.260   7.239   4.591
 3261SOL    HW220713   4.163   7.294   4.472
 3262SOL     OW20714   3.051   2.039   4.832
 3262SOL    HW120715   2.982   2.050   4.904
 3262SOL    HW220716   3.143   2.044   4.872
 3263SOL     OW20717   0.234   4.863   2.567
 3263SOL    HW120718   0.138   4.837   2.570
 3263SOL    HW220719   0.256   4.918   2.648
 3264SOL     OW20720   2.435   7.202   0.117
 3264SOL    HW120721   2.453   7.115   0.162
 3264SOL    HW220722   2.445   7.190   0.018
 3265SOL     OW20723   8.433   8.189   5.053
 3265SOL    HW120724   8.386   8.105   5.080
 3265SOL    HW220725   8.518   8.166   5.007
 3266SOL     OW20726   8.337   7.419   2.571
 3266SOL    HW120727   8.237   7.411   2.569
 3266SOL    HW220728   8.362   7.514   2.589
 3267SOL     OW20729   5.150   3.566   0.198
 3267SOL    HW120730   5.106   3.483   0.164
 3267SOL    HW220731   5.107   3.646   0.156
 3268SOL     OW20732   8.824   1.915   3.870
 3268SOL    HW120733   8.817   1.880   3.963
 3268SOL    HW220734   8.761   1.991   3.858
 3269SOL     OW20735   8.806   1.056   2.257
 3269SOL    HW120736   8.774   0.973   2.212
 3269SOL    HW220737   8.825   1.126   2.189
 3270SOL     OW20738   9.262   8.634   5.068
 3270SOL    HW120739   9.358   8.607   5.075
 3270SOL    HW220740   9.208   8.580   5.133
 3271SOL     OW20741   0.450   6.977   5.168
 3271SOL    HW120742   0.354   7.001   5.182
 3271SOL    HW220743   0.502   7.058   5.141
 3272SOL     OW20744   5.469   5.325   1.024
 3272SOL    HW120745   5.562   5.357   1.043
 3272SOL    HW220746   5.463   5.296   0.928
 3273SOL     OW20747   7.496   8.990   3.284
 3273SOL    HW120748   7.531   9.034   3.201
 3273SOL    HW220749   7.511   8.892   3.279
 3274SOL     OW20750   1.495   7.560   2.175
 3274SOL    HW120751   1.443   7.601   2.100
 3274SOL    HW220752   1.592   7.555   2.149
 3275SOL     OW20753   8.127   3.949   2.591
 3275SOL    HW120754   8.121   3.851   2.570
 3275SOL    HW220755   8.071   3.969   2.672
 3276SOL     OW20756   1.550   9.125   3.378
 3276SOL    HW120757   1.518   9.047   3.324
 3276SOL    HW220758   1.474   9.188   3.394
 3277SOL     OW20759   6.319   0.426   1.151
 3277SOL    HW120760   6.381   0.479   1.210
 3277SOL    HW220761   6.322   0.464   1.058
 3278SOL     OW20762   6.039   7.524   4.687
 3278SOL    HW120763   5.996   7.467   4.758
 3278SOL    HW220764   5.986   7.518   4.603
 3279SOL     OW20765   3.494   0.687   0.840
 3279SOL    HW120766   3.541   0.676   0.928
 3279SOL    HW220767   3.479   0.784   0.822
 3280SOL     OW20768   3.125   5.453   1.798
 3280SOL    HW120769   3.118   5.407   1.709
 3280SOL    HW220770   3.037   5.494   1.822
 3281SOL     OW20771   9.297   6.479   4.295
 3281SOL    HW120772   9.259   6.439   4.378
 3281SOL    HW220773   9.254   6.568   4.279
 3282SOL     OW20774   2.553   5.073   2.248
 3282SOL    HW120775   2.577   5.007   2.178
 3282SOL    HW220776   2.631   5.084   2.311
 3283SOL     OW20777   0.538   2.543   3.457
 3283SOL    HW120778   0.454   2.541   3.401
 3283SOL    HW220779   0.600   2.471   3.425
 3284SOL     OW20780   0.142   9.133   1.455
 3284SOL    HW120781   0.061   9.122   1.513
 3284SOL    HW220782   0.132   9.215   1.399
 3285SOL     OW20783   2.280   1.750   3.039
 3285SOL    HW120784   2.242   1.733   2.948
 3285SOL    HW220785   2.351   1.681   3.059
 3286SOL     OW20786   9.400   0.944   4.585
 3286SOL    HW120787   9.454   0.968   4.665
 3286SOL    HW220788   9.322   0.888   4.614
 3287SOL     OW20789   0.138   6.628   3.977
 3287SOL    HW120790   0.173   6.710   4.023
 3287SOL    HW220791   0.203   6.600   3.906
 3288SOL     OW20792   3.399   8.452   1.119
 3288SOL    HW120793   3.304   8.440   1.150
 3288SOL    HW220794   3.401   8.521   1.047
 3289SOL     OW20795   4.353   9.010   4.388
 3289SOL    HW120796   4.393   8.921   4.414
 3289SOL    HW220797   4.400   9.044   4.307
 3290SOL     OW20798   5.912   1.912   3.369
 3290SOL    HW120799   6.001   1.867   3.363
 3290SOL    HW220800   5.899   1.972   3.289
 3291SOL     OW20801   1.802   6.796   1.122
 3291SOL    HW120802   1.720   6.825   1.075
 3291SOL    HW220803   1.835   6.710   1.082
 3292SOL     OW20804   0.969   2.866   4.387
 3292SOL    HW120805   0.926   2.831   4.303
 3292SOL    HW220806   0.900   2.875   4.458
 3293SOL     OW20807   8.657   3.580   0.039
 3293SOL    HW120808   8.687   3.545   6.699
 3293SOL    HW220809   8.591   3.517   0.079
 3294SOL     OW20810   3.807   0.187   3.184
 3294SOL    HW120811   3.826   0.285   3.184
 3294SOL    HW220812   3.710   0.172   3.201
 3295SOL     OW20813   4.161   4.279   4.446
 3295SOL    HW120814   4.119   4.192   4.422
 3295SOL    HW220815   4.092   4.340   4.486
 3296SOL     OW20816   9.799   2.787   4.436
 3296SOL    HW120817   9.829   2.882   4.431
 3296SOL    HW220818   9.874   2.730   4.471
 3297SOL     OW20819   0.780   6.836   4.918
 3297SOL    HW120820   0.811   6.801   5.006
 3297SOL    HW220821   0.806   6.932   4.909
 3298SOL     OW20822   9.416   0.516   0.920
 3298SOL    HW120823   9.350   0.441   0.928
 3298SOL    HW220824   9.386   0.579   0.849
 3299SOL     OW20825   3.853   4.425   4.284
 3299SOL    HW120826   3.760   4.423   4.320
 3299SOL    HW220827   3.916   4.451   4.357
 3300SOL     OW20828   9.709   9.556   1.519
 3300SOL    HW120829   9.802   9.520   1.535
 3300SOL    HW220830   9.644   9.507   1.578
 3301SOL     OW20831   5.174   1.619   1.260
 3301SOL    HW120832   5.126   1.593   1.176
 3301SOL    HW220833   5.273   1.613   1.245
 3302SOL     OW20834   3.573   0.674   2.705
 3302SOL    HW120835   3.591   0.660   2.608
 3302SOL    HW220836   3.547   0.587   2.747
 3303SOL     OW20837   9.976   4.575   4.296
 3303SOL    HW120838   9.952   4.501   4.359
 3303SOL    HW220839   0.075   4.573   4.279
 3304SOL     OW20840   4.519   4.751   2.990
 3304SOL    HW120841   4.452   4.739   3.064
 3304SOL    HW220842   4.481   4.813   2.921
 3305SOL     OW20843   3.113   8.880   0.036
 3305SOL    HW120844   3.169   8.963   0.034
 3305SOL    HW220845   3.143   8.821   0.111
 3306SOL     OW20846   0.651   0.221   5.241
 3306SOL    HW120847   0.585   0.187   5.174
 3306SOL    HW220848   0.626   0.314   5.268
 3307SOL     OW20849   3.679   6.174   1.338
 3307SOL    HW120850   3.673   6.228   1.254
 3307SOL    HW220851   3.652   6.231   1.416
 3308SOL     OW20852   6.993   1.924   0.354
 3308SOL    HW120853   7.042   1.943   0.269
 3308SOL    HW220854   6.997   2.004   0.413
 3309SOL     OW20855   6.978   0.669   1.427
 3309SOL    HW120856   7.005   0.675   1.523
 3309SOL    HW220857   7.034   0.731   1.372
 3310SOL     OW20858   8.372   3.770   4.342
 3310SOL    HW120859   8.470   3.762   4.323
 3310SOL    HW220860   8.321   3.718   4.274
 3311SOL     OW20861   2.922   0.953   2.129
 3311SOL    HW120862   2.833   0.965   2.086
 3311SOL    HW220863   2.925   0.865   2.176
 3312SOL     OW20864   0.021   0.650   0.711
 3312SOL    HW120865   9.990   0.590   0.785
 3312SOL    HW220866   0.114   0.681   0.731
 3313SOL     OW20867   9.781   6.874   1.886
 3313SOL    HW120868   9.756   6.970   1.900
 3313SOL    HW220869   9.702   6.816   1.906
 3314SOL     OW20870   1.717   7.442   2.973
 3314SOL    HW120871   1.633   7.488   2.999
 3314SOL    HW220872   1.761   7.403   3.054
 3315SOL     OW20873   8.110   8.858   4.590
 3315SOL    HW120874   8.082   8.892   4.680
 3315SOL    HW220875   8.127   8.935   4.529
 3316SOL     OW20876   4.512   9.645   1.651
 3316SOL    HW120877   4.559   9.732   1.670
 3316SOL    HW220878   4.561   9.596   1.579
 3317SOL     OW20879   9.801   7.100   2.374
 3317SOL    HW120880   9.871   7.081   2.305
 3317SOL    HW220881   9.734   7.164   2.336
 3318SOL     OW20882   5.797   8.370   3.049
 3318SOL    HW120883   5.766   8.339   2.960
 3318SOL    HW220884   5.896   8.355   3.057
 3319SOL     OW20885   3.051   3.618   2.410
 3319SOL    HW120886   2.963   3.584   2.378
 3319SOL    HW220887   3.050   3.626   2.510
 3320SOL     OW20888   1.827   6.081   1.432
 3320SOL    HW120889   1.927   6.073   1.432
 3320SOL    HW220890   1.787   5.993   1.456
 3321SOL     OW20891   6.723   1.527   4.936
 3321SOL    HW120892   6.687   1.504   4.845
 3321SOL    HW220893   6.661   1.491   5.006
 3322SOL     OW20894   2.838   8.927   5.008
 3322SOL    HW120895   2.892   9.007   5.033
 3322SOL    HW220896   2.898   8.847   5.002
 3323SOL     OW20897   1.929   0.807   1.239
 3323SOL    HW120898   1.834   0.811   1.208
 3323SOL    HW220899   1.964   0.714   1.226
 3324SOL     OW20900   9.323   7.862   3.678
 3324SOL    HW120901   9.322   7.960   3.698
 3324SOL    HW220902   9.231   7.825   3.685
 3325SOL     OW20903   8.907   6.667   1.391
 3325SOL    HW120904   8.808   6.659   1.388
 3325SOL    HW220905   8.948   6.618   1.314
 3326SOL     OW20906   2.063   4.250   2.499
 3326SOL    HW120907   2.032   4.159   2.474
 3326SOL    HW220908   2.097   4.250   2.593
 3327SOL     OW20909   0.974   3.799   1.338
 3327SOL    HW120910   0.995   3.737   1.263
 3327SOL    HW220911   1.000   3.892   1.314
 3328SOL     OW20912   4.778   9.605   0.488
 3328SOL    HW120913   4.795   9.676   0.420
 3328SOL    HW220914   4.820   9.519   0.458
 3329SOL     OW20915   0.924   4.314   3.088
 3329SOL    HW120916   0.970   4.397   3.055
 3329SOL    HW220917   0.962   4.234   3.042
 3330SOL     OW20918   5.070   1.564   1.006
 3330SOL    HW120919   5.021   1.630   0.949
 3330SOL    HW220920   5.165   1.558   0.975
 3331SOL     OW20921   9.638   0.403   2.597
 3331SOL    HW120922   9.624   0.485   2.653
 3331SOL    HW220923   9.589   0.412   2.510
 3332SOL     OW20924   0.043   0.063   4.348
 3332SOL    HW120925   0.128   0.069   4.400
 3332SOL    HW220926   0.061   0.020   4.260
 3333SOL     OW20927   3.962   5.949   0.449
 3333SOL    HW120928   3.980   5.928   0.353
 3333SOL    HW220929   3.896   5.883   0.486
 3334SOL     OW20930   7.873   3.602   3.898
 3334SOL    HW120931   7.810   3.539   3.851
 3334SOL    HW220932   7.952   3.551   3.932
 3335SOL     OW20933   8.921   7.735   3.523
 3335SOL    HW120934   8.976   7.780   3.593
 3335SOL    HW220935   8.931   7.636   3.530
 3336SOL     OW20936   8.830   9.423   2.237
 3336SOL    HW120937   8.848   9.455   2.329
 3336SOL    HW220938   8.792   9.330   2.241
 3337SOL     OW20939   2.958   6.219   3.477
 3337SOL    HW120940   2.979   6.181   3.567
 3337SOL    HW220941   2.886   6.288   3.485
 3338SOL     OW20942   8.711   6.842   0.394
 3338SOL    HW120943   8.810   6.844   0.386
 3338SOL    HW220944   8.673   6.929   0.361
 3339SOL     OW20945   8.113   5.412   5.141
 3339SOL    HW120946   8.085   5.452   5.054
 3339SOL    HW220947   8.101   5.312   5.137
 3340SOL     OW20948   5.573   9.081   3.369
 3340SOL    HW120949   5.624   9.078   3.455
 3340SOL    HW220950   5.637   9.086   3.292
 3341SOL     OW20951   7.647   4.420   2.246
 3341SOL    HW120952   7.663   4.447   2.341
 3341SOL    HW220953   7.570   4.358   2.241
 3342SOL     OW20954   4.114   9.866   4.162
 3342SOL    HW120955   4.113   9.952   4.213
 3342SOL    HW220956   4.027   9.819   4.176
 3343SOL     OW20957   5.049   2.715   2.894
 3343SOL    HW120958   4.957   2.742   2.865
 3343SOL    HW220959   5.110   2.718   2.815
 3344SOL     OW20960   4.620   9.339   1.967
 3344SOL    HW120961   4.652   9.401   2.039
 3344SOL    HW220962   4.698   9.307   1.913
 3345SOL     OW20963   9.228   9.390   3.129
 3345SOL    HW120964   9.181   9.477   3.115
 3345SOL    HW220965   9.215   9.332   3.049
 3346SOL     OW20966   5.006   2.938   4.501
 3346SOL    HW120967   5.041   2.850   4.534
 3346SOL    HW220968   5.032   3.010   4.564
 3347SOL     OW20969   6.948   7.988   4.366
 3347SOL    HW120970   6.868   8.003   4.308
 3347SOL    HW220971   6.922   7.999   4.462
 3348SOL     OW20972   9.679   9.786   4.946
 3348SOL    HW120973   9.648   9.694   4.966
 3348SOL    HW220974   9.706   9.792   4.850
 3349SOL     OW20975   0.606   1.540   0.202
 3349SOL    HW120976   0.629   1.602   0.127
 3349SOL    HW220977   0.647   1.574   0.287
 3350SOL     OW20978   0.771   7.029   1.142
 3350SOL    HW120979   0.750   6.932   1.132
 3350SOL    HW220980   0.865   7.041   1.173
 3351SOL     OW20981   1.283   2.419   1.224
 3351SOL    HW120982   1.276   2.511   1.262
 3351SOL    HW220983   1.320   2.423   1.131
 3352SOL     OW20984   3.808   4.874   3.043
 3352SOL    HW120985   3.753   4.863   3.126
 3352SOL    HW220986   3.783   4.959   2.997
 3353SOL     OW20987   9.568   6.702   2.680
 3353SOL    HW120988   9.530   6.732   2.593
 3353SOL    HW220989   9.665   6.723   2.683
 3354SOL     OW20990   4.160   3.814   1.689
 3354SOL    HW120991   4.087   3.759   1.729
 3354SOL    HW220992   4.232   3.753   1.654
 3355SOL     OW20993   1.598   9.546   3.235
 3355SOL    HW120994   1.651   9.463   3.252
 3355SOL    HW220995   1.660   9.624   3.224
 3356SOL     OW20996   0.418   4.653   2.579
 3356SOL    HW120997   0.394   4.576   2.519
 3356SOL    HW220998   0.344   4.719   2.580
 3357SOL     OW20999   4.094   1.443   1.479
 3357SOL    HW121000   4.092   1.540   1.457
 3357SOL    HW221001   4.166   1.425   1.546
 3358SOL     OW21002   0.952   6.605   0.811
 3358SOL    HW121003   0.866   6.648   0.783
 3358SOL    HW221004   0.978   6.638   0.902
 3359SOL     OW21005   2.061   0.380   0.862
 3359SOL    HW121006   2.124   0.442   0.908
 3359SOL    HW221007   1.985   0.433   0.822
 3360SOL     OW21008   4.328   7.820   3.249
 3360SOL    HW121009   4.310   7.914   3.276
 3360SOL    HW221010   4.290   7.757   3.317
 3361SOL     OW21011   3.822   4.912   2.617
 3361SOL    HW121012   3.881   4.832   2.627
 3361SOL    HW221013   3.742   4.888   2.561
 3362SOL     OW21014   8.967   6.384   5.227
 3362SOL    HW121015   8.996   6.424   5.140
 3362SOL    HW221016   9.017   6.298   5.242
 3363SOL     OW21017   1.247   2.201   1.869
 3363SOL    HW121018   1.166   2.252   1.899
 3363SOL    HW221019   1.243   2.108   1.906
 3364SOL     OW21020   8.411   0.370   4.902
 3364SOL    HW121021   8.338   0.364   4.835
 3364SOL    HW221022   8.442   0.278   4.925
 3365SOL     OW21023   0.053   0.972   3.567
 3365SOL    HW121024   9.979   0.962   3.634
 3365SOL    HW221025   0.019   0.947   3.476
 3366SOL     OW21026   9.489   2.206   4.940
 3366SOL    HW121027   9.393   2.226   4.956
 3366SOL    HW221028   9.499   2.149   4.859
 3367SOL     OW21029   0.391   1.669   2.590
 3367SOL    HW121030   0.490   1.666   2.601
 3367SOL    HW221031   0.368   1.710   2.502
 3368SOL     OW21032   0.504   6.842   4.939
 3368SOL    HW121033   0.487   6.889   5.026
 3368SOL    HW221034   0.603   6.837   4.924
 3369SOL     OW21035   2.911   0.792   3.011
 3369SOL    HW121036   2.858   0.823   3.090
 3369SOL    HW221037   2.987   0.735   3.042
 3370SOL     OW21038   7.286   8.849   4.311
 3370SOL    HW121039   7.373   8.899   4.315
 3370SOL    HW221040   7.270   8.817   4.218
 3371SOL     OW21041   0.840   9.339   0.132
 3371SOL    HW121042   0.795   9.379   0.052
 3371SOL    HW221043   0.891   9.258   0.104
 3372SOL     OW21044   9.673   2.824   3.065
 3372SOL    HW121045   9.599   2.890   3.058
 3372SOL    HW221046   9.651   2.756   3.134
 3373SOL     OW21047   3.716   4.017   2.946
 3373SOL    HW121048   3.664   4.086   2.895
 3373SOL    HW221049   3.664   3.932   2.950
 3374SOL     OW21050   4.792   4.185   2.907
 3374SOL    HW121051   4.821   4.257   2.970
 3374SOL    HW221052   4.695   4.164   2.922
 3375SOL     OW21053   0.495   2.302   3.215
 3375SOL    HW121054   0.581   2.336   3.252
 3375SOL    HW221055   0.456   2.234   3.277
 3376SOL     OW21056   5.891   7.485   4.196
 3376SOL    HW121057   5.965   7.421   4.218
 3376SOL    HW221058   5.920   7.546   4.123
 3377SOL     OW21059   3.928   8.260   2.137
 3377SOL    HW121060   3.941   8.353   2.101
 3377SOL    HW221061   3.943   8.195   2.063
 3378SOL     OW21062   8.678   9.619   1.294
 3378SOL    HW121063   8.668   9.651   1.388
 3378SOL    HW221064   8.665   9.696   1.231
 3379SOL     OW21065   3.317   5.377   0.952
 3379SOL    HW121066   3.297   5.435   1.031
 3379SOL    HW221067   3.386   5.309   0.977
 3380SOL     OW21068   8.238   0.306   2.899
 3380SOL    HW121069   8.172   0.311   2.824
 3380SOL    HW221070   8.193   0.335   2.984
 3381SOL     OW21071   8.990   3.459   1.087
 3381SOL    HW121072   9.043   3.495   1.011
 3381SOL    HW221073   9.032   3.375   1.121
 3382SOL     OW21074   3.653   6.914   4.772
 3382SOL    HW121075   3.647   6.976   4.694
 3382SOL    HW221076   3.694   6.828   4.743
 3383SOL     OW21077   2.318   6.297   1.587
 3383SOL    HW121078   2.262   6.229   1.634
 3383SOL    HW221079   2.408   6.303   1.631
 3384SOL     OW21080   8.419   8.416   4.108
 3384SOL    HW121081   8.341   8.355   4.123
 3384SOL    HW221082   8.397   8.508   4.142
 3385SOL     OW21083   1.396   9.459   1.838
 3385SOL    HW121084   1.427   9.375   1.883
 3385SOL    HW221085   1.305   9.483   1.871
 3386SOL     OW21086   2.571   8.210   4.085
 3386SOL    HW121087   2.604   8.261   4.164
 3386SOL    HW221088   2.509   8.269   4.032
 3387SOL     OW21089   2.664   0.985   2.041
 3387SOL    HW121090   2.622   0.934   2.117
 3387SOL    HW221091   2.604   0.981   1.961
 3388SOL     OW21092   7.759   2.616   3.169
 3388SOL    HW121093   7.826   2.634   3.241
 3388SOL    HW221094   7.757   2.518   3.150
 3389SOL     OW21095   9.612   4.697   4.565
 3389SOL    HW121096   9.538   4.682   4.499
 3389SOL    HW221097   9.573   4.721   4.654
 3390SOL     OW21098   4.879   0.135   2.980
 3390SOL    HW121099   4.969   0.128   2.936
 3390SOL    HW221100   4.814   0.078   2.931
 3391SOL     OW21101   4.499   1.093   0.286
 3391SOL    HW121102   4.464   1.001   0.265
 3391SOL    HW221103   4.589   1.085   0.329
 3392SOL     OW21104   9.209   0.748   4.625
 3392SOL    HW121105   9.272   0.707   4.691
 3392SOL    HW221106   9.199   0.687   4.547
 3393SOL     OW21107   7.861   3.401   3.260
 3393SOL    HW121108   7.884   3.308   3.230
 3393SOL    HW221109   7.944   3.456   3.264
 3394SOL     OW21110   0.014   3.888   3.692
 3394SOL    HW121111   9.924   3.889   3.650
 3394SOL    HW221112   0.042   3.981   3.715
 3395SOL     OW21113   1.696   3.192   1.042
 3395SOL    HW121114   1.761   3.150   1.105
 3395SOL    HW221115   1.611   3.214   1.092
 3396SOL     OW21116   3.550   2.508   3.940
 3396SOL    HW121117   3.462   2.465   3.921
 3396SOL    HW221118   3.579   2.561   3.860
 3397SOL     OW21119   3.565   6.706   3.001
 3397SOL    HW121120   3.530   6.770   2.932
 3397SOL    HW221121   3.496   6.693   3.072
 3398SOL     OW21122   1.368   3.837   1.159
 3398SOL    HW121123   1.273   3.864   1.173
 3398SOL    HW221124   1.378   3.793   1.070
 3399SOL     OW21125   4.212   0.070   4.569
 3399SOL    HW121126   4.310   0.053   4.577
 3399SOL    HW221127   4.162   9.984   4.574
 3400SOL     OW21128   4.185   3.488   2.376
 3400SOL    HW121129   4.261   3.510   2.438
 3400SOL    HW221130   4.211   3.512   2.282
 3401SOL     OW21131   2.718   9.448   1.254
 3401SOL    HW121132   2.624   9.482   1.262
 3401SOL    HW221133   2.772   9.483   1.330
 3402SOL     OW21134   8.943   0.061   3.158
 3402SOL    HW121135   8.947   0.044   3.060
 3402SOL    HW221136   8.883   9.994   3.201
 3403SOL     OW21137   7.560   2.341   4.636
 3403SOL    HW121138   7.505   2.396   4.573
 3403SOL    HW221139   7.649   2.321   4.594
 3404SOL     OW21140   6.087   0.929   4.990
 3404SOL    HW121141   6.047   1.016   5.018
 3404SOL    HW221142   6.037   0.893   4.911
 3405SOL     OW21143   9.756   2.150   4.616
 3405SOL    HW121144   9.658   2.135   4.623
 3405SOL    HW221145   9.778   2.244   4.641
 3406SOL     OW21146   9.545   3.247   2.920
 3406SOL    HW121147   9.644   3.259   2.918
 3406SOL    HW221148   9.504   3.299   2.844
 3407SOL     OW21149   3.992   1.307   4.611
 3407SOL    HW121150   3.995   1.214   4.648
 3407SOL    HW221151   3.897   1.336   4.602
 3408SOL     OW21152   0.939   5.291   0.578
 3408SOL    HW121153   0.996   5.223   0.624
 3408SOL    HW221154   0.950   5.379   0.623
 3409SOL     OW21155   4.349   4.688   4.438
 3409SOL    HW121156   4.349   4.746   4.520
 3409SOL    HW221157   4.403   4.606   4.455
 3410SOL     OW21158   3.899   5.254   4.302
 3410SOL    HW121159   3.812   5.218   4.335
 3410SOL    HW221160   3.922   5.212   4.214
 3411SOL     OW21161   0.008   8.780   2.664
 3411SOL    HW121162   9.970   8.871   2.647
 3411SOL    HW221163   0.004   8.760   2.762
 3412SOL     OW21164   3.478   4.926   2.928
 3412SOL    HW121165   3.505   4.864   2.854
 3412SOL    HW221166   3.548   4.997   2.939
 3413SOL     OW21167   1.358   1.712   4.443
 3413SOL    HW121168   1.381   1.751   4.532
 3413SOL    HW221169   1.277   1.654   4.453
 3414SOL     OW21170   6.598   1.409   3.153
 3414SOL    HW121171   6.658   1.467   3.207
 3414SOL    HW221172   6.588   1.447   3.061
 3415SOL     OW21173   7.373   3.020   0.641
 3415SOL    HW121174   7.417   3.103   0.608
 3415SOL    HW221175   7.364   3.024   0.740
 3416SOL     OW21176   6.543   9.928   1.632
 3416SOL    HW121177   6.480   9.907   1.707
 3416SOL    HW221178   6.491   9.959   1.553
 3417SOL     OW21179   0.127   6.103   1.633
 3417SOL    HW121180   0.043   6.054   1.611
 3417SOL    HW221181   0.133   6.185   1.577
 3418SOL     OW21182   3.138   1.848   0.812
 3418SOL    HW121183   3.236   1.829   0.821
 3418SOL    HW221184   3.125   1.942   0.782
 3419SOL     OW21185   9.638   6.598   3.511
 3419SOL    HW121186   9.663   6.502   3.520
 3419SOL    HW221187   9.545   6.612   3.546
 3420SOL     OW21188   8.740   9.172   2.278
 3420SOL    HW121189   8.667   9.112   2.308
 3420SOL    HW221190   8.826   9.146   2.323
 3421SOL     OW21191   4.898   9.872   3.971
 3421SOL    HW121192   4.953   9.877   3.888
 3421SOL    HW221193   4.958   9.873   4.051
 3422SOL     OW21194   8.365   5.455   5.246
 3422SOL    HW121195   8.274   5.427   5.216
 3422SOL    HW221196   8.356   5.527   5.316
 3423SOL     OW21197   6.076   0.761   2.029
 3423SOL    HW121198   6.161   0.732   2.072
 3423SOL    HW221199   5.999   0.720   2.078
 3424SOL     OW21200   8.626   4.767   3.971
 3424SOL    HW121201   8.607   4.721   4.058
 3424SOL    HW221202   8.617   4.702   3.896
 3425SOL     OW21203   5.069   4.274   4.017
 3425SOL    HW121204   5.090   4.262   3.920
 3425SOL    HW221205   5.000   4.207   4.045
 3426SOL     OW21206   9.907   2.794   5.165
 3426SOL    HW121207   9.814   2.821   5.188
 3426SOL    HW221208   9.959   2.875   5.138
 3427SOL     OW21209   4.756   4.548   2.210
 3427SOL    HW121210   4.757   4.577   2.305
 3427SOL    HW221211   4.732   4.626   2.152
 3428SOL     OW21212   6.526   0.267   4.808
 3428SOL    HW121213   6.476   0.187   4.841
 3428SOL    HW221214   6.485   0.300   4.723
 3429SOL     OW21215   0.444   1.062   4.291
 3429SOL    HW121216   0.382   1.016   4.227
 3429SOL    HW221217   0.392   1.128   4.345
 3430SOL     OW21218   7.151   1.228   5.058
 3430SOL    HW121219   7.059   1.266   5.044
 3430SOL    HW221220   7.213   1.301   5.087
 3431SOL     OW21221   8.520   7.677   4.842
 3431SOL    HW121222   8.557   7.591   4.877
 3431SOL    HW221223   8.431   7.695   4.884
 3432SOL     OW21224   9.437   5.618   3.403
 3432SOL    HW121225   9.352   5.593   3.450
 3432SOL    HW221226   9.442   5.569   3.316
 3433SOL     OW21227   0.495   8.509   4.268
 3433SOL    HW121228   0.559   8.554   4.206
 3433SOL    HW221229   0.459   8.426   4.225
 3434SOL     OW21230   1.027   5.935   0.562
 3434SOL    HW121231   1.053   5.862   0.626
 3434SOL    HW221232   1.067   5.917   0.472
 3435SOL     OW21233   6.404   0.448   4.260
 3435SOL    HW121234   6.483   0.396   4.226
 3435SOL    HW221235   6.427   0.493   4.346
 3436SOL     OW21236   2.502   0.662   0.674
 3436SOL    HW121237   2.405   0.641   0.674
 3436SOL    HW221238   2.555   0.577   0.682
 3437SOL     OW21239   1.700   7.039   2.187
 3437SOL    HW121240   1.790   7.007   2.156
 3437SOL    HW221241   1.659   6.970   2.247
 3438SOL     OW21242   8.837   6.425   3.356
 3438SOL    HW121243   8.863   6.521   3.368
 3438SOL    HW221244   8.789   6.393   3.437
 3439SOL     OW21245   3.538   3.023   4.633
 3439SOL    HW121246   3.597   3.098   4.605
 3439SOL    HW221247   3.458   3.019   4.573
 3440SOL     OW21248   4.936   9.387   2.805
 3440SOL    HW121249   4.970   9.311   2.861
 3440SOL    HW221250   4.891   9.454   2.864
 3441SOL     OW21251   4.930   2.012   0.845
 3441SOL    HW121252   4.918   1.985   0.940
 3441SOL    HW221253   4.933   2.111   0.838
 3442SOL     OW21254   0.446   7.470   4.158
 3442SOL    HW121255   0.518   7.530   4.192
 3442SOL    HW221256   0.358   7.498   4.196
 3443SOL     OW21257   8.971   2.879   1.881
 3443SOL    HW121258   8.922   2.963   1.903
 3443SOL    HW221259   8.968   2.817   1.959
 3444SOL     OW21260   6.526   7.541   5.163
 3444SOL    HW121261   6.626   7.534   5.175
 3444SOL    HW221262   6.488   7.449   5.151
 3445SOL     OW21263   7.867   5.306   4.917
 3445SOL    HW121264   7.868   5.239   4.843
 3445SOL    HW221265   7.931   5.380   4.896
 3446SOL     OW21266   4.867   8.319   3.125
 3446SOL    HW121267   4.780   8.269   3.119
 3446SOL    HW221268   4.917   8.290   3.206
 3447SOL     OW21269   2.729   4.159   2.440
 3447SOL    HW121270   2.714   4.071   2.484
 3447SOL    HW221271   2.803   4.151   2.373
 3448SOL     OW21272   1.077   8.314   2.661
 3448SOL    HW121273   1.157   8.371   2.681
 3448SOL    HW221274   1.052   8.262   2.742
 3449SOL     OW21275   1.482   6.777   2.748
 3449SOL    HW121276   1.390   6.759   2.714
 3449SOL    HW221277   1.480   6.790   2.847
 3450SOL     OW21278   2.289   1.114   2.224
 3450SOL    HW121279   2.321   1.168   2.146
 3450SOL    HW221280   2.325   1.021   2.216
 3451SOL     OW21281   0.347   6.656   2.307
 3451SOL    HW121282   0.411   6.714   2.258
 3451SOL    HW221283   0.299   6.710   2.376
 3452SOL     OW21284   3.226   6.504   3.606
 3452SOL    HW121285   3.127   6.488   3.612
 3452SOL    HW221286   3.247   6.594   3.646
 3453SOL     OW21287   4.346   4.016   0.485
 3453SOL    HW121288   4.438   3.981   0.505
 3453SOL    HW221289   4.280   3.941   0.492
 3454SOL     OW21290   5.998   4.729   0.097
 3454SOL    HW121291   5.991   4.814   0.150
 3454SOL    HW221292   5.914   4.676   0.109
 3455SOL     OW21293   1.413   7.873   0.838
 3455SOL    HW121294   1.490   7.862   0.901
 3455SOL    HW221295   1.330   7.834   0.879
 3456SOL     OW21296   7.018   3.276   0.141
 3456SOL    HW121297   7.021   3.243   0.235
 3456SOL    HW221298   6.923   3.284   0.111
 3457SOL     OW21299   5.479   9.099   4.573
 3457SOL    HW121300   5.476   9.166   4.647
 3457SOL    HW221301   5.571   9.096   4.534
 3458SOL     OW21302   5.312   9.318   4.269
 3458SOL    HW121303   5.262   9.311   4.355
 3458SOL    HW221304   5.251   9.299   4.193
 3459SOL     OW21305   4.586   0.227   3.766
 3459SOL    HW121306   4.555   0.314   3.728
 3459SOL    HW221307   4.543   0.152   3.716
 3460SOL     OW21308   5.202   8.565   0.227
 3460SOL    HW121309   5.117   8.524   0.197
 3460SOL    HW221310   5.189   8.608   0.317
 3461SOL     OW21311   0.804   0.718   3.349
 3461SOL    HW121312   0.767   0.774   3.423
 3461SOL    HW221313   0.772   0.754   3.261
 3462SOL     OW21314   0.896   2.086   0.307
 3462SOL    HW121315   0.860   2.112   0.218
 3462SOL    HW221316   0.957   2.008   0.297
 3463SOL     OW21317   6.251   8.007   3.801
 3463SOL    HW121318   6.227   7.910   3.801
 3463SOL    HW221319   6.312   8.026   3.878
 3464SOL     OW21320   2.580   5.584   5.149
 3464SOL    HW121321   2.660   5.635   5.117
 3464SOL    HW221322   2.499   5.642   5.147
 3465SOL     OW21323   4.621   3.492   0.053
 3465SOL    HW121324   4.580   3.521   6.715
 3465SOL    HW221325   4.550   3.488   0.124
 3466SOL     OW21326   3.425   8.174   1.069
 3466SOL    HW121327   3.418   8.273   1.081
 3466SOL    HW221328   3.340   8.131   1.099
 3467SOL     OW21329   7.455   7.088   4.576
 3467SOL    HW121330   7.505   7.044   4.651
 3467SOL    HW221331   7.500   7.066   4.490
 3468SOL     OW21332   8.500   0.363   4.081
 3468SOL    HW121333   8.445   0.389   4.002
 3468SOL    HW221334   8.586   0.413   4.080
 3469SOL     OW21335   2.904   0.989   4.505
 3469SOL    HW121336   2.838   0.915   4.491
 3469SOL    HW221337   2.983   0.975   4.444
 3470SOL     OW21338   2.434   5.510   0.240
 3470SOL    HW121339   2.380   5.593   0.255
 3470SOL    HW221340   2.374   5.430   0.244
 3471SOL     OW21341   8.107   3.729   5.147
 3471SOL    HW121342   8.047   3.694   5.219
 3471SOL    HW221343   8.065   3.712   5.058
 3472SOL     OW21344   1.186   7.389   4.917
 3472SOL    HW121345   1.236   7.475   4.907
 3472SOL    HW221346   1.249   7.312   4.910
 3473SOL     OW21347   3.487   7.350   4.775
 3473SOL    HW121348   3.469   7.271   4.834
 3473SOL    HW221349   3.514   7.428   4.831
 3474SOL     OW21350   2.632   3.117   0.250
 3474SOL    HW121351   2.622   3.166   0.337
 3474SOL    HW221352   2.728   3.092   0.237
 3475SOL     OW21353   0.056   3.135   1.946
 3475SOL    HW121354   0.021   3.048   1.979
 3475SOL    HW221355   0.149   3.149   1.979
 3476SOL     OW21356   4.938   5.793   1.673
 3476SOL    HW121357   4.957   5.790   1.575
 3476SOL    HW221358   4.975   5.711   1.716
 3477SOL     OW21359   4.473   6.710   2.618
 3477SOL    HW121360   4.571   6.691   2.612
 3477SOL    HW221361   4.456   6.782   2.685
 3478SOL     OW21362   5.732   9.880   3.488
 3478SOL    HW121363   5.795   9.938   3.436
 3478SOL    HW221364   5.702   9.928   3.570
 3479SOL     OW21365   1.138   8.098   3.888
 3479SOL    HW121366   1.126   8.005   3.852
 3479SOL    HW221367   1.131   8.164   3.813
 3480SOL     OW21368   5.023   0.343   2.668
 3480SOL    HW121369   4.942   0.395   2.696
 3480SOL    HW221370   5.104   0.400   2.678
 3481SOL     OW21371   4.920   6.410   2.298
 3481SOL    HW121372   5.012   6.371   2.309
 3481SOL    HW221373   4.899   6.417   2.201
 3482SOL     OW21374   2.660   1.644   2.041
 3482SOL    HW121375   2.619   1.733   2.058
 3482SOL    HW221376   2.642   1.617   1.946
 3483SOL     OW21377   8.387   3.481   1.257
 3483SOL    HW121378   8.318   3.409   1.249
 3483SOL    HW221379   8.343   3.570   1.252
 3484SOL     OW21380   5.378   1.387   5.149
 3484SOL    HW121381   5.379   1.482   5.181
 3484SOL    HW221382   5.286   1.350   5.158
 3485SOL     OW21383   0.910   0.476   3.401
 3485SOL    HW121384   0.866   0.563   3.382
 3485SOL    HW221385   0.995   0.492   3.452
 3486SOL     OW21386   0.453   6.516   5.209
 3486SOL    HW121387   0.388   6.457   5.257
 3486SOL    HW221388   0.539   6.467   5.197
 3487SOL     OW21389   9.119   6.199   0.510
 3487SOL    HW121390   9.096   6.166   0.418
 3487SOL    HW221391   9.197   6.147   0.546
 3488SOL     OW21392   2.253   9.950   4.874
 3488SOL    HW121393   2.276   9.860   4.837
 3488SOL    HW221394   2.337   0.002   4.889
 3489SOL     OW21395   8.588   0.911   0.113
 3489SOL    HW121396   8.688   0.917   0.110
 3489SOL    HW221397   8.561   0.816   0.132
 3490SOL     OW21398   3.991   5.378   2.573
 3490SOL    HW121399   4.014   5.288   2.611
 3490SOL    HW221400   4.066   5.442   2.589
 3491SOL     OW21401   5.817   9.740   3.955
 3491SOL    HW121402   5.835   9.656   4.006
 3491SOL    HW221403   5.824   9.722   3.857
 3492SOL     OW21404   2.196   5.090   1.167
 3492SOL    HW121405   2.156   5.144   1.241
 3492SOL    HW221406   2.138   5.099   1.085
 3493SOL     OW21407   9.489   4.481   3.335
 3493SOL    HW121408   9.432   4.405   3.365
 3493SOL    HW221409   9.526   4.462   3.244
 3494SOL     OW21410   8.909   6.126   0.988
 3494SOL    HW121411   8.969   6.150   0.912
 3494SOL    HW221412   8.877   6.209   1.034
 3495SOL     OW21413   7.394   2.115   3.376
 3495SOL    HW121414   7.457   2.051   3.332
 3495SOL    HW221415   7.301   2.096   3.345
 3496SOL     OW21416   4.693   9.709   3.871
 3496SOL    HW121417   4.769   9.756   3.916
 3496SOL    HW221418   4.710   9.705   3.772
 3497SOL     OW21419   2.603   9.797   3.206
 3497SOL    HW121420   2.592   9.708   3.163
 3497SOL    HW221421   2.700   9.824   3.203
 3498SOL     OW21422   9.636   7.285   2.252
 3498SOL    HW121423   9.585   7.367   2.280
 3498SOL    HW221424   9.578   7.228   2.194
 3499SOL     OW21425   8.252   4.553   0.559
 3499SOL    HW121426   8.181   4.561   0.489
 3499SOL    HW221427   8.276   4.456   0.570
 3500SOL     OW21428   3.705   0.686   2.042
 3500SOL    HW121429   3.743   0.632   1.967
 3500SOL    HW221430   3.607   0.668   2.050
 3501SOL     OW21431   3.485   9.680   1.454
 3501SOL    HW121432   3.569   9.702   1.405
 3501SOL    HW221433   3.408   9.680   1.389
 3502SOL     OW21434   3.255   2.451   1.614
 3502SOL    HW121435   3.341   2.454   1.665
 3502SOL    HW221436   3.211   2.541   1.619
 3503SOL     OW21437   8.251   1.549   2.554
 3503SOL    HW121438   8.326   1.514   2.610
 3503SOL    HW221439   8.173   1.573   2.612
 3504SOL     OW21440   9.792   5.657   5.055
 3504SOL    HW121441   9.795   5.709   4.970
 3504SOL    HW221442   9.736   5.575   5.042
 3505SOL     OW21443   3.316   5.045   2.631
 3505SOL    HW121444   3.410   5.068   2.656
 3505SOL    HW221445   3.286   4.965   2.682
 3506SOL     OW21446   2.732   5.013   1.097
 3506SOL    HW121447   2.719   5.078   1.173
 3506SOL    HW221448   2.703   4.922   1.126
 3507SOL     OW21449   0.869   0.454   4.752
 3507SOL    HW121450   0.847   0.530   4.813
 3507SOL    HW221451   0.961   0.420   4.773
 3508SOL     OW21452   3.596   7.104   4.574
 3508SOL    HW121453   3.652   7.133   4.496
 3508SOL    HW221454   3.557   7.185   4.619
 3509SOL     OW21455   3.754   6.275   4.733
 3509SOL    HW121456   3.697   6.356   4.718
 3509SOL    HW221457   3.803   6.252   4.648
 3510SOL     OW21458   6.086   0.899   0.421
 3510SOL    HW121459   5.991   0.875   0.438
 3510SOL    HW221460   6.105   0.990   0.460
 3511SOL     OW21461   6.606   9.316   4.987
 3511SOL    HW121462   6.674   9.389   4.981
 3511SOL    HW221463   6.644   9.232   4.948
 3512SOL     OW21464   0.079   5.765   3.550
 3512SOL    HW121465   0.043   5.714   3.628
 3512SOL    HW221466   0.004   5.784   3.485
 3513SOL     OW21467   0.169   8.197   3.667
 3513SOL    HW121468   0.251   8.150   3.632
 3513SOL    HW221469   0.195   8.283   3.710
 3514SOL     OW21470   6.233   9.509   2.683
 3514SOL    HW121471   6.264   9.547   2.770
 3514SOL    HW221472   6.143   9.469   2.695
 3515SOL     OW21473   9.780   6.969   1.430
 3515SOL    HW121474   9.801   7.066   1.416
 3515SOL    HW221475   9.783   6.948   1.528
 3516SOL     OW21476   2.542   7.270   1.595
 3516SOL    HW121477   2.513   7.182   1.632
 3516SOL    HW221478   2.608   7.255   1.521
 3517SOL     OW21479   2.793   0.395   0.451
 3517SOL    HW121480   2.789   0.343   0.365
 3517SOL    HW221481   2.812   0.491   0.431
 3518SOL     OW21482   1.017   1.030   1.030
 3518SOL    HW121483   1.091   0.987   0.979
 3518SOL    HW221484   0.989   0.970   1.105
 3519SOL     OW21485   3.141   2.224   1.947
 3519SOL    HW121486   3.148   2.298   1.880
 3519SOL    HW221487   3.045   2.212   1.974
 3520SOL     OW21488   2.287   1.115   4.527
 3520SOL    HW121489   2.304   1.034   4.471
 3520SOL    HW221490   2.302   1.092   4.623
 3521SOL     OW21491   1.802   1.219   0.549
 3521SOL    HW121492   1.717   1.229   0.497
 3521SOL    HW221493   1.815   1.299   0.607
 3522SOL     OW21494   3.428   3.003   0.166
 3522SOL    HW121495   3.360   2.980   0.097
 3522SOL    HW221496   3.452   3.100   0.159
 3523SOL     OW21497   4.310   5.343   2.632
 3523SOL    HW121498   4.285   5.440   2.632
 3523SOL    HW221499   4.301   5.306   2.539
 3524SOL     OW21500   3.521   2.743   1.896
 3524SOL    HW121501   3.516   2.649   1.863
 3524SOL    HW221502   3.614   2.777   1.888
 3525SOL     OW21503   0.979   0.358   3.161
 3525SOL    HW121504   0.937   0.405   3.239
 3525SOL    HW221505   0.938   0.268   3.150
 3526SOL     OW21506   0.031   7.355   0.938
 3526SOL    HW121507   0.051   7.388   1.030
 3526SOL    HW221508   0.008   7.258   0.942
 3527SOL     OW21509   3.177   6.589   4.637
 3527SOL    HW121510   3.194   6.537   4.553
 3527SOL    HW221511   3.259   6.639   4.663
 3528SOL     OW21512   8.082   2.135   2.885
 3528SOL    HW121513   8.078   2.044   2.843
 3528SOL    HW221514   8.133   2.131   2.971
 3529SOL     OW21515   5.784   4.384   0.588
 3529SOL    HW121516   5.851   4.311   0.570
 3529SOL    HW221517   5.737   4.365   0.675
 3530SOL     OW21518   8.614   7.830   2.902
 3530SOL    HW121519   8.639   7.883   2.821
 3530SOL    HW221520   8.581   7.892   2.973
 3531SOL     OW21521   4.670   0.821   4.471
 3531SOL    HW121522   4.759   0.777   4.456
 3531SOL    HW221523   4.608   0.796   4.396
 3532SOL     OW21524   3.343   7.611   0.096
 3532SOL    HW121525   3.264   7.556   0.069
 3532SOL    HW221526   3.366   7.592   0.191
 3533SOL     OW21527   8.316   0.646   2.974
 3533SOL    HW121528   8.366   0.680   2.894
 3533SOL    HW221529   8.220   0.632   2.950
 3534SOL     OW21530   8.436   7.566   3.614
 3534SOL    HW121531   8.363   7.633   3.601
 3534SOL    HW221532   8.399   7.474   3.603
 3535SOL     OW21533   3.535   1.270   3.278
 3535SOL    HW121534   3.559   1.187   3.328
 3535SOL    HW221535   3.618   1.310   3.238
 3536SOL     OW21536   9.036   4.656   3.924
 3536SOL    HW121537   9.012   4.723   3.994
 3536SOL    HW221538   9.126   4.617   3.944
 3537SOL     OW21539   0.333   2.961   0.615
 3537SOL    HW121540   0.382   3.034   0.662
 3537SOL    HW221541   0.251   2.937   0.667
 3538SOL     OW21542   0.269   6.300   1.800
 3538SOL    HW121543   0.341   6.267   1.861
 3538SOL    HW221544   0.217   6.223   1.765
 3539SOL     OW21545   0.956   2.366   0.069
 3539SOL    HW121546   0.904   2.280   0.063
 3539SOL    HW221547   0.941   2.420   6.734
 3540SOL     OW21548   9.422   5.681   2.338
 3540SOL    HW121549   9.411   5.725   2.427
 3540SOL    HW221550   9.482   5.602   2.348
 3541SOL     OW21551   8.573   6.429   0.983
 3541SOL    HW121552   8.562   6.484   0.900
 3541SOL    HW221553   8.554   6.333   0.961
 3542SOL     OW21554   8.994   5.132   2.521
 3542SOL    HW121555   8.905   5.088   2.513
 3542SOL    HW221556   8.989   5.208   2.586
 3543SOL     OW21557   7.232   1.948   0.661
 3543SOL    HW121558   7.258   1.993   0.746
 3543SOL    HW221559   7.165   2.005   0.613
 3544SOL     OW21560   2.187   1.074   2.698
 3544SOL    HW121561   2.204   1.122   2.612
 3544SOL    HW221562   2.152   1.139   2.766
 3545SOL     OW21563   4.301   8.021   1.985
 3545SOL    HW121564   4.296   7.934   2.034
 3545SOL    HW221565   4.281   8.096   2.048
 3546SOL     OW21566   7.674   2.099   0.524
 3546SOL    HW121567   7.729   2.182   0.524
 3546SOL    HW221568   7.645   2.078   0.430
 3547SOL     OW21569   2.877   8.695   0.341
 3547SOL    HW121570   2.877   8.595   0.339
 3547SOL    HW221571   2.874   8.730   0.247
 3548SOL     OW21572   8.985   7.610   3.921
 3548SOL    HW121573   9.048   7.549   3.872
 3548SOL    HW221574   8.908   7.556   3.956
 3549SOL     OW21575   9.289   6.330   2.783
 3549SOL    HW121576   9.381   6.361   2.757
 3549SOL    HW221577   9.294   6.279   2.868
 3550SOL     OW21578   1.640   0.718   0.153
 3550SOL    HW121579   1.729   0.697   0.113
 3550SOL    HW221580   1.635   0.815   0.173
 3551SOL     OW21581   9.885   0.706   4.258
 3551SOL    HW121582   9.867   0.635   4.190
 3551SOL    HW221583   9.807   0.768   4.262
 3552SOL     OW21584   0.930   8.511   1.198
 3552SOL    HW121585   0.863   8.452   1.154
 3552SOL    HW221586   0.978   8.460   1.269
 3553SOL     OW21587   1.009   4.280   1.163
 3553SOL    HW121588   0.924   4.319   1.198
 3553SOL    HW221589   1.077   4.352   1.151
 3554SOL     OW21590   8.922   2.369   1.654
 3554SOL    HW121591   9.014   2.335   1.673
 3554SOL    HW221592   8.873   2.302   1.598
 3555SOL     OW21593   3.838   1.059   4.309
 3555SOL    HW121594   3.892   1.139   4.282
 3555SOL    HW221595   3.888   0.976   4.286
 3556SOL     OW21596   8.859   4.552   1.692
 3556SOL    HW121597   8.799   4.496   1.635
 3556SOL    HW221598   8.943   4.572   1.642
 3557SOL     OW21599   3.926   1.711   3.782
 3557SOL    HW121600   3.929   1.615   3.808
 3557SOL    HW221601   3.837   1.750   3.805
 3558SOL     OW21602   0.743   7.930   3.649
 3558SOL    HW121603   0.837   7.915   3.618
 3558SOL    HW221604   0.725   8.029   3.655
 3559SOL     OW21605   5.023   1.059   3.937
 3559SOL    HW121606   4.935   1.099   3.913
 3559SOL    HW221607   5.010   0.983   4.001
 3560SOL     OW21608   2.624   7.649   0.170
 3560SOL    HW121609   2.712   7.621   0.131
 3560SOL    HW221610   2.551   7.599   0.124
 3561SOL     OW21611   1.760   8.694   3.357
 3561SOL    HW121612   1.676   8.670   3.406
 3561SOL    HW221613   1.811   8.762   3.410
 3562SOL     OW21614   3.891   0.144   0.548
 3562SOL    HW121615   3.883   0.243   0.563
 3562SOL    HW221616   3.928   0.101   0.630
 3563SOL     OW21617   1.799   8.410   2.465
 3563SOL    HW121618   1.746   8.495   2.469
 3563SOL    HW221619   1.824   8.382   2.557
 3564SOL     OW21620   4.151   8.634   1.257
 3564SOL    HW121621   4.195   8.722   1.240
 3564SOL    HW221622   4.064   8.630   1.209
 3565SOL     OW21623   5.011   8.504   4.648
 3565SOL    HW121624   5.037   8.597   4.621
 3565SOL    HW221625   4.978   8.455   4.567
 3566SOL     OW21626   8.346   9.161   3.871
 3566SOL    HW121627   8.317   9.209   3.788
 3566SOL    HW221628   8.333   9.062   3.859
 3567SOL     OW21629   6.242   4.603   0.113
 3567SOL    HW121630   6.154   4.648   0.096
 3567SOL    HW221631   6.230   4.504   0.106
 3568SOL     OW21632   9.009   3.349   4.066
 3568SOL    HW121633   8.935   3.283   4.080
 3568SOL    HW221634   9.089   3.319   4.119
 3569SOL     OW21635   3.650   7.694   3.214
 3569SOL    HW121636   3.589   7.759   3.168
 3569SOL    HW221637   3.597   7.634   3.273
 3570SOL     OW21638   3.104   3.208   3.988
 3570SOL    HW121639   3.080   3.200   4.085
 3570SOL    HW221640   3.045   3.276   3.944
 3571SOL     OW21641   2.596   3.041   2.585
 3571SOL    HW121642   2.628   3.127   2.547
 3571SOL    HW221643   2.597   3.046   2.685
 3572SOL     OW21644   9.368   1.349   2.907
 3572SOL    HW121645   9.451   1.367   2.855
 3572SOL    HW221646   9.390   1.297   2.990
 3573SOL     OW21647   2.246   4.181   3.699
 3573SOL    HW121648   2.167   4.237   3.722
 3573SOL    HW221649   2.227   4.127   3.618
 3574SOL     OW21650   2.235   6.321   2.960
 3574SOL    HW121651   2.239   6.328   3.060
 3574SOL    HW221652   2.148   6.280   2.933
 3575SOL     OW21653   1.454   7.554   0.658
 3575SOL    HW121654   1.442   7.539   0.756
 3575SOL    HW221655   1.381   7.612   0.624
 3576SOL     OW21656   8.675   7.785   3.660
 3576SOL    HW121657   8.606   7.797   3.589
 3576SOL    HW221658   8.763   7.763   3.618
 3577SOL     OW21659   8.338   4.625   5.145
 3577SOL    HW121660   8.365   4.611   5.240
 3577SOL    HW221661   8.349   4.722   5.121
 3578SOL     OW21662   1.150   5.875   3.230
 3578SOL    HW121663   1.076   5.853   3.292
 3578SOL    HW221664   1.232   5.823   3.254
 3579SOL     OW21665   8.016   3.136   0.908
 3579SOL    HW121666   7.935   3.142   0.850
 3579SOL    HW221667   8.011   3.206   0.980
 3580SOL     OW21668   6.450   0.356   3.277
 3580SOL    HW121669   6.366   0.398   3.244
 3580SOL    HW221670   6.483   0.290   3.209
 3581SOL     OW21671   5.128   8.903   3.247
 3581SOL    HW121672   5.060   8.961   3.293
 3581SOL    HW221673   5.214   8.905   3.299
 3582SOL     OW21674   2.643   8.816   0.416
 3582SOL    HW121675   2.724   8.770   0.378
 3582SOL    HW221676   2.583   8.844   0.342
 3583SOL     OW21677   2.200   7.109   3.813
 3583SOL    HW121678   2.100   7.108   3.804
 3583SOL    HW221679   2.236   7.018   3.795
 3584SOL     OW21680   6.085   8.316   5.193
 3584SOL    HW121681   6.127   8.229   5.165
 3584SOL    HW221682   5.986   8.309   5.183
 3585SOL     OW21683   2.865   7.904   2.271
 3585SOL    HW121684   2.930   7.890   2.345
 3585SOL    HW221685   2.804   7.825   2.264
 3586SOL     OW21686   1.577   2.075   3.595
 3586SOL    HW121687   1.575   1.977   3.614
 3586SOL    HW221688   1.671   2.103   3.578
 3587SOL     OW21689   1.985   7.401   2.192
 3587SOL    HW121690   2.031   7.378   2.107
 3587SOL    HW221691   2.050   7.394   2.268
 3588SOL     OW21692   3.623   4.456   0.579
 3588SOL    HW121693   3.612   4.356   0.581
 3588SOL    HW221694   3.538   4.499   0.609
 3589SOL     OW21695   5.101   9.257   3.394
 3589SOL    HW121696   5.093   9.311   3.478
 3589SOL    HW221697   5.197   9.252   3.366
 3590SOL     OW21698   9.390   1.037   3.482
 3590SOL    HW121699   9.403   0.964   3.415
 3590SOL    HW221700   9.361   1.121   3.436
 3591SOL     OW21701   4.933   4.779   4.839
 3591SOL    HW121702   4.977   4.690   4.828
 3591SOL    HW221703   4.885   4.804   4.755
 3592SOL     OW21704   3.816   3.135   3.778
 3592SOL    HW121705   3.758   3.082   3.840
 3592SOL    HW221706   3.816   3.231   3.808
 3593SOL     OW21707   9.789   1.533   3.305
 3593SOL    HW121708   9.853   1.610   3.307
 3593SOL    HW221709   9.759   1.513   3.399
 3594SOL     OW21710   9.883   1.322   2.858
 3594SOL    HW121711   9.886   1.239   2.914
 3594SOL    HW221712   9.905   1.401   2.915
 3595SOL     OW21713   3.421   0.952   1.141
 3595SOL    HW121714   3.509   0.908   1.160
 3595SOL    HW221715   3.347   0.892   1.173
 3596SOL     OW21716   5.084   2.435   2.948
 3596SOL    HW121717   5.062   2.523   2.906
 3596SOL    HW221718   5.133   2.451   3.034
 3597SOL     OW21719   9.866   6.358   3.274
 3597SOL    HW121720   9.912   6.446   3.260
 3597SOL    HW221721   9.785   6.352   3.216
 3598SOL     OW21722   5.469   1.078   1.111
 3598SOL    HW121723   5.402   1.010   1.141
 3598SOL    HW221724   5.561   1.045   1.133
 3599SOL     OW21725   1.723   3.490   3.050
 3599SOL    HW121726   1.625   3.476   3.064
 3599SOL    HW221727   1.759   3.418   2.991
 3600SOL     OW21728   0.037   0.150   3.662
 3600SOL    HW121729   0.085   0.127   3.747
 3600SOL    HW221730   0.037   0.070   3.601
 3601SOL     OW21731   9.712   1.471   3.572
 3601SOL    HW121732   9.799   1.422   3.582
 3601SOL    HW221733   9.674   1.489   3.663
 3602SOL     OW21734   0.593   7.431   3.482
 3602SOL    HW121735   0.616   7.528   3.494
 3602SOL    HW221736   0.513   7.423   3.423
 3603SOL     OW21737   0.688   9.719   0.463
 3603SOL    HW121738   0.785   9.697   0.453
 3603SOL    HW221739   0.667   9.730   0.560
 3604SOL     OW21740   7.823   0.899   3.682
 3604SOL    HW121741   7.737   0.858   3.713
 3604SOL    HW221742   7.881   0.919   3.761
 3605SOL     OW21743   1.626   8.210   2.380
 3605SOL    HW121744   1.700   8.275   2.395
 3605SOL    HW221745   1.569   8.204   2.463
 3606SOL     OW21746   9.382   2.614   4.121
 3606SOL    HW121747   9.418   2.707   4.121
 3606SOL    HW221748   9.334   2.596   4.207
 3607SOL     OW21749   8.048   9.258   5.211
 3607SOL    HW121750   8.075   9.223   5.301
 3607SOL    HW221751   8.126   9.255   5.149
 3608SOL     OW21752   3.065   6.591   0.347
 3608SOL    HW121753   3.139   6.650   0.377
 3608SOL    HW221754   2.979   6.621   0.389
 3609SOL     OW21755   4.622   2.642   1.521
 3609SOL    HW121756   4.642   2.737   1.546
 3609SOL    HW221757   4.660   2.581   1.592
 3610SOL     OW21758   9.713   9.743   2.243
 3610SOL    HW121759   9.673   9.768   2.331
 3610SOL    HW221760   9.641   9.710   2.181
 3611SOL     OW21761   0.053   3.072   1.335
 3611SOL    HW121762   0.126   3.019   1.292
 3611SOL    HW221763   0.080   3.097   1.428
 3612SOL     OW21764   9.424   3.397   2.723
 3612SOL    HW121765   9.445   3.450   2.640
 3612SOL    HW221766   9.373   3.454   2.787
 3613SOL     OW21767   9.853   5.250   1.412
 3613SOL    HW121768   9.936   5.240   1.467
 3613SOL    HW221769   9.878   5.249   1.315
 3614SOL     OW21770   5.839   8.723   4.322
 3614SOL    HW121771   5.857   8.820   4.306
 3614SOL    HW221772   5.905   8.668   4.271
 3615SOL     OW21773   8.578   9.453   1.574
 3615SOL    HW121774   8.553   9.441   1.670
 3615SOL    HW221775   8.610   9.547   1.560
 3616SOL     OW21776   1.404   1.741   4.718
 3616SOL    HW121777   1.346   1.661   4.730
 3616SOL    HW221778   1.498   1.719   4.743
 3617SOL     OW21779   0.251   0.019   2.435
 3617SOL    HW121780   0.285   0.097   2.488
 3617SOL    HW221781   0.309   0.007   2.354
 3618SOL     OW21782   2.568   1.900   2.106
 3618SOL    HW121783   2.533   1.989   2.077
 3618SOL    HW221784   2.503   1.858   2.170
 3619SOL     OW21785   4.764   9.940   1.835
 3619SOL    HW121786   4.817   9.953   1.751
 3619SOL    HW221787   4.812   9.875   1.895
 3620SOL     OW21788   2.808   4.358   2.047
 3620SOL    HW121789   2.875   4.289   2.017
 3620SOL    HW221790   2.855   4.444   2.066
 3621SOL     OW21791   9.346   4.628   2.878
 3621SOL    HW121792   9.405   4.604   2.801
 3621SOL    HW221793   9.340   4.550   2.940
 3622SOL     OW21794   9.504   6.434   4.905
 3622SOL    HW121795   9.561   6.404   4.981
 3622SOL    HW221796   9.473   6.528   4.921
 3623SOL     OW21797   7.815   4.714   1.788
 3623SOL    HW121798   7.901   4.688   1.743
 3623SOL    HW221799   7.816   4.813   1.806
 3624SOL     OW21800   9.746   3.954   2.968
 3624SOL    HW121801   9.793   4.011   3.036
 3624SOL    HW221802   9.742   3.860   3.001
 3625SOL     OW21803   0.656   5.779   0.829
 3625SOL    HW121804   0.641   5.787   0.730
 3625SOL    HW221805   0.580   5.822   0.878
 3626SOL     OW21806   3.229   5.290   3.331
 3626SOL    HW121807   3.252   5.270   3.426
 3626SOL    HW221808   3.130   5.301   3.323
 3627SOL     OW21809   9.586   4.155   3.210
 3627SOL    HW121810   9.604   4.246   3.173
 3627SOL    HW221811   9.650   4.135   3.284
 3628SOL     OW21812   1.434   6.459   2.805
 3628SOL    HW121813   1.361   6.398   2.774
 3628SOL    HW221814   1.489   6.487   2.727
 3629SOL     OW21815   0.333   1.371   2.402
 3629SOL    HW121816   0.420   1.412   2.376
 3629SOL    HW221817   0.290   1.427   2.473
 3630SOL     OW21818   7.373   2.409   0.945
 3630SOL    HW121819   7.355   2.411   0.847
 3630SOL    HW221820   7.287   2.396   0.995
 3631SOL     OW21821   2.149   6.544   3.326
 3631SOL    HW121822   2.110   6.600   3.252
 3631SOL    HW221823   2.087   6.544   3.404
 3632SOL     OW21824   1.918   9.671   4.128
 3632SOL    HW121825   1.928   9.762   4.170
 3632SOL    HW221826   1.827   9.635   4.148
 3633SOL     OW21827   1.504   5.294   4.715
 3633SOL    HW121828   1.499   5.326   4.620
 3633SOL    HW221829   1.436   5.342   4.770
 3634SOL     OW21830   7.643   9.641   4.402
 3634SOL    HW121831   7.676   9.592   4.321
 3634SOL    HW221832   7.663   9.587   4.484
 3635SOL     OW21833   8.297   2.418   1.730
 3635SOL    HW121834   8.350   2.458   1.656
 3635SOL    HW221835   8.228   2.355   1.693
 3636SOL     OW21836   0.788   1.360   0.509
 3636SOL    HW121837   0.863   1.347   0.575
 3636SOL    HW221838   0.702   1.334   0.552
 3637SOL     OW21839   4.379   2.482   0.079
 3637SOL    HW121840   4.311   2.488   0.152
 3637SOL    HW221841   4.404   2.574   0.048
 3638SOL     OW21842   0.568   9.068   1.804
 3638SOL    HW121843   0.481   9.113   1.784
 3638SOL    HW221844   0.559   9.011   1.885
 3639SOL     OW21845   7.523   7.855   4.334
 3639SOL    HW121846   7.463   7.806   4.398
 3639SOL    HW221847   7.507   7.953   4.343
 3640SOL     OW21848   1.314   8.078   2.261
 3640SOL    HW121849   1.412   8.056   2.256
 3640SOL    HW221850   1.261   7.994   2.264
 3641SOL     OW21851   4.061   8.578   4.861
 3641SOL    HW121852   4.085   8.669   4.895
 3641SOL    HW221853   4.140   8.539   4.813
 3642SOL     OW21854   2.980   9.027   0.664
 3642SOL    HW121855   2.889   9.028   0.624
 3642SOL    HW221856   3.011   9.121   0.678
 3643SOL     OW21857   7.496   2.699   3.121
 3643SOL    HW121858   7.588   2.673   3.148
 3643SOL    HW221859   7.492   2.712   3.022
 3644SOL     OW21860   1.635   5.435   0.781
 3644SOL    HW121861   1.634   5.347   0.732
 3644SOL    HW221862   1.654   5.509   0.717
 3645SOL     OW21863   7.892   8.488   4.162
 3645SOL    HW121864   7.954   8.479   4.240
 3645SOL    HW221865   7.946   8.488   4.077
 3646SOL     OW21866   2.591   7.764   0.839
 3646SOL    HW121867   2.610   7.830   0.766
 3646SOL    HW221868   2.510   7.792   0.889
 3647SOL     OW21869   9.264   2.154   3.229
 3647SOL    HW121870   9.339   2.167   3.163
 3647SOL    HW221871   9.183   2.201   3.196
 3648SOL     OW21872   8.528   0.359   2.118
 3648SOL    HW121873   8.475   0.414   2.183
 3648SOL    HW221874   8.514   0.262   2.137
 3649SOL     OW21875   9.887   8.483   1.066
 3649SOL    HW121876   9.933   8.572   1.071
 3649SOL    HW221877   9.863   8.452   1.158
 3650SOL     OW21878   2.559   3.051   3.564
 3650SOL    HW121879   2.562   2.957   3.530
 3650SOL    HW221880   2.637   3.066   3.626
 3651SOL     OW21881   3.300   0.459   4.157
 3651SOL    HW121882   3.399   0.450   4.146
 3651SOL    HW221883   3.256   0.376   4.124
 3652SOL     OW21884   4.291   0.341   1.665
 3652SOL    HW121885   4.223   0.268   1.673
 3652SOL    HW221886   4.268   0.415   1.729
 3653SOL     OW21887   9.100   4.870   4.184
 3653SOL    HW121888   9.145   4.903   4.267
 3653SOL    HW221889   9.056   4.947   4.138
 3654SOL     OW21890   3.275   9.426   3.337
 3654SOL    HW121891   3.308   9.482   3.412
 3654SOL    HW221892   3.262   9.483   3.256
 3655SOL     OW21893   2.320   8.922   4.396
 3655SOL    HW121894   2.399   8.860   4.396
 3655SOL    HW221895   2.310   8.963   4.487
 3656SOL     OW21896   0.866   1.952   3.240
 3656SOL    HW121897   0.917   2.020   3.188
 3656SOL    HW221898   0.822   1.997   3.318
 3657SOL     OW21899   5.305   9.344   4.984
 3657SOL    HW121900   5.338   9.265   5.036
 3657SOL    HW221901   5.218   9.375   5.022
 3658SOL     OW21902   3.695   8.800   4.237
 3658SOL    HW121903   3.719   8.725   4.298
 3658SOL    HW221904   3.660   8.877   4.291
 3659SOL     OW21905   4.875   7.901   1.875
 3659SOL    HW121906   4.879   7.951   1.961
 3659SOL    HW221907   4.796   7.930   1.822
 3660SOL     OW21908   9.117   1.347   3.614
 3660SOL    HW121909   9.100   1.350   3.515
 3660SOL    HW221910   9.059   1.277   3.655
 3661SOL     OW21911   0.427   8.423   1.145
 3661SOL    HW121912   0.466   8.332   1.127
 3661SOL    HW221913   0.466   8.459   1.230
 3662SOL     OW21914   0.233   7.153   0.269
 3662SOL    HW121915   0.325   7.119   0.286
 3662SOL    HW221916   0.233   7.253   0.274
 3663SOL     OW21917   2.373   1.283   1.568
 3663SOL    HW121918   2.327   1.224   1.503
 3663SOL    HW221919   2.461   1.243   1.594
 3664SOL     OW21920   4.611   9.313   0.572
 3664SOL    HW121921   4.709   9.333   0.565
 3664SOL    HW221922   4.596   9.247   0.646
 3665SOL     OW21923   1.610   8.707   0.823
 3665SOL    HW121924   1.640   8.780   0.761
 3665SOL    HW221925   1.629   8.618   0.782
 3666SOL     OW21926   1.666   9.373   3.880
 3666SOL    HW121927   1.606   9.453   3.885
 3666SOL    HW221928   1.617   9.298   3.836
 3667SOL     OW21929   5.774   0.519   3.250
 3667SOL    HW121930   5.711   0.505   3.326
 3667SOL    HW221931   5.723   0.546   3.169
 3668SOL     OW21932   3.143   6.072   4.888
 3668SOL    HW121933   3.227   6.043   4.842
 3668SOL    HW221934   3.098   6.143   4.834
 3669SOL     OW21935   9.161   0.063   0.100
 3669SOL    HW121936   9.234   0.029   0.159
 3669SOL    HW221937   9.119   9.987   0.051
 3670SOL     OW21938   7.463   0.055   1.681
 3670SOL    HW121939   7.503   0.131   1.629
 3670SOL    HW221940   7.513   0.044   1.767
 3671SOL     OW21941   0.291   7.942   4.359
 3671SOL    HW121942   0.360   7.965   4.290
 3671SOL    HW221943   0.219   7.886   4.316
 3672SOL     OW21944   5.566   2.023   3.652
 3672SOL    HW121945   5.478   2.060   3.622
 3672SOL    HW221946   5.554   1.928   3.681
 3673SOL     OW21947   7.593   2.327   1.088
 3673SOL    HW121948   7.518   2.350   1.026
 3673SOL    HW221949   7.676   2.373   1.058
 3674SOL     OW21950   3.142   2.259   1.458
 3674SOL    HW121951   3.095   2.194   1.517
 3674SOL    HW221952   3.190   2.327   1.514
 3675SOL     OW21953   5.942   7.669   2.439
 3675SOL    HW121954   5.874   7.685   2.510
 3675SOL    HW221955   5.918   7.585   2.389
 3676SOL     OW21956   3.083   2.510   4.021
 3676SOL    HW121957   3.106   2.569   4.098
 3676SOL    HW221958   3.028   2.433   4.053
 3677SOL     OW21959   0.899   6.629   3.828
 3677SOL    HW121960   0.885   6.569   3.907
 3677SOL    HW221961   0.838   6.600   3.753
 3678SOL     OW21962   9.867   7.729   1.963
 3678SOL    HW121963   9.920   7.646   1.947
 3678SOL    HW221964   9.771   7.713   1.940
 3679SOL     OW21965   2.400   2.127   2.801
 3679SOL    HW121966   2.462   2.096   2.873
 3679SOL    HW221967   2.434   2.212   2.762
 3680SOL     OW21968   0.206   8.060   2.026
 3680SOL    HW121969   0.114   8.041   1.992
 3680SOL    HW221970   0.217   8.017   2.116
 3681SOL     OW21971   5.436   2.420   2.608
 3681SOL    HW121972   5.404   2.484   2.538
 3681SOL    HW221973   5.379   2.338   2.606
 3682SOL     OW21974   3.146   8.966   4.059
 3682SOL    HW121975   3.058   9.011   4.066
 3682SOL    HW221976   3.214   9.030   4.024
 3683SOL     OW21977   1.457   0.303   4.576
 3683SOL    HW121978   1.371   0.277   4.533
 3683SOL    HW221979   1.449   0.292   4.675
 3684SOL     OW21980   1.499   0.171   3.092
 3684SOL    HW121981   1.475   0.079   3.123
 3684SOL    HW221982   1.597   0.177   3.078
 3685SOL     OW21983   3.171   6.617   5.273
 3685SOL    HW121984   3.134   6.623   5.365
 3685SOL    HW221985   3.096   6.613   5.206
 3686SOL     OW21986   8.118   3.395   2.202
 3686SOL    HW121987   8.132   3.489   2.233
 3686SOL    HW221988   8.178   3.334   2.253
 3687SOL     OW21989   6.737   0.734   1.315
 3687SOL    HW121990   6.696   0.803   1.375
 3687SOL    HW221991   6.823   0.701   1.355
 3688SOL     OW21992   8.879   8.883   0.288
 3688SOL    HW121993   8.954   8.932   0.331
 3688SOL    HW221994   8.797   8.889   0.346
 3689SOL     OW21995   1.006   0.706   2.669
 3689SOL    HW121996   0.907   0.719   2.675
 3689SOL    HW221997   1.050   0.741   2.752
 3690SOL     OW21998   1.346   7.394   1.328
 3690SOL    HW121999   1.329   7.335   1.407
 3690SOL    HW222000   1.288   7.475   1.334
 3691SOL     OW22001   3.186   6.494   0.686
 3691SOL    HW122002   3.107   6.442   0.653
 3691SOL    HW222003   3.163   6.591   0.689
 3692SOL     OW22004   3.528   9.758   2.710
 3692SOL    HW122005   3.586   9.676   2.705
 3692SOL    HW222006   3.556   9.813   2.789
 3693SOL     OW22007   0.269   3.539   4.294
 3693SOL    HW122008   0.272   3.469   4.366
 3693SOL    HW222009   0.213   3.507   4.218
 3694SOL     OW22010   8.936   0.270   1.515
 3694SOL    HW122011   8.868   0.203   1.545
 3694SOL    HW222012   8.958   0.331   1.591
 3695SOL     OW22013   9.785   7.628   3.722
 3695SOL    HW122014   9.782   7.727   3.709
 3695SOL    HW222015   9.719   7.601   3.791
 3696SOL     OW22016   0.680   8.616   2.821
 3696SOL    HW122017   0.678   8.689   2.889
 3696SOL    HW222018   0.677   8.656   2.729
 3697SOL     OW22019   3.897   5.270   2.330
 3697SOL    HW122020   3.937   5.323   2.405
 3697SOL    HW222021   3.798   5.285   2.328
 3698SOL     OW22022   3.930   7.412   3.339
 3698SOL    HW122023   3.954   7.332   3.285
 3698SOL    HW222024   3.934   7.494   3.282
 3699SOL     OW22025   3.893   1.082   2.689
 3699SOL    HW122026   3.944   1.064   2.605
 3699SOL    HW222027   3.946   1.050   2.767
 3700SOL     OW22028   8.448   8.709   2.011
 3700SOL    HW122029   8.379   8.646   1.978
 3700SOL    HW222030   8.464   8.780   1.941
 3701SOL     OW22031   3.283   7.500   5.199
 3701SOL    HW122032   3.352   7.434   5.170
 3701SOL    HW222033   3.323   7.592   5.200
 3702SOL     OW22034   0.917   8.055   0.753
 3702SOL    HW122035   0.837   7.998   0.772
 3702SOL    HW222036   0.993   7.998   0.726
 3703SOL     OW22037   6.794   0.439   4.031
 3703SOL    HW122038   6.743   0.524   4.042
 3703SOL    HW222039   6.879   0.444   4.082
 3704SOL     OW22040   0.555   0.602   4.872
 3704SOL    HW122041   0.522   0.524   4.925
 3704SOL    HW222042   0.515   0.686   4.908
 3705SOL     OW22043   2.278   1.277   0.140
 3705SOL    HW122044   2.244   1.196   0.188
 3705SOL    HW222045   2.213   1.352   0.150
 3706SOL     OW22046   4.804   0.694   3.092
 3706SOL    HW122047   4.807   0.701   2.993
 3706SOL    HW222048   4.717   0.731   3.126
 3707SOL     OW22049   3.673   8.638   1.571
 3707SOL    HW122050   3.621   8.641   1.486
 3707SOL    HW222051   3.672   8.545   1.608
 3708SOL     OW22052   5.228   8.043   3.644
 3708SOL    HW122053   5.169   8.098   3.703
 3708SOL    HW222054   5.306   8.011   3.698
 3709SOL     OW22055   8.464   3.233   2.019
 3709SOL    HW122056   8.520   3.249   2.100
 3709SOL    HW222057   8.489   3.146   1.978
 3710SOL     OW22058   4.068   4.182   3.321
 3710SOL    HW122059   4.134   4.106   3.327
 3710SOL    HW222060   3.986   4.158   3.373
 3711SOL     OW22061   9.120   8.808   2.708
 3711SOL    HW122062   9.030   8.775   2.738
 3711SOL    HW222063   9.191   8.770   2.768
 3712SOL     OW22064   0.487   2.298   4.311
 3712SOL    HW122065   0.542   2.340   4.384
 3712SOL    HW222066   0.405   2.353   4.295
 3713SOL     OW22067   1.702   0.620   0.977
 3713SOL    HW122068   1.627   0.624   0.911
 3713SOL    HW222069   1.689   0.690   1.047
 3714SOL     OW22070   4.694   0.210   1.839
 3714SOL    HW122071   4.677   0.247   1.931
 3714SOL    HW222072   4.718   0.113   1.846
 3715SOL     OW22073   9.430   4.452   2.401
 3715SOL    HW122074   9.524   4.479   2.382
 3715SOL    HW222075   9.429   4.363   2.447
 3716SOL     OW22076   9.259   3.933   4.098
 3716SOL    HW122077   9.174   3.965   4.140
 3716SOL    HW222078   9.248   3.838   4.069
 3717SOL     OW22079   0.460   8.302   3.789
 3717SOL    HW122080   0.449   8.217   3.840
 3717SOL    HW222081   0.378   8.358   3.799
 3718SOL     OW22082   3.118   0.608   0.083
 3718SOL    HW122083   3.095   0.673   0.156
 3718SOL    HW222084   3.090   0.645   6.743
 3719SOL     OW22085   7.653   3.193   1.536
 3719SOL    HW122086   7.688   3.284   1.516
 3719SOL    HW222087   7.659   3.136   1.455
 3720SOL     OW22088   5.036   9.242   1.215
 3720SOL    HW122089   5.135   9.246   1.221
 3720SOL    HW222090   5.000   9.334   1.200
 3721SOL     OW22091   8.211   8.381   2.820
 3721SOL    HW122092   8.142   8.446   2.790
 3721SOL    HW222093   8.245   8.408   2.910
 3722SOL     OW22094   6.948   8.245   4.779
 3722SOL    HW122095   7.030   8.245   4.722
 3722SOL    HW222096   6.948   8.325   4.839
 3723SOL     OW22097   1.158   2.043   1.028
 3723SOL    HW122098   1.245   1.998   1.051
 3723SOL    HW222099   1.144   2.121   1.089
 3724SOL     OW22100   1.813   9.115   1.018
 3724SOL    HW122101   1.799   9.029   1.067
 3724SOL    HW222102   1.872   9.175   1.072
 3725SOL     OW22103   0.529   8.533   3.615
 3725SOL    HW122104   0.612   8.571   3.656
 3725SOL    HW222105   0.494   8.459   3.672
 3726SOL     OW22106   7.668   3.912   2.488
 3726SOL    HW122107   7.690   3.907   2.586
 3726SOL    HW222108   7.718   3.841   2.439
 3727SOL     OW22109   8.770   7.799   3.925
 3727SOL    HW122110   8.735   7.795   3.832
 3727SOL    HW222111   8.852   7.741   3.933
 3728SOL     OW22112   2.610   8.689   3.871
 3728SOL    HW122113   2.674   8.763   3.894
 3728SOL    HW222114   2.661   8.607   3.845
 3729SOL     OW22115   7.201   2.236   4.364
 3729SOL    HW122116   7.192   2.164   4.432
 3729SOL    HW222117   7.299   2.253   4.347
 3730SOL     OW22118   8.009   9.526   3.957
 3730SOL    HW122119   8.075   9.457   3.986
 3730SOL    HW222120   8.054   9.596   3.903
 3731SOL     OW22121   0.877   6.017   1.120
 3731SOL    HW122122   0.885   5.935   1.063
 3731SOL    HW222123   0.803   6.004   1.186
 3732SOL     OW22124   0.223   7.489   2.770
 3732SOL    HW122125   0.305   7.483   2.828
 3732SOL    HW222126   0.142   7.468   2.825
 3733SOL     OW22127   9.561   4.873   0.473
 3733SOL    HW122128   9.576   4.799   0.539
 3733SOL    HW222129   9.620   4.951   0.497
 3734SOL     OW22130   5.038   8.627   1.367
 3734SOL    HW122131   5.012   8.679   1.286
 3734SOL    HW222132   5.074   8.538   1.339
 3735SOL     OW22133   1.865   3.930   2.910
 3735SOL    HW122134   1.880   4.028   2.902
 3735SOL    HW222135   1.782   3.913   2.964
 3736SOL     OW22136   4.925   7.495   2.541
 3736SOL    HW122137   4.989   7.532   2.473
 3736SOL    HW222138   4.961   7.408   2.575
 3737SOL     OW22139   5.086   4.181   1.147
 3737SOL    HW122140   4.988   4.164   1.148
 3737SOL    HW222141   5.118   4.195   1.241
 3738SOL     OW22142   4.482   2.445   5.058
 3738SOL    HW122143   4.545   2.474   5.130
 3738SOL    HW222144   4.417   2.518   5.039
 3739SOL     OW22145   6.570   0.734   0.603
 3739SOL    HW122146   6.574   0.768   0.697
 3739SOL    HW222147   6.503   0.659   0.598
 3740SOL     OW22148   7.757   0.723   3.088
 3740SOL    HW122149   7.829   0.780   3.047
 3740SOL    HW222150   7.669   0.769   3.077
 3741SOL     OW22151   8.953   9.927   0.511
 3741SOL    HW122152   8.859   9.893   0.518
 3741SOL    HW222153   8.952   0.023   0.480
 3742SOL     OW22154   1.579   8.753   5.020
 3742SOL    HW122155   1.528   8.800   4.949
 3742SOL    HW222156   1.619   8.669   4.983
 3743SOL     OW22157   0.589   7.421   3.927
 3743SOL    HW122158   0.534   7.399   3.847
 3743SOL    HW222159   0.529   7.437   4.005
 3744SOL     OW22160   2.383   3.951   3.805
 3744SOL    HW122161   2.346   4.038   3.775
 3744SOL    HW222162   2.483   3.958   3.811
 3745SOL     OW22163   3.224   6.076   2.472
 3745SOL    HW122164   3.320   6.101   2.464
 3745SOL    HW222165   3.167   6.147   2.429
 3746SOL     OW22166   0.022   5.314   2.489
 3746SOL    HW122167   9.950   5.299   2.556
 3746SOL    HW222168   0.018   5.408   2.455
 3747SOL     OW22169   0.033   8.781   4.648
 3747SOL    HW122170   0.076   8.871   4.642
 3747SOL    HW222171   9.953   8.778   4.587
 3748SOL     OW22172   3.877   2.485   2.676
 3748SOL    HW122173   3.866   2.584   2.683
 3748SOL    HW222174   3.798   2.439   2.717
 3749SOL     OW22175   0.695   2.745   3.120
 3749SOL    HW122176   0.600   2.716   3.124
 3749SOL    HW222177   0.708   2.807   3.043
 3750SOL     OW22178   9.262   0.329   4.611
 3750SOL    HW122179   9.328   0.397   4.579
 3750SOL    HW222180   9.173   0.346   4.567
 3751SOL     OW22181   8.836   6.423   0.277
 3751SOL    HW122182   8.762   6.490   0.274
 3751SOL    HW222183   8.882   6.420   0.188
 3752SOL     OW22184   5.373   1.666   4.126
 3752SOL    HW122185   5.345   1.681   4.031
 3752SOL    HW222186   5.339   1.741   4.182
 3753SOL     OW22187   1.436   1.046   0.763
 3753SOL    HW122188   1.409   1.034   0.668
 3753SOL    HW222189   1.370   1.002   0.823
 3754SOL     OW22190   6.297   8.562   4.905
 3754SOL    HW122191   6.281   8.560   5.004
 3754SOL    HW222192   6.359   8.486   4.881
 3755SOL     OW22193   6.659   7.512   4.250
 3755SOL    HW122194   6.650   7.481   4.344
 3755SOL    HW222195   6.743   7.564   4.239
 3756SOL     OW22196   4.322   3.409   0.932
 3756SOL    HW122197   4.293   3.394   0.837
 3756SOL    HW222198   4.244   3.443   0.985
 3757SOL     OW22199   8.639   6.058   1.410
 3757SOL    HW122200   8.619   5.998   1.333
 3757SOL    HW222201   8.719   6.023   1.460
 3758SOL     OW22202   4.460   1.345   4.099
 3758SOL    HW122203   4.397   1.385   4.166
 3758SOL    HW222204   4.430   1.253   4.076
 3759SOL     OW22205   4.630   7.660   1.550
 3759SOL    HW122206   4.620   7.751   1.509
 3759SOL    HW222207   4.727   7.633   1.548
 3760SOL     OW22208   0.212   3.993   1.971
 3760SOL    HW122209   0.282   4.063   1.981
 3760SOL    HW222210   0.244   3.907   2.011
 3761SOL     OW22211   9.779   2.120   1.049
 3761SOL    HW122212   9.853   2.098   0.985
 3761SOL    HW222213   9.779   2.219   1.066
 3762SOL     OW22214   0.933   3.566   0.119
 3762SOL    HW122215   1.014   3.623   0.111
 3762SOL    HW222216   0.952   3.476   0.080
 3763SOL     OW22217   2.891   0.086   1.324
 3763SOL    HW122218   2.960   0.061   1.393
 3763SOL    HW222219   2.927   0.068   1.233
 3764SOL     OW22220   8.396   3.836   0.450
 3764SOL    HW122221   8.363   3.851   0.543
 3764SOL    HW222222   8.491   3.805   0.453
 3765SOL     OW22223   9.840   2.424   4.091
 3765SOL    HW122224   9.851   2.520   4.119
 3765SOL    HW222225   9.930   2.379   4.089
 3766SOL     OW22226   3.597   0.605   2.436
 3766SOL    HW122227   3.550   0.685   2.397
 3766SOL    HW222228   3.574   0.523   2.383
 3767SOL     OW22229   3.232   2.547   3.013
 3767SOL    HW122230   3.316   2.561   2.962
 3767SOL    HW222231   3.254   2.518   3.106
 3768SOL     OW22232   8.207   6.197   4.024
 3768SOL    HW122233   8.140   6.221   4.094
 3768SOL    HW222234   8.160   6.156   3.946
 3769SOL     OW22235   7.443   3.463   0.654
 3769SOL    HW122236   7.489   3.504   0.733
 3769SOL    HW222237   7.407   3.536   0.595
 3770SOL     OW22238   8.561   7.038   3.328
 3770SOL    HW122239   8.548   6.958   3.387
 3770SOL    HW222240   8.656   7.068   3.333
 3771SOL     OW22241   5.251   1.742   2.879
 3771SOL    HW122242   5.188   1.818   2.860
 3771SOL    HW222243   5.319   1.737   2.806
 3772SOL     OW22244   9.516   7.600   5.207
 3772SOL    HW122245   9.577   7.670   5.245
 3772SOL    HW222246   9.426   7.641   5.191
 3773SOL     OW22247   7.619   9.524   2.854
 3773SOL    HW122248   7.549   9.454   2.869
 3773SOL    HW222249   7.576   9.606   2.818
 3774SOL     OW22250   1.695   2.488   1.933
 3774SOL    HW122251   1.618   2.424   1.935
 3774SOL    HW222252   1.684   2.556   2.006
 3775SOL     OW22253   8.528   3.193   2.481
 3775SOL    HW122254   8.538   3.093   2.481
 3775SOL    HW222255   8.568   3.230   2.564
 3776SOL     OW22256   9.706   9.175   3.698
 3776SOL    HW122257   9.646   9.134   3.767
 3776SOL    HW222258   9.658   9.249   3.651
 3777SOL     OW22259   3.238   4.514   0.813
 3777SOL    HW122260   3.152   4.528   0.764
 3777SOL    HW222261   3.279   4.428   0.783
 3778SOL     OW22262   2.263   0.639   4.430
 3778SOL    HW122263   2.243   0.587   4.513
 3778SOL    HW222264   2.346   0.603   4.387
 3779SOL     OW22265   9.501   1.717   1.100
 3779SOL    HW122266   9.452   1.662   1.167
 3779SOL    HW222267   9.463   1.700   1.009
 3780SOL     OW22268   0.439   8.475   2.890
 3780SOL    HW122269   0.521   8.510   2.845
 3780SOL    HW222270   0.368   8.545   2.890
 3781SOL     OW22271   9.170   0.043   2.706
 3781SOL    HW122272   9.102   0.031   2.779
 3781SOL    HW222273   9.129   0.021   2.618
 3782SOL     OW22274   2.975   4.531   2.464
 3782SOL    HW122275   3.025   4.450   2.434
 3782SOL    HW222276   2.881   4.506   2.488
 3783SOL     OW22277   2.219   1.888   5.207
 3783SOL    HW122278   2.226   1.868   5.304
 3783SOL    HW222279   2.123   1.904   5.183
 3784SOL     OW22280   6.117   2.202   4.645
 3784SOL    HW122281   6.210   2.221   4.675
 3784SOL    HW222282   6.112   2.109   4.609
 3785SOL     OW22283   8.039   8.494   3.929
 3785SOL    HW122284   8.050   8.405   3.885
 3785SOL    HW222285   8.081   8.565   3.873
 3786SOL     OW22286   2.332   4.636   1.180
 3786SOL    HW122287   2.275   4.701   1.129
 3786SOL    HW222288   2.274   4.583   1.242
 3787SOL     OW22289   2.827   8.894   2.957
 3787SOL    HW122290   2.814   8.803   2.918
 3787SOL    HW222291   2.776   8.961   2.903
 3788SOL     OW22292   7.133   1.903   5.035
 3788SOL    HW122293   7.221   1.856   5.042
 3788SOL    HW222294   7.059   1.837   5.042
 3789SOL     OW22295   0.287   0.877   3.166
 3789SOL    HW122296   0.327   0.826   3.243
 3789SOL    HW222297   0.234   0.814   3.110
 3790SOL     OW22298   7.167   7.983   4.958
 3790SOL    HW122299   7.212   8.060   5.002
 3790SOL    HW222300   7.159   7.907   5.022
 3791SOL     OW22301   4.449   6.611   2.357
 3791SOL    HW122302   4.516   6.667   2.309
 3791SOL    HW222303   4.450   6.634   2.454
 3792SOL     OW22304   9.817   3.591   3.920
 3792SOL    HW122305   9.898   3.648   3.909
 3792SOL    HW222306   9.802   3.571   4.017
 3793SOL     OW22307   4.489   9.519   3.914
 3793SOL    HW122308   4.520   9.433   3.873
 3793SOL    HW222309   4.565   9.583   3.918
 3794SOL     OW22310   2.715   6.338   1.470
 3794SOL    HW122311   2.776   6.417   1.468
 3794SOL    HW222312   2.769   6.255   1.455
 3795SOL     OW22313   9.595   5.831   3.463
 3795SOL    HW122314   9.536   5.754   3.442
 3795SOL    HW222315   9.589   5.852   3.561
 3796SOL     OW22316   3.048   7.575   0.328
 3796SOL    HW122317   3.031   7.673   0.339
 3796SOL    HW222318   2.969   7.523   0.361
 3797SOL     OW22319   3.769   2.906   3.615
 3797SOL    HW122320   3.793   2.982   3.676
 3797SOL    HW222321   3.737   2.942   3.528
 3798SOL     OW22322   3.326   5.402   0.339
 3798SOL    HW122323   3.243   5.446   0.304
 3798SOL    HW222324   3.370   5.352   0.265
 3799SOL     OW22325   3.645   8.527   0.777
 3799SOL    HW122326   3.669   8.475   0.695
 3799SOL    HW222327   3.727   8.566   0.818
 3800SOL     OW22328   2.166   7.078   2.596
 3800SOL    HW122329   2.224   7.158   2.611
 3800SOL    HW222330   2.152   7.065   2.498
 3801SOL     OW22331   5.300   1.598   0.383
 3801SOL    HW122332   5.399   1.595   0.364
 3801SOL    HW222333   5.278   1.529   0.452
 3802SOL     OW22334   1.682   8.838   1.826
 3802SOL    HW122335   1.599   8.781   1.824
 3802SOL    HW222336   1.723   8.832   1.917
 3803SOL     OW22337   5.536   8.091   2.543
 3803SOL    HW122338   5.619   8.129   2.502
 3803SOL    HW222339   5.511   8.145   2.623
 3804SOL     OW22340   9.981   6.333   4.330
 3804SOL    HW122341   0.045   6.355   4.256
 3804SOL    HW222342   0.023   6.266   4.391
 3805SOL     OW22343   8.791   0.629   1.929
 3805SOL    HW122344   8.709   0.577   1.904
 3805SOL    HW222345   8.823   0.681   1.850
 3806SOL     OW22346   3.059   6.162   0.869
 3806SOL    HW122347   2.998   6.146   0.946
 3806SOL    HW222348   3.132   6.224   0.896
 3807SOL     OW22349   0.380   8.057   0.621
 3807SOL    HW122350   0.402   7.965   0.587
 3807SOL    HW222351   0.352   8.114   0.544
 3808SOL     OW22352   9.465   0.743   4.408
 3808SOL    HW122353   9.456   0.818   4.474
 3808SOL    HW222354   9.394   0.753   4.338
 3809SOL     OW22355   1.149   2.229   3.368
 3809SOL    HW122356   1.081   2.298   3.343
 3809SOL    HW222357   1.148   2.156   3.300
 3810SOL     OW22358   1.414   3.869   0.182
 3810SOL    HW122359   1.363   3.952   0.204
 3810SOL    HW222360   1.504   3.872   0.224
 3811SOL     OW22361   1.515   0.334   1.635
 3811SOL    HW122362   1.594   0.274   1.627
 3811SOL    HW222363   1.540   0.416   1.686
 3812SOL     OW22364   6.206   9.853   4.069
 3812SOL    HW122365   6.219   9.801   4.153
 3812SOL    HW222366   6.275   9.924   4.061
 3813SOL     OW22367   2.721   0.011   0.206
 3813SOL    HW122368   2.675   9.954   0.274
 3813SOL    HW222369   2.653   0.047   0.142
 3814SOL     OW22370   9.984   1.259   1.833
 3814SOL    HW122371   9.985   1.321   1.755
 3814SOL    HW222372   0.069   1.207   1.835
 3815SOL     OW22373   1.264   3.661   0.700
 3815SOL    HW122374   1.339   3.640   0.637
 3815SOL    HW222375   1.221   3.748   0.673
 3816SOL     OW22376   8.459   1.966   0.378
 3816SOL    HW122377   8.441   1.872   0.349
 3816SOL    HW222378   8.421   2.029   0.311
 3817SOL     OW22379   3.316   7.579   2.310
 3817SOL    HW122380   3.299   7.677   2.319
 3817SOL    HW222381   3.230   7.531   2.294
 3818SOL     OW22382   1.553   3.122   2.875
 3818SOL    HW122383   1.572   3.038   2.824
 3818SOL    HW222384   1.634   3.180   2.876
 3819SOL     OW22385   8.072   1.119   3.056
 3819SOL    HW122386   8.031   1.029   3.044
 3819SOL    HW222387   8.129   1.120   3.138
 3820SOL     OW22388   3.280   6.222   1.228
 3820SOL    HW122389   3.321   6.276   1.301
 3820SOL    HW222390   3.196   6.267   1.197
 3821SOL     OW22391   6.559   1.172   1.019
 3821SOL    HW122392   6.548   1.101   1.088
 3821SOL    HW222393   6.589   1.131   0.933
 3822SOL     OW22394   3.477   5.928   2.296
 3822SOL    HW122395   3.457   5.982   2.215
 3822SOL    HW222396   3.442   5.835   2.284
 3823SOL     OW22397   1.710   9.164   2.110
 3823SOL    HW122398   1.801   9.176   2.070
 3823SOL    HW222399   1.694   9.067   2.129
 3824SOL     OW22400   8.158   9.291   2.285
 3824SOL    HW122401   8.147   9.192   2.284
 3824SOL    HW222402   8.244   9.316   2.242
 3825SOL     OW22403   0.848   6.276   0.537
 3825SOL    HW122404   0.881   6.301   0.628
 3825SOL    HW222405   0.811   6.183   0.540
 3826SOL     OW22406   9.355   9.128   2.506
 3826SOL    HW122407   9.278   9.112   2.567
 3826SOL    HW222408   9.436   9.151   2.561
 3827SOL     OW22409   8.387   1.749   4.452
 3827SOL    HW122410   8.318   1.820   4.469
 3827SOL    HW222411   8.445   1.777   4.375
 3828SOL     OW22412   1.329   2.824   1.212
 3828SOL    HW122413   1.385   2.778   1.142
 3828SOL    HW222414   1.303   2.758   1.282
 3829SOL     OW22415   5.250   3.224   3.678
 3829SOL    HW122416   5.202   3.152   3.628
 3829SOL    HW222417   5.303   3.279   3.614
 3830SOL     OW22418   2.298   3.026   1.745
 3830SOL    HW122419   2.392   3.014   1.713
 3830SOL    HW222420   2.290   2.994   1.840
 3831SOL     OW22421   4.680   1.708   0.909
 3831SOL    HW122422   4.681   1.701   1.009
 3831SOL    HW222423   4.612   1.644   0.872
 3832SOL     OW22424   5.004   2.348   3.557
 3832SOL    HW122425   5.015   2.442   3.527
 3832SOL    HW222426   5.004   2.344   3.657
 3833SOL     OW22427   5.591   8.912   1.507
 3833SOL    HW122428   5.498   8.946   1.522
 3833SOL    HW222429   5.590   8.812   1.506
 3834SOL     OW22430   3.136   8.159   2.672
 3834SOL    HW122431   3.111   8.185   2.578
 3834SOL    HW222432   3.066   8.098   2.709
 3835SOL     OW22433   4.998   8.232   4.964
 3835SOL    HW122434   5.098   8.223   4.964
 3835SOL    HW222435   4.974   8.327   4.945
 3836SOL     OW22436   3.301   7.046   1.025
 3836SOL    HW122437   3.377   6.997   1.069
 3836SOL    HW222438   3.214   7.017   1.066
 3837SOL     OW22439   8.609   5.916   3.988
 3837SOL    HW122440   8.569   5.939   3.899
 3837SOL    HW222441   8.643   5.998   4.032
 3838SOL     OW22442   9.066   0.400   2.146
 3838SOL    HW122443   8.968   0.404   2.129
 3838SOL    HW222444   9.085   0.331   2.216
 3839SOL     OW22445   4.235   4.524   1.634
 3839SOL    HW122446   4.235   4.550   1.730
 3839SOL    HW222447   4.152   4.558   1.590
 3840SOL     OW22448   2.617   3.031   2.860
 3840SOL    HW122449   2.715   3.048   2.866
 3840SOL    HW222450   2.575   3.047   2.949
 3841SOL     OW22451   0.961   4.897   1.736
 3841SOL    HW122452   1.060   4.913   1.740
 3841SOL    HW222453   0.916   4.977   1.696
 3842SOL     OW22454   9.823   2.274   2.592
 3842SOL    HW122455   9.836   2.276   2.493
 3842SOL    HW222456   9.895   2.219   2.634
 3843SOL     OW22457   2.149   5.570   5.134
 3843SOL    HW122458   2.066   5.625   5.142
 3843SOL    HW222459   2.131   5.478   5.169
 3844SOL     OW22460   5.668   7.794   3.795
 3844SOL    HW122461   5.743   7.732   3.770
 3844SOL    HW222462   5.706   7.877   3.834
 3845SOL     OW22463   5.354   1.098   2.439
 3845SOL    HW122464   5.400   1.084   2.526
 3845SOL    HW222465   5.263   1.057   2.442
 3846SOL     OW22466   6.986   2.292   3.803
 3846SOL    HW122467   6.931   2.300   3.886
 3846SOL    HW222468   7.046   2.212   3.811
 3847SOL     OW22469   2.366   3.537   2.161
 3847SOL    HW122470   2.344   3.521   2.065
 3847SOL    HW222471   2.282   3.547   2.213
 3848SOL     OW22472   6.927   1.887   4.362
 3848SOL    HW122473   6.905   1.811   4.423
 3848SOL    HW222474   6.867   1.885   4.283
 3849SOL     OW22475   0.415   9.703   3.318
 3849SOL    HW122476   0.483   9.708   3.391
 3849SOL    HW222477   0.436   9.625   3.258
 3850SOL     OW22478   7.556   4.113   1.711
 3850SOL    HW122479   7.532   4.103   1.807
 3850SOL    HW222480   7.613   4.035   1.682
 3851SOL     OW22481   6.738   7.458   4.856
 3851SOL    HW122482   6.818   7.399   4.868
 3851SOL    HW222483   6.767   7.544   4.814
 3852SOL     OW22484   0.802   0.086   4.950
 3852SOL    HW122485   0.759   0.149   4.885
 3852SOL    HW222486   0.847   0.139   5.022
 3853SOL     OW22487   0.012   3.217   4.102
 3853SOL    HW122488   0.039   3.310   4.080
 3853SOL    HW222489   9.913   3.210   4.102
 3854SOL     OW22490   8.580   6.946   1.481
 3854SOL    HW122491   8.510   6.894   1.530
 3854SOL    HW222492   8.584   7.039   1.517
 3855SOL     OW22493   1.691   3.279   2.120
 3855SOL    HW122494   1.788   3.275   2.096
 3855SOL    HW222495   1.661   3.189   2.151
 3856SOL     OW22496   6.407   2.423   3.762
 3856SOL    HW122497   6.480   2.377   3.812
 3856SOL    HW222498   6.430   2.429   3.665
 3857SOL     OW22499   8.194   1.621   1.749
 3857SOL    HW122500   8.257   1.691   1.782
 3857SOL    HW222501   8.102   1.642   1.781
 3858SOL     OW22502   0.441   5.238   1.566
 3858SOL    HW122503   0.523   5.187   1.541
 3858SOL    HW222504   0.409   5.208   1.656
 3859SOL     OW22505   1.306   5.690   0.499
 3859SOL    HW122506   1.355   5.613   0.459
 3859SOL    HW222507   1.370   5.749   0.548
 3860SOL     OW22508   3.835   1.815   4.768
 3860SOL    HW122509   3.904   1.865   4.819
 3860SOL    HW222510   3.853   1.824   4.670
 3861SOL     OW22511   3.445   7.871   3.104
 3861SOL    HW122512   3.468   7.889   3.008
 3861SOL    HW222513   3.371   7.804   3.108
 3862SOL     OW22514   0.661   0.925   1.261
 3862SOL    HW122515   0.600   0.868   1.316
 3862SOL    HW222516   0.661   0.891   1.167
 3863SOL     OW22517   0.532   7.022   3.178
 3863SOL    HW122518   0.583   7.042   3.095
 3863SOL    HW222519   0.596   6.999   3.252
 3864SOL     OW22520   4.056   1.007   3.786
 3864SOL    HW122521   4.030   1.032   3.879
 3864SOL    HW222522   4.145   1.046   3.764
 3865SOL     OW22523   7.647   0.140   5.240
 3865SOL    HW122524   7.625   0.103   5.331
 3865SOL    HW222525   7.732   0.098   5.207
 3866SOL     OW22526   5.115   5.260   1.072
 3866SOL    HW122527   5.144   5.349   1.037
 3866SOL    HW222528   5.082   5.271   1.166
 3867SOL     OW22529   6.133   1.147   0.526
 3867SOL    HW122530   6.178   1.187   0.446
 3867SOL    HW222531   6.077   1.217   0.571
 3868SOL     OW22532   8.725   6.570   3.760
 3868SOL    HW122533   8.715   6.498   3.691
 3868SOL    HW222534   8.817   6.567   3.799
 3869SOL     OW22535   1.889   9.992   3.230
 3869SOL    HW122536   1.834   0.067   3.194
 3869SOL    HW222537   1.965   9.974   3.168
 3870SOL     OW22538   5.446   2.146   3.948
 3870SOL    HW122539   5.510   2.165   3.873
 3870SOL    HW222540   5.493   2.155   4.035
 3871SOL     OW22541   3.763   4.278   4.577
 3871SOL    HW122542   3.804   4.188   4.564
 3871SOL    HW222543   3.688   4.272   4.643
 3872SOL     OW22544   8.436   5.928   2.694
 3872SOL    HW122545   8.503   5.958   2.627
 3872SOL    HW222546   8.352   5.901   2.648
 3873SOL     OW22547   3.483   5.830   3.234
 3873SOL    HW122548   3.562   5.784   3.274
 3873SOL    HW222549   3.487   5.824   3.134
 3874SOL     OW22550   8.243   0.987   1.395
 3874SOL    HW122551   8.264   0.918   1.465
 3874SOL    HW222552   8.316   0.988   1.327
 3875SOL     OW22553   2.080   8.676   3.095
 3875SOL    HW122554   2.137   8.603   3.058
 3875SOL    HW222555   2.046   8.733   3.019
 3876SOL     OW22556   4.853   7.632   1.854
 3876SOL    HW122557   4.755   7.612   1.855
 3876SOL    HW222558   4.868   7.730   1.869
 3877SOL     OW22559   1.863   9.826   1.851
 3877SOL    HW122560   1.787   9.841   1.915
 3877SOL    HW222561   1.827   9.787   1.766
 3878SOL     OW22562   1.834   4.009   4.632
 3878SOL    HW122563   1.917   3.965   4.666
 3878SOL    HW222564   1.811   4.087   4.691
 3879SOL     OW22565   9.263   2.312   3.722
 3879SOL    HW122566   9.244   2.248   3.647
 3879SOL    HW222567   9.238   2.404   3.693
 3880SOL     OW22568   8.074   2.617   1.427
 3880SOL    HW122569   8.028   2.598   1.514
 3880SOL    HW222570   8.121   2.535   1.395
 3881SOL     OW22571   8.771   2.124   4.242
 3881SOL    HW122572   8.691   2.185   4.242
 3881SOL    HW222573   8.850   2.174   4.206
 3882SOL     OW22574   6.090   8.516   3.405
 3882SOL    HW122575   6.091   8.528   3.504
 3882SOL    HW222576   6.114   8.421   3.383
 3883SOL     OW22577   5.189   2.737   2.656
 3883SOL    HW122578   5.120   2.789   2.605
 3883SOL    HW222579   5.185   2.641   2.628
 3884SOL     OW22580   2.517   5.113   3.465
 3884SOL    HW122581   2.581   5.114   3.389
 3884SOL    HW222582   2.480   5.205   3.478
 3885SOL     OW22583   9.473   1.568   0.168
 3885SOL    HW122584   9.480   1.576   0.267
 3885SOL    HW222585   9.555   1.608   0.126
 3886SOL     OW22586   7.983   0.970   2.726
 3886SOL    HW122587   7.900   1.025   2.732
 3886SOL    HW222588   7.990   0.930   2.635
 3887SOL     OW22589   1.292   9.316   3.752
 3887SOL    HW122590   1.236   9.285   3.675
 3887SOL    HW222591   1.372   9.258   3.760
 3888SOL     OW22592   9.138   3.956   0.356
 3888SOL    HW122593   9.211   3.965   0.288
 3888SOL    HW222594   9.161   3.882   0.419
 3889SOL     OW22595   4.078   2.840   4.825
 3889SOL    HW122596   4.166   2.819   4.781
 3889SOL    HW222597   4.003   2.814   4.764
 3890SOL     OW22598   0.658   4.450   2.349
 3890SOL    HW122599   0.735   4.409   2.397
 3890SOL    HW222600   0.608   4.379   2.300
 3891SOL     OW22601   5.376   9.468   4.566
 3891SOL    HW122602   5.441   9.458   4.491
 3891SOL    HW222603   5.293   9.416   4.546
 3892SOL     OW22604   1.396   2.758   3.891
 3892SOL    HW122605   1.420   2.849   3.923
 3892SOL    HW222606   1.309   2.762   3.841
 3893SOL     OW22607   5.265   2.365   2.108
 3893SOL    HW122608   5.334   2.436   2.094
 3893SOL    HW222609   5.272   2.297   2.035
 3894SOL     OW22610   3.216   3.971   3.326
 3894SOL    HW122611   3.276   3.971   3.245
 3894SOL    HW222612   3.196   3.877   3.353
 3895SOL     OW22613   8.381   6.878   0.290
 3895SOL    HW122614   8.347   6.834   0.373
 3895SOL    HW222615   8.329   6.846   0.211
 3896SOL     OW22616   8.722   7.996   5.246
 3896SOL    HW122617   8.703   8.094   5.251
 3896SOL    HW222618   8.810   7.982   5.201
 3897SOL     OW22619   9.516   6.859   2.905
 3897SOL    HW122620   9.516   6.809   2.992
 3897SOL    HW222621   9.536   6.795   2.830
 3898SOL     OW22622   6.708   0.483   4.822
 3898SOL    HW122623   6.727   0.497   4.919
 3898SOL    HW222624   6.647   0.406   4.810
 3899SOL     OW22625   0.586   9.650   4.408
 3899SOL    HW122626   0.599   9.692   4.319
 3899SOL    HW222627   0.614   9.713   4.480
 3900SOL     OW22628   9.726   3.347   4.386
 3900SOL    HW122629   9.656   3.337   4.456
 3900SOL    HW222630   9.817   3.331   4.426
 3901SOL     OW22631   7.644   9.239   4.945
 3901SOL    HW122632   7.625   9.152   4.991
 3901SOL    HW222633   7.736   9.270   4.971
 3902SOL     OW22634   8.391   9.841   0.523
 3902SOL    HW122635   8.348   9.910   0.465
 3902SOL    HW222636   8.326   9.811   0.593
 3903SOL     OW22637   1.576   6.139   4.468
 3903SOL    HW122638   1.485   6.119   4.431
 3903SOL    HW222639   1.596   6.237   4.454
 3904SOL     OW22640   7.980   8.818   5.235
 3904SOL    HW122641   8.000   8.755   5.311
 3904SOL    HW222642   8.007   8.775   5.149
 3905SOL     OW22643   7.555   9.983   0.324
 3905SOL    HW122644   7.509   0.027   0.401
 3905SOL    HW222645   7.600   0.052   0.268
 3906SOL     OW22646   5.646   2.023   2.141
 3906SOL    HW122647   5.624   1.971   2.224
 3906SOL    HW222648   5.708   2.098   2.165
 3907SOL     OW22649   6.584   0.698   1.802
 3907SOL    HW122650   6.548   0.760   1.872
 3907SOL    HW222651   6.518   0.624   1.786
 3908SOL     OW22652   9.638   5.387   0.813
 3908SOL    HW122653   9.557   5.416   0.864
 3908SOL    HW222654   9.614   5.373   0.717
 3909SOL     OW22655   2.714   8.326   0.597
 3909SOL    HW122656   2.769   8.402   0.631
 3909SOL    HW222657   2.659   8.289   0.672
 3910SOL     OW22658   0.471   4.511   1.887
 3910SOL    HW122659   0.430   4.584   1.941
 3910SOL    HW222660   0.439   4.422   1.921
 3911SOL     OW22661   1.747   1.525   1.287
 3911SOL    HW122662   1.844   1.543   1.300
 3911SOL    HW222663   1.736   1.437   1.240
 3912SOL     OW22664   9.822   6.011   5.140
 3912SOL    HW122665   9.853   5.935   5.197
 3912SOL    HW222666   9.723   6.004   5.127
 3913SOL     OW22667   1.896   2.095   1.914
 3913SOL    HW122668   1.957   2.016   1.911
 3913SOL    HW222669   1.806   2.067   1.946
 3914SOL     OW22670   4.066   3.749   3.279
 3914SOL    HW122671   3.996   3.678   3.286
 3914SOL    HW222672   4.063   3.790   3.187
 3915SOL     OW22673   3.071   0.333   0.103
 3915SOL    HW122674   3.076   0.309   0.006
 3915SOL    HW222675   3.087   0.431   0.114
 3916SOL     OW22676   5.506   2.474   3.914
 3916SOL    HW122677   5.575   2.545   3.927
 3916SOL    HW222678   5.548   2.393   3.875
 3917SOL     OW22679   3.566   4.757   4.940
 3917SOL    HW122680   3.523   4.822   5.002
 3917SOL    HW222681   3.495   4.700   4.898
 3918SOL     OW22682   4.949   0.404   2.993
 3918SOL    HW122683   5.048   0.412   2.980
 3918SOL    HW222684   4.924   0.308   3.002
 3919SOL     OW22685   4.716   2.040   1.935
 3919SOL    HW122686   4.793   2.078   1.987
 3919SOL    HW222687   4.641   2.019   1.998
 3920SOL     OW22688   5.071   0.536   0.870
 3920SOL    HW122689   5.075   0.631   0.901
 3920SOL    HW222690   5.106   0.476   0.942
 3921SOL     OW22691   9.191   4.399   0.909
 3921SOL    HW122692   9.238   4.340   0.975
 3921SOL    HW222693   9.152   4.343   0.837
 3922SOL     OW22694   1.388   4.571   4.403
 3922SOL    HW122695   1.440   4.631   4.342
 3922SOL    HW222696   1.446   4.495   4.432
 3923SOL     OW22697   3.531   1.741   5.057
 3923SOL    HW122698   3.530   1.783   5.148
 3923SOL    HW222699   3.587   1.658   5.059
 3924SOL     OW22700   6.962   8.769   2.957
 3924SOL    HW122701   6.934   8.673   2.947
 3924SOL    HW222702   7.060   8.777   2.939
 3925SOL     OW22703   5.493   1.219   2.239
 3925SOL    HW122704   5.443   1.182   2.318
 3925SOL    HW222705   5.520   1.144   2.179
 3926SOL     OW22706   0.866   8.695   0.293
 3926SOL    HW122707   0.851   8.611   0.241
 3926SOL    HW222708   0.782   8.719   0.341
 3927SOL     OW22709   2.146   7.534   2.558
 3927SOL    HW122710   2.231   7.586   2.559
 3927SOL    HW222711   2.154   7.458   2.493
 3928SOL     OW22712   2.254   2.369   4.190
 3928SOL    HW122713   2.289   2.457   4.224
 3928SOL    HW222714   2.162   2.355   4.225
 3929SOL     OW22715   9.082   3.043   4.988
 3929SOL    HW122716   9.181   3.037   5.002
 3929SOL    HW222717   9.041   3.098   5.061
 3930SOL     OW22718   1.173   2.255   4.975
 3930SOL    HW122719   1.101   2.193   4.947
 3930SOL    HW222720   1.262   2.218   4.946
 3931SOL     OW22721   8.260   1.118   3.267
 3931SOL    HW122722   8.323   1.145   3.194
 3931SOL    HW222723   8.285   1.165   3.352
 3932SOL     OW22724   1.633   0.362   3.538
 3932SOL    HW122725   1.576   0.350   3.456
 3932SOL    HW222726   1.712   0.301   3.533
 3933SOL     OW22727   3.173   1.615   3.535
 3933SOL    HW122728   3.143   1.651   3.446
 3933SOL    HW222729   3.125   1.663   3.608
 3934SOL     OW22730   8.584   3.890   2.050
 3934SOL    HW122731   8.677   3.917   2.078
 3934SOL    HW222732   8.586   3.857   1.956
 3935SOL     OW22733   7.471   2.749   2.844
 3935SOL    HW122734   7.486   2.717   2.751
 3935SOL    HW222735   7.527   2.830   2.860
 3936SOL     OW22736   7.153   9.239   2.518
 3936SOL    HW122737   7.175   9.172   2.447
 3936SOL    HW222738   7.237   9.288   2.544
 3937SOL     OW22739   5.191   7.116   1.813
 3937SOL    HW122740   5.116   7.165   1.858
 3937SOL    HW222741   5.219   7.039   1.871
 3938SOL     OW22742   7.839   3.631   0.181
 3938SOL    HW122743   7.905   3.694   0.141
 3938SOL    HW222744   7.759   3.682   0.213
 3939SOL     OW22745   2.804   7.011   4.241
 3939SOL    HW122746   2.741   6.936   4.259
 3939SOL    HW222747   2.802   7.033   4.143
 3940SOL     OW22748   0.802   9.742   0.063
 3940SOL    HW122749   0.722   9.690   0.034
 3940SOL    HW222750   0.787   9.839   0.046
 3941SOL     OW22751   3.297   5.869   3.443
 3941SOL    HW122752   3.291   5.773   3.470
 3941SOL    HW222753   3.354   5.879   3.362
 3942SOL     OW22754   8.935   6.634   2.186
 3942SOL    HW122755   8.924   6.597   2.094
 3942SOL    HW222756   8.853   6.616   2.239
 3943SOL     OW22757   2.159   3.798   3.742
 3943SOL    HW122758   2.237   3.855   3.765
 3943SOL    HW222759   2.155   3.784   3.643
 3944SOL     OW22760   2.663   8.938   4.797
 3944SOL    HW122761   2.730   8.923   4.869
 3944SOL    HW222762   2.599   9.009   4.825
 3945SOL     OW22763   2.061   2.029   3.473
 3945SOL    HW122764   2.108   2.107   3.431
 3945SOL    HW222765   2.124   1.983   3.536
 3946SOL     OW22766   1.805   6.182   3.317
 3946SOL    HW122767   1.752   6.242   3.257
 3946SOL    HW222768   1.760   6.176   3.407
 3947SOL     OW22769   7.458   6.808   5.131
 3947SOL    HW122770   7.547   6.852   5.140
 3947SOL    HW222771   7.470   6.709   5.129
 3948SOL     OW22772   0.775   4.804   4.169
 3948SOL    HW122773   0.820   4.865   4.234
 3948SOL    HW222774   0.820   4.811   4.080
 3949SOL     OW22775   2.766   3.642   0.646
 3949SOL    HW122776   2.854   3.689   0.647
 3949SOL    HW222777   2.714   3.670   0.565
 3950SOL     OW22778   0.656   7.048   2.934
 3950SOL    HW122779   0.707   6.967   2.905
 3950SOL    HW222780   0.651   7.113   2.858
 3951SOL     OW22781   1.913   4.730   1.092
 3951SOL    HW122782   1.877   4.693   1.007
 3951SOL    HW222783   1.926   4.656   1.158
 3952SOL     OW22784   4.210   0.013   0.067
 3952SOL    HW122785   4.247   9.983   6.727
 3952SOL    HW222786   4.280   0.006   0.137
 3953SOL     OW22787   5.897   8.361   3.729
 3953SOL    HW122788   5.966   8.432   3.720
 3953SOL    HW222789   5.825   8.376   3.661
 3954SOL     OW22790   0.828   8.151   5.204
 3954SOL    HW122791   0.760   8.224   5.199
 3954SOL    HW222792   0.797   8.072   5.151
 3955SOL     OW22793   1.318   7.414   4.222
 3955SOL    HW122794   1.303   7.338   4.159
 3955SOL    HW222795   1.272   7.495   4.187
 3956SOL     OW22796   3.519   8.296   3.566
 3956SOL    HW122797   3.448   8.265   3.630
 3956SOL    HW222798   3.484   8.370   3.510
 3957SOL     OW22799   3.042   9.991   3.599
 3957SOL    HW122800   2.956   0.036   3.577
 3957SOL    HW222801   3.041   9.962   3.695
 3958SOL     OW22802   4.688   3.844   4.729
 3958SOL    HW122803   4.759   3.772   4.731
 3958SOL    HW222804   4.598   3.802   4.743
 3959SOL     OW22805   7.307   4.428   1.243
 3959SOL    HW122806   7.300   4.358   1.172
 3959SOL    HW222807   7.285   4.518   1.204
 3960SOL     OW22808   9.331   4.886   4.015
 3960SOL    HW122809   9.402   4.824   4.050
 3960SOL    HW222810   9.248   4.875   4.070
 3961SOL     OW22811   3.110   6.150   5.151
 3961SOL    HW122812   3.131   6.121   5.057
 3961SOL    HW222813   3.174   6.222   5.178
 3962SOL     OW22814   3.774   8.183   2.793
 3962SOL    HW122815   3.739   8.211   2.883
 3962SOL    HW222816   3.779   8.083   2.789
 3963SOL     OW22817   0.790   9.824   4.983
 3963SOL    HW122818   0.699   9.792   5.006
 3963SOL    HW222819   0.789   9.923   4.969
 3964SOL     OW22820   9.256   1.921   0.890
 3964SOL    HW122821   9.284   1.977   0.968
 3964SOL    HW222822   9.157   1.922   0.881
 3965SOL     OW22823   0.856   6.338   1.756
 3965SOL    HW122824   0.760   6.356   1.776
 3965SOL    HW222825   0.861   6.272   1.681
 3966SOL     OW22826   5.769   0.467   5.044
 3966SOL    HW122827   5.848   0.407   5.036
 3966SOL    HW222828   5.791   0.543   5.105
 3967SOL     OW22829   2.026   2.658   0.930
 3967SOL    HW122830   1.981   2.576   0.965
 3967SOL    HW222831   2.076   2.703   1.004
 3968SOL     OW22832   3.342   3.025   1.379
 3968SOL    HW122833   3.431   3.027   1.425
 3968SOL    HW222834   3.270   3.011   1.447
 3969SOL     OW22835   2.121   5.888   3.259
 3969SOL    HW122836   2.106   5.978   3.299
 3969SOL    HW222837   2.036   5.837   3.257
 3970SOL     OW22838   3.580   6.484   4.660
 3970SOL    HW122839   3.519   6.561   4.678
 3970SOL    HW222840   3.579   6.464   4.562
 3971SOL     OW22841   2.654   7.032   3.044
 3971SOL    HW122842   2.723   6.961   3.027
 3971SOL    HW222843   2.626   7.028   3.140
 3972SOL     OW22844   0.498   3.281   2.580
 3972SOL    HW122845   0.422   3.253   2.639
 3972SOL    HW222846   0.519   3.207   2.516
 3973SOL     OW22847   3.923   4.716   4.635
 3973SOL    HW122848   3.837   4.725   4.586
 3973SOL    HW222849   3.971   4.803   4.637
 3974SOL     OW22850   5.431   3.914   0.063
 3974SOL    HW122851   5.474   3.926   6.722
 3974SOL    HW222852   5.340   3.955   0.063
 3975SOL     OW22853   5.775   0.365   2.941
 3975SOL    HW122854   5.791   0.355   2.843
 3975SOL    HW222855   5.729   0.452   2.958
 3976SOL     OW22856   7.675   9.953   4.708
 3976SOL    HW122857   7.675   9.923   4.612
 3976SOL    HW222858   7.691   0.052   4.712
 3977SOL     OW22859   9.384   9.182   0.877
 3977SOL    HW122860   9.435   9.133   0.948
 3977SOL    HW222861   9.381   9.127   0.794
 3978SOL     OW22862   2.846   8.997   3.237
 3978SOL    HW122863   2.916   8.944   3.285
 3978SOL    HW222864   2.801   8.938   3.169
 3979SOL     OW22865   8.980   4.621   3.417
 3979SOL    HW122866   9.005   4.663   3.504
 3979SOL    HW222867   9.013   4.678   3.342
 3980SOL     OW22868   1.773   1.113   2.958
 3980SOL    HW122869   1.772   1.087   2.861
 3980SOL    HW222870   1.710   1.056   3.009
 3981SOL     OW22871   8.276   3.031   2.827
 3981SOL    HW122872   8.219   3.000   2.750
 3981SOL    HW222873   8.362   2.980   2.827
 3982SOL     OW22874   0.687   8.457   1.740
 3982SOL    HW122875   0.683   8.400   1.659
 3982SOL    HW222876   0.601   8.448   1.791
 3983SOL     OW22877   3.121   8.051   0.170
 3983SOL    HW122878   3.191   7.987   0.139
 3983SOL    HW222879   3.092   8.108   0.094
 3984SOL     OW22880   0.769   8.628   3.704
 3984SOL    HW122881   0.825   8.546   3.716
 3984SOL    HW222882   0.802   8.679   3.624
 3985SOL     OW22883   5.535   0.778   1.367
 3985SOL    HW122884   5.498   0.718   1.296
 3985SOL    HW222885   5.463   0.837   1.402
 3986SOL     OW22886   2.286   4.501   4.447
 3986SOL    HW122887   2.323   4.472   4.358
 3986SOL    HW222888   2.338   4.579   4.480
 3987SOL     OW22889   0.466   1.930   4.111
 3987SOL    HW122890   0.537   1.861   4.128
 3987SOL    HW222891   0.409   1.900   4.035
 3988SOL     OW22892   0.602   9.941   0.318
 3988SOL    HW122893   0.627   9.859   0.369
 3988SOL    HW222894   0.682   0.000   0.309
 3989SOL     OW22895   4.887   9.302   3.798
 3989SOL    HW122896   4.830   9.316   3.717
 3989SOL    HW222897   4.855   9.221   3.847
 3990SOL     OW22898   8.912   9.001   3.614
 3990SOL    HW122899   8.833   8.942   3.598
 3990SOL    HW222900   8.894   9.060   3.693
 3991SOL     OW22901   2.671   4.214   3.871
 3991SOL    HW122902   2.598   4.265   3.826
 3991SOL    HW222903   2.663   4.117   3.848
 3992SOL     OW22904   6.891   8.768   4.432
 3992SOL    HW122905   6.939   8.838   4.379
 3992SOL    HW222906   6.795   8.766   4.407
 3993SOL     OW22907   5.256   0.188   1.489
 3993SOL    HW122908   5.260   0.091   1.511
 3993SOL    HW222909   5.333   0.212   1.429
 3994SOL     OW22910   3.893   7.058   3.022
 3994SOL    HW122911   3.952   7.100   2.954
 3994SOL    HW222912   3.928   7.079   3.114
 3995SOL     OW22913   8.272   6.387   4.850
 3995SOL    HW122914   8.270   6.486   4.844
 3995SOL    HW222915   8.319   6.359   4.934
 3996SOL     OW22916   3.708   6.799   1.885
 3996SOL    HW122917   3.764   6.838   1.812
 3996SOL    HW222918   3.636   6.864   1.910
 3997SOL     OW22919   1.763   7.812   1.929
 3997SOL    HW122920   1.847   7.829   1.878
 3997SOL    HW222921   1.781   7.742   1.998
 3998SOL     OW22922   1.158   6.712   3.838
 3998SOL    HW122923   1.063   6.682   3.829
 3998SOL    HW222924   1.172   6.752   3.928
 3999SOL     OW22925   8.883   8.702   2.801
 3999SOL    HW122926   8.864   8.604   2.804
 3999SOL    HW222927   8.883   8.739   2.894
 4000SOL     OW22928   0.249   3.943   1.513
 4000SOL    HW122929   0.211   3.927   1.422
 4000SOL    HW222930   0.335   3.894   1.523
 4001SOL     OW22931   7.978   9.729   4.234
 4001SOL    HW122932   7.893   9.697   4.193
 4001SOL    HW222933   8.038   9.650   4.252
 4002SOL     OW22934   0.577   0.458   1.664
 4002SOL    HW122935   0.641   0.479   1.738
 4002SOL    HW222936   0.513   0.533   1.652
 4003SOL     OW22937   0.185   0.509   4.996
 4003SOL    HW122938   0.123   0.451   5.049
 4003SOL    HW222939   0.279   0.480   5.012
 4004SOL     OW22940   6.837   1.146   3.702
 4004SOL    HW122941   6.817   1.151   3.604
 4004SOL    HW222942   6.776   1.207   3.752
 4005SOL     OW22943   4.189   0.325   3.084
 4005SOL    HW122944   4.136   0.374   3.153
 4005SOL    HW222945   4.128   0.265   3.033
 4006SOL     OW22946   0.423   9.206   4.478
 4006SOL    HW122947   0.429   9.162   4.568
 4006SOL    HW222948   0.337   9.181   4.435
 4007SOL     OW22949   3.423   9.016   1.742
 4007SOL    HW122950   3.465   9.090   1.794
 4007SOL    HW222951   3.483   8.935   1.745
 4008SOL     OW22952   1.363   8.555   2.488
 4008SOL    HW122953   1.459   8.573   2.464
 4008SOL    HW222954   1.336   8.466   2.452
 4009SOL     OW22955   9.093   4.591   2.779
 4009SOL    HW122956   9.044   4.662   2.728
 4009SOL    HW222957   9.179   4.628   2.814
 4010SOL     OW22958   2.013   8.538   4.269
 4010SOL    HW122959   1.982   8.443   4.278
 4010SOL    HW222960   1.974   8.593   4.343
 4011SOL     OW22961   2.480   2.843   3.377
 4011SOL    HW122962   2.442   2.751   3.382
 4011SOL    HW222963   2.407   2.910   3.392
 4012SOL     OW22964   1.954   6.969   2.110
 4012SOL    HW122965   2.002   7.009   2.188
 4012SOL    HW222966   2.019   6.919   2.053
 4013SOL     OW22967   2.199   9.036   1.341
 4013SOL    HW122968   2.280   9.040   1.400
 4013SOL    HW222969   2.123   9.084   1.386
 4014SOL     OW22970   0.932   8.856   4.612
 4014SOL    HW122971   0.883   8.804   4.542
 4014SOL    HW222972   0.910   8.953   4.602
 4015SOL     OW22973   5.574   4.537   0.492
 4015SOL    HW122974   5.648   4.483   0.533
 4015SOL    HW222975   5.495   4.537   0.553
 4016SOL     OW22976   5.644   7.987   5.167
 4016SOL    HW122977   5.603   8.059   5.223
 4016SOL    HW222978   5.743   7.996   5.170
 4017SOL     OW22979   3.823   9.519   4.619
 4017SOL    HW122980   3.763   9.599   4.621
 4017SOL    HW222981   3.768   9.436   4.627
 4018SOL     OW22982   4.186   2.524   0.274
 4018SOL    HW122983   4.227   2.598   0.328
 4018SOL    HW222984   4.113   2.562   0.217
 4019SOL     OW22985   2.064   2.710   0.223
 4019SOL    HW122986   1.968   2.684   0.217
 4019SOL    HW222987   2.118   2.631   0.254
 4020SOL     OW22988   3.724   0.280   2.738
 4020SOL    HW122989   3.795   0.340   2.775
 4020SOL    HW222990   3.757   0.237   2.654
 4021SOL     OW22991   0.379   6.137   3.903
 4021SOL    HW122992   0.286   6.148   3.937
 4021SOL    HW222993   0.420   6.056   3.946
 4022SOL     OW22994   3.609   1.009   3.378
 4022SOL    HW122995   3.592   0.979   3.471
 4022SOL    HW222996   3.628   0.929   3.320
 4023SOL     OW22997   2.069   7.417   4.670
 4023SOL    HW122998   2.095   7.511   4.692
 4023SOL    HW222999   2.074   7.404   4.571
 4024SOL     OW23000   2.701   6.208   3.151
 4024SOL    HW123001   2.741   6.148   3.220
 4024SOL    HW223002   2.641   6.155   3.091
 4025SOL     OW23003   5.646   0.046   4.676
 4025SOL    HW123004   5.657   0.115   4.604
 4025SOL    HW223005   5.694   0.077   4.759
 4026SOL     OW23006   8.277   2.998   2.195
 4026SOL    HW123007   8.305   3.086   2.234
 4026SOL    HW223008   8.353   2.933   2.201
 4027SOL     OW23009   4.404   0.824   0.283
 4027SOL    HW123010   4.334   0.789   0.222
 4027SOL    HW223011   4.414   0.762   0.361
 4028SOL     OW23012   2.351   4.089   3.289
 4028SOL    HW123013   2.426   4.033   3.254
 4028SOL    HW223014   2.337   4.168   3.229
 4029SOL     OW23015   0.588   8.092   3.003
 4029SOL    HW123016   0.583   8.187   3.034
 4029SOL    HW223017   0.642   8.087   2.919
 4030SOL     OW23018   3.831   8.933   1.865
 4030SOL    HW123019   3.920   8.899   1.893
 4030SOL    HW223020   3.840   8.984   1.779
 4031SOL     OW23021   7.198   9.687   3.806
 4031SOL    HW123022   7.260   9.635   3.865
 4031SOL    HW223023   7.109   9.697   3.851
 4032SOL     OW23024   6.172   0.187   4.483
 4032SOL    HW123025   6.184   0.189   4.384
 4032SOL    HW223026   6.250   0.231   4.527
 4033SOL     OW23027   9.838   3.525   4.192
 4033SOL    HW123028   9.820   3.616   4.230
 4033SOL    HW223029   9.794   3.456   4.249
 4034SOL     OW23030   9.949   3.259   5.217
 4034SOL    HW123031   9.875   3.244   5.283
 4034SOL    HW223032   9.945   3.353   5.183
 4035SOL     OW23033   1.726   1.463   2.861
 4035SOL    HW123034   1.726   1.561   2.881
 4035SOL    HW223035   1.670   1.415   2.929
 4036SOL     OW23036   1.693   4.789   2.939
 4036SOL    HW123037   1.740   4.869   2.903
 4036SOL    HW223038   1.753   4.709   2.935
 4037SOL     OW23039   1.707   8.624   1.185
 4037SOL    HW123040   1.713   8.535   1.139
 4037SOL    HW223041   1.773   8.628   1.259
 4038SOL     OW23042   0.338   0.634   3.848
 4038SOL    HW123043   0.369   0.640   3.943
 4038SOL    HW223044   0.239   0.619   3.847
 4039SOL     OW23045   0.973   9.351   4.494
 4039SOL    HW123046   0.922   9.341   4.408
 4039SOL    HW223047   0.968   9.446   4.524
 4040SOL     OW23048   2.950   8.200   5.305
 4040SOL    HW123049   2.943   8.299   5.302
 4040SOL    HW223050   2.993   8.171   5.391
 4041SOL     OW23051   7.577   8.461   2.711
 4041SOL    HW123052   7.631   8.420   2.784
 4041SOL    HW223053   7.514   8.392   2.674
 4042SOL     OW23054   3.513   4.917   1.271
 4042SOL    HW123055   3.479   4.915   1.177
 4042SOL    HW223056   3.470   4.844   1.324
 4043SOL     OW23057   9.635   2.675   3.793
 4043SOL    HW123058   9.574   2.667   3.714
 4043SOL    HW223059   9.616   2.601   3.858
 4044SOL     OW23060   1.584   2.284   5.095
 4044SOL    HW123061   1.656   2.349   5.069
 4044SOL    HW223062   1.531   2.323   5.170
 4045SOL     OW23063   5.515   5.521   1.760
 4045SOL    HW123064   5.467   5.576   1.691
 4045SOL    HW223065   5.608   5.501   1.729
 4046SOL     OW23066   1.336   0.793   5.027
 4046SOL    HW123067   1.388   0.752   4.951
 4046SOL    HW223068   1.382   0.770   5.113
 4047SOL     OW23069   0.600   7.184   5.065
 4047SOL    HW123070   0.577   7.236   4.982
 4047SOL    HW223071   0.629   7.247   5.137
 4048SOL     OW23072   4.237   3.017   1.724
 4048SOL    HW123073   4.154   3.023   1.668
 4048SOL    HW223074   4.212   3.017   1.821
 4049SOL     OW23075   0.655   1.817   2.024
 4049SOL    HW123076   0.600   1.747   2.069
 4049SOL    HW223077   0.642   1.811   1.925
 4050SOL     OW23078   0.548   6.726   4.546
 4050SOL    HW123079   0.554   6.824   4.564
 4050SOL    HW223080   0.468   6.689   4.593
 4051SOL     OW23081   8.177   0.252   0.772
 4051SOL    HW123082   8.264   0.204   0.765
 4051SOL    HW223083   8.103   0.185   0.781
 4052SOL     OW23084   9.944   7.989   1.942
 4052SOL    HW123085   9.898   8.027   1.862
 4052SOL    HW223086   9.927   7.891   1.947
 4053SOL     OW23087   2.667   7.440   4.632
 4053SOL    HW123088   2.753   7.404   4.595
 4053SOL    HW223089   2.623   7.499   4.564
 4054SOL     OW23090   9.779   5.065   4.801
 4054SOL    HW123091   9.856   5.079   4.739
 4054SOL    HW223092   9.693   5.072   4.750
 4055SOL     OW23093   9.511   3.712   1.213
 4055SOL    HW123094   9.604   3.699   1.248
 4055SOL    HW223095   9.480   3.804   1.233
 4056SOL     OW23096   2.022   5.688   2.829
 4056SOL    HW123097   2.019   5.590   2.808
 4056SOL    HW223098   2.048   5.739   2.747
 4057SOL     OW23099   4.195   3.041   4.971
 4057SOL    HW123100   4.292   3.016   4.976
 4057SOL    HW223101   4.145   2.969   4.924
 4058SOL     OW23102   1.057   9.685   2.521
 4058SOL    HW123103   1.017   9.774   2.544
 4058SOL    HW223104   1.081   9.683   2.424
 4059SOL     OW23105   7.703   2.624   4.501
 4059SOL    HW123106   7.707   2.582   4.592
 4059SOL    HW223107   7.638   2.700   4.503
 4060SOL     OW23108   2.725   5.386   0.485
 4060SOL    HW123109   2.693   5.311   0.426
 4060SOL    HW223110   2.646   5.440   0.516
 4061SOL     OW23111   2.325   8.000   3.224
 4061SOL    HW123112   2.242   8.054   3.212
 4061SOL    HW223113   2.382   8.040   3.296
 4062SOL     OW23114   8.766   3.501   2.165
 4062SOL    HW123115   8.691   3.511   2.231
 4062SOL    HW223116   8.853   3.510   2.213
 4063SOL     OW23117   4.352   1.196   1.850
 4063SOL    HW123118   4.395   1.214   1.939
 4063SOL    HW223119   4.253   1.187   1.862
 4064SOL     OW23120   8.830   5.186   5.217
 4064SOL    HW123121   8.828   5.090   5.244
 4064SOL    HW223122   8.742   5.228   5.236
 4065SOL     OW23123   9.423   8.877   3.691
 4065SOL    HW123124   9.488   8.874   3.615
 4065SOL    HW223125   9.330   8.871   3.655
 4066SOL     OW23126   2.624   3.683   0.412
 4066SOL    HW123127   2.659   3.606   0.357
 4066SOL    HW223128   2.641   3.768   0.362
 4067SOL     OW23129   5.950   0.739   2.608
 4067SOL    HW123130   5.919   0.816   2.552
 4067SOL    HW223131   6.050   0.735   2.607
 4068SOL     OW23132   9.719   1.099   4.371
 4068SOL    HW123133   9.793   1.137   4.316
 4068SOL    HW223134   9.690   1.011   4.333
 4069SOL     OW23135   8.206   1.114   2.813
 4069SOL    HW123136   8.137   1.063   2.761
 4069SOL    HW223137   8.177   1.122   2.908
 4070SOL     OW23138   1.606   8.140   4.548
 4070SOL    HW123139   1.574   8.147   4.453
 4070SOL    HW223140   1.535   8.175   4.609
 4071SOL     OW23141   1.477   9.458   2.678
 4071SOL    HW123142   1.478   9.400   2.760
 4071SOL    HW223143   1.444   9.549   2.703
 4072SOL     OW23144   0.673   6.187   3.226
 4072SOL    HW123145   0.756   6.179   3.280
 4072SOL    HW223146   0.593   6.176   3.285
 4073SOL     OW23147   0.959   9.137   0.711
 4073SOL    HW123148   0.939   9.041   0.694
 4073SOL    HW223149   0.959   9.155   0.810
 4074SOL     OW23150   2.547   0.794   0.158
 4074SOL    HW123151   2.628   0.750   0.119
 4074SOL    HW223152   2.574   0.880   0.201
 4075SOL     OW23153   6.791   4.340   0.818
 4075SOL    HW123154   6.886   4.359   0.795
 4075SOL    HW223155   6.772   4.370   0.912
 4076SOL     OW23156   9.518   0.861   5.066
 4076SOL    HW123157   9.446   0.882   5.132
 4076SOL    HW223158   9.545   0.766   5.075
 4077SOL     OW23159   4.492   0.478   3.695
 4077SOL    HW123160   4.492   0.562   3.641
 4077SOL    HW223161   4.398   0.447   3.711
 4078SOL     OW23162   3.393   1.739   2.420
 4078SOL    HW123163   3.476   1.795   2.427
 4078SOL    HW223164   3.322   1.776   2.480
 4079SOL     OW23165   2.150   3.882   4.227
 4079SOL    HW123166   2.168   3.915   4.319
 4079SOL    HW223167   2.061   3.917   4.196
 4080SOL     OW23168   0.782   1.309   3.333
 4080SOL    HW123169   0.781   1.216   3.297
 4080SOL    HW223170   0.789   1.306   3.433
 4081SOL     OW23171   4.517   9.329   1.298
 4081SOL    HW123172   4.422   9.361   1.304
 4081SOL    HW223173   4.517   9.229   1.297
 4082SOL     OW23174   8.488   2.586   4.728
 4082SOL    HW123175   8.582   2.552   4.739
 4082SOL    HW223176   8.449   2.549   4.644
 4083SOL     OW23177   3.059   8.198   0.393
 4083SOL    HW123178   3.085   8.143   0.314
 4083SOL    HW223179   3.139   8.216   0.449
 4084SOL     OW23180   2.125   8.920   4.207
 4084SOL    HW123181   2.192   8.916   4.282
 4084SOL    HW223182   2.044   8.969   4.237
 4085SOL     OW23183   4.276   8.260   0.142
 4085SOL    HW123184   4.209   8.212   0.198
 4085SOL    HW223185   4.288   8.353   0.177
 4086SOL     OW23186   8.449   6.253   1.889
 4086SOL    HW123187   8.487   6.236   1.798
 4086SOL    HW223188   8.349   6.256   1.883
 4087SOL     OW23189   2.800   9.726   1.785
 4087SOL    HW123190   2.705   9.699   1.799
 4087SOL    HW223191   2.832   9.778   1.864
 4088SOL     OW23192   9.020   4.916   1.860
 4088SOL    HW123193   9.102   4.871   1.824
 4088SOL    HW223194   9.017   5.011   1.830
 4089SOL     OW23195   3.493   1.549   3.329
 4089SOL    HW123196   3.485   1.569   3.426
 4089SOL    HW223197   3.503   1.450   3.316
 4090SOL     OW23198   9.175   6.579   0.637
 4090SOL    HW123199   9.103   6.533   0.585
 4090SOL    HW223200   9.209   6.518   0.708
 4091SOL     OW23201   4.431   9.919   0.212
 4091SOL    HW123202   4.400   9.872   0.295
 4091SOL    HW223203   4.426   9.856   0.135
 4092SOL     OW23204   0.002   0.295   2.349
 4092SOL    HW123205   9.932   0.227   2.327
 4092SOL    HW223206   0.088   0.269   2.305
 4093SOL     OW23207   1.964   7.293   1.756
 4093SOL    HW123208   2.014   7.277   1.671
 4093SOL    HW223209   1.926   7.206   1.789
 4094SOL     OW23210   3.290   5.393   5.067
 4094SOL    HW123211   3.368   5.453   5.085
 4094SOL    HW223212   3.218   5.412   5.134
 4095SOL     OW23213   8.740   4.835   1.895
 4095SOL    HW123214   8.707   4.745   1.925
 4095SOL    HW223215   8.840   4.835   1.895
 4096SOL     OW23216   1.422   9.313   0.024
 4096SOL    HW123217   1.384   9.386   6.716
 4096SOL    HW223218   1.478   9.352   0.097
 4097SOL     OW23219   9.282   4.973   3.437
 4097SOL    HW123220   9.289   4.968   3.537
 4097SOL    HW223221   9.297   5.067   3.407
 4098SOL     OW23222   4.675   0.025   0.152
 4098SOL    HW123223   4.583   9.996   0.177
 4098SOL    HW223224   4.690   0.009   0.055
 4099SOL     OW23225   8.153   6.880   3.219
 4099SOL    HW123226   8.167   6.837   3.308
 4099SOL    HW223227   8.231   6.860   3.160
 4100SOL     OW23228   2.801   4.169   4.543
 4100SOL    HW123229   2.728   4.109   4.510
 4100SOL    HW223230   2.854   4.122   4.614
 4101SOL     OW23231   8.658   9.364   2.622
 4101SOL    HW123232   8.715   9.285   2.645
 4101SOL    HW223233   8.583   9.334   2.563
 4102SOL     OW23234   8.749   7.137   2.491
 4102SOL    HW123235   8.836   7.087   2.492
 4102SOL    HW223236   8.753   7.210   2.423
 4103SOL     OW23237   4.363   8.220   3.066
 4103SOL    HW123238   4.270   8.190   3.048
 4103SOL    HW223239   4.402   8.262   2.984
 4104SOL     OW23240   8.992   0.359   4.117
 4104SOL    HW123241   8.982   0.301   4.037
 4104SOL    HW223242   9.004   0.454   4.088
 4105SOL     OW23243   2.185   8.054   4.282
 4105SOL    HW123244   2.092   8.041   4.315
 4105SOL    HW223245   2.244   8.082   4.359
 4106SOL     OW23246   4.056   3.773   1.204
 4106SOL    HW123247   4.073   3.865   1.237
 4106SOL    HW223248   4.011   3.719   1.275
 4107SOL     OW23249   2.092   0.656   4.773
 4107SOL    HW123250   2.012   0.648   4.833
 4107SOL    HW223251   2.161   0.714   4.817
 4108SOL     OW23252   5.634   8.654   4.477
 4108SOL    HW123253   5.713   8.679   4.422
 4108SOL    HW223254   5.640   8.697   4.567
 4109SOL     OW23255   8.334   7.487   3.997
 4109SOL    HW123256   8.406   7.556   4.009
 4109SOL    HW223257   8.264   7.522   3.934
 4110SOL     OW23258   8.375   2.641   0.283
 4110SOL    HW123259   8.284   2.606   0.265
 4110SOL    HW223260   8.433   2.567   0.317
 4111SOL     OW23261   0.312   8.613   2.586
 4111SOL    HW123262   0.391   8.557   2.562
 4111SOL    HW223263   0.237   8.594   2.523
 4112SOL     OW23264   7.282   3.098   3.441
 4112SOL    HW123265   7.190   3.075   3.472
 4112SOL    HW223266   7.308   3.037   3.365
 4113SOL     OW23267   2.274   6.055   4.645
 4113SOL    HW123268   2.362   6.101   4.660
 4113SOL    HW223269   2.204   6.098   4.702
 4114SOL     OW23270   7.585   0.338   4.828
 4114SOL    HW123271   7.630   0.296   4.749
 4114SOL    HW223272   7.487   0.345   4.811
 4115SOL     OW23273   5.318   2.242   1.413
 4115SOL    HW123274   5.329   2.287   1.325
 4115SOL    HW223275   5.237   2.279   1.460
 4116SOL     OW23276   3.234   4.804   2.772
 4116SOL    HW123277   3.218   4.820   2.869
 4116SOL    HW223278   3.326   4.767   2.759
 4117SOL     OW23279   4.416   3.484   0.503
 4117SOL    HW123280   4.422   3.500   0.404
 4117SOL    HW223281   4.414   3.572   0.550
 4118SOL     OW23282   9.898   2.444   3.528
 4118SOL    HW123283   9.851   2.528   3.499
 4118SOL    HW223284   9.971   2.468   3.592
 4119SOL     OW23285   8.215   7.863   3.936
 4119SOL    HW123286   8.179   7.776   3.904
 4119SOL    HW223287   8.302   7.882   3.890
 4120SOL     OW23288   8.877   8.330   0.037
 4120SOL    HW123289   8.960   8.342   0.092
 4120SOL    HW223290   8.848   8.234   0.041
 4121SOL     OW23291   0.557   8.160   2.300
 4121SOL    HW123292   0.619   8.238   2.304
 4121SOL    HW223293   0.539   8.137   2.204
 4122SOL     OW23294   8.531   2.519   2.538
 4122SOL    HW123295   8.478   2.514   2.453
 4122SOL    HW223296   8.542   2.428   2.577
 4123SOL     OW23297   1.448   4.161   3.301
 4123SOL    HW123298   1.375   4.127   3.242
 4123SOL    HW223299   1.523   4.095   3.302
 4124SOL     OW23300   1.645   9.887   3.949
 4124SOL    HW123301   1.578   9.849   4.012
 4124SOL    HW223302   1.656   9.825   3.871
 4125SOL     OW23303   3.796   0.593   0.214
 4125SOL    HW123304   3.789   0.493   0.214
 4125SOL    HW223305   3.853   0.622   0.137
 4126SOL     OW23306   9.057   4.731   3.658
 4126SOL    HW123307   9.035   4.707   3.753
 4126SOL    HW223308   9.154   4.710   3.641
 4127SOL     OW23309   3.288   7.603   1.435
 4127SOL    HW123310   3.241   7.691   1.430
 4127SOL    HW223311   3.380   7.616   1.472
 4128SOL     OW23312   4.093   3.892   0.481
 4128SOL    HW123313   4.045   3.964   0.430
 4128SOL    HW223314   4.084   3.805   0.433
 4129SOL     OW23315   3.395   2.556   2.444
 4129SOL    HW123316   3.304   2.585   2.475
 4129SOL    HW223317   3.396   2.547   2.345
 4130SOL     OW23318   8.150   5.211   0.787
 4130SOL    HW123319   8.233   5.218   0.731
 4130SOL    HW223320   8.144   5.290   0.847
 4131SOL     OW23321   0.779   0.654   0.837
 4131SOL    HW123322   0.811   0.560   0.826
 4131SOL    HW223323   0.763   0.694   0.747
 4132SOL     OW23324   4.292   2.077   1.036
 4132SOL    HW123325   4.331   2.165   1.063
 4132SOL    HW223326   4.349   2.003   1.073
 4133SOL     OW23327   9.285   2.612   1.549
 4133SOL    HW123328   9.230   2.536   1.513
 4133SOL    HW223329   9.245   2.645   1.634
 4134SOL     OW23330   9.900   7.027   4.367
 4134SOL    HW123331   9.951   7.095   4.419
 4134SOL    HW223332   9.952   7.002   4.285
 4135SOL     OW23333   8.548   9.643   0.232
 4135SOL    HW123334   8.527   9.619   0.327
 4135SOL    HW223335   8.600   9.728   0.230
 4136SOL     OW23336   1.790   6.303   3.842
 4136SOL    HW123337   1.803   6.339   3.749
 4136SOL    HW223338   1.697   6.321   3.872
 4137SOL     OW23339   4.834   0.519   3.311
 4137SOL    HW123340   4.816   0.567   3.225
 4137SOL    HW223341   4.923   0.475   3.307
 4138SOL     OW23342   0.022   7.267   3.629
 4138SOL    HW123343   9.976   7.295   3.545
 4138SOL    HW223344   9.955   7.225   3.691
 4139SOL     OW23345   5.295   7.634   2.645
 4139SOL    HW123346   5.214   7.690   2.661
 4139SOL    HW223347   5.376   7.693   2.641
 4140SOL     OW23348   2.591   2.470   0.246
 4140SOL    HW123349   2.554   2.543   0.302
 4140SOL    HW223350   2.680   2.498   0.208
 4141SOL     OW23351   7.126   8.067   3.326
 4141SOL    HW123352   7.147   8.088   3.421
 4141SOL    HW223353   7.146   7.971   3.307
 4142SOL     OW23354   2.183   1.423   3.565
 4142SOL    HW123355   2.274   1.442   3.528
 4142SOL    HW223356   2.126   1.380   3.495
 4143SOL     OW23357   8.967   4.551   3.027
 4143SOL    HW123358   8.974   4.573   2.929
 4143SOL    HW223359   9.054   4.512   3.058
 4144SOL     OW23360   4.967   8.031   4.783
 4144SOL    HW123361   4.984   7.948   4.837
 4144SOL    HW223362   4.969   8.110   4.844
 4145SOL     OW23363   6.513   0.105   5.224
 4145SOL    HW123364   6.431   0.050   5.206
 4145SOL    HW223365   6.525   0.116   5.323
 4146SOL     OW23366   7.128   2.214   2.167
 4146SOL    HW123367   7.169   2.254   2.085
 4146SOL    HW223368   7.041   2.171   2.143
 4147SOL     OW23369   8.860   9.801   2.135
 4147SOL    HW123370   8.892   9.866   2.067
 4147SOL    HW223371   8.930   9.730   2.149
 4148SOL     OW23372   0.406   7.792   1.217
 4148SOL    HW123373   0.443   7.796   1.310
 4148SOL    HW223374   0.398   7.697   1.189
 4149SOL     OW23375   9.934   2.020   2.306
 4149SOL    HW123376   9.887   1.973   2.232
 4149SOL    HW223377   9.915   1.974   2.393
 4150SOL     OW23378   8.039   4.644   1.636
 4150SOL    HW123379   8.000   4.664   1.546
 4150SOL    HW223380   8.062   4.547   1.642
 4151SOL     OW23381   2.784   8.523   1.222
 4151SOL    HW123382   2.789   8.424   1.217
 4151SOL    HW223383   2.867   8.559   1.264
 4152SOL     OW23384   0.820   2.516   0.255
 4152SOL    HW123385   0.872   2.459   0.190
 4152SOL    HW223386   0.728   2.480   0.264
 4153SOL     OW23387   6.615   8.308   2.891
 4153SOL    HW123388   6.600   8.407   2.893
 4153SOL    HW223389   6.531   8.260   2.916
 4154SOL     OW23390   5.822   8.566   5.147
 4154SOL    HW123391   5.834   8.602   5.239
 4154SOL    HW223392   5.873   8.624   5.082
 4155SOL     OW23393   3.827   1.649   3.098
 4155SOL    HW123394   3.880   1.616   3.019
 4155SOL    HW223395   3.883   1.713   3.150
 4156SOL     OW23396   1.107   7.134   0.437
 4156SOL    HW123397   1.151   7.048   0.463
 4156SOL    HW223398   1.081   7.184   0.520
 4157SOL     OW23399   6.684   7.919   2.774
 4157SOL    HW123400   6.609   7.883   2.830
 4157SOL    HW223401   6.759   7.948   2.833
 4158SOL     OW23402   2.734   6.752   3.917
 4158SOL    HW123403   2.700   6.833   3.869
 4158SOL    HW223404   2.832   6.761   3.932
 4159SOL     OW23405   2.799   2.033   0.740
 4159SOL    HW123406   2.711   2.070   0.713
 4159SOL    HW223407   2.788   1.978   0.823
 4160SOL     OW23408   6.597   9.573   4.449
 4160SOL    HW123409   6.675   9.631   4.473
 4160SOL    HW223410   6.576   9.584   4.352
 4161SOL     OW23411   7.826   4.945   0.489
 4161SOL    HW123412   7.868   4.939   0.398
 4161SOL    HW223413   7.727   4.950   0.480
 4162SOL     OW23414   7.356   4.576   0.252
 4162SOL    HW123415   7.259   4.554   0.241
 4162SOL    HW223416   7.411   4.493   0.237
 4163SOL     OW23417   2.066   0.803   4.549
 4163SOL    HW123418   2.062   0.750   4.634
 4163SOL    HW223419   2.137   0.765   4.489
 4164SOL     OW23420   5.688   8.431   2.288
 4164SOL    HW123421   5.640   8.408   2.204
 4164SOL    HW223422   5.776   8.473   2.266
 4165SOL     OW23423   9.717   3.677   3.008
 4165SOL    HW123424   9.720   3.607   3.079
 4165SOL    HW223425   9.787   3.658   2.940
 4166SOL     OW23426   1.090   8.471   0.240
 4166SOL    HW123427   1.003   8.484   0.192
 4166SOL    HW223428   1.152   8.546   0.217
 4167SOL     OW23429   1.446   6.015   3.422
 4167SOL    HW123430   1.360   6.066   3.415
 4167SOL    HW223431   1.513   6.069   3.473
 4168SOL     OW23432   3.960   3.174   4.216
 4168SOL    HW123433   3.971   3.096   4.154
 4168SOL    HW223434   4.036   3.175   4.282
 4169SOL     OW23435   4.069   4.326   3.080
 4169SOL    HW123436   4.068   4.281   3.169
 4169SOL    HW223437   4.157   4.371   3.067
 4170SOL     OW23438   2.695   7.828   4.432
 4170SOL    HW123439   2.636   7.747   4.429
 4170SOL    HW223440   2.764   7.816   4.504
 4171SOL     OW23441   4.087   4.980   2.031
 4171SOL    HW123442   4.081   4.926   1.947
 4171SOL    HW223443   4.160   4.943   2.089
 4172SOL     OW23444   7.844   2.415   0.997
 4172SOL    HW123445   7.884   2.380   1.082
 4172SOL    HW223446   7.911   2.474   0.951
 4173SOL     OW23447   3.599   5.006   1.915
 4173SOL    HW123448   3.683   5.035   1.962
 4173SOL    HW223449   3.622   4.938   1.845
 4174SOL     OW23450   7.761   1.376   4.394
 4174SOL    HW123451   7.815   1.360   4.477
 4174SOL    HW223452   7.793   1.458   4.348
 4175SOL     OW23453   1.929   6.351   4.079
 4175SOL    HW123454   1.889   6.334   3.988
 4175SOL    HW223455   2.027   6.369   4.069
 4176SOL     OW23456   2.956   0.705   2.254
 4176SOL    HW123457   3.023   0.696   2.328
 4176SOL    HW223458   3.000   0.684   2.167
 4177SOL     OW23459   4.030   1.013   0.971
 4177SOL    HW123460   3.944   0.987   0.927
 4177SOL    HW223461   4.013   1.076   1.046
 4178SOL     OW23462   0.534   4.041   1.799
 4178SOL    HW123463   0.526   3.942   1.813
 4178SOL    HW223464   0.604   4.058   1.729
 4179SOL     OW23465   5.830   1.394   4.910
 4179SOL    HW123466   5.786   1.482   4.892
 4179SOL    HW223467   5.905   1.380   4.846
 4180SOL     OW23468   9.932   0.530   4.741
 4180SOL    HW123469   9.918   0.531   4.642
 4180SOL    HW223470   0.012   0.586   4.764
 4181SOL     OW23471   9.480   8.225   3.573
 4181SOL    HW123472   9.529   8.179   3.499
 4181SOL    HW223473   9.520   8.316   3.587
 4182SOL     OW23474   4.351   8.116   4.142
 4182SOL    HW123475   4.418   8.177   4.100
 4182SOL    HW223476   4.272   8.107   4.081
 4183SOL     OW23477   4.224   8.707   4.277
 4183SOL    HW123478   4.222   8.717   4.376
 4183SOL    HW223479   4.164   8.775   4.235
 4184SOL     OW23480   4.287   5.868   3.290
 4184SOL    HW123481   4.330   5.782   3.317
 4184SOL    HW223482   4.311   5.890   3.196
 4185SOL     OW23483   4.527   4.128   2.928
 4185SOL    HW123484   4.476   4.188   2.866
 4185SOL    HW223485   4.466   4.093   2.998
 4186SOL     OW23486   7.956   2.491   4.472
 4186SOL    HW123487   7.994   2.471   4.382
 4186SOL    HW223488   7.878   2.552   4.462
 4187SOL     OW23489   0.640   7.073   0.726
 4187SOL    HW123490   0.650   7.127   0.809
 4187SOL    HW223491   0.573   7.000   0.741
 4188SOL     OW23492   1.072   4.602   3.271
 4188SOL    HW123493   1.060   4.572   3.176
 4188SOL    HW223494   1.164   4.638   3.284
 4189SOL     OW23495   6.754   7.698   4.509
 4189SOL    HW123496   6.716   7.606   4.519
 4189SOL    HW223497   6.804   7.704   4.422
 4190SOL     OW23498   9.062   7.535   4.378
 4190SOL    HW123499   9.089   7.583   4.294
 4190SOL    HW223500   8.979   7.577   4.414
 4191SOL     OW23501   4.478   4.725   3.973
 4191SOL    HW123502   4.472   4.763   4.065
 4191SOL    HW223503   4.390   4.734   3.927
 4192SOL     OW23504   4.448   3.381   4.983
 4192SOL    HW123505   4.482   3.314   5.049
 4192SOL    HW223506   4.387   3.336   4.918
 4193SOL     OW23507   9.647   5.094   1.509
 4193SOL    HW123508   9.657   5.003   1.469
 4193SOL    HW223509   9.722   5.153   1.478
 4194SOL     OW23510   2.414   4.598   3.880
 4194SOL    HW123511   2.385   4.643   3.965
 4194SOL    HW223512   2.398   4.659   3.803
 4195SOL     OW23513   6.735   0.908   0.205
 4195SOL    HW123514   6.774   0.828   0.160
 4195SOL    HW223515   6.653   0.881   0.255
 4196SOL     OW23516   6.958   1.817   2.593
 4196SOL    HW123517   6.870   1.778   2.620
 4196SOL    HW223518   7.030   1.780   2.651
 4197SOL     OW23519   9.804   1.898   2.096
 4197SOL    HW123520   9.773   1.808   2.129
 4197SOL    HW223521   9.740   1.931   2.026
 4198SOL     OW23522   7.930   7.220   2.741
 4198SOL    HW123523   7.908   7.126   2.766
 4198SOL    HW223524   7.885   7.282   2.805
 4199SOL     OW23525   1.436   7.734   2.379
 4199SOL    HW123526   1.484   7.818   2.353
 4199SOL    HW223527   1.462   7.660   2.318
 4200SOL     OW23528   3.280   5.225   3.597
 4200SOL    HW123529   3.185   5.231   3.627
 4200SOL    HW223530   3.340   5.216   3.677
 4201SOL     OW23531   4.969   9.631   1.713
 4201SOL    HW123532   5.064   9.600   1.712
 4201SOL    HW223533   4.951   9.682   1.797
 4202SOL     OW23534   0.616   3.774   3.785
 4202SOL    HW123535   0.548   3.700   3.779
 4202SOL    HW223536   0.692   3.745   3.843
 4203SOL     OW23537   0.083   1.387   3.200
 4203SOL    HW123538   0.117   1.413   3.291
 4203SOL    HW223539   0.107   1.292   3.182
 4204SOL     OW23540   1.061   4.483   3.959
 4204SOL    HW123541   1.141   4.513   3.906
 4204SOL    HW223542   1.086   4.481   4.056
 4205SOL     OW23543   0.498   7.200   4.157
 4205SOL    HW123544   0.436   7.153   4.220
 4205SOL    HW223545   0.472   7.297   4.152
 4206SOL     OW23546   4.208   9.246   4.290
 4206SOL    HW123547   4.246   9.158   4.317
 4206SOL    HW223548   4.244   9.272   4.201
 4207SOL     OW23549   4.539   1.809   2.363
 4207SOL    HW123550   4.540   1.840   2.458
 4207SOL    HW223551   4.505   1.715   2.359
 4208SOL     OW23552   7.610   8.514   3.417
 4208SOL    HW123553   7.577   8.564   3.498
 4208SOL    HW223554   7.538   8.451   3.386
 4209SOL     OW23555   3.990   3.744   3.620
 4209SOL    HW123556   4.048   3.823   3.642
 4209SOL    HW223557   4.047   3.662   3.617
 4210SOL     OW23558   3.698   5.733   2.573
 4210SOL    HW123559   3.752   5.780   2.642
 4210SOL    HW223560   3.730   5.758   2.482
 4211SOL     OW23561   3.951   3.087   0.921
 4211SOL    HW123562   3.907   3.094   0.831
 4211SOL    HW223563   4.047   3.062   0.909
 4212SOL     OW23564   0.923   2.898   0.548
 4212SOL    HW123565   0.849   2.948   0.594
 4212SOL    HW223566   0.989   2.963   0.510
 4213SOL     OW23567   2.836   6.555   0.721
 4213SOL    HW123568   2.737   6.545   0.714
 4213SOL    HW223569   2.880   6.467   0.705
 4214SOL     OW23570   8.258   7.161   4.445
 4214SOL    HW123571   8.282   7.222   4.369
 4214SOL    HW223572   8.327   7.088   4.452
 4215SOL     OW23573   2.136   7.817   3.910
 4215SOL    HW123574   2.197   7.809   3.831
 4215SOL    HW223575   2.116   7.913   3.927
 4216SOL     OW23576   6.043   1.401   4.086
 4216SOL    HW123577   6.012   1.380   3.993
 4216SOL    HW223578   5.967   1.391   4.150
 4217SOL     OW23579   4.603   4.146   3.419
 4217SOL    HW123580   4.574   4.150   3.515
 4217SOL    HW223581   4.533   4.190   3.362
 4218SOL     OW23582   1.730   3.417   4.447
 4218SOL    HW123583   1.656   3.381   4.504
 4218SOL    HW223584   1.746   3.355   4.370
 4219SOL     OW23585   3.257   9.656   1.283
 4219SOL    HW123586   3.232   9.572   1.330
 4219SOL    HW223587   3.175   9.711   1.266
 4220SOL     OW23588   2.998   3.547   0.315
 4220SOL    HW123589   3.056   3.534   0.396
 4220SOL    HW223590   2.961   3.458   0.286
 4221SOL     OW23591   9.481   3.192   1.474
 4221SOL    HW123592   9.467   3.102   1.517
 4221SOL    HW223593   9.573   3.225   1.498
 4222SOL     OW23594   4.558   4.864   2.550
 4222SOL    HW123595   4.509   4.875   2.636
 4222SOL    HW223596   4.545   4.946   2.494
 4223SOL     OW23597   9.111   4.758   4.818
 4223SOL    HW123598   9.111   4.813   4.901
 4223SOL    HW223599   9.178   4.795   4.753
 4224SOL     OW23600   0.370   4.342   5.272
 4224SOL    HW123601   0.421   4.368   5.354
 4224SOL    HW223602   0.273   4.364   5.285
 4225SOL     OW23603   6.014   2.249   3.311
 4225SOL    HW123604   5.941   2.315   3.329
 4225SOL    HW223605   5.982   2.179   3.247
 4226SOL     OW23606   8.575   2.742   1.963
 4226SOL    HW123607   8.547   2.717   1.870
 4226SOL    HW223608   8.646   2.680   1.994
 4227SOL     OW23609   1.936   2.610   2.426
 4227SOL    HW123610   1.868   2.638   2.494
 4227SOL    HW223611   2.023   2.593   2.472
 4228SOL     OW23612   2.196   2.254   0.796
 4228SOL    HW123613   2.225   2.339   0.838
 4228SOL    HW223614   2.098   2.240   0.813
 4229SOL     OW23615   3.567   5.653   1.911
 4229SOL    HW123616   3.554   5.585   1.983
 4229SOL    HW223617   3.482   5.662   1.859
 4230SOL     OW23618   6.334   0.716   2.124
 4230SOL    HW123619   6.400   0.779   2.084
 4230SOL    HW223620   6.308   0.748   2.215
 4231SOL     OW23621   8.715   5.340   2.778
 4231SOL    HW123622   8.681   5.324   2.686
 4231SOL    HW223623   8.653   5.403   2.826
 4232SOL     OW23624   3.051   7.493   2.301
 4232SOL    HW123625   3.026   7.543   2.385
 4232SOL    HW223626   2.985   7.514   2.229
 4233SOL     OW23627   5.103   6.239   1.776
 4233SOL    HW123628   5.033   6.188   1.726
 4233SOL    HW223629   5.183   6.252   1.718
 4234SOL     OW23630   9.643   5.427   4.988
 4234SOL    HW123631   9.557   5.383   5.014
 4234SOL    HW223632   9.635   5.463   4.895
 4235SOL     OW23633   4.981   9.452   0.078
 4235SOL    HW123634   4.994   9.459   6.727
 4235SOL    HW223635   4.912   9.518   0.108
 4236SOL     OW23636   0.887   4.406   3.753
 4236SOL    HW123637   0.932   4.423   3.666
 4236SOL    HW223638   0.951   4.423   3.828
 4237SOL     OW23639   4.569   3.171   2.995
 4237SOL    HW123640   4.484   3.160   2.943
 4237SOL    HW223641   4.549   3.212   3.084
 4238SOL     OW23642   8.216   3.985   5.155
 4238SOL    HW123643   8.182   3.891   5.160
 4238SOL    HW223644   8.144   4.044   5.119
 4239SOL     OW23645   2.697   5.801   3.703
 4239SOL    HW123646   2.664   5.865   3.634
 4239SOL    HW223647   2.706   5.710   3.662
 4240SOL     OW23648   0.359   2.415   1.202
 4240SOL    HW123649   0.264   2.445   1.193
 4240SOL    HW223650   0.389   2.373   1.117
 4241SOL     OW23651   0.772   8.769   2.301
 4241SOL    HW123652   0.675   8.764   2.321
 4241SOL    HW223653   0.809   8.855   2.336
 4242SOL     OW23654   3.357   1.686   4.643
 4242SOL    HW123655   3.356   1.746   4.562
 4242SOL    HW223656   3.289   1.717   4.709
 4243SOL     OW23657   1.058   3.507   2.234
 4243SOL    HW123658   1.144   3.463   2.262
 4243SOL    HW223659   1.078   3.595   2.191
 4244SOL     OW23660   2.506   6.778   4.526
 4244SOL    HW123661   2.424   6.721   4.536
 4244SOL    HW223662   2.561   6.771   4.609
 4245SOL     OW23663   5.181   2.530   4.805
 4245SOL    HW123664   5.108   2.576   4.854
 4245SOL    HW223665   5.231   2.470   4.868
 4246SOL     OW23666   0.836   5.460   2.355
 4246SOL    HW123667   0.795   5.371   2.334
 4246SOL    HW223668   0.927   5.465   2.312
 4247SOL     OW23669   2.778   8.675   4.243
 4247SOL    HW123670   2.750   8.581   4.225
 4247SOL    HW223671   2.845   8.704   4.175
 4248SOL     OW23672   2.951   1.079   1.704
 4248SOL    HW123673   3.034   1.064   1.759
 4248SOL    HW223674   2.912   1.168   1.727
 4249SOL     OW23675   1.248   7.389   0.163
 4249SOL    HW123676   1.267   7.291   0.164
 4249SOL    HW223677   1.333   7.439   0.178
 4250SOL     OW23678   0.973   0.645   1.397
 4250SOL    HW123679   0.920   0.626   1.480
 4250SOL    HW223680   1.070   0.634   1.416
 4251SOL     OW23681   2.638   6.501   2.921
 4251SOL    HW123682   2.653   6.581   2.862
 4251SOL    HW223683   2.660   6.418   2.870
 4252SOL     OW23684   4.623   9.756   0.874
 4252SOL    HW123685   4.606   9.658   0.869
 4252SOL    HW223686   4.721   9.773   0.877
 4253SOL     OW23687   8.932   2.000   2.481
 4253SOL    HW123688   9.002   2.058   2.524
 4253SOL    HW223689   8.895   1.938   2.549
 4254SOL     OW23690   3.688   8.240   0.207
 4254SOL    HW123691   3.708   8.330   0.167
 4254SOL    HW223692   3.597   8.243   0.249
 4255SOL     OW23693   0.130   2.855   4.390
 4255SOL    HW123694   0.061   2.927   4.380
 4255SOL    HW223695   0.090   2.778   4.440
 4256SOL     OW23696   2.381   6.148   0.442
 4256SOL    HW123697   2.298   6.092   0.454
 4256SOL    HW223698   2.456   6.089   0.412
 4257SOL     OW23699   7.866   0.154   0.734
 4257SOL    HW123700   7.781   0.103   0.719
 4257SOL    HW223701   7.850   0.225   0.803
 4258SOL     OW23702   2.406   9.968   3.112
 4258SOL    HW123703   2.406   9.954   3.013
 4258SOL    HW223704   2.475   9.909   3.154
 4259SOL     OW23705   1.410   1.256   1.696
 4259SOL    HW123706   1.327   1.201   1.700
 4259SOL    HW223707   1.396   1.334   1.636
 4260SOL     OW23708   1.093   7.843   1.214
 4260SOL    HW123709   1.009   7.842   1.268
 4260SOL    HW223710   1.136   7.933   1.220
 4261SOL     OW23711   4.424   4.622   3.570
 4261SOL    HW123712   4.496   4.679   3.610
 4261SOL    HW223713   4.430   4.530   3.608
 4262SOL     OW23714   8.304   5.234   3.090
 4262SOL    HW123715   8.234   5.289   3.137
 4262SOL    HW223716   8.373   5.205   3.156
 4263SOL     OW23717   8.203   5.726   4.987
 4263SOL    HW123718   8.182   5.725   5.085
 4263SOL    HW223719   8.177   5.814   4.947
 4264SOL     OW23720   6.519   0.921   4.605
 4264SOL    HW123721   6.459   0.891   4.532
 4264SOL    HW223722   6.584   0.849   4.628
 4265SOL     OW23723   6.356   4.900   0.753
 4265SOL    HW123724   6.411   4.942   0.681
 4265SOL    HW223725   6.275   4.858   0.713
 4266SOL     OW23726   9.497   1.960   3.783
 4266SOL    HW123727   9.518   1.953   3.881
 4266SOL    HW223728   9.580   1.985   3.733
 4267SOL     OW23729   0.578   3.998   2.899
 4267SOL    HW123730   0.507   4.056   2.938
 4267SOL    HW223731   0.558   3.902   2.921
 4268SOL     OW23732   5.490   9.144   4.019
 4268SOL    HW123733   5.409   9.086   4.021
 4268SOL    HW223734   5.519   9.165   4.112
 4269SOL     OW23735   2.173   4.787   1.013
 4269SOL    HW123736   2.184   4.858   0.944
 4269SOL    HW223737   2.076   4.777   1.035
 4270SOL     OW23738   4.679   6.961   2.463
 4270SOL    HW123739   4.607   7.025   2.489
 4270SOL    HW223740   4.769   7.004   2.477
 4271SOL     OW23741   9.922   9.731   1.304
 4271SOL    HW123742   9.822   9.732   1.293
 4271SOL    HW223743   9.966   9.718   1.216
 4272SOL     OW23744   3.730   8.581   4.415
 4272SOL    HW123745   3.804   8.575   4.482
 4272SOL    HW223746   3.726   8.496   4.363
 4273SOL     OW23747   7.296   1.962   1.142
 4273SOL    HW123748   7.379   1.908   1.129
 4273SOL    HW223749   7.280   1.977   1.240
 4274SOL     OW23750   2.132   4.798   0.543
 4274SOL    HW123751   2.131   4.804   0.443
 4274SOL    HW223752   2.103   4.707   0.571
 4275SOL     OW23753   3.520   4.662   1.646
 4275SOL    HW123754   3.586   4.734   1.668
 4275SOL    HW223755   3.459   4.648   1.723
 4276SOL     OW23756   4.924   9.961   1.614
 4276SOL    HW123757   4.848   9.916   1.568
 4276SOL    HW223758   4.944   0.048   1.569
 4277SOL     OW23759   3.340   4.283   2.245
 4277SOL    HW123760   3.361   4.209   2.182
 4277SOL    HW223761   3.423   4.310   2.294
 4278SOL     OW23762   3.115   2.945   3.906
 4278SOL    HW123763   3.102   3.039   3.936
 4278SOL    HW223764   3.178   2.898   3.968
 4279SOL     OW23765   7.154   7.948   4.688
 4279SOL    HW123766   7.165   7.952   4.787
 4279SOL    HW223767   7.057   7.957   4.665
 4280SOL     OW23768   6.416   9.336   2.051
 4280SOL    HW123769   6.416   9.380   1.962
 4280SOL    HW223770   6.499   9.361   2.101
 4281SOL     OW23771   4.324   9.332   4.052
 4281SOL    HW123772   4.377   9.410   4.020
 4281SOL    HW223773   4.260   9.303   3.981
 4282SOL     OW23774   2.323   5.504   1.504
 4282SOL    HW123775   2.245   5.531   1.446
 4282SOL    HW223776   2.288   5.464   1.589
 4283SOL     OW23777   4.288   3.985   5.122
 4283SOL    HW123778   4.322   3.896   5.153
 4283SOL    HW223779   4.358   4.055   5.136
 4284SOL     OW23780   3.032   1.655   4.306
 4284SOL    HW123781   3.087   1.619   4.230
 4284SOL    HW223782   3.044   1.598   4.386
 4285SOL     OW23783   0.919   3.008   1.124
 4285SOL    HW123784   0.967   2.996   1.036
 4285SOL    HW223785   0.985   3.034   1.194
 4286SOL     OW23786   8.213   2.554   2.701
 4286SOL    HW123787   8.301   2.570   2.747
 4286SOL    HW223788   8.216   2.592   2.609
 4287SOL     OW23789   2.804   1.696   3.503
 4287SOL    HW123790   2.761   1.616   3.547
 4287SOL    HW223791   2.736   1.743   3.447
 4288SOL     OW23792   0.032   0.562   2.290
 4288SOL    HW123793   0.017   0.466   2.310
 4288SOL    HW223794   9.944   0.605   2.269
 4289SOL     OW23795   8.791   1.282   0.649
 4289SOL    HW123796   8.728   1.300   0.572
 4289SOL    HW223797   8.879   1.253   0.613
 4290SOL     OW23798   4.991   7.154   3.330
 4290SOL    HW123799   5.087   7.175   3.310
 4290SOL    HW223800   4.966   7.067   3.286
 4291SOL     OW23801   1.961   3.293   2.064
 4291SOL    HW123802   1.977   3.381   2.019
 4291SOL    HW223803   2.036   3.274   2.127
 4292SOL     OW23804   2.106   5.085   4.200
 4292SOL    HW123805   2.121   4.990   4.228
 4292SOL    HW223806   2.125   5.095   4.103
 4293SOL     OW23807   2.157   3.592   4.303
 4293SOL    HW123808   2.181   3.523   4.235
 4293SOL    HW223809   2.144   3.680   4.257
 4294SOL     OW23810   0.044   3.478   0.540
 4294SOL    HW123811   9.974   3.547   0.526
 4294SOL    HW223812   0.128   3.505   0.492
 4295SOL     OW23813   1.291   6.557   1.501
 4295SOL    HW123814   1.262   6.641   1.547
 4295SOL    HW223815   1.377   6.526   1.540
 4296SOL     OW23816   9.215   9.217   4.514
 4296SOL    HW123817   9.306   9.204   4.552
 4296SOL    HW223818   9.159   9.137   4.533
 4297SOL     OW23819   4.087   9.256   1.198
 4297SOL    HW123820   4.083   9.175   1.257
 4297SOL    HW223821   4.145   9.326   1.241
 4298SOL     OW23822   3.869   1.039   0.641
 4298SOL    HW123823   3.806   1.087   0.581
 4298SOL    HW223824   3.818   1.002   0.719
 4299SOL     OW23825   7.644   0.809   2.208
 4299SOL    HW123826   7.685   0.776   2.122
 4299SOL    HW223827   7.552   0.843   2.189
 4300SOL     OW23828   9.301   4.950   0.538
 4300SOL    HW123829   9.225   4.933   0.475
 4300SOL    HW223830   9.387   4.926   0.493
 4301SOL     OW23831   3.076   2.965   0.414
 4301SOL    HW123832   3.043   2.950   0.507
 4301SOL    HW223833   3.116   3.057   0.407
 4302SOL     OW23834   3.985   4.845   4.205
 4302SOL    HW123835   3.893   4.852   4.244
 4302SOL    HW223836   4.029   4.762   4.239
 4303SOL     OW23837   3.598   1.167   4.227
 4303SOL    HW123838   3.577   1.255   4.270
 4303SOL    HW223839   3.685   1.132   4.264
 4304SOL     OW23840   3.383   4.731   1.419
 4304SOL    HW123841   3.431   4.690   1.497
 4304SOL    HW223842   3.340   4.659   1.365
 4305SOL     OW23843   1.525   8.885   2.457
 4305SOL    HW123844   1.438   8.858   2.499
 4305SOL    HW223845   1.545   8.980   2.481
 4306SOL     OW23846   3.785   0.178   3.808
 4306SOL    HW123847   3.765   0.084   3.834
 4306SOL    HW223848   3.763   0.192   3.712
 4307SOL     OW23849   4.052   9.446   5.106
 4307SOL    HW123850   4.041   9.409   5.198
 4307SOL    HW223851   3.964   9.447   5.059
 4308SOL     OW23852   9.532   5.763   1.540
 4308SOL    HW123853   9.460   5.824   1.571
 4308SOL    HW223854   9.523   5.675   1.587
 4309SOL     OW23855   7.495   1.537   3.320
 4309SOL    HW123856   7.564   1.492   3.264
 4309SOL    HW223857   7.446   1.604   3.265
 4310SOL     OW23858   5.448   8.531   0.111
 4310SOL    HW123859   5.358   8.548   0.151
 4310SOL    HW223860   5.482   8.442   0.141
 4311SOL     OW23861   5.017   9.934   5.121
 4311SOL    HW123862   5.108   9.945   5.162
 4311SOL    HW223863   4.982   0.024   5.095
 4312SOL     OW23864   1.416   0.030   3.461
 4312SOL    HW123865   1.418   0.096   3.536
 4312SOL    HW223866   1.325   0.029   3.420
 4313SOL     OW23867   9.167   5.443   1.572
 4313SOL    HW123868   9.094   5.380   1.548
 4313SOL    HW223869   9.235   5.396   1.628
 4314SOL     OW23870   1.663   7.283   3.960
 4314SOL    HW123871   1.571   7.314   3.935
 4314SOL    HW223872   1.684   7.198   3.913
 4315SOL     OW23873   3.598   3.980   3.523
 4315SOL    HW123874   3.685   4.025   3.504
 4315SOL    HW223875   3.525   4.048   3.524
 4316SOL     OW23876   2.497   5.845   1.919
 4316SOL    HW123877   2.484   5.770   1.984
 4316SOL    HW223878   2.589   5.884   1.930
 4317SOL     OW23879   3.959   9.730   0.704
 4317SOL    HW123880   3.894   9.690   0.639
 4317SOL    HW223881   4.024   9.660   0.733
 4318SOL     OW23882   9.899   1.659   1.144
 4318SOL    HW123883   9.940   1.691   1.229
 4318SOL    HW223884   9.828   1.723   1.115
 4319SOL     OW23885   7.672   1.340   3.218
 4319SOL    HW123886   7.603   1.301   3.279
 4319SOL    HW223887   7.673   1.290   3.132
 4320SOL     OW23888   0.797   4.093   3.527
 4320SOL    HW123889   0.744   4.143   3.596
 4320SOL    HW223890   0.847   4.158   3.471
 4321SOL     OW23891   7.988   8.838   2.125
 4321SOL    HW123892   8.062   8.770   2.131
 4321SOL    HW223893   7.906   8.800   2.167
 4322SOL     OW23894   0.022   0.337   5.134
 4322SOL    HW123895   9.965   0.257   5.117
 4322SOL    HW223896   0.002   0.373   5.226
 4323SOL     OW23897   9.729   0.417   2.070
 4323SOL    HW123898   9.751   0.489   2.136
 4323SOL    HW223899   9.630   0.411   2.059
 4324SOL     OW23900   8.750   1.236   3.603
 4324SOL    HW123901   8.825   1.202   3.659
 4324SOL    HW223902   8.747   1.336   3.608
 4325SOL     OW23903   3.100   6.916   0.223
 4325SOL    HW123904   3.166   6.857   0.270
 4325SOL    HW223905   3.021   6.930   0.282
 4326SOL     OW23906   4.201   0.733   2.301
 4326SOL    HW123907   4.123   0.774   2.347
 4326SOL    HW223908   4.205   0.764   2.206
 4327SOL     OW23909   4.853   3.758   2.684
 4327SOL    HW123910   4.866   3.839   2.626
 4327SOL    HW223911   4.938   3.707   2.689
 4328SOL     OW23912   8.201   9.764   0.703
 4328SOL    HW123913   8.248   9.721   0.780
 4328SOL    HW223914   8.137   9.832   0.737
 4329SOL     OW23915   4.497   8.453   4.845
 4329SOL    HW123916   4.573   8.462   4.780
 4329SOL    HW223917   4.483   8.540   4.893
 4330SOL     OW23918   7.954   9.210   3.213
 4330SOL    HW123919   7.916   9.156   3.287
 4330SOL    HW223920   8.041   9.250   3.242
 4331SOL     OW23921   9.592   0.582   5.088
 4331SOL    HW123922   9.531   0.594   5.166
 4331SOL    HW223923   9.590   0.487   5.057
 4332SOL     OW23924   2.179   5.187   3.441
 4332SOL    HW123925   2.251   5.250   3.472
 4332SOL    HW223926   2.182   5.180   3.341
 4333SOL     OW23927   0.322   3.361   3.903
 4333SOL    HW123928   0.242   3.380   3.960
 4333SOL    HW223929   0.294   3.307   3.823
 4334SOL     OW23930   5.662   8.985   0.047
 4334SOL    HW123931   5.625   8.895   0.025
 4334SOL    HW223932   5.760   8.976   0.067
 4335SOL     OW23933   4.475   7.350   1.810
 4335SOL    HW123934   4.519   7.260   1.805
 4335SOL    HW223935   4.423   7.365   1.726
 4336SOL     OW23936   2.303   1.728   4.998
 4336SOL    HW123937   2.315   1.633   5.028
 4336SOL    HW223938   2.267   1.782   5.073
 4337SOL     OW23939   7.765   7.600   4.876
 4337SOL    HW123940   7.715   7.685   4.859
 4337SOL    HW223941   7.819   7.610   4.959
 4338SOL     OW23942   1.783   0.453   3.074
 4338SOL    HW123943   1.693   0.496   3.078
 4338SOL    HW223944   1.848   0.507   3.127
 4339SOL     OW23945   8.932   9.882   1.358
 4339SOL    HW123946   8.995   9.933   1.416
 4339SOL    HW223947   8.942   9.784   1.374
 4340SOL     OW23948   2.764   5.905   1.987
 4340SOL    HW123949   2.836   5.973   1.993
 4340SOL    HW223950   2.783   5.830   2.051
 4341SOL     OW23951   7.851   0.455   2.287
 4341SOL    HW123952   7.895   0.365   2.297
 4341SOL    HW223953   7.753   0.442   2.272
 4342SOL     OW23954   3.189   8.044   1.117
 4342SOL    HW123955   3.108   8.101   1.101
 4342SOL    HW223956   3.162   7.948   1.120
 4343SOL     OW23957   1.414   4.224   3.574
 4343SOL    HW123958   1.354   4.303   3.588
 4343SOL    HW223959   1.430   4.211   3.476
 4344SOL     OW23960   9.943   8.664   0.669
 4344SOL    HW123961   9.897   8.583   0.704
 4344SOL    HW223962   0.024   8.683   0.724
 4345SOL     OW23963   5.233   0.509   3.488
 4345SOL    HW123964   5.183   0.480   3.569
 4345SOL    HW223965   5.189   0.471   3.406
 4346SOL     OW23966   1.030   0.646   0.972
 4346SOL    HW123967   0.933   0.660   0.955
 4346SOL    HW223968   1.081   0.658   0.887
 4347SOL     OW23969   2.334   0.601   5.113
 4347SOL    HW123970   2.360   0.510   5.146
 4347SOL    HW223971   2.402   0.634   5.048
 4348SOL     OW23972   4.253   7.597   3.408
 4348SOL    HW123973   4.182   7.562   3.469
 4348SOL    HW223974   4.343   7.575   3.445
 4349SOL     OW23975   6.540   0.992   1.224
 4349SOL    HW123976   6.626   1.007   1.272
 4349SOL    HW223977   6.490   0.917   1.268
 4350SOL     OW23978   8.854   4.915   0.268
 4350SOL    HW123979   8.934   4.893   0.322
 4350SOL    HW223980   8.882   4.959   0.182
 4351SOL     OW23981   4.717   0.362   5.013
 4351SOL    HW123982   4.687   0.455   5.032
 4351SOL    HW223983   4.645   0.298   5.041
 4352SOL     OW23984   8.479   7.158   3.097
 4352SOL    HW123985   8.488   7.098   3.018
 4352SOL    HW223986   8.511   7.111   3.179
 4353SOL     OW23987   4.731   9.183   2.973
 4353SOL    HW123988   4.701   9.215   2.883
 4353SOL    HW223989   4.830   9.195   2.982
 4354SOL     OW23990   4.202   3.212   2.441
 4354SOL    HW123991   4.122   3.154   2.424
 4354SOL    HW223992   4.182   3.305   2.410
 4355SOL     OW23993   0.809   5.493   0.061
 4355SOL    HW123994   0.740   5.472   0.130
 4355SOL    HW223995   0.766   5.539   6.731
 4356SOL     OW23996   8.081   9.578   1.917
 4356SOL    HW123997   8.062   9.602   1.822
 4356SOL    HW223998   7.996   9.582   1.970
 4357SOL     OW23999   4.556   8.914   1.879
 4357SOL    HW124000   4.569   8.943   1.784
 4357SOL    HW224001   4.644   8.886   1.918
 4358SOL     OW24002   6.386   9.612   4.827
 4358SOL    HW124003   6.403   9.542   4.758
 4358SOL    HW224004   6.473   9.644   4.865
 4359SOL     OW24005   0.269   2.368   3.741
 4359SOL    HW124006   0.359   2.412   3.730
 4359SOL    HW224007   0.197   2.436   3.725
 4360SOL     OW24008   6.744   4.207   0.127
 4360SOL    HW124009   6.690   4.289   0.108
 4360SOL    HW224010   6.689   4.142   0.179
 4361SOL     OW24011   8.730   2.014   4.577
 4361SOL    HW124012   8.761   1.994   4.484
 4361SOL    HW224013   8.702   2.110   4.582
 4362SOL     OW24014   0.396   4.218   1.959
 4362SOL    HW124015   0.312   4.247   1.913
 4362SOL    HW224016   0.451   4.163   1.897
 4363SOL     OW24017   1.649   4.216   2.772
 4363SOL    HW124018   1.740   4.202   2.811
 4363SOL    HW224019   1.633   4.314   2.760
 4364SOL     OW24020   2.948   6.598   5.114
 4364SOL    HW124021   2.957   6.518   5.055
 4364SOL    HW224022   2.852   6.624   5.122
 4365SOL     OW24023   7.899   3.602   5.285
 4365SOL    HW124024   7.863   3.565   5.371
 4365SOL    HW224025   7.910   3.528   5.219
 4366SOL     OW24026   2.879   5.563   1.840
 4366SOL    HW124027   2.870   5.652   1.796
 4366SOL    HW224028   2.808   5.501   1.805
 4367SOL     OW24029   5.176   4.038   0.043
 4367SOL    HW124030   5.141   4.060   6.700
 4367SOL    HW224031   5.185   4.121   0.097
 4368SOL     OW24032   3.801   4.461   1.794
 4368SOL    HW124033   3.776   4.367   1.816
 4368SOL    HW224034   3.785   4.477   1.697
 4369SOL     OW24035   1.237   8.208   3.197
 4369SOL    HW124036   1.154   8.213   3.253
 4369SOL    HW224037   1.245   8.292   3.144
 4370SOL     OW24038   4.592   1.109   4.396
 4370SOL    HW124039   4.660   1.044   4.362
 4370SOL    HW224040   4.610   1.130   4.492
 4371SOL     OW24041   8.560   5.258   5.242
 4371SOL    HW124042   8.552   5.226   5.148
 4371SOL    HW224043   8.501   5.338   5.255
 4372SOL     OW24044   2.238   1.116   1.400
 4372SOL    HW124045   2.143   1.084   1.403
 4372SOL    HW224046   2.262   1.142   1.306
 4373SOL     OW24047   4.478   1.626   2.088
 4373SOL    HW124048   4.548   1.557   2.106
 4373SOL    HW224049   4.494   1.667   1.998
 4374SOL     OW24050   8.191   1.589   4.311
 4374SOL    HW124051   8.274   1.625   4.353
 4374SOL    HW224052   8.178   1.494   4.339
 4375SOL     OW24053   6.904   4.170   0.464
 4375SOL    HW124054   6.866   4.256   0.429
 4375SOL    HW224055   6.847   4.138   0.540
 4376SOL     OW24056   2.087   9.609   4.865
 4376SOL    HW124057   2.173   9.638   4.822
 4376SOL    HW224058   2.080   9.510   4.863
 4377SOL     OW24059   9.706   7.278   4.021
 4377SOL    HW124060   9.691   7.180   4.032
 4377SOL    HW224061   9.707   7.322   4.111
 4378SOL     OW24062   4.800   4.449   4.075
 4378SOL    HW124063   4.718   4.450   4.018
 4378SOL    HW224064   4.875   4.406   4.025
 4379SOL     OW24065   5.103   1.792   1.948
 4379SOL    HW124066   5.116   1.857   1.873
 4379SOL    HW224067   5.147   1.705   1.924
 4380SOL     OW24068   9.920   0.950   2.187
 4380SOL    HW124069   9.911   1.049   2.173
 4380SOL    HW224070   9.877   0.925   2.274
 4381SOL     OW24071   8.536   0.326   0.010
 4381SOL    HW124072   8.616   0.380   0.039
 4381SOL    HW224073   8.492   0.371   6.681
 4382SOL     OW24074   3.443   4.278   1.505
 4382SOL    HW124075   3.508   4.324   1.445
 4382SOL    HW224076   3.492   4.222   1.572
 4383SOL     OW24077   6.105   0.856   4.426
 4383SOL    HW124078   6.054   0.925   4.477
 4383SOL    HW224079   6.049   0.774   4.416
 4384SOL     OW24080   2.042   6.958   4.496
 4384SOL    HW124081   1.945   6.980   4.493
 4384SOL    HW224082   2.069   6.942   4.591
 4385SOL     OW24083   0.349   5.976   1.518
 4385SOL    HW124084   0.270   6.015   1.566
 4385SOL    HW224085   0.366   5.884   1.552
 4386SOL     OW24086   4.904   1.997   3.719
 4386SOL    HW124087   4.873   2.063   3.651
 4386SOL    HW224088   4.845   1.916   3.718
 4387SOL     OW24089   0.525   7.621   2.580
 4387SOL    HW124090   0.453   7.589   2.518
 4387SOL    HW224091   0.492   7.699   2.632
 4388SOL     OW24092   3.101   0.891   2.819
 4388SOL    HW124093   3.036   0.867   2.891
 4388SOL    HW224094   3.053   0.903   2.732
 4389SOL     OW24095   4.114   2.285   4.720
 4389SOL    HW124096   4.042   2.228   4.680
 4389SOL    HW224097   4.182   2.226   4.763
 4390SOL     OW24098   4.864   2.415   1.215
 4390SOL    HW124099   4.829   2.507   1.235
 4390SOL    HW224100   4.801   2.347   1.253
 4391SOL     OW24101   2.510   0.491   1.397
 4391SOL    HW124102   2.586   0.549   1.368
 4391SOL    HW224103   2.543   0.398   1.413
 4392SOL     OW24104   4.331   3.973   4.392
 4392SOL    HW124105   4.349   3.885   4.348
 4392SOL    HW224106   4.234   3.996   4.382
 4393SOL     OW24107   9.304   3.590   2.871
 4393SOL    HW124108   9.214   3.613   2.908
 4393SOL    HW224109   9.372   3.653   2.909
 4394SOL     OW24110   4.827   9.583   4.406
 4394SOL    HW124111   4.919   9.585   4.366
 4394SOL    HW224112   4.826   9.518   4.482
 4395SOL     OW24113   9.949   0.862   3.956
 4395SOL    HW124114   9.901   0.907   4.031
 4395SOL    HW224115   9.904   0.883   3.870
 4396SOL     OW24116   8.805   0.253   2.755
 4396SOL    HW124117   8.736   0.185   2.732
 4396SOL    HW224118   8.764   0.325   2.812
 4397SOL     OW24119   8.902   3.219   2.411
 4397SOL    HW124120   8.967   3.268   2.469
 4397SOL    HW224121   8.860   3.145   2.463
 4398SOL     OW24122   3.758   1.334   1.129
 4398SOL    HW124123   3.674   1.284   1.153
 4398SOL    HW224124   3.751   1.367   1.035
 4399SOL     OW24125   3.149   0.339   5.103
 4399SOL    HW124126   3.203   0.257   5.121
 4399SOL    HW224127   3.187   0.389   5.025
 4400SOL     OW24128   4.926   3.353   5.018
 4400SOL    HW124129   5.020   3.343   4.985
 4400SOL    HW224130   4.862   3.328   4.945
 4401SOL     OW24131   0.294   6.871   2.110
 4401SOL    HW124132   0.389   6.864   2.138
 4401SOL    HW224133   0.247   6.937   2.168
 4402SOL     OW24134   1.872   5.809   0.630
 4402SOL    HW124135   1.947   5.779   0.689
 4402SOL    HW224136   1.829   5.890   0.670
 4403SOL     OW24137   2.930   3.388   2.155
 4403SOL    HW124138   3.007   3.326   2.173
 4403SOL    HW224139   2.900   3.429   2.241
 4404SOL     OW24140   8.389   3.277   2.867
 4404SOL    HW124141   8.353   3.186   2.850
 4404SOL    HW224142   8.313   3.343   2.871
 4405SOL     OW24143   9.042   2.565   2.500
 4405SOL    HW124144   9.110   2.551   2.573
 4405SOL    HW224145   8.956   2.521   2.526
 4406SOL     OW24146   4.295   1.082   1.025
 4406SOL    HW124147   4.201   1.062   0.996
 4406SOL    HW224148   4.336   1.000   1.064
 4407SOL     OW24149   4.950   8.118   1.620
 4407SOL    HW124150   4.995   8.162   1.542
 4407SOL    HW224151   4.925   8.024   1.595
 4408SOL     OW24152   2.759   9.340   2.675
 4408SOL    HW124153   2.690   9.272   2.648
 4408SOL    HW224154   2.831   9.295   2.727
 4409SOL     OW24155   0.682   6.957   3.402
 4409SOL    HW124156   0.653   6.987   3.493
 4409SOL    HW224157   0.735   6.872   3.410
 4410SOL     OW24158   1.241   6.901   0.485
 4410SOL    HW124159   1.336   6.908   0.513
 4410SOL    HW224160   1.235   6.858   0.395
 4411SOL     OW24161   7.644   9.993   0.702
 4411SOL    HW124162   7.668   9.901   0.672
 4411SOL    HW224163   7.580   0.034   0.638
 4412SOL     OW24164   1.285   1.434   2.004
 4412SOL    HW124165   1.375   1.410   1.968
 4412SOL    HW224166   1.256   1.364   2.069
 4413SOL     OW24167   0.306   4.172   3.861
 4413SOL    HW124168   0.346   4.260   3.835
 4413SOL    HW224169   0.379   4.103   3.866
 4414SOL     OW24170   3.234   1.074   1.998
 4414SOL    HW124171   3.302   1.146   1.984
 4414SOL    HW224172   3.166   1.105   2.064
 4415SOL     OW24173   1.778   7.261   2.328
 4415SOL    HW124174   1.751   7.181   2.274
 4415SOL    HW224175   1.844   7.315   2.276
 4416SOL     OW24176   4.413   8.432   3.446
 4416SOL    HW124177   4.428   8.448   3.543
 4416SOL    HW224178   4.485   8.479   3.394
 4417SOL     OW24179   3.245   5.492   4.022
 4417SOL    HW124180   3.220   5.578   4.066
 4417SOL    HW224181   3.332   5.460   4.060
 4418SOL     OW24182   2.554   4.868   0.903
 4418SOL    HW124183   2.546   4.807   0.824
 4418SOL    HW224184   2.643   4.914   0.901
 4419SOL     OW24185   9.769   1.227   0.646
 4419SOL    HW124186   9.727   1.142   0.614
 4419SOL    HW224187   9.831   1.208   0.722
 4420SOL     OW24188   6.959   3.069   3.124
 4420SOL    HW124189   7.053   3.098   3.136
 4420SOL    HW224190   6.957   2.970   3.106
 4421SOL     OW24191   5.403   1.958   4.481
 4421SOL    HW124192   5.493   1.996   4.461
 4421SOL    HW224193   5.355   1.938   4.395
 4422SOL     OW24194   1.246   0.641   1.452
 4422SOL    HW124195   1.318   0.575   1.433
 4422SOL    HW224196   1.256   0.720   1.391
 4423SOL     OW24197   0.445   1.169   4.792
 4423SOL    HW124198   0.404   1.259   4.809
 4423SOL    HW224199   0.524   1.179   4.732
 4424SOL     OW24200   7.012   9.938   4.441
 4424SOL    HW124201   7.107   9.961   4.421
 4424SOL    HW224202   6.978   9.997   4.514
 4425SOL     OW24203   0.453   7.754   1.743
 4425SOL    HW124204   0.502   7.779   1.826
 4425SOL    HW224205   0.355   7.769   1.757
 4426SOL     OW24206   0.807   3.517   3.702
 4426SOL    HW124207   0.795   3.558   3.792
 4426SOL    HW224208   0.750   3.566   3.635
 4427SOL     OW24209   3.960   3.407   2.678
 4427SOL    HW124210   3.890   3.340   2.655
 4427SOL    HW224211   3.957   3.483   2.613
 4428SOL     OW24212   1.073   9.411   2.471
 4428SOL    HW124213   0.978   9.381   2.464
 4428SOL    HW224214   1.076   9.502   2.513
 4429SOL     OW24215   9.467   8.079   4.918
 4429SOL    HW124216   9.538   8.089   4.987
 4429SOL    HW224217   9.506   8.041   4.834
 4430SOL     OW24218   7.846   1.301   3.433
 4430SOL    HW124219   7.790   1.325   3.353
 4430SOL    HW224220   7.857   1.202   3.437
 4431SOL     OW24221   1.076   8.762   1.926
 4431SOL    HW124222   1.118   8.846   1.891
 4431SOL    HW224223   1.091   8.688   1.860
 4432SOL     OW24224   7.461   3.492   0.065
 4432SOL    HW124225   7.530   3.450   0.006
 4432SOL    HW224226   7.481   3.590   0.075
 4433SOL     OW24227   7.953   4.054   4.721
 4433SOL    HW124228   7.989   4.143   4.749
 4433SOL    HW224229   7.955   4.047   4.621
 4434SOL     OW24230   0.029   2.749   0.324
 4434SOL    HW124231   0.081   2.783   0.246
 4434SOL    HW224232   0.087   2.690   0.380
 4435SOL     OW24233   6.194   9.072   3.651
 4435SOL    HW124234   6.169   9.151   3.594
 4435SOL    HW224235   6.207   9.103   3.745
 4436SOL     OW24236   3.535   6.612   1.996
 4436SOL    HW124237   3.462   6.662   2.042
 4436SOL    HW224238   3.599   6.676   1.953
 4437SOL     OW24239   9.704   8.900   3.581
 4437SOL    HW124240   9.747   8.843   3.651
 4437SOL    HW224241   9.719   8.997   3.602
 4438SOL     OW24242   9.364   3.030   5.028
 4438SOL    HW124243   9.351   2.931   5.017
 4438SOL    HW224244   9.436   3.061   4.967
 4439SOL     OW24245   3.651   2.369   2.774
 4439SOL    HW124246   3.581   2.347   2.706
 4439SOL    HW224247   3.667   2.290   2.832
 4440SOL     OW24248   7.702   2.090   1.654
 4440SOL    HW124249   7.647   2.122   1.577
 4440SOL    HW224250   7.755   2.010   1.625
 4441SOL     OW24251   5.557   2.558   4.352
 4441SOL    HW124252   5.651   2.524   4.350
 4441SOL    HW224253   5.501   2.504   4.290
 4442SOL     OW24254   1.884   2.647   3.485
 4442SOL    HW124255   1.787   2.660   3.467
 4442SOL    HW224256   1.936   2.720   3.440
 4443SOL     OW24257   2.649   8.214   4.742
 4443SOL    HW124258   2.628   8.161   4.660
 4443SOL    HW224259   2.638   8.312   4.723
 4444SOL     OW24260   9.028   0.695   5.013
 4444SOL    HW124261   9.120   0.657   5.022
 4444SOL    HW224262   9.034   0.794   4.997
 4445SOL     OW24263   4.641   5.439   1.687
 4445SOL    HW124264   4.684   5.465   1.600
 4445SOL    HW224265   4.710   5.399   1.748
 4446SOL     OW24266   1.561   8.498   4.613
 4446SOL    HW124267   1.479   8.452   4.580
 4446SOL    HW224268   1.642   8.447   4.585
 4447SOL     OW24269   1.053   6.579   3.493
 4447SOL    HW124270   1.122   6.649   3.510
 4447SOL    HW224271   1.076   6.497   3.546
 4448SOL     OW24272   5.337   1.661   1.686
 4448SOL    HW124273   5.354   1.713   1.602
 4448SOL    HW224274   5.385   1.705   1.763
 4449SOL     OW24275   1.077   6.316   2.499
 4449SOL    HW124276   0.987   6.275   2.513
 4449SOL    HW224277   1.115   6.284   2.412
 4450SOL     OW24278   5.803   9.227   1.585
 4450SOL    HW124279   5.752   9.212   1.501
 4450SOL    HW224280   5.866   9.150   1.600
 4451SOL     OW24281   2.820   8.375   2.932
 4451SOL    HW124282   2.757   8.403   2.860
 4451SOL    HW224283   2.775   8.312   2.994
 4452SOL     OW24284   3.323   4.269   4.060
 4452SOL    HW124285   3.391   4.245   3.991
 4452SOL    HW224286   3.286   4.359   4.041
 4453SOL     OW24287   3.611   1.708   0.166
 4453SOL    HW124288   3.593   1.707   0.068
 4453SOL    HW224289   3.620   1.614   0.199
 4454SOL     OW24290   5.174   5.330   3.146
 4454SOL    HW124291   5.169   5.241   3.192
 4454SOL    HW224292   5.172   5.315   3.047
 4455SOL     OW24293   0.619   2.413   4.521
 4455SOL    HW124294   0.696   2.430   4.582
 4455SOL    HW224295   0.535   2.403   4.575
 4456SOL     OW24296   2.529   7.525   3.920
 4456SOL    HW124297   2.538   7.613   3.966
 4456SOL    HW224298   2.443   7.522   3.869
 4457SOL     OW24299   9.793   3.856   0.336
 4457SOL    HW124300   9.810   3.772   0.388
 4457SOL    HW224301   9.880   3.896   0.308
 4458SOL     OW24302   8.713   0.243   0.321
 4458SOL    HW124303   8.696   0.183   0.243
 4458SOL    HW224304   8.796   0.214   0.368
 4459SOL     OW24305   2.845   5.562   4.270
 4459SOL    HW124306   2.797   5.561   4.358
 4459SOL    HW224307   2.932   5.514   4.279
 4460SOL     OW24308   5.147   4.505   1.278
 4460SOL    HW124309   5.210   4.552   1.340
 4460SOL    HW224310   5.124   4.564   1.201
 4461SOL     OW24311   0.007   0.345   3.473
 4461SOL    HW124312   0.083   0.408   3.454
 4461SOL    HW224313   0.031   0.284   3.548
 4462SOL     OW24314   0.983   1.816   1.714
 4462SOL    HW124315   1.073   1.850   1.685
 4462SOL    HW224316   0.967   1.844   1.808
 4463SOL     OW24317   3.360   9.832   0.339
 4463SOL    HW124318   3.388   9.916   0.384
 4463SOL    HW224319   3.294   9.854   0.267
 4464SOL     OW24320   0.278   0.313   0.530
 4464SOL    HW124321   0.201   0.286   0.473
 4464SOL    HW224322   0.342   0.236   0.539
 4465SOL     OW24323   0.924   6.470   4.818
 4465SOL    HW124324   0.963   6.514   4.899
 4465SOL    HW224325   0.868   6.536   4.768
 4466SOL     OW24326   7.434   0.369   4.353
 4466SOL    HW124327   7.471   0.276   4.351
 4466SOL    HW224328   7.406   0.396   4.261
 4467SOL     OW24329   4.148   3.842   0.164
 4467SOL    HW124330   4.088   3.921   0.174
 4467SOL    HW224331   4.113   3.767   0.220
 4468SOL     OW24332   2.552   2.269   0.949
 4468SOL    HW124333   2.499   2.327   1.011
 4468SOL    HW224334   2.641   2.311   0.931
 4469SOL     OW24335   6.649   1.068   0.782
 4469SOL    HW124336   6.579   1.123   0.737
 4469SOL    HW224337   6.728   1.059   0.722
 4470SOL     OW24338   9.209   2.876   0.962
 4470SOL    HW124339   9.276   2.855   0.891
 4470SOL    HW224340   9.151   2.952   0.932
 4471SOL     OW24341   0.602   1.788   1.760
 4471SOL    HW124342   0.664   1.727   1.710
 4471SOL    HW224343   0.507   1.760   1.744
 4472SOL     OW24344   4.813   9.520   3.024
 4472SOL    HW124345   4.839   9.443   3.083
 4472SOL    HW224346   4.823   9.606   3.075
 4473SOL     OW24347   2.110   5.500   0.424
 4473SOL    HW124348   2.066   5.419   0.384
 4473SOL    HW224349   2.189   5.472   0.479
 4474SOL     OW24350   5.515   7.724   3.032
 4474SOL    HW124351   5.486   7.629   3.045
 4474SOL    HW224352   5.518   7.770   3.121
 4475SOL     OW24353   0.742   4.490   1.898
 4475SOL    HW124354   0.782   4.581   1.912
 4475SOL    HW224355   0.642   4.498   1.891
 4476SOL     OW24356   3.544   2.717   4.447
 4476SOL    HW124357   3.472   2.685   4.508
 4476SOL    HW224358   3.505   2.775   4.376
 4477SOL     OW24359   8.775   7.473   4.018
 4477SOL    HW124360   8.703   7.466   3.949
 4477SOL    HW224361   8.735   7.501   4.105
 4478SOL     OW24362   7.850   2.936   1.697
 4478SOL    HW124363   7.753   2.960   1.707
 4478SOL    HW224364   7.868   2.851   1.747
 4479SOL     OW24365   5.042   0.362   4.359
 4479SOL    HW124366   5.048   0.390   4.455
 4479SOL    HW224367   4.961   0.304   4.347
 4480SOL     OW24368   9.412   5.003   1.165
 4480SOL    HW124369   9.374   4.929   1.221
 4480SOL    HW224370   9.508   4.982   1.144
 4481SOL     OW24371   8.752   3.054   2.822
 4481SOL    HW124372   8.778   3.029   2.729
 4481SOL    HW224373   8.667   3.009   2.847
 4482SOL     OW24374   5.966   7.441   5.123
 4482SOL    HW124375   5.903   7.429   5.200
 4482SOL    HW224376   6.002   7.535   5.123
 4483SOL     OW24377   9.964   1.779   4.726
 4483SOL    HW124378   9.981   1.855   4.662
 4483SOL    HW224379   9.877   1.736   4.703
 4484SOL     OW24380   2.303   6.513   2.768
 4484SOL    HW124381   2.289   6.445   2.839
 4484SOL    HW224382   2.263   6.600   2.797
 4485SOL     OW24383   2.601   1.148   1.654
 4485SOL    HW124384   2.560   1.103   1.733
 4485SOL    HW224385   2.648   1.081   1.597
 4486SOL     OW24386   5.076   9.415   3.620
 4486SOL    HW124387   5.153   9.467   3.656
 4486SOL    HW224388   5.028   9.370   3.695
 4487SOL     OW24389   2.484   5.758   0.985
 4487SOL    HW124390   2.555   5.753   0.915
 4487SOL    HW224391   2.477   5.670   1.032
 4488SOL     OW24392   1.180   6.804   4.099
 4488SOL    HW124393   1.106   6.807   4.166
 4488SOL    HW224394   1.245   6.877   4.118
 4489SOL     OW24395   3.404   2.597   0.425
 4489SOL    HW124396   3.388   2.695   0.416
 4489SOL    HW224397   3.477   2.570   0.363
 4490SOL     OW24398   5.785   8.020   3.898
 4490SOL    HW124399   5.739   8.107   3.910
 4490SOL    HW224400   5.864   8.032   3.837
 4491SOL     OW24401   8.529   6.045   3.755
 4491SOL    HW124402   8.497   6.131   3.795
 4491SOL    HW224403   8.452   5.998   3.710
 4492SOL     OW24404   0.938   0.875   1.251
 4492SOL    HW124405   0.946   0.788   1.299
 4492SOL    HW224406   0.846   0.911   1.261
 4493SOL     OW24407   4.899   9.806   0.876
 4493SOL    HW124408   4.981   9.855   0.847
 4493SOL    HW224409   4.893   9.807   0.975
 4494SOL     OW24410   7.822   1.574   1.651
 4494SOL    HW124411   7.861   1.628   1.726
 4494SOL    HW224412   7.880   1.582   1.570
 4495SOL     OW24413   7.055   4.809   0.468
 4495SOL    HW124414   6.986   4.848   0.408
 4495SOL    HW224415   7.023   4.720   0.502
 4496SOL     OW24416   7.818   1.872   1.535
 4496SOL    HW124417   7.765   1.811   1.476
 4496SOL    HW224418   7.916   1.862   1.515
 4497SOL     OW24419   4.376   9.814   4.125
 4497SOL    HW124420   4.277   9.825   4.135
 4497SOL    HW224421   4.406   9.732   4.174
 4498SOL     OW24422   2.406   0.172   3.470
 4498SOL    HW124423   2.368   0.097   3.524
 4498SOL    HW224424   2.485   0.140   3.418
 4499SOL     OW24425   9.508   8.232   0.331
 4499SOL    HW124426   9.585   8.177   0.298
 4499SOL    HW224427   9.424   8.179   0.326
 4500SOL     OW24428   1.509   8.051   4.026
 4500SOL    HW124429   1.455   8.133   4.006
 4500SOL    HW224430   1.605   8.068   4.005
 4501SOL     OW24431   1.787   8.975   2.988
 4501SOL    HW124432   1.872   8.931   2.959
 4501SOL    HW224433   1.710   8.914   2.973
 4502SOL     OW24434   8.040   6.267   4.234
 4502SOL    HW124435   8.110   6.243   4.301
 4502SOL    HW224436   7.950   6.244   4.270
 4503SOL     OW24437   9.695   8.375   4.075
 4503SOL    HW124438   9.621   8.350   4.013
 4503SOL    HW224439   9.706   8.303   4.144
 4504SOL     OW24440   4.558   6.420   1.428
 4504SOL    HW124441   4.638   6.381   1.476
 4504SOL    HW224442   4.479   6.360   1.443
 4505SOL     OW24443   9.873   5.925   0.573
 4505SOL    HW124444   9.830   5.891   0.657
 4505SOL    HW224445   9.874   5.852   0.504
 4506SOL     OW24446   3.481   8.383   3.998
 4506SOL    HW124447   3.531   8.435   3.928
 4506SOL    HW224448   3.432   8.447   4.058
 4507SOL     OW24449   0.096   7.486   1.175
 4507SOL    HW124450   0.133   7.463   1.265
 4507SOL    HW224451   0.013   7.541   1.187
 4508SOL     OW24452   4.403   2.697   1.871
 4508SOL    HW124453   4.346   2.650   1.804
 4508SOL    HW224454   4.436   2.783   1.833
 4509SOL     OW24455   2.428   9.825   3.817
 4509SOL    HW124456   2.522   9.826   3.780
 4509SOL    HW224457   2.428   9.779   3.906
 4510SOL     OW24458   8.346   5.502   0.593
 4510SOL    HW124459   8.249   5.526   0.587
 4510SOL    HW224460   8.396   5.545   0.518
 4511SOL     OW24461   7.913   1.913   3.711
 4511SOL    HW124462   7.860   1.978   3.657
 4511SOL    HW224463   7.915   1.825   3.663
 4512SOL     OW24464   2.585   4.720   0.662
 4512SOL    HW124465   2.514   4.772   0.615
 4512SOL    HW224466   2.629   4.658   0.597
 4513SOL     OW24467   2.525   0.049   4.598
 4513SOL    HW124468   2.585   0.093   4.531
 4513SOL    HW224469   2.430   0.052   4.565
 4514SOL     OW24470   1.393   0.483   4.210
 4514SOL    HW124471   1.307   0.481   4.262
 4514SOL    HW224472   1.470   0.485   4.273
 4515SOL     OW24473   5.342   2.096   4.718
 4515SOL    HW124474   5.367   2.048   4.634
 4515SOL    HW224475   5.290   2.179   4.695
 4516SOL     OW24476   9.197   8.845   1.811
 4516SOL    HW124477   9.219   8.941   1.792
 4516SOL    HW224478   9.137   8.840   1.891
 4517SOL     OW24479   4.974   1.995   0.529
 4517SOL    HW124480   5.042   1.939   0.483
 4517SOL    HW224481   4.985   1.988   0.628
 4518SOL     OW24482   9.692   5.464   1.473
 4518SOL    HW124483   9.638   5.489   1.392
 4518SOL    HW224484   9.749   5.386   1.451
 4519SOL     OW24485   5.574   9.262   3.723
 4519SOL    HW124486   5.622   9.185   3.681
 4519SOL    HW224487   5.535   9.233   3.810
 4520SOL     OW24488   0.438   5.194   4.345
 4520SOL    HW124489   0.488   5.126   4.291
 4520SOL    HW224490   0.492   5.219   4.425
 4521SOL     OW24491   0.887   1.298   4.800
 4521SOL    HW124492   0.925   1.253   4.881
 4521SOL    HW224493   0.849   1.387   4.827
 4522SOL     OW24494   0.381   5.970   0.806
 4522SOL    HW124495   0.376   5.876   0.773
 4522SOL    HW224496   0.412   5.970   0.901
 4523SOL     OW24497   2.520   4.327   3.431
 4523SOL    HW124498   2.421   4.331   3.441
 4523SOL    HW224499   2.552   4.234   3.448
 4524SOL     OW24500   8.535   4.523   0.842
 4524SOL    HW124501   8.479   4.605   0.856
 4524SOL    HW224502   8.632   4.549   0.846
 4525SOL     OW24503   2.623   9.799   4.654
 4525SOL    HW124504   2.593   9.894   4.640
 4525SOL    HW224505   2.594   9.743   4.576
 4526SOL     OW24506   9.647   5.850   2.644
 4526SOL    HW124507   9.549   5.840   2.625
 4526SOL    HW224508   9.665   5.825   2.739
 4527SOL     OW24509   8.647   1.336   0.417
 4527SOL    HW124510   8.694   1.407   0.363
 4527SOL    HW224511   8.620   1.261   0.357
 4528SOL     OW24512   3.120   7.551   0.710
 4528SOL    HW124513   3.033   7.580   0.672
 4528SOL    HW224514   3.182   7.629   0.715
 4529SOL     OW24515   4.281   7.796   2.405
 4529SOL    HW124516   4.309   7.781   2.310
 4529SOL    HW224517   4.348   7.855   2.450
 4530SOL     OW24518   3.125   8.853   1.270
 4530SOL    HW124519   3.215   8.853   1.226
 4530SOL    HW224520   3.059   8.899   1.211
 4531SOL     OW24521   0.240   4.660   2.251
 4531SOL    HW124522   0.259   4.576   2.303
 4531SOL    HW224523   0.290   4.736   2.292
 4532SOL     OW24524   1.468   4.227   1.484
 4532SOL    HW124525   1.542   4.272   1.434
 4532SOL    HW224526   1.494   4.219   1.580
 4533SOL     OW24527   1.837   5.466   5.153
 4533SOL    HW124528   1.875   5.384   5.112
 4533SOL    HW224529   1.737   5.464   5.145
 4534SOL     OW24530   0.917   3.421   4.211
 4534SOL    HW124531   1.003   3.396   4.166
 4534SOL    HW224532   0.926   3.512   4.252
 4535SOL     OW24533   9.758   7.700   4.056
 4535SOL    HW124534   9.735   7.737   4.146
 4535SOL    HW224535   9.850   7.659   4.060
 4536SOL     OW24536   0.655   9.334   1.750
 4536SOL    HW124537   0.718   9.352   1.675
 4536SOL    HW224538   0.636   9.236   1.755
 4537SOL     OW24539   7.781   3.850   5.213
 4537SOL    HW124540   7.812   3.876   5.121
 4537SOL    HW224541   7.822   3.762   5.238
 4538SOL     OW24542   5.294   0.892   1.974
 4538SOL    HW124543   5.247   0.879   2.061
 4538SOL    HW224544   5.238   0.949   1.914
 4539SOL     OW24545   3.116   7.454   2.736
 4539SOL    HW124546   3.140   7.359   2.758
 4539SOL    HW224547   3.199   7.509   2.731
 4540SOL     OW24548   4.213   0.275   0.745
 4540SOL    HW124549   4.215   0.338   0.822
 4540SOL    HW224550   4.233   0.325   0.661
 4541SOL     OW24551   7.462   3.278   2.123
 4541SOL    HW124552   7.530   3.287   2.196
 4541SOL    HW224553   7.449   3.367   2.078
 4542SOL     OW24554   7.962   1.782   4.087
 4542SOL    HW124555   7.874   1.801   4.042
 4542SOL    HW224556   7.949   1.713   4.158
 4543SOL     OW24557   5.128   8.418   1.208
 4543SOL    HW124558   5.074   8.480   1.151
 4543SOL    HW224559   5.221   8.413   1.171
 4544SOL     OW24560   4.670   9.481   1.117
 4544SOL    HW124561   4.635   9.474   1.023
 4544SOL    HW224562   4.618   9.421   1.177
 4545SOL     OW24563   1.022   3.765   3.267
 4545SOL    HW124564   0.993   3.798   3.357
 4545SOL    HW224565   0.978   3.677   3.248
 4546SOL     OW24566   1.079   1.643   0.984
 4546SOL    HW124567   1.140   1.563   0.980
 4546SOL    HW224568   1.052   1.659   1.079
 4547SOL     OW24569   2.440   8.301   0.488
 4547SOL    HW124570   2.535   8.287   0.514
 4547SOL    HW224571   2.414   8.395   0.506
 4548SOL     OW24572   4.253   3.234   3.886
 4548SOL    HW124573   4.190   3.156   3.883
 4548SOL    HW224574   4.201   3.319   3.886
 4549SOL     OW24575   6.156   1.890   2.811
 4549SOL    HW124576   6.079   1.869   2.871
 4549SOL    HW224577   6.141   1.846   2.722
 4550SOL     OW24578   7.382   1.797   5.034
 4550SOL    HW124579   7.452   1.862   5.066
 4550SOL    HW224580   7.427   1.717   4.994
 4551SOL     OW24581   9.851   3.460   1.364
 4551SOL    HW124582   9.818   3.551   1.339
 4551SOL    HW224583   9.864   3.406   1.282
 4552SOL     OW24584   5.274   1.751   4.613
 4552SOL    HW124585   5.225   1.792   4.690
 4552SOL    HW224586   5.316   1.822   4.558
 4553SOL     OW24587   5.201   1.886   4.837
 4553SOL    HW124588   5.267   1.845   4.900
 4553SOL    HW224589   5.235   1.974   4.806
 4554SOL     OW24590   2.588   0.467   2.147
 4554SOL    HW124591   2.504   0.413   2.155
 4554SOL    HW224592   2.573   0.543   2.083
 4555SOL     OW24593   8.186   6.231   0.847
 4555SOL    HW124594   8.174   6.140   0.807
 4555SOL    HW224595   8.243   6.287   0.787
 4556SOL     OW24596   7.372   2.913   3.238
 4556SOL    HW124597   7.323   2.968   3.171
 4556SOL    HW224598   7.419   2.838   3.192
 4557SOL     OW24599   3.975   9.408   0.939
 4557SOL    HW124600   4.039   9.473   0.898
 4557SOL    HW224601   4.012   9.377   1.027
 4558SOL     OW24602   9.874   3.613   0.990
 4558SOL    HW124603   9.925   3.628   1.075
 4558SOL    HW224604   9.936   3.575   0.921
 4559SOL     OW24605   0.585   4.031   0.978
 4559SOL    HW124606   0.672   4.082   0.976
 4559SOL    HW224607   0.564   3.997   0.886
 4560SOL     OW24608   0.440   8.359   4.878
 4560SOL    HW124609   0.505   8.283   4.866
 4560SOL    HW224610   0.415   8.366   4.975
 4561SOL     OW24611   4.484   7.459   3.790
 4561SOL    HW124612   4.562   7.454   3.853
 4561SOL    HW224613   4.436   7.371   3.791
 4562SOL     OW24614   2.455   1.634   3.758
 4562SOL    HW124615   2.357   1.652   3.746
 4562SOL    HW224616   2.499   1.715   3.796
 4563SOL     OW24617   7.987   1.594   1.416
 4563SOL    HW124618   7.947   1.614   1.327
 4563SOL    HW224619   8.039   1.509   1.412
 4564SOL     OW24620   4.253   9.357   4.938
 4564SOL    HW124621   4.320   9.431   4.934
 4564SOL    HW224622   4.177   9.384   4.996
 4565SOL     OW24623   7.201   7.560   5.257
 4565SOL    HW124624   7.156   7.595   5.339
 4565SOL    HW224625   7.284   7.614   5.240
 4566SOL     OW24626   8.619   0.457   4.743
 4566SOL    HW124627   8.564   0.432   4.822
 4566SOL    HW224628   8.566   0.443   4.659
 4567SOL     OW24629   8.092   3.466   3.987
 4567SOL    HW124630   8.125   3.379   4.022
 4567SOL    HW224631   8.142   3.541   4.031
 4568SOL     OW24632   7.786   9.757   1.712
 4568SOL    HW124633   7.746   9.690   1.775
 4568SOL    HW224634   7.716   9.785   1.646
 4569SOL     OW24635   9.671   3.001   2.457
 4569SOL    HW124636   9.722   2.981   2.541
 4569SOL    HW224637   9.734   3.013   2.381
 4570SOL     OW24638   9.405   0.981   2.649
 4570SOL    HW124639   9.391   0.882   2.638
 4570SOL    HW224640   9.480   1.010   2.590
 4571SOL     OW24641   6.413   1.485   3.819
 4571SOL    HW124642   6.333   1.426   3.807
 4571SOL    HW224643   6.486   1.453   3.759
 4572SOL     OW24644   0.624   4.477   3.372
 4572SOL    HW124645   0.710   4.495   3.419
 4572SOL    HW224646   0.596   4.559   3.321
 4573SOL     OW24647   5.942   8.744   4.980
 4573SOL    HW124648   5.862   8.802   4.965
 4573SOL    HW224649   6.024   8.802   4.982
 4574SOL     OW24650   3.950   2.637   4.098
 4574SOL    HW124651   4.006   2.587   4.032
 4574SOL    HW224652   3.983   2.618   4.190
 4575SOL     OW24653   8.131   5.981   0.750
 4575SOL    HW124654   8.032   5.991   0.745
 4575SOL    HW224655   8.167   5.960   0.659
 4576SOL     OW24656   1.382   5.754   3.330
 4576SOL    HW124657   1.448   5.707   3.272
 4576SOL    HW224658   1.418   5.844   3.356
 4577SOL     OW24659   4.478   4.193   0.102
 4577SOL    HW124660   4.542   4.270   0.105
 4577SOL    HW224661   4.529   4.107   0.098
 4578SOL     OW24662   6.395   0.811   1.401
 4578SOL    HW124663   6.466   0.849   1.462
 4578SOL    HW224664   6.315   0.786   1.456
 4579SOL     OW24665   8.413   8.756   1.588
 4579SOL    HW124666   8.508   8.739   1.614
 4579SOL    HW224667   8.398   8.729   1.493
 4580SOL     OW24668   7.785   7.794   4.269
 4580SOL    HW124669   7.693   7.820   4.297
 4580SOL    HW224670   7.846   7.799   4.348
 4581SOL     OW24671   3.050   0.393   2.025
 4581SOL    HW124672   3.043   0.351   1.934
 4581SOL    HW224673   2.970   0.368   2.079
 4582SOL     OW24674   3.943   1.492   2.896
 4582SOL    HW124675   3.879   1.432   2.849
 4582SOL    HW224676   3.963   1.571   2.838
 4583SOL     OW24677   3.003   5.911   4.690
 4583SOL    HW124678   3.052   5.953   4.767
 4583SOL    HW224679   3.040   5.820   4.673
 4584SOL     OW24680   1.793   1.682   4.540
 4584SOL    HW124681   1.877   1.682   4.486
 4584SOL    HW224682   1.722   1.629   4.493
 4585SOL     OW24683   0.782   1.366   5.168
 4585SOL    HW124684   0.779   1.268   5.190
 4585SOL    HW224685   0.877   1.395   5.159
 4586SOL     OW24686   5.079   9.022   1.630
 4586SOL    HW124687   5.032   9.091   1.574
 4586SOL    HW224688   5.033   8.934   1.619
 4587SOL     OW24689   9.749   5.463   0.332
 4587SOL    HW124690   9.837   5.422   0.307
 4587SOL    HW224691   9.715   5.519   0.256
 4588SOL     OW24692   9.709   1.998   3.574
 4588SOL    HW124693   9.642   1.948   3.519
 4588SOL    HW224694   9.698   2.097   3.558
 4589SOL     OW24695   3.871   5.855   2.746
 4589SOL    HW124696   3.872   5.937   2.803
 4589SOL    HW224697   3.939   5.865   2.673
 4590SOL     OW24698   6.359   8.804   4.790
 4590SOL    HW124699   6.332   8.713   4.822
 4590SOL    HW224700   6.459   8.812   4.793
 4591SOL     OW24701   3.151   2.623   2.097
 4591SOL    HW124702   3.246   2.597   2.112
 4591SOL    HW224703   3.146   2.690   2.022
 4592SOL     OW24704   6.287   3.993   0.327
 4592SOL    HW124705   6.245   4.049   0.398
 4592SOL    HW224706   6.220   3.971   0.256
 4593SOL     OW24707   2.309   7.656   1.622
 4593SOL    HW124708   2.323   7.564   1.584
 4593SOL    HW224709   2.214   7.684   1.605
 4594SOL     OW24710   9.686   4.439   1.938
 4594SOL    HW124711   9.612   4.410   1.876
 4594SOL    HW224712   9.773   4.435   1.889
 4595SOL     OW24713   3.985   7.011   3.626
 4595SOL    HW124714   3.984   6.948   3.548
 4595SOL    HW224715   3.914   7.081   3.613
 4596SOL     OW24716   4.261   3.746   2.641
 4596SOL    HW124717   4.183   3.723   2.699
 4596SOL    HW224718   4.321   3.809   2.690
 4597SOL     OW24719   7.870   6.972   2.858
 4597SOL    HW124720   7.877   6.879   2.824
 4597SOL    HW224721   7.803   6.976   2.932
 4598SOL     OW24722   1.995   3.052   1.933
 4598SOL    HW124723   2.087   3.020   1.955
 4598SOL    HW224724   1.982   3.144   1.971
 4599SOL     OW24725   8.709   1.703   2.318
 4599SOL    HW124726   8.658   1.618   2.334
 4599SOL    HW224727   8.796   1.681   2.274
 4600SOL     OW24728   7.027   0.136   1.982
 4600SOL    HW124729   6.982   0.218   1.945
 4600SOL    HW224730   7.094   0.103   1.917
 4601SOL     OW24731   9.578   4.131   1.079
 4601SOL    HW124732   9.609   4.190   1.005
 4601SOL    HW224733   9.656   4.086   1.120
 4602SOL     OW24734   0.274   8.691   2.848
 4602SOL    HW124735   0.280   8.668   2.751
 4602SOL    HW224736   0.178   8.699   2.874
 4603SOL     OW24737   1.032   0.012   1.215
 4603SOL    HW124738   1.119   0.016   1.165
 4603SOL    HW224739   1.045   0.048   1.307
 4604SOL     OW24740   0.308   7.890   0.842
 4604SOL    HW124741   0.214   7.855   0.845
 4604SOL    HW224742   0.314   7.961   0.771
 4605SOL     OW24743   5.481   0.582   1.175
 4605SOL    HW124744   5.497   0.600   1.078
 4605SOL    HW224745   5.550   0.518   1.209
 4606SOL     OW24746   3.037   4.007   1.531
 4606SOL    HW124747   2.974   4.054   1.593
 4606SOL    HW224748   3.001   3.916   1.509
 4607SOL     OW24749   6.795   9.982   2.028
 4607SOL    HW124750   6.865   0.052   2.014
 4607SOL    HW224751   6.818   9.901   1.975
 4608SOL     OW24752   1.656   6.498   1.338
 4608SOL    HW124753   1.611   6.581   1.305
 4608SOL    HW224754   1.599   6.418   1.317
 4609SOL     OW24755   3.543   7.653   1.519
 4609SOL    HW124756   3.620   7.602   1.558
 4609SOL    HW224757   3.511   7.721   1.584
 4610SOL     OW24758   7.152   2.062   3.781
 4610SOL    HW124759   7.191   1.986   3.728
 4610SOL    HW224760   7.206   2.076   3.864
 4611SOL     OW24761   8.559   5.782   1.760
 4611SOL    HW124762   8.534   5.789   1.857
 4611SOL    HW224763   8.659   5.785   1.752
 4612SOL     OW24764   3.126   5.564   2.261
 4612SOL    HW124765   3.054   5.535   2.198
 4612SOL    HW224766   3.123   5.508   2.344
 4613SOL     OW24767   9.484   6.476   3.062
 4613SOL    HW124768   9.557   6.527   3.019
 4613SOL    HW224769   9.515   6.383   3.082
 4614SOL     OW24770   8.130   1.159   1.714
 4614SOL    HW124771   8.097   1.169   1.620
 4614SOL    HW224772   8.200   1.228   1.733
 4615SOL     OW24773   0.809   5.454   2.919
 4615SOL    HW124774   0.901   5.447   2.882
 4615SOL    HW224775   0.777   5.363   2.947
 4616SOL     OW24776   3.166   6.426   1.992
 4616SOL    HW124777   3.216   6.405   2.076
 4616SOL    HW224778   3.228   6.473   1.928
 4617SOL     OW24779   2.812   0.276   0.204
 4617SOL    HW124780   2.906   0.286   0.171
 4617SOL    HW224781   2.788   0.179   0.207
 4618SOL     OW24782   1.627   2.996   1.438
 4618SOL    HW124783   1.669   3.086   1.443
 4618SOL    HW224784   1.666   2.946   1.360
 4619SOL     OW24785   9.828   7.167   3.796
 4619SOL    HW124786   9.754   7.111   3.758
 4619SOL    HW224787   9.794   7.221   3.873
 4620SOL     OW24788   6.185   1.941   4.518
 4620SOL    HW124789   6.179   1.985   4.429
 4620SOL    HW224790   6.278   1.949   4.553
 4621SOL     OW24791   1.609   3.117   5.239
 4621SOL    HW124792   1.643   3.023   5.243
 4621SOL    HW224793   1.684   3.181   5.258
 4622SOL     OW24794   9.999   2.115   2.735
 4622SOL    HW124795   0.098   2.099   2.729
 4622SOL    HW224796   9.977   2.154   2.824
 4623SOL     OW24797   8.507   1.279   4.393
 4623SOL    HW124798   8.464   1.204   4.444
 4623SOL    HW224799   8.493   1.365   4.442
 4624SOL     OW24800   5.382   2.656   3.282
 4624SOL    HW124801   5.405   2.595   3.358
 4624SOL    HW224802   5.466   2.677   3.231
 4625SOL     OW24803   8.169   2.630   3.793
 4625SOL    HW124804   8.197   2.668   3.705
 4625SOL    HW224805   8.093   2.567   3.780
 4626SOL     OW24806   0.657   5.510   0.901
 4626SOL    HW124807   0.660   5.606   0.871
 4626SOL    HW224808   0.668   5.450   0.822
 4627SOL     OW24809   9.175   7.942   2.146
 4627SOL    HW124810   9.100   7.916   2.086
 4627SOL    HW224811   9.143   8.008   2.213
 4628SOL     OW24812   9.321   7.345   2.354
 4628SOL    HW124813   9.388   7.417   2.337
 4628SOL    HW224814   9.296   7.345   2.450
 4629SOL     OW24815   1.583   5.828   2.482
 4629SOL    HW124816   1.511   5.892   2.510
 4629SOL    HW224817   1.557   5.735   2.505
 4630SOL     OW24818   1.111   3.074   0.468
 4630SOL    HW124819   1.206   3.057   0.494
 4630SOL    HW224820   1.108   3.149   0.402
 4631SOL     OW24821   8.213   6.941   2.082
 4631SOL    HW124822   8.262   6.858   2.052
 4631SOL    HW224823   8.224   6.952   2.181
 4632SOL     OW24824   2.720   4.429   3.598
 4632SOL    HW124825   2.687   4.458   3.688
 4632SOL    HW224826   2.643   4.399   3.542
 4633SOL     OW24827   4.134   2.387   2.680
 4633SOL    HW124828   4.043   2.428   2.680
 4633SOL    HW224829   4.129   2.295   2.720
 4634SOL     OW24830   2.842   6.093   2.393
 4634SOL    HW124831   2.866   6.119   2.487
 4634SOL    HW224832   2.911   6.031   2.356
 4635SOL     OW24833   9.910   5.780   5.266
 4635SOL    HW124834   9.870   5.730   5.189
 4635SOL    HW224835   9.891   5.732   5.351
 4636SOL     OW24836   2.254   4.443   3.404
 4636SOL    HW124837   2.320   4.518   3.400
 4636SOL    HW224838   2.179   4.468   3.465
 4637SOL     OW24839   9.054   6.488   4.993
 4637SOL    HW124840   8.995   6.524   4.921
 4637SOL    HW224841   9.123   6.428   4.953
 4638SOL     OW24842   1.596   0.592   0.526
 4638SOL    HW124843   1.536   0.577   0.447
 4638SOL    HW224844   1.684   0.627   0.495
 4639SOL     OW24845   0.255   2.728   3.525
 4639SOL    HW124846   0.335   2.783   3.547
 4639SOL    HW224847   0.275   2.668   3.447
 4640SOL     OW24848   9.325   4.795   2.102
 4640SOL    HW124849   9.422   4.820   2.111
 4640SOL    HW224850   9.313   4.700   2.130
 4641SOL     OW24851   3.730   1.422   1.761
 4641SOL    HW124852   3.785   1.394   1.839
 4641SOL    HW224853   3.639   1.380   1.767
 4642SOL     OW24854   2.207   1.485   4.737
 4642SOL    HW124855   2.209   1.585   4.733
 4642SOL    HW224856   2.292   1.452   4.778
 4643SOL     OW24857   7.924   3.291   0.434
 4643SOL    HW124858   7.850   3.242   0.480
 4643SOL    HW224859   8.010   3.242   0.449
 4644SOL     OW24860   2.664   3.248   0.489
 4644SOL    HW124861   2.658   3.310   0.567
 4644SOL    HW224862   2.700   3.160   0.519
 4645SOL     OW24863   3.265   1.385   0.154
 4645SOL    HW124864   3.176   1.358   0.116
 4645SOL    HW224865   3.300   1.312   0.213
 4646SOL     OW24866   5.862   9.813   1.968
 4646SOL    HW124867   5.822   9.857   2.048
 4646SOL    HW224868   5.855   9.874   1.889
 4647SOL     OW24869   8.298   8.309   4.835
 4647SOL    HW124870   8.343   8.264   4.911
 4647SOL    HW224871   8.338   8.279   4.749
 4648SOL     OW24872   4.104   7.943   1.538
 4648SOL    HW124873   4.004   7.946   1.538
 4648SOL    HW224874   4.140   8.005   1.608
 4649SOL     OW24875   4.580   9.697   2.653
 4649SOL    HW124876   4.674   9.728   2.641
 4649SOL    HW224877   4.573   9.646   2.739
 4650SOL     OW24878   2.718   9.351   4.638
 4650SOL    HW124879   2.690   9.348   4.734
 4650SOL    HW224880   2.637   9.365   4.581
 4651SOL     OW24881   1.845   1.676   5.048
 4651SOL    HW124882   1.882   1.592   5.087
 4651SOL    HW224883   1.888   1.694   4.960
 4652SOL     OW24884   5.018   8.967   4.397
 4652SOL    HW124885   5.117   8.978   4.396
 4652SOL    HW224886   4.976   9.049   4.435
 4653SOL     OW24887   9.346   7.055   0.437
 4653SOL    HW124888   9.444   7.077   0.440
 4653SOL    HW224889   9.326   7.001   0.356
 4654SOL     OW24890   1.995   6.763   3.705
 4654SOL    HW124891   2.048   6.828   3.649
 4654SOL    HW224892   2.027   6.768   3.800
 4655SOL     OW24893   9.233   3.034   3.727
 4655SOL    HW124894   9.326   3.011   3.700
 4655SOL    HW224895   9.168   2.971   3.683
 4656SOL     OW24896   5.409   8.370   4.211
 4656SOL    HW124897   5.332   8.419   4.171
 4656SOL    HW224898   5.492   8.389   4.157
 4657SOL     OW24899   4.073   3.126   0.037
 4657SOL    HW124900   4.094   3.105   0.132
 4657SOL    HW224901   4.103   3.050   6.727
 4658SOL     OW24902   3.341   2.565   1.017
 4658SOL    HW124903   3.337   2.653   1.064
 4658SOL    HW224904   3.436   2.536   1.008
 4659SOL     OW24905   6.588   0.289   4.132
 4659SOL    HW124906   6.591   0.189   4.128
 4659SOL    HW224907   6.673   0.327   4.097
 4660SOL     OW24908   9.961   0.939   0.349
 4660SOL    HW124909   9.875   0.977   0.315
 4660SOL    HW224910   0.011   1.010   0.398
 4661SOL     OW24911   0.462   4.546   1.121
 4661SOL    HW124912   0.464   4.639   1.158
 4661SOL    HW224913   0.370   4.525   1.090
 4662SOL     OW24914   9.898   4.356   4.465
 4662SOL    HW124915   9.817   4.303   4.491
 4662SOL    HW224916   9.974   4.294   4.444
 4663SOL     OW24917   1.886   1.946   4.165
 4663SOL    HW124918   1.842   1.933   4.076
 4663SOL    HW224919   1.816   1.945   4.237
 4664SOL     OW24920   7.432   0.849   3.543
 4664SOL    HW124921   7.429   0.946   3.568
 4664SOL    HW224922   7.351   0.827   3.488
 4665SOL     OW24923   7.176   0.864   4.451
 4665SOL    HW124924   7.257   0.826   4.494
 4665SOL    HW224925   7.097   0.854   4.512
 4666SOL     OW24926   5.212   8.453   3.501
 4666SOL    HW124927   5.283   8.509   3.459
 4666SOL    HW224928   5.222   8.358   3.471
 4667SOL     OW24929   4.216   0.902   4.180
 4667SOL    HW124930   4.131   0.869   4.222
 4667SOL    HW224931   4.260   0.826   4.131
 4668SOL     OW24932   0.406   7.138   2.617
 4668SOL    HW124933   0.366   7.060   2.665
 4668SOL    HW224934   0.499   7.153   2.652
 4669SOL     OW24935   5.399   0.294   4.862
 4669SOL    HW124936   5.435   0.378   4.903
 4669SOL    HW224937   5.377   0.309   4.766
 4670SOL     OW24938   7.540   8.722   3.249
 4670SOL    HW124939   7.566   8.652   3.316
 4670SOL    HW224940   7.600   8.716   3.169
 4671SOL     OW24941   8.036   2.401   5.061
 4671SOL    HW124942   7.953   2.370   5.015
 4671SOL    HW224943   8.014   2.477   5.123
 4672SOL     OW24944   5.998   9.389   2.768
 4672SOL    HW124945   5.977   9.305   2.716
 4672SOL    HW224946   5.999   9.368   2.866
 4673SOL     OW24947   9.478   6.329   1.602
 4673SOL    HW124948   9.437   6.312   1.692
 4673SOL    HW224949   9.407   6.323   1.532
 4674SOL     OW24950   8.640   3.220   2.229
 4674SOL    HW124951   8.607   3.212   2.324
 4674SOL    HW224952   8.724   3.274   2.228
 4675SOL     OW24953   4.300   5.293   1.430
 4675SOL    HW124954   4.339   5.277   1.520
 4675SOL    HW224955   4.373   5.298   1.362
 4676SOL     OW24956   3.689   1.839   3.834
 4676SOL    HW124957   3.704   1.914   3.899
 4676SOL    HW224958   3.664   1.877   3.745
 4677SOL     OW24959   0.311   7.871   4.639
 4677SOL    HW124960   0.291   7.882   4.541
 4677SOL    HW224961   0.409   7.880   4.655
 4678SOL     OW24962   4.240   0.824   5.122
 4678SOL    HW124963   4.155   0.852   5.078
 4678SOL    HW224964   4.316   0.831   5.057
 4679SOL     OW24965   2.307   7.635   5.227
 4679SOL    HW124966   2.374   7.623   5.154
 4679SOL    HW224967   2.237   7.564   5.220
 4680SOL     OW24968   8.959   7.703   0.399
 4680SOL    HW124969   8.864   7.710   0.428
 4680SOL    HW224970   8.986   7.607   0.394
 4681SOL     OW24971   4.173   2.380   0.968
 4681SOL    HW124972   4.255   2.377   1.024
 4681SOL    HW224973   4.106   2.313   1.003
 4682SOL     OW24974   2.062   6.671   4.643
 4682SOL    HW124975   2.147   6.643   4.598
 4682SOL    HW224976   2.079   6.750   4.701
 4683SOL     OW24977   1.943   6.988   4.090
 4683SOL    HW124978   1.873   6.938   4.141
 4683SOL    HW224979   1.974   7.067   4.143
 4684SOL     OW24980   0.794   9.165   1.397
 4684SOL    HW124981   0.861   9.112   1.449
 4684SOL    HW224982   0.705   9.120   1.400
 4685SOL     OW24983   1.859   8.274   0.689
 4685SOL    HW124984   1.815   8.189   0.661
 4685SOL    HW224985   1.792   8.348   0.694
 4686SOL     OW24986   5.459   1.481   3.257
 4686SOL    HW124987   5.402   1.545   3.207
 4686SOL    HW224988   5.546   1.469   3.209
 4687SOL     OW24989   3.168   3.712   4.233
 4687SOL    HW124990   3.200   3.794   4.185
 4687SOL    HW224991   3.091   3.736   4.292
 4688SOL     OW24992   8.336   6.363   3.302
 4688SOL    HW124993   8.410   6.340   3.239
 4688SOL    HW224994   8.254   6.313   3.276
 4689SOL     OW24995   1.323   0.049   0.225
 4689SOL    HW124996   1.369   9.976   0.174
 4689SOL    HW224997   1.233   0.017   0.254
 4690SOL     OW24998   3.678   6.073   3.672
 4690SOL    HW124999   3.580   6.089   3.661
 4690SOL    HW225000   3.727   6.160   3.661
 4691SOL     OW25001   3.308   4.077   1.347
 4691SOL    HW125002   3.336   4.125   1.430
 4691SOL    HW225003   3.266   3.989   1.371
 4692SOL     OW25004   3.830   4.037   5.205
 4692SOL    HW125005   3.913   4.091   5.188
 4692SOL    HW225006   3.752   4.083   5.163
 4693SOL     OW25007   4.002   7.073   4.014
 4693SOL    HW125008   4.003   6.974   3.998
 4693SOL    HW225009   3.931   7.115   3.957
 4694SOL     OW25010   9.521   4.769   4.812
 4694SOL    HW125011   9.607   4.799   4.853
 4694SOL    HW225012   9.467   4.720   4.881
 4695SOL     OW25013   3.745   7.621   2.416
 4695SOL    HW125014   3.829   7.573   2.390
 4695SOL    HW225015   3.728   7.696   2.352
 4696SOL     OW25016   4.315   0.533   2.952
 4696SOL    HW125017   4.270   0.455   2.996
 4696SOL    HW225018   4.401   0.503   2.911
 4697SOL     OW25019   0.894   3.345   0.565
 4697SOL    HW125020   0.982   3.389   0.548
 4697SOL    HW225021   0.904   3.277   0.638
 4698SOL     OW25022   3.057   5.575   3.335
 4698SOL    HW125023   3.104   5.581   3.246
 4698SOL    HW225024   3.125   5.580   3.408
 4699SOL     OW25025   9.510   1.076   0.132
 4699SOL    HW125026   9.427   1.065   0.186
 4699SOL    HW225027   9.505   1.018   0.050
 4700SOL     OW25028   7.546   1.942   3.224
 4700SOL    HW125029   7.569   1.996   3.142
 4700SOL    HW225030   7.629   1.912   3.269
 4701SOL     OW25031   3.085   0.576   4.592
 4701SOL    HW125032   3.013   0.594   4.525
 4701SOL    HW225033   3.155   0.518   4.550
 4702SOL     OW25034   3.956   8.152   2.377
 4702SOL    HW125035   3.944   8.202   2.291
 4702SOL    HW225036   3.998   8.063   2.359
 4703SOL     OW25037   0.902   5.758   2.078
 4703SOL    HW125038   0.889   5.840   2.023
 4703SOL    HW225039   0.821   5.743   2.136
 4704SOL     OW25040   7.949   4.936   0.231
 4704SOL    HW125041   8.036   4.891   0.211
 4704SOL    HW225042   7.961   5.036   0.229
 4705SOL     OW25043   9.327   1.725   2.124
 4705SOL    HW125044   9.344   1.774   2.210
 4705SOL    HW225045   9.266   1.779   2.066
 4706SOL     OW25046   9.363   7.772   2.535
 4706SOL    HW125047   9.423   7.848   2.563
 4706SOL    HW225048   9.364   7.702   2.606
 4707SOL     OW25049   1.073   1.875   0.292
 4707SOL    HW125050   1.092   1.888   0.390
 4707SOL    HW225051   1.051   1.779   0.275
 4708SOL     OW25052   1.636   7.615   4.051
 4708SOL    HW125053   1.727   7.649   4.031
 4708SOL    HW225054   1.611   7.544   3.986
 4709SOL     OW25055   4.472   0.015   3.637
 4709SOL    HW125056   4.454   9.954   3.559
 4709SOL    HW225057   4.464   9.964   3.722
 4710SOL     OW25058   2.935   2.884   4.503
 4710SOL    HW125059   2.863   2.834   4.454
 4710SOL    HW225060   2.902   2.909   4.594
 4711SOL     OW25061   4.375   6.796   1.223
 4711SOL    HW125062   4.416   6.856   1.292
 4711SOL    HW225063   4.422   6.708   1.222
 4712SOL     OW25064   9.136   9.084   5.158
 4712SOL    HW125065   9.115   9.023   5.235
 4712SOL    HW225066   9.235   9.082   5.140
 4713SOL     OW25067   1.937   2.421   1.030
 4713SOL    HW125068   1.943   2.353   0.957
 4713SOL    HW225069   1.854   2.407   1.083
 4714SOL     OW25070   4.192   4.071   2.775
 4714SOL    HW125071   4.254   3.998   2.802
 4714SOL    HW225072   4.116   4.077   2.840
 4715SOL     OW25073   0.485   5.769   3.851
 4715SOL    HW125074   0.455   5.676   3.874
 4715SOL    HW225075   0.577   5.765   3.811
 4716SOL     OW25076   9.322   9.692   0.113
 4716SOL    HW125077   9.279   9.642   0.189
 4716SOL    HW225078   9.406   9.735   0.145
 4717SOL     OW25079   6.994   0.127   4.643
 4717SOL    HW125080   6.949   0.154   4.728
 4717SOL    HW225081   7.091   0.111   4.661
 4718SOL     OW25082   8.365   9.767   3.366
 4718SOL    HW125083   8.377   9.724   3.277
 4718SOL    HW225084   8.406   9.709   3.436
 4719SOL     OW25085   5.073   3.797   0.674
 4719SOL    HW125086   5.080   3.741   0.592
 4719SOL    HW225087   5.135   3.875   0.668
 4720SOL     OW25088   8.635   0.782   3.882
 4720SOL    HW125089   8.555   0.842   3.872
 4720SOL    HW225090   8.718   0.833   3.863
 4721SOL     OW25091   4.043   9.845   4.567
 4721SOL    HW125092   4.031   9.801   4.656
 4721SOL    HW225093   4.050   9.775   4.495
 4722SOL     OW25094   3.987   0.190   2.951
 4722SOL    HW125095   3.987   0.126   2.875
 4722SOL    HW225096   3.922   0.160   3.021
 4723SOL     OW25097   8.295   2.862   1.010
 4723SOL    HW125098   8.361   2.930   1.040
 4723SOL    HW225099   8.206   2.881   1.052
 4724SOL     OW25100   4.708   3.563   1.236
 4724SOL    HW125101   4.639   3.578   1.166
 4724SOL    HW225102   4.726   3.465   1.246
 4725SOL     OW25103   0.973   7.915   0.417
 4725SOL    HW125104   0.921   7.994   0.383
 4725SOL    HW225105   0.995   7.855   0.340
 4726SOL     OW25106   8.714   3.681   4.076
 4726SOL    HW125107   8.746   3.674   3.981
 4726SOL    HW225108   8.625   3.636   4.084
 4727SOL     OW25109   1.397   1.048   1.227
 4727SOL    HW125110   1.329   0.975   1.235
 4727SOL    HW225111   1.351   1.137   1.230
 4728SOL     OW25112   2.520   3.324   2.246
 4728SOL    HW125113   2.458   3.400   2.227
 4728SOL    HW225114   2.475   3.237   2.223
 4729SOL     OW25115   7.211   9.515   4.927
 4729SOL    HW125116   7.196   9.612   4.905
 4729SOL    HW225117   7.308   9.499   4.941
 4730SOL     OW25118   8.102   2.980   0.255
 4730SOL    HW125119   8.102   3.034   0.340
 4730SOL    HW225120   8.186   2.998   0.204
 4731SOL     OW25121   0.549   9.510   0.330
 4731SOL    HW125122   0.608   9.584   0.362
 4731SOL    HW225123   0.491   9.479   0.405
 4732SOL     OW25124   2.012   8.847   2.891
 4732SOL    HW125125   1.995   8.789   2.812
 4732SOL    HW225126   2.091   8.906   2.873
 4733SOL     OW25127   9.163   2.660   0.521
 4733SOL    HW125128   9.073   2.689   0.489
 4733SOL    HW225129   9.224   2.739   0.524
 4734SOL     OW25130   1.843   0.497   2.808
 4734SOL    HW125131   1.939   0.522   2.793
 4734SOL    HW225132   1.831   0.464   2.902
 4735SOL     OW25133   1.659   1.541   2.487
 4735SOL    HW125134   1.753   1.574   2.486
 4735SOL    HW225135   1.655   1.454   2.537
 4736SOL     OW25136   9.344   8.874   4.944
 4736SOL    HW125137   9.422   8.835   4.895
 4736SOL    HW225138   9.290   8.801   4.986
 4737SOL     OW25139   4.441   5.312   3.141
 4737SOL    HW125140   4.502   5.357   3.205
 4737SOL    HW225141   4.385   5.380   3.094
 4738SOL     OW25142   0.226   1.721   2.077
 4738SOL    HW125143   0.169   1.800   2.052
 4738SOL    HW225144   0.217   1.651   2.007
 4739SOL     OW25145   6.028   7.857   2.249
 4739SOL    HW125146   5.995   7.794   2.320
 4739SOL    HW225147   6.121   7.831   2.222
 4740SOL     OW25148   2.453   1.075   0.955
 4740SOL    HW125149   2.528   1.137   0.978
 4740SOL    HW225150   2.468   1.034   0.866
 4741SOL     OW25151   1.034   6.238   0.333
 4741SOL    HW125152   1.122   6.267   0.371
 4741SOL    HW225153   0.961   6.258   0.398
 4742SOL     OW25154   3.309   9.081   4.391
 4742SOL    HW125155   3.293   8.989   4.354
 4742SOL    HW225156   3.226   9.136   4.379
 4743SOL     OW25157   8.569   9.318   1.237
 4743SOL    HW125158   8.475   9.316   1.204
 4743SOL    HW225159   8.592   9.411   1.268
 4744SOL     OW25160   2.155   4.765   0.269
 4744SOL    HW125161   2.155   4.665   0.265
 4744SOL    HW225162   2.245   4.800   0.242
 4745SOL     OW25163   0.075   8.667   2.424
 4745SOL    HW125164   0.049   8.705   2.512
 4745SOL    HW225165   9.995   8.667   2.363
 4746SOL     OW25166   2.793   5.739   5.059
 4746SOL    HW125167   2.812   5.815   5.122
 4746SOL    HW225168   2.780   5.775   4.967
 4747SOL     OW25169   5.244   9.656   1.452
 4747SOL    HW125170   5.303   9.605   1.389
 4747SOL    HW225171   5.233   9.605   1.537
 4748SOL     OW25172   1.819   0.702   0.401
 4748SOL    HW125173   1.903   0.723   0.351
 4748SOL    HW225174   1.742   0.751   0.361
 4749SOL     OW25175   9.803   1.157   3.408
 4749SOL    HW125176   9.737   1.135   3.480
 4749SOL    HW225177   9.757   1.203   3.333
 4750SOL     OW25178   4.913   7.857   1.512
 4750SOL    HW125179   4.905   7.760   1.537
 4750SOL    HW225180   5.009   7.878   1.495
 4751SOL     OW25181   8.655   2.129   3.845
 4751SOL    HW125182   8.658   2.145   3.747
 4751SOL    HW225183   8.682   2.212   3.894
 4752SOL     OW25184   5.693   8.413   3.554
 4752SOL    HW125185   5.733   8.476   3.487
 4752SOL    HW225186   5.631   8.349   3.508
 4753SOL     OW25187   2.795   8.386   5.039
 4753SOL    HW125188   2.775   8.289   5.024
 4753SOL    HW225189   2.850   8.421   4.964
 4754SOL     OW25190   1.010   6.850   4.312
 4754SOL    HW125191   0.970   6.774   4.364
 4754SOL    HW225192   1.045   6.919   4.375
 4755SOL     OW25193   1.890   8.447   0.139
 4755SOL    HW125194   1.887   8.503   0.222
 4755SOL    HW225195   1.839   8.493   0.066
 4756SOL     OW25196   8.302   7.359   4.241
 4756SOL    HW125197   8.355   7.411   4.309
 4756SOL    HW225198   8.307   7.405   4.153
 4757SOL     OW25199   7.229   2.917   1.964
 4757SOL    HW125200   7.291   2.891   2.038
 4757SOL    HW225201   7.134   2.911   1.996
 4758SOL     OW25202   9.215   0.237   3.759
 4758SOL    HW125203   9.189   0.199   3.670
 4758SOL    HW225204   9.137   0.231   3.822
 4759SOL     OW25205   2.817   5.352   4.787
 4759SOL    HW125206   2.838   5.414   4.862
 4759SOL    HW225207   2.895   5.292   4.770
 4760SOL     OW25208   2.526   5.104   4.321
 4760SOL    HW125209   2.576   5.184   4.289
 4760SOL    HW225210   2.433   5.130   4.347
 4761SOL     OW25211   5.801   0.832   1.334
 4761SOL    HW125212   5.845   0.839   1.423
 4761SOL    HW225213   5.704   0.810   1.346
 4762SOL     OW25214   0.136   2.553   0.034
 4762SOL    HW125215   0.042   2.521   0.045
 4762SOL    HW225216   0.142   2.650   0.056
 4763SOL     OW25217   1.145   6.075   1.145
 4763SOL    HW125218   1.168   6.056   1.240
 4763SOL    HW225219   1.047   6.060   1.130
 4764SOL     OW25220   4.681   7.331   3.447
 4764SOL    HW125221   4.745   7.267   3.489
 4764SOL    HW225222   4.639   7.288   3.367
 4765SOL     OW25223   8.475   3.549   4.105
 4765SOL    HW125224   8.443   3.495   4.183
 4765SOL    HW225225   8.398   3.601   4.066
 4766SOL     OW25226   7.973   9.271   2.946
 4766SOL    HW125227   7.957   9.242   3.041
 4766SOL    HW225228   7.933   9.362   2.933
 4767SOL     OW25229   1.775   8.073   3.983
 4767SOL    HW125230   1.821   8.161   3.997
 4767SOL    HW225231   1.791   8.042   3.889
 4768SOL     OW25232   8.276   3.230   2.371
 4768SOL    HW125233   8.210   3.216   2.445
 4768SOL    HW225234   8.369   3.224   2.408
 4769SOL     OW25235   3.471   7.858   3.986
 4769SOL    HW125236   3.569   7.841   3.977
 4769SOL    HW225237   3.454   7.956   3.993
 4770SOL     OW25238   3.875   5.646   1.484
 4770SOL    HW125239   3.952   5.584   1.473
 4770SOL    HW225240   3.830   5.628   1.572
 4771SOL     OW25241   5.025   3.691   1.640
 4771SOL    HW125242   5.059   3.710   1.547
 4771SOL    HW225243   4.949   3.626   1.634
 4772SOL     OW25244   5.641   9.979   3.720
 4772SOL    HW125245   5.599   9.920   3.789
 4772SOL    HW225246   5.657   0.070   3.760
 4773SOL     OW25247   3.232   7.143   3.070
 4773SOL    HW125248   3.294   7.070   3.100
 4773SOL    HW225249   3.254   7.227   3.119
 4774SOL     OW25250   2.447   3.771   2.983
 4774SOL    HW125251   2.505   3.789   2.903
 4774SOL    HW225252   2.359   3.735   2.953
 4775SOL     OW25253   8.588   6.934   4.230
 4775SOL    HW125254   8.544   6.903   4.146
 4775SOL    HW225255   8.647   7.012   4.211
 4776SOL     OW25256   2.886   9.469   3.726
 4776SOL    HW125257   2.967   9.521   3.696
 4776SOL    HW225258   2.841   9.430   3.646
 4777SOL     OW25259   8.760   2.724   3.435
 4777SOL    HW125260   8.685   2.659   3.426
 4777SOL    HW225261   8.847   2.677   3.421
 4778SOL     OW25262   4.713   4.837   4.990
 4778SOL    HW125263   4.655   4.871   4.916
 4778SOL    HW225264   4.800   4.807   4.953
 4779SOL     OW25265   9.768   4.097   4.831
 4779SOL    HW125266   9.817   4.086   4.745
 4779SOL    HW225267   9.670   4.086   4.816
 4780SOL     OW25268   9.031   1.449   0.391
 4780SOL    HW125269   8.942   1.469   0.349
 4780SOL    HW225270   9.063   1.529   0.441
 4781SOL     OW25271   4.057   5.038   0.967
 4781SOL    HW125272   3.967   5.074   0.996
 4781SOL    HW225273   4.122   5.114   0.961
 4782SOL     OW25274   7.710   2.901   3.866
 4782SOL    HW125275   7.627   2.867   3.910
 4782SOL    HW225276   7.741   2.985   3.911
 4783SOL     OW25277   0.266   2.050   2.744
 4783SOL    HW125278   0.239   1.955   2.735
 4783SOL    HW225279   0.347   2.056   2.804
 4784SOL     OW25280   1.828   4.169   1.461
 4784SOL    HW125281   1.837   4.095   1.394
 4784SOL    HW225282   1.775   4.244   1.421
 4785SOL     OW25283   2.451   4.527   1.843
 4785SOL    HW125284   2.354   4.544   1.861
 4785SOL    HW225285   2.503   4.543   1.927
 4786SOL     OW25286   4.412   3.553   2.528
 4786SOL    HW125287   4.355   3.624   2.570
 4786SOL    HW225288   4.501   3.551   2.573
 4787SOL     OW25289   3.689   4.757   4.501
 4787SOL    HW125290   3.609   4.698   4.508
 4787SOL    HW225291   3.693   4.796   4.409
 4788SOL     OW25292   9.306   0.757   3.950
 4788SOL    HW125293   9.297   0.798   3.860
 4788SOL    HW225294   9.301   0.658   3.943
 4789SOL     OW25295   4.537   1.115   1.280
 4789SOL    HW125296   4.566   1.099   1.185
 4789SOL    HW225297   4.560   1.035   1.336
 4790SOL     OW25298   2.413   8.408   3.970
 4790SOL    HW125299   2.366   8.450   4.049
 4790SOL    HW225300   2.472   8.477   3.927
 4791SOL     OW25301   5.021   9.062   0.094
 4791SOL    HW125302   5.075   9.106   0.022
 4791SOL    HW225303   5.061   8.973   0.117
 4792SOL     OW25304   7.430   0.771   0.284
 4792SOL    HW125305   7.366   0.828   0.232
 4792SOL    HW225306   7.522   0.809   0.277
 4793SOL     OW25307   9.117   4.915   5.044
 4793SOL    HW125308   9.194   4.970   5.075
 4793SOL    HW225309   9.086   4.855   5.118
 4794SOL     OW25310   4.293   8.205   5.044
 4794SOL    HW125311   4.246   8.207   4.956
 4794SOL    HW225312   4.391   8.194   5.030
 4795SOL     OW25313   4.621   3.956   0.144
 4795SOL    HW125314   4.671   4.004   0.216
 4795SOL    HW225315   4.670   3.872   0.120
 4796SOL     OW25316   9.740   5.895   3.145
 4796SOL    HW125317   9.661   5.940   3.186
 4796SOL    HW225318   9.800   5.860   3.217
 4797SOL     OW25319   1.508   6.692   0.204
 4797SOL    HW125320   1.424   6.745   0.202
 4797SOL    HW225321   1.486   6.594   0.208
 4798SOL     OW25322   4.367   4.317   0.774
 4798SOL    HW125323   4.418   4.244   0.819
 4798SOL    HW225324   4.293   4.278   0.719
 4799SOL     OW25325   0.337   8.188   0.377
 4799SOL    HW125326   0.291   8.125   0.315
 4799SOL    HW225327   0.430   8.204   0.346
 4800SOL     OW25328   5.797   1.132   3.689
 4800SOL    HW125329   5.814   1.176   3.601
 4800SOL    HW225330   5.716   1.075   3.683
 4801SOL     OW25331   3.193   2.805   4.463
 4801SOL    HW125332   3.250   2.887   4.465
 4801SOL    HW225333   3.098   2.829   4.485
 4802SOL     OW25334   8.652   8.085   3.553
 4802SOL    HW125335   8.609   8.001   3.520
 4802SOL    HW225336   8.629   8.099   3.649
 4803SOL     OW25337   1.668   4.787   1.239
 4803SOL    HW125338   1.737   4.781   1.167
 4803SOL    HW225339   1.579   4.764   1.201
 4804SOL     OW25340   2.886   0.366   5.037
 4804SOL    HW125341   2.890   0.437   4.967
 4804SOL    HW225342   2.978   0.350   5.073
 4805SOL     OW25343   4.870   3.787   1.268
 4805SOL    HW125344   4.890   3.822   1.177
 4805SOL    HW225345   4.814   3.704   1.261
 4806SOL     OW25346   9.236   8.839   1.085
 4806SOL    HW125347   9.207   8.743   1.094
 4806SOL    HW225348   9.311   8.857   1.147
 4807SOL     OW25349   8.963   6.121   4.904
 4807SOL    HW125350   8.935   6.025   4.905
 4807SOL    HW225351   9.028   6.136   4.829
 4808SOL     OW25352   8.452   6.402   4.352
 4808SOL    HW125353   8.441   6.321   4.293
 4808SOL    HW225354   8.545   6.404   4.387
 4809SOL     OW25355   2.959   9.225   3.125
 4809SOL    HW125356   2.909   9.305   3.158
 4809SOL    HW225357   2.915   9.142   3.158
 4810SOL     OW25358   1.968   9.916   4.240
 4810SOL    HW125359   1.914   9.976   4.182
 4810SOL    HW225360   1.953   9.941   4.336
 4811SOL     OW25361   1.096   7.432   2.489
 4811SOL    HW125362   1.076   7.403   2.395
 4811SOL    HW225363   1.095   7.352   2.549
 4812SOL     OW25364   8.095   5.967   4.915
 4812SOL    HW125365   8.046   5.993   4.998
 4812SOL    HW225366   8.091   6.041   4.848
 4813SOL     OW25367   8.256   1.472   3.326
 4813SOL    HW125368   8.280   1.475   3.229
 4813SOL    HW225369   8.289   1.555   3.371
 4814SOL     OW25370   3.735   9.700   1.333
 4814SOL    HW125371   3.811   9.702   1.399
 4814SOL    HW225372   3.754   9.765   1.259
 4815SOL     OW25373   9.970   9.334   0.208
 4815SOL    HW125374   9.898   9.299   0.269
 4815SOL    HW225375   9.928   9.371   0.125
 4816SOL     OW25376   3.077   4.431   3.754
 4816SOL    HW125377   3.024   4.356   3.792
 4816SOL    HW225378   3.019   4.511   3.741
 4817SOL     OW25379   0.897   8.014   3.357
 4817SOL    HW125380   0.810   7.997   3.311
 4817SOL    HW225381   0.935   8.102   3.325
 4818SOL     OW25382   3.912   8.788   1.592
 4818SOL    HW125383   3.822   8.746   1.583
 4818SOL    HW225384   3.983   8.720   1.573
 4819SOL     OW25385   7.915   1.786   3.119
 4819SOL    HW125386   7.879   1.839   3.043
 4819SOL    HW225387   7.893   1.689   3.106
 4820SOL     OW25388   2.564   2.156   0.689
 4820SOL    HW125389   2.569   2.219   0.610
 4820SOL    HW225390   2.540   2.208   0.771
 4821SOL     OW25391   0.672   4.219   0.316
 4821SOL    HW125392   0.637   4.211   0.409
 4821SOL    HW225393   0.693   4.314   0.296
 4822SOL     OW25394   4.475   1.862   0.168
 4822SOL    HW125395   4.482   1.769   0.205
 4822SOL    HW225396   4.489   1.860   0.069
 4823SOL     OW25397   1.894   0.796   0.651
 4823SOL    HW125398   1.825   0.866   0.669
 4823SOL    HW225399   1.881   0.761   0.558
 4824SOL     OW25400   8.753   0.452   0.121
 4824SOL    HW125401   8.756   0.389   0.198
 4824SOL    HW225402   8.843   0.495   0.109
 4825SOL     OW25403   9.560   0.012   0.761
 4825SOL    HW125404   9.602   9.975   0.845
 4825SOL    HW225405   9.541   9.936   0.699
 4826SOL     OW25406   4.252   3.082   0.612
 4826SOL    HW125407   4.328   3.040   0.561
 4826SOL    HW225408   4.165   3.046   0.579
 4827SOL     OW25409   7.359   3.968   1.321
 4827SOL    HW125410   7.378   3.980   1.224
 4827SOL    HW225411   7.314   4.050   1.356
 4828SOL     OW25412   3.645   3.503   2.685
 4828SOL    HW125413   3.719   3.566   2.709
 4828SOL    HW225414   3.577   3.502   2.759
 4829SOL     OW25415   0.054   9.081   3.558
 4829SOL    HW125416   0.112   9.009   3.596
 4829SOL    HW225417   0.021   9.139   3.632
 4830SOL     OW25418   2.466   4.952   3.126
 4830SOL    HW125419   2.543   5.006   3.159
 4830SOL    HW225420   2.407   4.927   3.202
 4831SOL     OW25421   8.478   5.011   3.014
 4831SOL    HW125422   8.508   5.050   3.101
 4831SOL    HW225423   8.419   5.076   2.967
 4832SOL     OW25424   0.954   9.021   1.567
 4832SOL    HW125425   0.920   9.029   1.661
 4832SOL    HW225426   0.981   8.926   1.549
 4833SOL     OW25427   9.205   5.988   1.867
 4833SOL    HW125428   9.193   5.894   1.898
 4833SOL    HW225429   9.260   5.990   1.784
 4834SOL     OW25430   3.490   7.094   4.892
 4834SOL    HW125431   3.393   7.070   4.887
 4834SOL    HW225432   3.544   7.020   4.853
 4835SOL     OW25433   1.445   7.027   5.299
 4835SOL    HW125434   1.436   6.929   5.279
 4835SOL    HW225435   1.402   7.047   5.387
 4836SOL     OW25436   6.851   2.526   2.479
 4836SOL    HW125437   6.849   2.428   2.457
 4836SOL    HW225438   6.878   2.578   2.398
 4837SOL     OW25439   3.293   8.353   0.093
 4837SOL    HW125440   3.354   8.432   0.105
 4837SOL    HW225441   3.282   8.335   6.744
 4838SOL     OW25442   8.562   2.440   3.628
 4838SOL    HW125443   8.616   2.500   3.687
 4838SOL    HW225444   8.545   2.485   3.541
 4839SOL     OW25445   0.031   7.135   1.731
 4839SOL    HW125446   0.020   7.205   1.660
 4839SOL    HW225447   0.066   7.051   1.691
 4840SOL     OW25448   1.025   5.779   4.166
 4840SOL    HW125449   1.116   5.758   4.202
 4840SOL    HW225450   0.976   5.837   4.231
 4841SOL     OW25451   3.039   2.940   5.136
 4841SOL    HW125452   3.026   2.856   5.189
 4841SOL    HW225453   3.106   2.923   5.063
 4842SOL     OW25454   3.775   0.760   1.559
 4842SOL    HW125455   3.792   0.858   1.561
 4842SOL    HW225456   3.857   0.712   1.529
 4843SOL     OW25457   6.448   8.637   3.275
 4843SOL    HW125458   6.485   8.689   3.199
 4843SOL    HW225459   6.514   8.568   3.304
 4844SOL     OW25460   0.535   6.195   4.964
 4844SOL    HW125461   0.484   6.267   4.918
 4844SOL    HW225462   0.633   6.214   4.959
 4845SOL     OW25463   4.077   1.672   4.255
 4845SOL    HW125464   4.058   1.761   4.214
 4845SOL    HW225465   4.098   1.684   4.352
 4846SOL     OW25466   1.897   9.256   5.222
 4846SOL    HW125467   1.969   9.326   5.214
 4846SOL    HW225468   1.930   9.181   5.280
 4847SOL     OW25469   9.918   4.869   3.075
 4847SOL    HW125470   9.897   4.831   2.985
 4847SOL    HW225471   9.841   4.854   3.137
 4848SOL     OW25472   7.879   1.012   4.803
 4848SOL    HW125473   7.802   1.033   4.862
 4848SOL    HW225474   7.950   1.081   4.814
 4849SOL     OW25475   9.143   5.372   2.214
 4849SOL    HW125476   9.225   5.376   2.272
 4849SOL    HW225477   9.101   5.282   2.222
 4850SOL     OW25478   2.238   7.965   1.847
 4850SOL    HW125479   2.275   7.953   1.755
 4850SOL    HW225480   2.294   8.032   1.896
 4851SOL     OW25481   2.385   9.922   1.322
 4851SOL    HW125482   2.478   9.926   1.359
 4851SOL    HW225483   2.388   9.914   1.223
 4852SOL     OW25484   0.607   4.949   4.648
 4852SOL    HW125485   0.692   4.917   4.606
 4852SOL    HW225486   0.613   4.940   4.747
 4853SOL     OW25487   2.835   2.664   3.619
 4853SOL    HW125488   2.902   2.666   3.693
 4853SOL    HW225489   2.845   2.745   3.563
 4854SOL     OW25490   7.006   2.190   1.848
 4854SOL    HW125491   6.998   2.167   1.751
 4854SOL    HW225492   7.091   2.240   1.864
 4855SOL     OW25493   0.918   3.383   0.969
 4855SOL    HW125494   0.894   3.412   1.061
 4855SOL    HW225495   0.999   3.433   0.938
 4856SOL     OW25496   9.135   1.217   2.847
 4856SOL    HW125497   9.219   1.269   2.864
 4856SOL    HW225498   9.146   1.163   2.763
 4857SOL     OW25499   2.243   2.368   3.635
 4857SOL    HW125500   2.335   2.399   3.613
 4857SOL    HW225501   2.235   2.355   3.734
 4858SOL     OW25502   3.169   7.477   4.777
 4858SOL    HW125503   3.191   7.404   4.712
 4858SOL    HW225504   3.113   7.440   4.851
 4859SOL     OW25505   2.135   6.509   1.228
 4859SOL    HW125506   2.072   6.441   1.191
 4859SOL    HW225507   2.093   6.600   1.222
 4860SOL     OW25508   5.082   1.095   4.962
 4860SOL    HW125509   5.141   1.015   4.955
 4860SOL    HW225510   5.061   1.129   4.870
 4861SOL     OW25511   9.345   5.226   0.325
 4861SOL    HW125512   9.332   5.269   0.414
 4861SOL    HW225513   9.256   5.209   0.283
 4862SOL     OW25514   1.328   8.715   4.127
 4862SOL    HW125515   1.295   8.807   4.111
 4862SOL    HW225516   1.310   8.690   4.223
 4863SOL     OW25517   0.155   9.044   4.646
 4863SOL    HW125518   0.160   9.076   4.551
 4863SOL    HW225519   0.248   9.037   4.683
 4864SOL     OW25520   1.026   2.434   2.517
 4864SOL    HW125521   1.108   2.377   2.526
 4864SOL    HW225522   0.988   2.453   2.607
 4865SOL     OW25523   4.446   0.811   2.392
 4865SOL    HW125524   4.354   0.782   2.364
 4865SOL    HW225525   4.500   0.730   2.415
 4866SOL     OW25526   4.240   5.786   5.013
 4866SOL    HW125527   4.211   5.870   5.058
 4866SOL    HW225528   4.164   5.748   4.960
 4867SOL     OW25529   0.175   9.126   4.381
 4867SOL    HW125530   0.136   9.215   4.358
 4867SOL    HW225531   0.111   9.054   4.354
 4868SOL     OW25532   7.918   8.519   3.005
 4868SOL    HW125533   7.987   8.522   3.077
 4868SOL    HW225534   7.962   8.539   2.917
 4869SOL     OW25535   2.866   5.770   2.612
 4869SOL    HW125536   2.799   5.779   2.539
 4869SOL    HW225537   2.828   5.807   2.697
 4870SOL     OW25538   4.936   6.081   1.624
 4870SOL    HW125539   4.924   5.987   1.658
 4870SOL    HW225540   4.985   6.079   1.537
 4871SOL     OW25541   8.160   4.784   1.191
 4871SOL    HW125542   8.070   4.784   1.147
 4871SOL    HW225543   8.199   4.876   1.187
 4872SOL     OW25544   0.325   6.395   0.536
 4872SOL    HW125545   0.318   6.344   0.450
 4872SOL    HW225546   0.363   6.335   0.607
 4873SOL     OW25547   3.534   4.248   0.958
 4873SOL    HW125548   3.540   4.212   1.051
 4873SOL    HW225549   3.627   4.263   0.923
 4874SOL     OW25550   6.521   0.340   5.074
 4874SOL    HW125551   6.523   0.308   4.979
 4874SOL    HW225552   6.512   0.261   5.135
 4875SOL     OW25553   1.012   4.156   1.603
 4875SOL    HW125554   1.020   4.255   1.616
 4875SOL    HW225555   1.089   4.124   1.548
 4876SOL     OW25556   5.899   3.872   0.317
 4876SOL    HW125557   5.881   3.890   0.414
 4876SOL    HW225558   5.823   3.907   0.262
 4877SOL     OW25559   8.832   9.172   3.847
 4877SOL    HW125560   8.886   9.252   3.873
 4877SOL    HW225561   8.855   9.095   3.907
 4878SOL     OW25562   7.592   1.923   3.718
 4878SOL    HW125563   7.646   1.974   3.651
 4878SOL    HW225564   7.585   1.828   3.689
 4879SOL     OW25565   3.923   4.964   3.361
 4879SOL    HW125566   4.023   4.959   3.372
 4879SOL    HW225567   3.900   5.040   3.299
 4880SOL     OW25568   2.933   1.334   0.366
 4880SOL    HW125569   2.857   1.393   0.393
 4880SOL    HW225570   2.913   1.240   0.393
 4881SOL     OW25571   4.704   2.238   1.742
 4881SOL    HW125572   4.715   2.164   1.809
 4881SOL    HW225573   4.759   2.219   1.661
 4882SOL     OW25574   1.864   9.621   1.030
 4882SOL    HW125575   1.792   9.673   0.983
 4882SOL    HW225576   1.943   9.611   0.969
 4883SOL     OW25577   5.135   5.028   0.926
 4883SOL    HW125578   5.187   4.960   0.977
 4883SOL    HW225579   5.132   5.114   0.977
 4884SOL     OW25580   7.048   7.165   4.504
 4884SOL    HW125581   6.958   7.185   4.542
 4884SOL    HW225582   7.107   7.127   4.575
 4885SOL     OW25583   4.993   2.036   3.976
 4885SOL    HW125584   4.961   2.040   3.881
 4885SOL    HW225585   5.089   2.008   3.978
 4886SOL     OW25586   9.310   2.766   4.983
 4886SOL    HW125587   9.377   2.722   4.922
 4886SOL    HW225588   9.218   2.749   4.948
 4887SOL     OW25589   3.572   8.296   2.513
 4887SOL    HW125590   3.491   8.315   2.569
 4887SOL    HW225591   3.649   8.349   2.547
 4888SOL     OW25592   0.995   8.822   0.084
 4888SOL    HW125593   0.957   8.774   0.004
 4888SOL    HW225594   0.950   8.789   0.167
 4889SOL     OW25595   7.112   1.668   3.587
 4889SOL    HW125596   7.036   1.719   3.547
 4889SOL    HW225597   7.189   1.729   3.604
 4890SOL     OW25598   2.786   1.100   2.543
 4890SOL    HW125599   2.852   1.025   2.551
 4890SOL    HW225600   2.826   1.173   2.487
 4891SOL     OW25601   2.638   1.462   3.644
 4891SOL    HW125602   2.584   1.532   3.691
 4891SOL    HW225603   2.609   1.371   3.675
 4892SOL     OW25604   3.893   3.451   0.079
 4892SOL    HW125605   3.851   3.518   0.017
 4892SOL    HW225606   3.854   3.361   0.061
 4893SOL     OW25607   4.360   1.224   0.492
 4893SOL    HW125608   4.320   1.313   0.470
 4893SOL    HW225609   4.412   1.191   0.413
 4894SOL     OW25610   4.113   4.656   3.316
 4894SOL    HW125611   4.137   4.560   3.330
 4894SOL    HW225612   4.117   4.704   3.404
 4895SOL     OW25613   8.460   0.411   2.764
 4895SOL    HW125614   8.542   0.413   2.821
 4895SOL    HW225615   8.384   0.372   2.816
 4896SOL     OW25616   1.046   7.492   2.823
 4896SOL    HW125617   1.041   7.456   2.916
 4896SOL    HW225618   1.064   7.417   2.759
 4897SOL     OW25619   5.476   9.809   2.787
 4897SOL    HW125620   5.537   9.864   2.844
 4897SOL    HW225621   5.529   9.737   2.741
 4898SOL     OW25622   1.155   0.677   0.728
 4898SOL    HW125623   1.079   0.657   0.667
 4898SOL    HW225624   1.220   0.601   0.728
 4899SOL     OW25625   9.325   5.258   3.374
 4899SOL    HW125626   9.364   5.302   3.293
 4899SOL    HW225627   9.239   5.303   3.397
 4900SOL     OW25628   4.082   0.231   1.307
 4900SOL    HW125629   4.009   0.244   1.240
 4900SOL    HW225630   4.065   0.147   1.359
 4901SOL     OW25631   9.220   6.654   5.129
 4901SOL    HW125632   9.157   6.592   5.081
 4901SOL    HW225633   9.178   6.685   5.214
 4902SOL     OW25634   8.573   6.894   0.051
 4902SOL    HW125635   8.634   6.957   0.099
 4902SOL    HW225636   8.507   6.856   0.115
 4903SOL     OW25637   3.955   9.709   1.512
 4903SOL    HW125638   4.049   9.681   1.493
 4903SOL    HW225639   3.916   9.651   1.583
 4904SOL     OW25640   2.480   3.723   3.632
 4904SOL    HW125641   2.535   3.657   3.682
 4904SOL    HW225642   2.430   3.781   3.696
 4905SOL     OW25643   1.609   6.322   3.184
 4905SOL    HW125644   1.625   6.389   3.112
 4905SOL    HW225645   1.553   6.247   3.149
 4906SOL     OW25646   7.879   0.422   1.405
 4906SOL    HW125647   7.911   0.334   1.369
 4906SOL    HW225648   7.795   0.449   1.358
 4907SOL     OW25649   2.970   3.751   1.457
 4907SOL    HW125650   3.043   3.758   1.388
 4907SOL    HW225651   3.004   3.700   1.536
 4908SOL     OW25652   9.167   7.860   1.441
 4908SOL    HW125653   9.146   7.951   1.407
 4908SOL    HW225654   9.191   7.800   1.365
 4909SOL     OW25655   4.008   2.490   0.483
 4909SOL    HW125656   4.075   2.498   0.409
 4909SOL    HW225657   4.015   2.399   0.524
 4910SOL     OW25658   4.025   5.869   2.052
 4910SOL    HW125659   4.047   5.954   2.099
 4910SOL    HW225660   3.930   5.845   2.069
 4911SOL     OW25661   6.840   1.539   2.309
 4911SOL    HW125662   6.841   1.526   2.408
 4911SOL    HW225663   6.929   1.573   2.278
 4912SOL     OW25664   8.612   9.438   4.176
 4912SOL    HW125665   8.612   9.376   4.097
 4912SOL    HW225666   8.523   9.483   4.183
 4913SOL     OW25667   8.776   2.575   2.040
 4913SOL    HW125668   8.857   2.633   2.050
 4913SOL    HW225669   8.770   2.513   2.118
 4914SOL     OW25670   4.727   4.786   3.218
 4914SOL    HW125671   4.783   4.839   3.155
 4914SOL    HW225672   4.677   4.716   3.166
 4915SOL     OW25673   9.920   5.856   1.794
 4915SOL    HW125674   9.869   5.912   1.860
 4915SOL    HW225675   9.904   5.892   1.702
 4916SOL     OW25676   9.389   8.133   2.776
 4916SOL    HW125677   9.335   8.195   2.719
 4916SOL    HW225678   9.442   8.186   2.842
 4917SOL     OW25679   4.015   2.637   4.999
 4917SOL    HW125680   4.029   2.719   4.944
 4917SOL    HW225681   3.972   2.566   4.943
 4918SOL     OW25682   9.878   7.351   3.405
 4918SOL    HW125683   9.841   7.305   3.324
 4918SOL    HW225684   9.805   7.402   3.450
 4919SOL     OW25685   1.917   1.492   0.937
 4919SOL    HW125686   1.948   1.409   0.983
 4919SOL    HW225687   1.975   1.569   0.961
 4920SOL     OW25688   4.887   0.254   3.610
 4920SOL    HW125689   4.879   0.154   3.614
 4920SOL    HW225690   4.807   0.292   3.563
 4921SOL     OW25691   4.353   6.522   2.104
 4921SOL    HW125692   4.374   6.552   2.197
 4921SOL    HW225693   4.437   6.506   2.054
 4922SOL     OW25694   0.507   9.308   1.020
 4922SOL    HW125695   0.444   9.295   1.097
 4922SOL    HW225696   0.597   9.272   1.044
 4923SOL     OW25697   2.285   1.510   1.392
 4923SOL    HW125698   2.316   1.489   1.299
 4923SOL    HW225699   2.314   1.437   1.454
 4924SOL     OW25700   2.904   3.685   5.074
 4924SOL    HW125701   2.967   3.705   4.999
 4924SOL    HW225702   2.936   3.606   5.125
 4925SOL     OW25703   9.189   2.511   2.726
 4925SOL    HW125704   9.147   2.560   2.803
 4925SOL    HW225705   9.177   2.413   2.739
 4926SOL     OW25706   1.027   5.181   4.980
 4926SOL    HW125707   1.110   5.177   5.036
 4926SOL    HW225708   1.043   5.235   4.898
 4927SOL     OW25709   0.752   5.654   4.370
 4927SOL    HW125710   0.731   5.556   4.365
 4927SOL    HW225711   0.849   5.666   4.392
 4928SOL     OW25712   2.900   8.728   4.485
 4928SOL    HW125713   2.854   8.716   4.397
 4928SOL    HW225714   2.903   8.641   4.533
 4929SOL     OW25715   3.654   6.029   2.994
 4929SOL    HW125716   3.648   6.068   3.086
 4929SOL    HW225717   3.566   6.038   2.948
 4930SOL     OW25718   5.857   9.454   1.734
 4930SOL    HW125719   5.859   9.522   1.661
 4930SOL    HW225720   5.860   9.362   1.695
 4931SOL     OW25721   2.337   2.617   4.286
 4931SOL    HW125722   2.251   2.667   4.276
 4931SOL    HW225723   2.384   2.647   4.369
 4932SOL     OW25724   4.276   1.486   4.250
 4932SOL    HW125725   4.208   1.559   4.252
 4932SOL    HW225726   4.252   1.416   4.317
 4933SOL     OW25727   2.882   4.894   3.197
 4933SOL    HW125728   2.909   4.812   3.147
 4933SOL    HW225729   2.912   4.886   3.292
 4934SOL     OW25730   1.816   0.172   4.797
 4934SOL    HW125731   1.804   0.121   4.882
 4934SOL    HW225732   1.739   0.155   4.736
 4935SOL     OW25733   2.853   5.080   2.779
 4935SOL    HW125734   2.776   5.032   2.821
 4935SOL    HW225735   2.820   5.151   2.717
 4936SOL     OW25736   0.804   0.460   4.483
 4936SOL    HW125737   0.833   0.461   4.579
 4936SOL    HW225738   0.734   0.531   4.468
 4937SOL     OW25739   6.232   7.188   4.487
 4937SOL    HW125740   6.265   7.113   4.429
 4937SOL    HW225741   6.200   7.150   4.574
 4938SOL     OW25742   3.789   3.681   0.419
 4938SOL    HW125743   3.772   3.707   0.514
 4938SOL    HW225744   3.767   3.757   0.359
 4939SOL     OW25745   9.908   5.043   3.385
 4939SOL    HW125746   9.820   5.073   3.349
 4939SOL    HW225747   9.906   4.945   3.400
 4940SOL     OW25748   4.268   2.784   4.313
 4940SOL    HW125749   4.194   2.718   4.322
 4940SOL    HW225750   4.232   2.877   4.318
 4941SOL     OW25751   8.278   6.669   1.300
 4941SOL    HW125752   8.352   6.610   1.266
 4941SOL    HW225753   8.227   6.706   1.222
 4942SOL     OW25754   3.530   0.250   3.224
 4942SOL    HW125755   3.528   0.339   3.177
 4942SOL    HW225756   3.473   0.185   3.174
 4943SOL     OW25757   4.230   5.751   0.608
 4943SOL    HW125758   4.162   5.713   0.546
 4943SOL    HW225759   4.214   5.849   0.621
 4944SOL     OW25760   0.240   6.909   0.134
 4944SOL    HW125761   0.305   6.919   0.058
 4944SOL    HW225762   0.224   6.999   0.175
 4945SOL     OW25763   5.112   4.950   1.834
 4945SOL    HW125764   5.023   4.990   1.811
 4945SOL    HW225765   5.097   4.871   1.894
 4946SOL     OW25766   1.892   3.190   3.157
 4946SOL    HW125767   1.873   3.273   3.210
 4946SOL    HW225768   1.857   3.110   3.206
 4947SOL     OW25769   8.039   4.036   1.591
 4947SOL    HW125770   8.007   3.944   1.617
 4947SOL    HW225771   8.137   4.032   1.572
 4948SOL     OW25772   9.282   1.928   3.630
 4948SOL    HW125773   9.199   1.944   3.683
 4948SOL    HW225774   9.362   1.942   3.689
 4949SOL     OW25775   3.564   4.363   2.375
 4949SOL    HW125776   3.579   4.457   2.344
 4949SOL    HW225777   3.653   4.319   2.391
 4950SOL     OW25778   9.634   7.423   4.652
 4950SOL    HW125779   9.644   7.483   4.731
 4950SOL    HW225780   9.705   7.352   4.654
 4951SOL     OW25781   0.866   3.788   5.234
 4951SOL    HW125782   0.775   3.793   5.274
 4951SOL    HW225783   0.864   3.829   5.142
 4952SOL     OW25784   3.367   3.011   3.668
 4952SOL    HW125785   3.368   2.925   3.719
 4952SOL    HW225786   3.370   3.088   3.732
 4953SOL     OW25787   3.752   7.397   1.139
 4953SOL    HW125788   3.790   7.485   1.164
 4953SOL    HW225789   3.694   7.363   1.213
 4954SOL     OW25790   2.456   2.817   2.811
 4954SOL    HW125791   2.387   2.821   2.884
 4954SOL    HW225792   2.518   2.895   2.819
 4955SOL     OW25793   0.741   2.701   3.546
 4955SOL    HW125794   0.665   2.646   3.511
 4955SOL    HW225795   0.818   2.641   3.568
 4956SOL     OW25796   5.143   4.608   3.288
 4956SOL    HW125797   5.141   4.666   3.370
 4956SOL    HW225798   5.163   4.513   3.315
 4957SOL     OW25799   3.878   9.112   5.023
 4957SOL    HW125800   3.828   9.039   4.977
 4957SOL    HW225801   3.938   9.073   5.092
 4958SOL     OW25802   2.109   7.680   4.742
 4958SOL    HW125803   2.087   7.673   4.839
 4958SOL    HW225804   2.135   7.774   4.720
 4959SOL     OW25805   8.314   3.401   1.863
 4959SOL    HW125806   8.370   3.345   1.925
 4959SOL    HW225807   8.302   3.492   1.902
 4960SOL     OW25808   1.618   7.395   0.996
 4960SOL    HW125809   1.682   7.405   0.920
 4960SOL    HW225810   1.539   7.454   0.981
 4961SOL     OW25811   2.433   2.603   1.337
 4961SOL    HW125812   2.507   2.665   1.310
 4961SOL    HW225813   2.351   2.656   1.357
 4962SOL     OW25814   9.200   6.966   2.062
 4962SOL    HW125815   9.164   7.024   1.988
 4962SOL    HW225816   9.262   7.020   2.119
 4963SOL     OW25817   8.330   9.505   4.906
 4963SOL    HW125818   8.261   9.577   4.919
 4963SOL    HW225819   8.415   9.532   4.950
 4964SOL     OW25820   9.809   5.988   4.177
 4964SOL    HW125821   9.905   6.012   4.191
 4964SOL    HW225822   9.797   5.889   4.187
 4965SOL     OW25823   4.392   3.496   0.219
 4965SOL    HW125824   4.310   3.459   0.177
 4965SOL    HW225825   4.399   3.594   0.200
 4966SOL     OW25826   8.804   5.214   3.003
 4966SOL    HW125827   8.765   5.249   2.918
 4966SOL    HW225828   8.779   5.118   3.015
 4967SOL     OW25829   1.828   6.713   4.506
 4967SOL    HW125830   1.844   6.695   4.409
 4967SOL    HW225831   1.911   6.692   4.558
 4968SOL     OW25832   9.966   0.966   0.678
 4968SOL    HW125833   9.906   0.897   0.637
 4968SOL    HW225834   0.009   1.021   0.606
 4969SOL     OW25835   8.669   1.590   2.614
 4969SOL    HW125836   8.645   1.549   2.526
 4969SOL    HW225837   8.732   1.666   2.599
 4970SOL     OW25838   1.753   1.963   4.862
 4970SOL    HW125839   1.693   1.935   4.937
 4970SOL    HW225840   1.795   2.051   4.882
 4971SOL     OW25841   8.308   5.017   1.170
 4971SOL    HW125842   8.407   5.022   1.169
 4971SOL    HW225843   8.273   5.021   1.076
 4972SOL     OW25844   4.140   0.462   2.337
 4972SOL    HW125845   4.041   0.470   2.342
 4972SOL    HW225846   4.181   0.553   2.332
 4973SOL     OW25847   4.016   0.833   0.543
 4973SOL    HW125848   4.095   0.876   0.500
 4973SOL    HW225849   3.958   0.904   0.584
 4974SOL     OW25850   1.687   8.686   0.501
 4974SOL    HW125851   1.599   8.673   0.455
 4974SOL    HW225852   1.687   8.775   0.548
 4975SOL     OW25853   3.162   1.339   3.474
 4975SOL    HW125854   3.188   1.433   3.494
 4975SOL    HW225855   3.072   1.321   3.513
 4976SOL     OW25856   6.071   8.307   3.048
 4976SOL    HW125857   6.106   8.304   2.954
 4976SOL    HW225858   6.081   8.400   3.084
 4977SOL     OW25859   9.995   0.920   4.963
 4977SOL    HW125860   0.020   1.009   4.925
 4977SOL    HW225861   9.913   0.930   5.020
 4978SOL     OW25862   0.240   9.970   3.069
 4978SOL    HW125863   0.242   0.013   2.978
 4978SOL    HW225864   0.279   9.878   3.063
 4979SOL     OW25865   0.072   9.228   1.796
 4979SOL    HW125866   0.044   9.322   1.778
 4979SOL    HW225867   0.013   9.165   1.745
 4980SOL     OW25868   1.548   7.893   3.764
 4980SOL    HW125869   1.492   7.937   3.834
 4980SOL    HW225870   1.495   7.821   3.720
 4981SOL     OW25871   0.919   2.523   2.763
 4981SOL    HW125872   0.961   2.607   2.798
 4981SOL    HW225873   0.820   2.528   2.775
 4982SOL     OW25874   3.047   3.619   0.784
 4982SOL    HW125875   3.128   3.615   0.843
 4982SOL    HW225876   2.964   3.620   0.840
 4983SOL     OW25877   4.906   4.284   2.407
 4983SOL    HW125878   4.839   4.290   2.333
 4983SOL    HW225879   4.860   4.271   2.494
 4984SOL     OW25880   1.172   0.123   4.874
 4984SOL    HW125881   1.107   0.062   4.828
 4984SOL    HW225882   1.196   0.085   4.963
 4985SOL     OW25883   7.477   1.452   4.399
 4985SOL    HW125884   7.419   1.411   4.329
 4985SOL    HW225885   7.572   1.423   4.384
 4986SOL     OW25886   4.670   2.542   3.697
 4986SOL    HW125887   4.609   2.519   3.773
 4986SOL    HW225888   4.757   2.574   3.733
 4987SOL     OW25889   5.682   0.662   1.929
 4987SOL    HW125890   5.583   0.644   1.934
 4987SOL    HW225891   5.697   0.749   1.883
 4988SOL     OW25892   2.846   8.399   1.650
 4988SOL    HW125893   2.870   8.350   1.566
 4988SOL    HW225894   2.878   8.494   1.643
 4989SOL     OW25895   3.527   3.955   0.119
 4989SOL    HW125896   3.489   4.036   0.074
 4989SOL    HW225897   3.462   3.880   0.113
 4990SOL     OW25898   7.180   2.458   2.288
 4990SOL    HW125899   7.158   2.364   2.260
 4990SOL    HW225900   7.098   2.515   2.280
 4991SOL     OW25901   7.254   9.055   2.330
 4991SOL    HW125902   7.310   9.119   2.278
 4991SOL    HW225903   7.207   8.993   2.267
 4992SOL     OW25904  10.000   7.237   4.525
 4992SOL    HW125905   0.073   7.282   4.575
 4992SOL    HW225906   9.922   7.222   4.586
 4993SOL     OW25907   2.241   7.096   1.829
 4993SOL    HW125908   2.328   7.073   1.785
 4993SOL    HW225909   2.174   7.123   1.760
 4994SOL     OW25910   3.272   3.496   3.124
 4994SOL    HW125911   3.271   3.404   3.163
 4994SOL    HW225912   3.346   3.503   3.057
 4995SOL     OW25913   6.435   1.202   0.674
 4995SOL    HW125914   6.447   1.181   0.577
 4995SOL    HW225915   6.360   1.147   0.711
 4996SOL     OW25916   4.860   7.159   3.567
 4996SOL    HW125917   4.911   7.161   3.481
 4996SOL    HW225918   4.912   7.106   3.634
 4997SOL     OW25919   7.960   8.810   2.662
 4997SOL    HW125920   8.028   8.876   2.629
 4997SOL    HW225921   7.882   8.858   2.701
 4998SOL     OW25922   6.746   6.988   4.771
 4998SOL    HW125923   6.743   6.967   4.868
 4998SOL    HW225924   6.769   6.905   4.719
 4999SOL     OW25925   3.674   6.159   3.243
 4999SOL    HW125926   3.681   6.081   3.305
 4999SOL    HW225927   3.752   6.221   3.259
 5000SOL     OW25928   7.792   5.147   1.802
 5000SOL    HW125929   7.703   5.194   1.809
 5000SOL    HW225930   7.853   5.182   1.873
 5001SOL     OW25931   5.574   4.827   0.788
 5001SOL    HW125932   5.524   4.859   0.707
 5001SOL    HW225933   5.615   4.906   0.834
 5002SOL     OW25934   3.357   6.686   3.935
 5002SOL    HW125935   3.398   6.768   3.974
 5002SOL    HW225936   3.303   6.711   3.855
 5003SOL     OW25937   5.275   8.762   2.634
 5003SOL    HW125938   5.311   8.819   2.708
 5003SOL    HW225939   5.207   8.699   2.670
 5004SOL     OW25940   6.845   8.915   4.662
 5004SOL    HW125941   6.886   9.006   4.661
 5004SOL    HW225942   6.873   8.865   4.579
 5005SOL     OW25943   4.195   9.741   2.398
 5005SOL    HW125944   4.279   9.694   2.427
 5005SOL    HW225945   4.152   9.689   2.324
 5006SOL     OW25946   7.468   8.810   5.028
 5006SOL    HW125947   7.511   8.894   5.061
 5006SOL    HW225948   7.469   8.741   5.100
 5007SOL     OW25949   2.978   8.644   3.804
 5007SOL    HW125950   2.896   8.588   3.792
 5007SOL    HW225951   2.973   8.724   3.743
 5008SOL     OW25952   0.097   5.592   0.995
 5008SOL    HW125953   0.097   5.638   0.907
 5008SOL    HW225954   0.083   5.659   1.068
 5009SOL     OW25955   7.851   7.287   4.267
 5009SOL    HW125956   7.768   7.249   4.225
 5009SOL    HW225957   7.829   7.375   4.309
 5010SOL     OW25958   3.107   1.388   2.567
 5010SOL    HW125959   3.167   1.388   2.647
 5010SOL    HW225960   3.088   1.483   2.540
 5011SOL     OW25961   4.985   1.642   1.583
 5011SOL    HW125962   5.059   1.710   1.592
 5011SOL    HW225963   4.999   1.569   1.650
 5012SOL     OW25964   8.826   8.236   1.614
 5012SOL    HW125965   8.786   8.185   1.537
 5012SOL    HW225966   8.818   8.334   1.596
 5013SOL     OW25967   9.941   3.044   3.306
 5013SOL    HW125968   9.963   2.966   3.364
 5013SOL    HW225969   9.954   3.129   3.357
 5014SOL     OW25970   9.380   9.680   1.582
 5014SOL    HW125971   9.387   9.748   1.654
 5014SOL    HW225972   9.428   9.597   1.611
 5015SOL     OW25973   1.792   3.262   2.904
 5015SOL    HW125974   1.840   3.227   2.984
 5015SOL    HW225975   1.858   3.279   2.831
 5016SOL     OW25976   6.649   9.232   3.099
 5016SOL    HW125977   6.726   9.256   3.040
 5016SOL    HW225978   6.670   9.259   3.193
 5017SOL     OW25979   1.416   5.145   0.997
 5017SOL    HW125980   1.459   5.218   1.050
 5017SOL    HW225981   1.321   5.134   1.026
 5018SOL     OW25982   6.830   8.050   3.530
 5018SOL    HW125983   6.844   8.111   3.452
 5018SOL    HW225984   6.748   7.995   3.515
 5019SOL     OW25985   0.987   2.742   5.063
 5019SOL    HW125986   1.026   2.812   5.002
 5019SOL    HW225987   1.041   2.658   5.055
 5020SOL     OW25988   9.676   7.115   1.978
 5020SOL    HW125989   9.636   7.056   2.047
 5020SOL    HW225990   9.603   7.158   1.924
 5021SOL     OW25991   0.456   2.290   0.984
 5021SOL    HW125992   0.452   2.195   0.952
 5021SOL    HW225993   0.531   2.337   0.939
 5022SOL     OW25994   5.719   1.715   1.476
 5022SOL    HW125995   5.724   1.641   1.544
 5022SOL    HW225996   5.784   1.695   1.402
 5023SOL     OW25997   7.669   1.753   4.650
 5023SOL    HW125998   7.660   1.849   4.678
 5023SOL    HW225999   7.757   1.717   4.682
 5024SOL     OW26000   9.233   5.968   2.402
 5024SOL    HW126001   9.143   5.924   2.399
 5024SOL    HW226002   9.257   6.001   2.310
 5025SOL     OW26003   2.679   2.071   3.451
 5025SOL    HW126004   2.778   2.062   3.445
 5025SOL    HW226005   2.650   2.154   3.404
 5026SOL     OW26006   7.880   2.218   4.124
 5026SOL    HW126007   7.915   2.156   4.054
 5026SOL    HW226008   7.863   2.167   4.209
 5027SOL     OW26009   3.985   7.197   5.012
 5027SOL    HW126010   3.887   7.192   4.994
 5027SOL    HW226011   4.012   7.293   5.020
 5028SOL     OW26012   2.653   3.350   0.975
 5028SOL    HW126013   2.592   3.272   0.981
 5028SOL    HW226014   2.634   3.413   1.050
 5029SOL     OW26015   5.569   2.180   3.334
 5029SOL    HW126016   5.513   2.097   3.334
 5029SOL    HW226017   5.552   2.233   3.251
 5030SOL     OW26018   7.182   2.983   0.446
 5030SOL    HW126019   7.247   3.003   0.519
 5030SOL    HW226020   7.231   2.956   0.364
 5031SOL     OW26021   3.346   9.139   1.506
 5031SOL    HW126022   3.371   9.073   1.576
 5031SOL    HW226023   3.380   9.107   1.417
 5032SOL     OW26024   7.398   6.590   4.869
 5032SOL    HW126025   7.438   6.523   4.806
 5032SOL    HW226026   7.428   6.568   4.962
 5033SOL     OW26027   7.942   7.151   4.851
 5033SOL    HW126028   7.887   7.153   4.934
 5033SOL    HW226029   8.011   7.223   4.855
 5034SOL     OW26030   3.078   0.025   0.456
 5034SOL    HW126031   3.138   0.084   0.402
 5034SOL    HW226032   3.012   0.081   0.506
 5035SOL     OW26033   8.077   8.260   3.778
 5035SOL    HW126034   8.072   8.193   3.852
 5035SOL    HW226035   7.999   8.249   3.717
 5036SOL     OW26036   3.785   4.939   1.250
 5036SOL    HW126037   3.803   5.016   1.190
 5036SOL    HW226038   3.688   4.937   1.274
 5037SOL     OW26039   0.880   6.026   4.845
 5037SOL    HW126040   0.842   6.016   4.753
 5037SOL    HW226041   0.844   5.953   4.904
 5038SOL     OW26042   5.451   9.804   4.892
 5038SOL    HW126043   5.474   9.797   4.795
 5038SOL    HW226044   5.448   9.900   4.920
 5039SOL     OW26045   9.777   4.906   4.497
 5039SOL    HW126046   9.725   4.824   4.523
 5039SOL    HW226047   9.827   4.887   4.413
 5040SOL     OW26048   5.987   0.174   1.577
 5040SOL    HW126049   6.070   0.132   1.613
 5040SOL    HW226050   6.005   0.269   1.555
 5041SOL     OW26051   9.510   0.484   4.108
 5041SOL    HW126052   9.444   0.487   4.033
 5041SOL    HW226053   9.466   0.449   4.191
 5042SOL     OW26054   2.541   5.408   3.766
 5042SOL    HW126055   2.525   5.460   3.850
 5042SOL    HW226056   2.589   5.323   3.787
 5043SOL     OW26057   6.403   0.327   4.570
 5043SOL    HW126058   6.405   0.424   4.545
 5043SOL    HW226059   6.480   0.280   4.527
 5044SOL     OW26060   4.016   3.565   4.518
 5044SOL    HW126061   4.036   3.632   4.589
 5044SOL    HW226062   4.093   3.560   4.454
 5045SOL     OW26063   3.161   6.990   4.576
 5045SOL    HW126064   3.096   6.950   4.511
 5045SOL    HW226065   3.254   6.959   4.554
 5046SOL     OW26066   2.221   0.818   1.257
 5046SOL    HW126067   2.124   0.844   1.255
 5046SOL    HW226068   2.232   0.737   1.316
 5047SOL     OW26069   1.629   6.829   2.360
 5047SOL    HW126070   1.672   6.851   2.447
 5047SOL    HW226071   1.550   6.770   2.375
 5048SOL     OW26072   2.269   4.288   1.134
 5048SOL    HW126073   2.296   4.338   1.052
 5048SOL    HW226074   2.218   4.206   1.108
 5049SOL     OW26075   7.985   7.115   4.439
 5049SOL    HW126076   8.083   7.134   4.439
 5049SOL    HW226077   7.940   7.168   4.367
 5050SOL     OW26078   3.093   1.944   0.469
 5050SOL    HW126079   3.107   1.985   0.559
 5050SOL    HW226080   2.996   1.921   0.459
 5051SOL     OW26081   8.862   1.842   0.632
 5051SOL    HW126082   8.818   1.898   0.561
 5051SOL    HW226083   8.791   1.797   0.687
 5052SOL     OW26084   2.369   8.680   0.281
 5052SOL    HW126085   2.405   8.768   0.251
 5052SOL    HW226086   2.429   8.607   0.248
 5053SOL     OW26087   8.842   2.533   1.439
 5053SOL    HW126088   8.884   2.490   1.519
 5053SOL    HW226089   8.745   2.510   1.436
 5054SOL     OW26090   2.986   4.727   1.849
 5054SOL    HW126091   3.018   4.654   1.789
 5054SOL    HW226092   3.034   4.812   1.827
 5055SOL     OW26093   9.814   3.238   2.240
 5055SOL    HW126094   9.854   3.147   2.252
 5055SOL    HW226095   9.888   3.305   2.233
 5056SOL     OW26096   3.845   9.036   2.969
 5056SOL    HW126097   3.937   9.058   2.934
 5056SOL    HW226098   3.811   8.955   2.923
 5057SOL     OW26099   0.224   5.587   4.995
 5057SOL    HW126100   0.319   5.559   4.986
 5057SOL    HW226101   0.180   5.534   5.068
 5058SOL     OW26102   0.670   5.621   2.760
 5058SOL    HW126103   0.712   5.549   2.816
 5058SOL    HW226104   0.720   5.707   2.773
 5059SOL     OW26105   1.910   3.074   1.169
 5059SOL    HW126106   1.944   3.158   1.210
 5059SOL    HW226107   1.973   3.044   1.097
 5060SOL     OW26108   1.774   9.613   2.122
 5060SOL    HW126109   1.725   9.550   2.183
 5060SOL    HW226110   1.718   9.694   2.107
 5061SOL     OW26111   4.808   3.061   2.904
 5061SOL    HW126112   4.807   3.095   2.810
 5061SOL    HW226113   4.730   3.100   2.953
 5062SOL     OW26114   0.963   4.011   3.911
 5062SOL    HW126115   0.946   4.077   3.838
 5062SOL    HW226116   1.022   3.938   3.876
 5063SOL     OW26117   8.357   0.449   3.864
 5063SOL    HW126118   8.333   0.544   3.880
 5063SOL    HW226119   8.410   0.441   3.779
 5064SOL     OW26120   1.743   3.604   0.653
 5064SOL    HW126121   1.802   3.552   0.591
 5064SOL    HW226122   1.711   3.686   0.605
 5065SOL     OW26123   9.196   0.063   1.769
 5065SOL    HW126124   9.231   0.153   1.794
 5065SOL    HW226125   9.117   0.041   1.827
 5066SOL     OW26126   9.293   4.795   1.829
 5066SOL    HW126127   9.289   4.697   1.806
 5066SOL    HW226128   9.303   4.805   1.928
 5067SOL     OW26129   2.144   5.828   2.623
 5067SOL    HW126130   2.110   5.922   2.626
 5067SOL    HW226131   2.157   5.799   2.528
 5068SOL     OW26132   2.799   3.629   3.304
 5068SOL    HW126133   2.863   3.685   3.253
 5068SOL    HW226134   2.740   3.687   3.360
 5069SOL     OW26135   4.951   2.606   4.942
 5069SOL    HW126136   4.949   2.649   5.033
 5069SOL    HW226137   4.876   2.641   4.887
 5070SOL     OW26138   3.673   7.094   1.776
 5070SOL    HW126139   3.695   7.166   1.842
 5070SOL    HW226140   3.757   7.049   1.748
 5071SOL     OW26141   2.602   4.158   1.662
 5071SOL    HW126142   2.555   4.077   1.628
 5071SOL    HW226143   2.551   4.196   1.740
 5072SOL     OW26144   3.576   3.145   1.890
 5072SOL    HW126145   3.668   3.136   1.926
 5072SOL    HW226146   3.542   3.238   1.908
 5073SOL     OW26147   8.243   0.091   4.179
 5073SOL    HW126148   8.172   0.034   4.138
 5073SOL    HW226149   8.328   0.080   4.129
 5074SOL     OW26150   4.671   7.426   2.229
 5074SOL    HW126151   4.701   7.519   2.209
 5074SOL    HW226152   4.668   7.412   2.328
 5075SOL     OW26153   0.430   2.913   5.310
 5075SOL    HW126154   0.504   2.973   5.280
 5075SOL    HW226155   0.349   2.969   5.331
 5076SOL     OW26156   9.649   6.392   5.136
 5076SOL    HW126157   9.739   6.354   5.159
 5076SOL    HW226158   9.650   6.491   5.148
 5077SOL     OW26159   8.178   3.912   4.026
 5077SOL    HW126160   8.099   3.900   3.967
 5077SOL    HW226161   8.259   3.931   3.970
 5078SOL     OW26162   3.708   7.316   1.955
 5078SOL    HW126163   3.686   7.407   1.922
 5078SOL    HW226164   3.648   7.293   2.032
 5079SOL     OW26165   4.984   1.348   4.538
 5079SOL    HW126166   4.914   1.414   4.510
 5079SOL    HW226167   5.068   1.397   4.563
 5080SOL     OW26168   0.553   9.041   1.362
 5080SOL    HW126169   0.474   8.998   1.404
 5080SOL    HW226170   0.577   8.993   1.278
 5081SOL     OW26171   5.711   9.471   1.968
 5081SOL    HW126172   5.743   9.473   1.874
 5081SOL    HW226173   5.783   9.437   2.028
 5082SOL     OW26174   7.820   7.948   4.652
 5082SOL    HW126175   7.784   8.023   4.598
 5082SOL    HW226176   7.869   7.884   4.593
 5083SOL     OW26177   0.622   3.082   5.199
 5083SOL    HW126178   0.715   3.045   5.203
 5083SOL    HW226179   0.624   3.176   5.166
 5084SOL     OW26180   2.215   2.131   1.502
 5084SOL    HW126181   2.312   2.156   1.501
 5084SOL    HW226182   2.195   2.073   1.423
 5085SOL     OW26183   4.803   8.641   0.242
 5085SOL    HW126184   4.868   8.579   0.198
 5085SOL    HW226185   4.715   8.595   0.253
 5086SOL     OW26186   0.527   4.760   3.791
 5086SOL    HW126187   0.544   4.852   3.826
 5086SOL    HW226188   0.511   4.698   3.868
 5087SOL     OW26189   0.249   3.130   4.669
 5087SOL    HW126190   0.292   3.061   4.610
 5087SOL    HW226191   0.254   3.101   4.764
 5088SOL     OW26192   0.525   2.760   1.483
 5088SOL    HW126193   0.476   2.746   1.397
 5088SOL    HW226194   0.525   2.857   1.506
 5089SOL     OW26195   9.045   6.867   2.267
 5089SOL    HW126196   9.100   6.904   2.192
 5089SOL    HW226197   8.997   6.786   2.235
 5090SOL     OW26198   7.595   3.469   4.053
 5090SOL    HW126199   7.583   3.439   4.148
 5090SOL    HW226200   7.609   3.568   4.051
 5091SOL     OW26201   2.663   4.934   2.917
 5091SOL    HW126202   2.597   4.909   2.988
 5091SOL    HW226203   2.705   4.851   2.880
 5092SOL     OW26204   6.807   7.548   5.169
 5092SOL    HW126205   6.817   7.618   5.098
 5092SOL    HW226206   6.879   7.480   5.159
 5093SOL     OW26207   0.559   1.124   2.189
 5093SOL    HW126208   0.498   1.099   2.264
 5093SOL    HW226209   0.613   1.044   2.161
 5094SOL     OW26210   4.624   0.813   1.635
 5094SOL    HW126211   4.627   0.841   1.539
 5094SOL    HW226212   4.701   0.752   1.654
 5095SOL     OW26213   1.529   0.250   0.913
 5095SOL    HW126214   1.429   0.257   0.923
 5095SOL    HW226215   1.558   0.308   0.838
 5096SOL     OW26216   7.798   2.346   4.936
 5096SOL    HW126217   7.780   2.419   4.870
 5096SOL    HW226218   7.728   2.348   5.008
 5097SOL     OW26219   4.007   2.244   0.594
 5097SOL    HW126220   4.041   2.151   0.611
 5097SOL    HW226221   3.948   2.272   0.669
 5098SOL     OW26222   9.819   6.631   1.655
 5098SOL    HW126223   9.851   6.682   1.735
 5098SOL    HW226224   9.858   6.538   1.657
 5099SOL     OW26225   1.709   6.859   2.623
 5099SOL    HW126226   1.627   6.819   2.663
 5099SOL    HW226227   1.731   6.945   2.669
 5100SOL     OW26228   4.628   8.179   3.145
 5100SOL    HW126229   4.534   8.191   3.111
 5100SOL    HW226230   4.629   8.190   3.244
 5101SOL     OW26231   5.066   0.437   3.695
 5101SOL    HW126232   5.004   0.365   3.663
 5101SOL    HW226233   5.013   0.520   3.715
 5102SOL     OW26234   7.209   6.919   5.087
 5102SOL    HW126235   7.301   6.887   5.111
 5102SOL    HW226236   7.142   6.876   5.147
 5103SOL     OW26237   8.384   6.718   2.058
 5103SOL    HW126238   8.439   6.764   2.127
 5103SOL    HW226239   8.389   6.619   2.071
 5104SOL     OW26240   0.381   3.283   4.993
 5104SOL    HW126241   0.323   3.365   4.993
 5104SOL    HW226242   0.469   3.304   5.035
 5105SOL     OW26243   5.013   0.085   1.222
 5105SOL    HW126244   4.972   0.121   1.138
 5105SOL    HW226245   5.112   0.093   1.217
 5106SOL     OW26246   8.156   0.108   3.222
 5106SOL    HW126247   8.217   0.081   3.148
 5106SOL    HW226248   8.119   0.027   3.266
 5107SOL     OW26249   2.782   4.206   5.176
 5107SOL    HW126250   2.683   4.202   5.189
 5107SOL    HW226251   2.823   4.118   5.199
 5108SOL     OW26252   5.826   8.604   3.405
 5108SOL    HW126253   5.921   8.574   3.395
 5108SOL    HW226254   5.824   8.687   3.461
 5109SOL     OW26255   2.434   7.380   2.260
 5109SOL    HW126256   2.490   7.307   2.221
 5109SOL    HW226257   2.400   7.438   2.186
 5110SOL     OW26258   4.694   8.473   4.660
 5110SOL    HW126259   4.739   8.384   4.664
 5110SOL    HW226260   4.760   8.545   4.681
 5111SOL     OW26261   1.087   6.107   4.674
 5111SOL    HW126262   1.155   6.039   4.646
 5111SOL    HW226263   1.033   6.071   4.750
 5112SOL     OW26264   3.260   3.512   1.393
 5112SOL    HW126265   3.242   3.478   1.485
 5112SOL    HW226266   3.238   3.441   1.326
 5113SOL     OW26267   6.514   7.611   4.031
 5113SOL    HW126268   6.418   7.624   4.053
 5113SOL    HW226269   6.562   7.573   4.111
 5114SOL     OW26270   9.027   4.303   2.423
 5114SOL    HW126271   9.102   4.277   2.362
 5114SOL    HW226272   9.024   4.402   2.433
 5115SOL     OW26273   7.028   0.446   4.163
 5115SOL    HW126274   7.063   0.532   4.200
 5115SOL    HW226275   7.085   0.370   4.194
 5116SOL     OW26276   7.718   1.815   3.952
 5116SOL    HW126277   7.747   1.725   3.919
 5116SOL    HW226278   7.688   1.871   3.875
 5117SOL     OW26279   3.520   9.220   3.505
 5117SOL    HW126280   3.487   9.248   3.595
 5117SOL    HW226281   3.531   9.301   3.448
 5118SOL     OW26282   3.158   1.074   1.050
 5118SOL    HW126283   3.154   1.098   1.147
 5118SOL    HW226284   3.233   1.009   1.035
 5119SOL     OW26285   9.386   8.723   4.340
 5119SOL    HW126286   9.290   8.710   4.365
 5119SOL    HW226287   9.445   8.689   4.413
 5120SOL     OW26288   3.016   7.856   0.349
 5120SOL    HW126289   3.049   7.917   0.277
 5120SOL    HW226290   2.919   7.876   0.368
 5121SOL     OW26291   0.810   4.045   2.204
 5121SOL    HW126292   0.741   4.043   2.277
 5121SOL    HW226293   0.803   4.131   2.154
 5122SOL     OW26294   8.828   2.034   1.299
 5122SOL    HW126295   8.923   2.002   1.290
 5122SOL    HW226296   8.772   1.961   1.336
 5123SOL     OW26297   5.080   9.686   2.714
 5123SOL    HW126298   5.130   9.771   2.728
 5123SOL    HW226299   5.095   9.625   2.792
 5124SOL     OW26300   0.605   3.060   3.740
 5124SOL    HW126301   0.636   3.137   3.684
 5124SOL    HW226302   0.682   2.997   3.754
 5125SOL     OW26303   8.230   3.217   3.137
 5125SOL    HW126304   8.330   3.213   3.136
 5125SOL    HW226305   8.199   3.278   3.064
 5126SOL     OW26306   1.046   1.464   3.579
 5126SOL    HW126307   1.116   1.479   3.649
 5126SOL    HW226308   1.088   1.424   3.498
 5127SOL     OW26309   8.559   8.748   3.164
 5127SOL    HW126310   8.541   8.704   3.252
 5127SOL    HW226311   8.581   8.844   3.179
 5128SOL     OW26312   9.688   2.267   3.530
 5128SOL    HW126313   9.632   2.293   3.608
 5128SOL    HW226314   9.771   2.322   3.528
 5129SOL     OW26315   0.720   3.039   0.694
 5129SOL    HW126316   0.795   3.098   0.726
 5129SOL    HW226317   0.632   3.082   0.715
 5130SOL     OW26318   3.784   9.907   0.167
 5130SOL    HW126319   3.757   9.914   0.071
 5130SOL    HW226320   3.773   9.813   0.198
 5131SOL     OW26321   0.761   7.190   4.246
 5131SOL    HW126322   0.833   7.243   4.202
 5131SOL    HW226323   0.673   7.213   4.206
 5132SOL     OW26324   2.065   5.520   3.548
 5132SOL    HW126325   2.136   5.485   3.610
 5132SOL    HW226326   2.036   5.610   3.578
 5133SOL     OW26327   0.493   7.071   0.296
 5133SOL    HW126328   0.518   6.988   0.347
 5133SOL    HW226329   0.571   7.133   0.294
 5134SOL     OW26330   3.876   5.565   4.597
 5134SOL    HW126331   3.935   5.645   4.611
 5134SOL    HW226332   3.821   5.578   4.515
 5135SOL     OW26333   8.968   5.260   1.512
 5135SOL    HW126334   8.901   5.305   1.454
 5135SOL    HW226335   8.969   5.162   1.493
 5136SOL     OW26336   2.031   0.403   2.473
 5136SOL    HW126337   2.128   0.405   2.446
 5136SOL    HW226338   1.998   0.497   2.486
 5137SOL     OW26339   8.351   7.825   0.114
 5137SOL    HW126340   8.435   7.783   0.150
 5137SOL    HW226341   8.365   7.924   0.103
 5138SOL     OW26342   8.783   0.231   0.787
 5138SOL    HW126343   8.748   0.138   0.777
 5138SOL    HW226344   8.726   0.281   0.852
 5139SOL     OW26345   4.503   9.066   4.743
 5139SOL    HW126346   4.596   9.100   4.735
 5139SOL    HW226347   4.501   8.968   4.724
 5140SOL     OW26348   8.575   0.675   4.124
 5140SOL    HW126349   8.653   0.675   4.187
 5140SOL    HW226350   8.605   0.711   4.035
 5141SOL     OW26351   0.768   6.015   0.543
 5141SOL    HW126352   0.864   5.989   0.554
 5141SOL    HW226353   0.710   5.935   0.554
 5142SOL     OW26354   6.399   2.069   3.969
 5142SOL    HW126355   6.373   1.977   3.999
 5142SOL    HW226356   6.316   2.121   3.944
 5143SOL     OW26357   3.783   7.476   5.082
 5143SOL    HW126358   3.882   7.490   5.081
 5143SOL    HW226359   3.762   7.385   5.047
 5144SOL     OW26360   2.772   8.797   0.977
 5144SOL    HW126361   2.850   8.789   0.915
 5144SOL    HW226362   2.708   8.723   0.961
 5145SOL     OW26363   4.801   8.461   1.459
 5145SOL    HW126364   4.882   8.520   1.462
 5145SOL    HW226365   4.768   8.446   1.552
 5146SOL     OW26366   3.891   2.635   1.481
 5146SOL    HW126367   3.860   2.678   1.396
 5146SOL    HW226368   3.974   2.581   1.463
 5147SOL     OW26369   2.402   4.404   4.883
 5147SOL    HW126370   2.351   4.360   4.809
 5147SOL    HW226371   2.469   4.467   4.846
 5148SOL     OW26372   8.671   8.680   2.175
 5148SOL    HW126373   8.754   8.662   2.122
 5148SOL    HW226374   8.595   8.697   2.113
 5149SOL     OW26375   0.388   9.691   4.873
 5149SOL    HW126376   0.297   9.671   4.909
 5149SOL    HW226377   0.452   9.703   4.949
 5150SOL     OW26378   8.504   4.677   0.099
 5150SOL    HW126379   8.425   4.622   0.127
 5150SOL    HW226380   8.587   4.641   0.142
 5151SOL     OW26381   9.637   0.090   3.926
 5151SOL    HW126382   9.691   0.045   3.997
 5151SOL    HW226383   9.695   0.155   3.876
 5152SOL     OW26384   9.195   2.721   1.803
 5152SOL    HW126385   9.212   2.663   1.882
 5152SOL    HW226386   9.109   2.771   1.815
 5153SOL     OW26387   2.176   9.269   3.414
 5153SOL    HW126388   2.266   9.284   3.373
 5153SOL    HW226389   2.174   9.179   3.459
 5154SOL     OW26390   8.173   2.479   1.102
 5154SOL    HW126391   8.171   2.432   1.190
 5154SOL    HW226392   8.266   2.509   1.081
 5155SOL     OW26393   7.784   3.575   2.137
 5155SOL    HW126394   7.733   3.604   2.056
 5155SOL    HW226395   7.784   3.475   2.142
 5156SOL     OW26396   2.337   1.774   1.455
 5156SOL    HW126397   2.409   1.807   1.394
 5156SOL    HW226398   2.320   1.677   1.438
 5157SOL     OW26399   0.207   4.398   1.413
 5157SOL    HW126400   0.305   4.407   1.399
 5157SOL    HW226401   0.162   4.375   1.327
 5158SOL     OW26402   2.102   2.581   3.830
 5158SOL    HW126403   2.010   2.591   3.867
 5158SOL    HW226404   2.143   2.497   3.866
 5159SOL     OW26405   1.756   4.532   4.387
 5159SOL    HW126406   1.687   4.469   4.423
 5159SOL    HW226407   1.764   4.610   4.448
 5160SOL     OW26408   1.300   4.100   0.272
 5160SOL    HW126409   1.225   4.114   0.337
 5160SOL    HW226410   1.280   4.151   0.188
 5161SOL     OW26411   1.347   4.228   4.926
 5161SOL    HW126412   1.370   4.325   4.923
 5161SOL    HW226413   1.248   4.216   4.918
 5162SOL     OW26414   8.536   2.446   0.391
 5162SOL    HW126415   8.634   2.462   0.406
 5162SOL    HW226416   8.495   2.411   0.475
 5163SOL     OW26417   3.637   8.364   1.629
 5163SOL    HW126418   3.655   8.345   1.533
 5163SOL    HW226419   3.545   8.333   1.653
 5164SOL     OW26420   3.335   1.119   3.518
 5164SOL    HW126421   3.281   1.201   3.499
 5164SOL    HW226422   3.275   1.044   3.542
 5165SOL     OW26423   8.632   6.662   1.367
 5165SOL    HW126424   8.576   6.609   1.304
 5165SOL    HW226425   8.598   6.756   1.372
 5166SOL     OW26426   4.841   9.403   1.624
 5166SOL    HW126427   4.833   9.345   1.705
 5166SOL    HW226428   4.885   9.490   1.650
 5167SOL     OW26429   4.762   7.635   3.653
 5167SOL    HW126430   4.799   7.697   3.722
 5167SOL    HW226431   4.768   7.541   3.686
 5168SOL     OW26432   0.251   8.700   0.091
 5168SOL    HW126433   0.299   8.616   0.116
 5168SOL    HW226434   0.305   8.750   0.023
 5169SOL     OW26435   1.483   7.207   3.327
 5169SOL    HW126436   1.504   7.166   3.239
 5169SOL    HW226437   1.412   7.154   3.373
 5170SOL     OW26438   1.349   4.194   2.739
 5170SOL    HW126439   1.438   4.171   2.780
 5170SOL    HW226440   1.305   4.110   2.708
 5171SOL     OW26441   8.166   2.631   2.437
 5171SOL    HW126442   8.150   2.728   2.418
 5171SOL    HW226443   8.078   2.585   2.449
 5172SOL     OW26444   1.693   6.379   1.019
 5172SOL    HW126445   1.712   6.306   1.084
 5172SOL    HW226446   1.605   6.421   1.041
 5173SOL     OW26447   6.603   9.852   4.102
 5173SOL    HW126448   6.681   9.870   4.042
 5173SOL    HW226449   6.597   9.753   4.119
 5174SOL     OW26450   7.637   0.449   3.345
 5174SOL    HW126451   7.693   0.422   3.423
 5174SOL    HW226452   7.617   0.547   3.350
 5175SOL     OW26453   2.630   0.136   3.075
 5175SOL    HW126454   2.620   0.234   3.097
 5175SOL    HW226455   2.541   0.091   3.082
 5176SOL     OW26456   8.262   6.861   3.841
 5176SOL    HW126457   8.250   6.764   3.822
 5176SOL    HW226458   8.258   6.913   3.755
 5177SOL     OW26459   4.204   4.910   1.607
 5177SOL    HW126460   4.142   4.887   1.532
 5177SOL    HW226461   4.292   4.940   1.569
 5178SOL     OW26462   7.203   1.741   4.710
 5178SOL    HW126463   7.240   1.831   4.734
 5178SOL    HW226464   7.243   1.711   4.623
 5179SOL     OW26465   9.332   0.690   0.731
 5179SOL    HW126466   9.365   0.777   0.694
 5179SOL    HW226467   9.276   0.644   0.661
 5180SOL     OW26468   7.507   1.284   4.046
 5180SOL    HW126469   7.571   1.238   4.108
 5180SOL    HW226470   7.424   1.310   4.096
 5181SOL     OW26471   9.428   0.657   4.778
 5181SOL    HW126472   9.521   0.673   4.813
 5181SOL    HW226473   9.433   0.598   4.697
 5182SOL     OW26474   3.316   9.951   3.689
 5182SOL    HW126475   3.232   9.965   3.636
 5182SOL    HW226476   3.396   9.963   3.630
 5183SOL     OW26477   8.200   2.916   4.887
 5183SOL    HW126478   8.187   2.839   4.949
 5183SOL    HW226479   8.247   2.990   4.934
 5184SOL     OW26480   2.162   7.979   3.578
 5184SOL    HW126481   2.225   7.911   3.615
 5184SOL    HW226482   2.209   8.068   3.572
 5185SOL     OW26483   9.166   7.240   0.517
 5185SOL    HW126484   9.075   7.198   0.517
 5185SOL    HW226485   9.232   7.177   0.475
 5186SOL     OW26486   2.328   8.122   4.514
 5186SOL    HW126487   2.308   8.218   4.531
 5186SOL    HW226488   2.427   8.109   4.508
 5187SOL     OW26489   0.389   2.647   1.699
 5187SOL    HW126490   0.329   2.725   1.719
 5187SOL    HW226491   0.453   2.673   1.626
 5188SOL     OW26492   2.490   6.627   2.590
 5188SOL    HW126493   2.448   6.684   2.519
 5188SOL    HW226494   2.418   6.589   2.649
 5189SOL     OW26495   3.138   7.040   2.299
 5189SOL    HW126496   3.093   6.955   2.326
 5189SOL    HW226497   3.092   7.117   2.343
 5190SOL     OW26498   1.048   0.004   3.944
 5190SOL    HW126499   1.138   0.011   3.901
 5190SOL    HW226500   0.984   0.067   3.900
 5191SOL     OW26501   3.139   7.770   1.141
 5191SOL    HW126502   3.075   7.693   1.137
 5191SOL    HW226503   3.227   7.742   1.103
 5192SOL     OW26504   3.096   8.324   4.029
 5192SOL    HW126505   3.133   8.374   3.952
 5192SOL    HW226506   3.064   8.234   3.999
 5193SOL     OW26507   6.885   1.665   1.078
 5193SOL    HW126508   6.906   1.649   0.982
 5193SOL    HW226509   6.792   1.634   1.098
 5194SOL     OW26510   1.036   2.472   0.881
 5194SOL    HW126511   1.106   2.436   0.819
 5194SOL    HW226512   0.985   2.395   0.921
 5195SOL     OW26513   8.728   4.594   0.249
 5195SOL    HW126514   8.796   4.520   0.247
 5195SOL    HW226515   8.775   4.681   0.266
 5196SOL     OW26516   7.675   9.778   3.059
 5196SOL    HW126517   7.626   9.841   2.999
 5196SOL    HW226518   7.610   9.717   3.104
 5197SOL     OW26519   8.864   9.454   1.180
 5197SOL    HW126520   8.956   9.489   1.195
 5197SOL    HW226521   8.798   9.513   1.227
 5198SOL     OW26522   3.052   8.972   1.511
 5198SOL    HW126523   2.961   8.937   1.534
 5198SOL    HW226524   3.088   8.922   1.432
 5199SOL     OW26525   3.362   2.459   0.662
 5199SOL    HW126526   3.370   2.503   0.573
 5199SOL    HW226527   3.289   2.503   0.715
 5200SOL     OW26528   4.939   2.993   5.098
 5200SOL    HW126529   4.926   2.902   5.138
 5200SOL    HW226530   4.895   3.061   5.155
 5201SOL     OW26531   7.574   2.128   3.006
 5201SOL    HW126532   7.589   2.132   2.908
 5201SOL    HW226533   7.476   2.126   3.025
 5202SOL     OW26534   4.014   6.918   0.961
 5202SOL    HW126535   3.960   6.993   1.000
 5202SOL    HW226536   4.111   6.937   0.975
 5203SOL     OW26537   0.404   8.858   2.507
 5203SOL    HW126538   0.361   8.879   2.419
 5203SOL    HW226539   0.365   8.773   2.544
 5204SOL     OW26540   3.705   5.279   0.408
 5204SOL    HW126541   3.658   5.353   0.454
 5204SOL    HW226542   3.649   5.196   0.412
 5205SOL     OW26543   8.988   3.818   2.267
 5205SOL    HW126544   9.054   3.831   2.192
 5205SOL    HW226545   8.980   3.720   2.286
 5206SOL     OW26546   8.511   5.445   1.278
 5206SOL    HW126547   8.501   5.540   1.308
 5206SOL    HW226548   8.495   5.383   1.355
 5207SOL     OW26549   2.411   0.575   0.248
 5207SOL    HW126550   2.352   0.605   0.323
 5207SOL    HW226551   2.451   0.655   0.203
 5208SOL     OW26552   2.401   0.976   0.444
 5208SOL    HW126553   2.486   0.990   0.394
 5208SOL    HW226554   2.325   1.018   0.394
 5209SOL     OW26555   3.194   4.755   3.777
 5209SOL    HW126556   3.101   4.720   3.778
 5209SOL    HW226557   3.251   4.700   3.716
 5210SOL     OW26558   8.507   3.113   4.758
 5210SOL    HW126559   8.438   3.134   4.827
 5210SOL    HW226560   8.559   3.033   4.786
 5211SOL     OW26561   3.102   7.278   4.118
 5211SOL    HW126562   3.169   7.234   4.178
 5211SOL    HW226563   3.019   7.297   4.169
 5212SOL     OW26564   6.970   1.686   0.813
 5212SOL    HW126565   7.044   1.738   0.855
 5212SOL    HW226566   6.911   1.748   0.761
 5213SOL     OW26567   4.325   0.693   4.030
 5213SOL    HW126568   4.399   0.630   4.008
 5213SOL    HW226569   4.274   0.715   3.946
 5214SOL     OW26570   7.863   2.085   4.357
 5214SOL    HW126571   7.816   1.997   4.367
 5214SOL    HW226572   7.831   2.148   4.429
 5215SOL     OW26573   1.439   5.489   2.153
 5215SOL    HW126574   1.405   5.567   2.102
 5215SOL    HW226575   1.455   5.412   2.091
 5216SOL     OW26576   9.048   0.633   2.982
 5216SOL    HW126577   9.084   0.722   3.011
 5216SOL    HW226578   9.032   0.633   2.884
 5217SOL     OW26579   3.828   2.175   0.394
 5217SOL    HW126580   3.835   2.243   0.321
 5217SOL    HW226581   3.897   2.194   0.464
 5218SOL     OW26582   2.094   1.674   1.036
 5218SOL    HW126583   2.088   1.774   1.044
 5218SOL    HW226584   2.174   1.650   0.981
 5219SOL     OW26585   2.184   2.778   1.118
 5219SOL    HW126586   2.279   2.766   1.090
 5219SOL    HW226587   2.178   2.773   1.218
 5220SOL     OW26588   3.918   7.648   3.207
 5220SOL    HW126589   3.951   7.674   3.116
 5220SOL    HW226590   3.820   7.667   3.213
 5221SOL     OW26591   1.596   7.067   1.740
 5221SOL    HW126592   1.605   7.082   1.642
 5221SOL    HW226593   1.545   7.141   1.782
 5222SOL     OW26594   8.364   9.645   5.228
 5222SOL    HW126595   8.414   9.609   5.307
 5222SOL    HW226596   8.425   9.648   5.149
 5223SOL     OW26597   7.340   3.101   2.301
 5223SOL    HW126598   7.373   3.166   2.233
 5223SOL    HW226599   7.341   3.009   2.263
 5224SOL     OW26600   0.054   4.156   3.752
 5224SOL    HW126601   0.142   4.166   3.798
 5224SOL    HW226602   9.986   4.215   3.796
 5225SOL     OW26603   8.562   1.329   3.896
 5225SOL    HW126604   8.522   1.342   3.986
 5225SOL    HW226605   8.527   1.244   3.856
 5226SOL     OW26606   4.369   3.988   3.116
 5226SOL    HW126607   4.324   3.981   3.205
 5226SOL    HW226608   4.404   3.898   3.089
 5227SOL     OW26609   2.649   3.816   4.771
 5227SOL    HW126610   2.627   3.771   4.685
 5227SOL    HW226611   2.742   3.853   4.766
 5228SOL     OW26612   1.250   6.174   4.092
 5228SOL    HW126613   1.175   6.233   4.062
 5228SOL    HW226614   1.222   6.122   4.172
 5229SOL     OW26615   1.655   5.200   0.644
 5229SOL    HW126616   1.753   5.213   0.636
 5229SOL    HW226617   1.634   5.103   0.654
 5230SOL     OW26618   3.123   0.990   4.322
 5230SOL    HW126619   3.129   1.085   4.290
 5230SOL    HW226620   3.215   0.955   4.338
 5231SOL     OW26621   4.028   9.586   4.437
 5231SOL    HW126622   3.957   9.549   4.497
 5231SOL    HW226623   4.111   9.532   4.447
 5232SOL     OW26624   3.468   5.751   4.122
 5232SOL    HW126625   3.373   5.748   4.091
 5232SOL    HW226626   3.476   5.814   4.200
 5233SOL     OW26627   2.607   4.038   4.192
 5233SOL    HW126628   2.598   4.136   4.174
 5233SOL    HW226629   2.528   3.989   4.154
 5234SOL     OW26630   8.831   4.747   4.839
 5234SOL    HW126631   8.925   4.738   4.808
 5234SOL    HW226632   8.822   4.828   4.897
 5235SOL     OW26633   1.277   2.560   5.262
 5235SOL    HW126634   1.222   2.598   5.337
 5235SOL    HW226635   1.363   2.612   5.255
 5236SOL     OW26636   9.351   5.301   1.728
 5236SOL    HW126637   9.386   5.303   1.822
 5236SOL    HW226638   9.337   5.206   1.700
 5237SOL     OW26639   9.764   0.469   0.125
 5237SOL    HW126640   9.666   0.472   0.143
 5237SOL    HW226641   9.814   0.469   0.211
 5238SOL     OW26642   3.062   9.946   4.140
 5238SOL    HW126643   3.032   9.976   4.231
 5238SOL    HW226644   3.157   9.914   4.145
 5239SOL     OW26645   0.008   2.836   3.473
 5239SOL    HW126646   0.096   2.791   3.484
 5239SOL    HW226647   9.936   2.766   3.462
 5240SOL     OW26648   1.520   4.784   4.679
 5240SOL    HW126649   1.610   4.740   4.668
 5240SOL    HW226650   1.451   4.713   4.695
 5241SOL     OW26651   0.005   5.365   0.296
 5241SOL    HW126652   0.081   5.345   0.235
 5241SOL    HW226653   9.997   5.293   0.365
 5242SOL     OW26654   1.333   3.604   1.808
 5242SOL    HW126655   1.296   3.567   1.723
 5242SOL    HW226656   1.325   3.534   1.880
 5243SOL     OW26657   9.416   2.767   0.788
 5243SOL    HW126658   9.516   2.770   0.786
 5243SOL    HW226659   9.380   2.794   0.699
 5244SOL     OW26660   3.468   3.256   0.410
 5244SOL    HW126661   3.554   3.216   0.441
 5244SOL    HW226662   3.472   3.273   0.312
 5245SOL     OW26663   7.762   1.383   3.682
 5245SOL    HW126664   7.790   1.355   3.590
 5245SOL    HW226665   7.718   1.307   3.729
 5246SOL     OW26666   2.514   4.552   1.418
 5246SOL    HW126667   2.475   4.563   1.327
 5246SOL    HW226668   2.575   4.473   1.419
 5247SOL     OW26669   1.195   3.891   2.877
 5247SOL    HW126670   1.199   3.923   2.782
 5247SOL    HW226671   1.286   3.893   2.917
 5248SOL     OW26672   0.674   1.094   0.899
 5248SOL    HW126673   0.582   1.109   0.934
 5248SOL    HW226674   0.739   1.153   0.948
 5249SOL     OW26675   1.965   1.378   1.596
 5249SOL    HW126676   1.918   1.324   1.526
 5249SOL    HW226677   2.033   1.321   1.641
 5250SOL     OW26678   9.249   3.229   5.193
 5250SOL    HW126679   9.305   3.163   5.143
 5250SOL    HW226680   9.245   3.315   5.143
 5251SOL     OW26681   3.086   6.708   4.194
 5251SOL    HW126682   3.057   6.749   4.107
 5251SOL    HW226683   3.082   6.608   4.186
 5252SOL     OW26684   7.244   0.333   1.427
 5252SOL    HW126685   7.252   0.237   1.398
 5252SOL    HW226686   7.215   0.389   1.349
 5253SOL     OW26687   8.917   8.473   5.054
 5253SOL    HW126688   8.921   8.518   4.964
 5253SOL    HW226689   8.909   8.374   5.041
 5254SOL     OW26690   7.365   1.610   1.362
 5254SOL    HW126691   7.342   1.539   1.428
 5254SOL    HW226692   7.284   1.636   1.310
 5255SOL     OW26693   0.289   0.667   0.784
 5255SOL    HW126694   0.331   0.696   0.870
 5255SOL    HW226695   0.279   0.567   0.783
 5256SOL     OW26696   5.762   2.132   2.400
 5256SOL    HW126697   5.683   2.070   2.404
 5256SOL    HW226698   5.737   2.221   2.436
 5257SOL     OW26699   7.361   1.508   0.863
 5257SOL    HW126700   7.394   1.509   0.957
 5257SOL    HW226701   7.372   1.599   0.823
 5258SOL     OW26702   2.826   2.215   3.805
 5258SOL    HW126703   2.746   2.165   3.773
 5258SOL    HW226704   2.798   2.289   3.866
 5259SOL     OW26705   0.025   9.096   3.287
 5259SOL    HW126706   0.025   9.085   3.387
 5259SOL    HW226707   0.114   9.130   3.257
 5260SOL     OW26708   3.615   0.389   3.881
 5260SOL    HW126709   3.681   0.316   3.858
 5260SOL    HW226710   3.541   0.388   3.814
 5261SOL     OW26711   8.106   3.138   4.741
 5261SOL    HW126712   8.130   3.051   4.783
 5261SOL    HW226713   8.021   3.128   4.689
 5262SOL     OW26714   7.342   0.414   2.126
 5262SOL    HW126715   7.314   0.384   2.035
 5262SOL    HW226716   7.270   0.393   2.192
 5263SOL     OW26717   2.295   4.313   0.488
 5263SOL    HW126718   2.330   4.378   0.555
 5263SOL    HW226719   2.257   4.363   0.410
 5264SOL     OW26720   8.160   1.273   0.479
 5264SOL    HW126721   8.248   1.303   0.515
 5264SOL    HW226722   8.105   1.234   0.553
 5265SOL     OW26723   3.221   6.376   0.929
 5265SOL    HW126724   3.207   6.422   0.841
 5265SOL    HW226725   3.316   6.388   0.958
 5266SOL     OW26726   3.480   3.633   3.617
 5266SOL    HW126727   3.413   3.696   3.657
 5266SOL    HW226728   3.572   3.666   3.639
 5267SOL     OW26729   8.467   3.054   1.102
 5267SOL    HW126730   8.444   3.063   1.199
 5267SOL    HW226731   8.560   3.018   1.093
 5268SOL     OW26732   6.960   0.332   2.543
 5268SOL    HW126733   6.860   0.329   2.540
 5268SOL    HW226734   6.995   0.342   2.450
 5269SOL     OW26735   5.226   2.089   5.095
 5269SOL    HW126736   5.190   2.002   5.128
 5269SOL    HW226737   5.317   2.075   5.057
 5270SOL     OW26738   4.184   0.612   5.277
 5270SOL    HW126739   4.143   0.641   5.363
 5270SOL    HW226740   4.206   0.692   5.222
 5271SOL     OW26741   1.081   4.055   4.291
 5271SOL    HW126742   1.083   4.154   4.305
 5271SOL    HW226743   1.004   4.032   4.232
 5272SOL     OW26744   8.478   2.704   4.976
 5272SOL    HW126745   8.390   2.707   5.023
 5272SOL    HW226746   8.470   2.648   4.894
 5273SOL     OW26747   8.053   5.271   1.439
 5273SOL    HW126748   8.044   5.307   1.346
 5273SOL    HW226749   8.133   5.211   1.445
 5274SOL     OW26750   3.012   2.065   3.672
 5274SOL    HW126751   2.946   2.117   3.726
 5274SOL    HW226752   3.099   2.115   3.668
 5275SOL     OW26753   8.537   8.850   3.971
 5275SOL    HW126754   8.598   8.800   3.910
 5275SOL    HW226755   8.448   8.863   3.927
 5276SOL     OW26756   1.135   7.254   2.706
 5276SOL    HW126757   1.233   7.261   2.693
 5276SOL    HW226758   1.116   7.187   2.778
 5277SOL     OW26759   1.296   9.291   3.117
 5277SOL    HW126760   1.363   9.275   3.044
 5277SOL    HW226761   1.243   9.373   3.097
 5278SOL     OW26762   3.313   6.283   1.695
 5278SOL    HW126763   3.330   6.373   1.735
 5278SOL    HW226764   3.312   6.291   1.595
 5279SOL     OW26765   8.124   5.669   5.255
 5279SOL    HW126766   8.065   5.679   5.336
 5279SOL    HW226767   8.114   5.576   5.219
 5280SOL     OW26768   2.232   8.308   2.245
 5280SOL    HW126769   2.133   8.324   2.253
 5280SOL    HW226770   2.280   8.366   2.310
 5281SOL     OW26771   0.985   1.373   1.626
 5281SOL    HW126772   0.917   1.317   1.674
 5281SOL    HW226773   1.033   1.431   1.692
 5282SOL     OW26774   2.862   4.474   0.962
 5282SOL    HW126775   2.838   4.565   0.929
 5282SOL    HW226776   2.877   4.414   0.883
 5283SOL     OW26777   0.190   2.405   1.981
 5283SOL    HW126778   0.283   2.433   1.958
 5283SOL    HW226779   0.191   2.310   2.014
 5284SOL     OW26780   0.019   6.613   4.399
 5284SOL    HW126781   0.014   6.619   4.499
 5284SOL    HW226782   0.013   6.518   4.371
 5285SOL     OW26783   9.091   4.237   5.148
 5285SOL    HW126784   9.007   4.183   5.152
 5285SOL    HW226785   9.069   4.334   5.146
 5286SOL     OW26786   8.976   4.193   2.675
 5286SOL    HW126787   8.990   4.222   2.580
 5286SOL    HW226788   8.887   4.223   2.707
 5287SOL     OW26789   5.960   0.768   0.893
 5287SOL    HW126790   6.008   0.692   0.850
 5287SOL    HW226791   5.967   0.760   0.993
 5288SOL     OW26792   9.342   9.262   4.206
 5288SOL    HW126793   9.363   9.319   4.126
 5288SOL    HW226794   9.304   9.319   4.279
 5289SOL     OW26795   5.823   1.308   1.124
 5289SOL    HW126796   5.821   1.271   1.031
 5289SOL    HW226797   5.915   1.300   1.161
 5290SOL     OW26798   2.988   4.163   1.973
 5290SOL    HW126799   2.948   4.144   1.883
 5290SOL    HW226800   3.087   4.153   1.969
 5291SOL     OW26801   9.530   8.946   1.737
 5291SOL    HW126802   9.443   8.996   1.732
 5291SOL    HW226803   9.512   8.849   1.752
 5292SOL     OW26804   9.116   9.374   2.623
 5292SOL    HW126805   9.027   9.389   2.581
 5292SOL    HW226806   9.127   9.276   2.643
 5293SOL     OW26807   1.141   6.918   1.028
 5293SOL    HW126808   1.094   6.832   1.049
 5293SOL    HW226809   1.157   6.924   0.930
 5294SOL     OW26810   1.058   4.630   2.088
 5294SOL    HW126811   1.055   4.710   2.148
 5294SOL    HW226812   1.037   4.548   2.142
 5295SOL     OW26813   9.696   9.591   0.316
 5295SOL    HW126814   9.791   9.601   0.348
 5295SOL    HW226815   9.651   9.517   0.367
 5296SOL     OW26816   6.779   1.892   4.125
 5296SOL    HW126817   6.825   1.917   4.040
 5296SOL    HW226818   6.708   1.959   4.145
 5297SOL     OW26819   6.882   1.575   1.467
 5297SOL    HW126820   6.795   1.622   1.452
 5297SOL    HW226821   6.934   1.623   1.538
 5298SOL     OW26822   8.239   5.465   3.726
 5298SOL    HW126823   8.151   5.463   3.774
 5298SOL    HW226824   8.313   5.466   3.793
 5299SOL     OW26825   2.751   0.348   1.027
 5299SOL    HW126826   2.829   0.343   1.090
 5299SOL    HW226827   2.760   0.428   0.969
 5300SOL     OW26828   5.017   9.400   4.813
 5300SOL    HW126829   5.054   9.311   4.785
 5300SOL    HW226830   5.039   9.416   4.910
 5301SOL     OW26831   6.548   1.388   4.748
 5301SOL    HW126832   6.482   1.446   4.796
 5301SOL    HW226833   6.517   1.293   4.752
 5302SOL     OW26834   5.471   9.298   4.770
 5302SOL    HW126835   5.406   9.311   4.845
 5302SOL    HW226836   5.456   9.369   4.701
 5303SOL     OW26837   4.203   5.662   2.032
 5303SOL    HW126838   4.163   5.603   1.961
 5303SOL    HW226839   4.141   5.737   2.053
 5304SOL     OW26840   9.848   0.183   2.903
 5304SOL    HW126841   9.786   0.178   2.824
 5304SOL    HW226842   9.906   0.265   2.895
 5305SOL     OW26843   1.556   1.417   5.140
 5305SOL    HW126844   1.582   1.440   5.046
 5305SOL    HW226845   1.463   1.451   5.158
 5306SOL     OW26846   4.453   1.540   2.397
 5306SOL    HW126847   4.417   1.520   2.488
 5306SOL    HW226848   4.396   1.496   2.328
 5307SOL     OW26849   9.933   4.263   5.145
 5307SOL    HW126850   9.848   4.293   5.189
 5307SOL    HW226851   9.925   4.167   5.119
 5308SOL     OW26852   8.843   9.072   3.120
 5308SOL    HW126853   8.748   9.054   3.148
 5308SOL    HW226854   8.902   9.076   3.201
 5309SOL     OW26855   4.303   2.095   4.518
 5309SOL    HW126856   4.364   2.154   4.465
 5309SOL    HW226857   4.214   2.090   4.472
 5310SOL     OW26858   2.226   9.036   2.911
 5310SOL    HW126859   2.286   9.113   2.887
 5310SOL    HW226860   2.156   9.067   2.976
 5311SOL     OW26861   7.062   1.689   1.649
 5311SOL    HW126862   7.074   1.595   1.680
 5311SOL    HW226863   7.077   1.752   1.726
 5312SOL     OW26864   0.872   4.766   3.504
 5312SOL    HW126865   0.849   4.863   3.511
 5312SOL    HW226866   0.844   4.719   3.588
 5313SOL     OW26867   1.014   2.771   2.870
 5313SOL    HW126868   1.017   2.809   2.778
 5313SOL    HW226869   1.084   2.815   2.927
 5314SOL     OW26870   9.996   6.364   0.746
 5314SOL    HW126871  10.000   6.286   0.684
 5314SOL    HW226872   0.033   6.445   0.701
 5315SOL     OW26873   2.394   3.837   2.605
 5315SOL    HW126874   2.397   3.906   2.677
 5315SOL    HW226875   2.379   3.882   2.517
 5316SOL     OW26876   9.014   7.183   0.825
 5316SOL    HW126877   9.008   7.192   0.924
 5316SOL    HW226878   8.946   7.117   0.792
 5317SOL     OW26879   1.958   5.393   2.798
 5317SOL    HW126880   1.859   5.400   2.795
 5317SOL    HW226881   1.989   5.386   2.893
 5318SOL     OW26882   8.745   5.004   1.676
 5318SOL    HW126883   8.747   4.931   1.745
 5318SOL    HW226884   8.754   5.093   1.720
 5319SOL     OW26885   8.510   5.334   1.530
 5319SOL    HW126886   8.590   5.378   1.570
 5319SOL    HW226887   8.433   5.339   1.594
 5320SOL     OW26888   8.169   7.580   4.721
 5320SOL    HW126889   8.075   7.570   4.688
 5320SOL    HW226890   8.231   7.584   4.643
 5321SOL     OW26891   4.894   4.512   0.070
 5321SOL    HW126892   4.988   4.482   0.085
 5321SOL    HW226893   4.879   4.600   0.116
 5322SOL     OW26894   6.758   0.141   1.024
 5322SOL    HW126895   6.664   0.173   1.029
 5322SOL    HW226896   6.810   0.200   0.962
 5323SOL     OW26897   2.580   7.011   1.229
 5323SOL    HW126898   2.527   6.944   1.280
 5323SOL    HW226899   2.661   6.967   1.190
 5324SOL     OW26900   4.794   2.201   4.314
 5324SOL    HW126901   4.749   2.255   4.386
 5324SOL    HW226902   4.726   2.173   4.246
 5325SOL     OW26903   4.885   4.383   1.295
 5325SOL    HW126904   4.824   4.459   1.274
 5325SOL    HW226905   4.978   4.417   1.309
 5326SOL     OW26906   0.545   9.454   0.792
 5326SOL    HW126907   0.532   9.408   0.880
 5326SOL    HW226908   0.569   9.549   0.807
 5327SOL     OW26909   3.633   5.829   3.799
 5327SOL    HW126910   3.683   5.802   3.881
 5327SOL    HW226911   3.669   5.916   3.765
 5328SOL     OW26912   8.855   8.898   1.798
 5328SOL    HW126913   8.911   8.871   1.877
 5328SOL    HW226914   8.913   8.903   1.717
 5329SOL     OW26915   1.386   4.189   4.649
 5329SOL    HW126916   1.301   4.138   4.636
 5329SOL    HW226917   1.400   4.207   4.746
 5330SOL     OW26918   0.009   2.486   2.337
 5330SOL    HW126919   0.095   2.443   2.365
 5330SOL    HW226920   9.939   2.416   2.325
 5331SOL     OW26921   3.041   9.513   0.839
 5331SOL    HW126922   3.003   9.601   0.810
 5331SOL    HW226923   2.980   9.472   0.908
 5332SOL     OW26924   0.392   3.746   0.910
 5332SOL    HW126925   0.484   3.717   0.937
 5332SOL    HW226926   0.377   3.727   0.813
 5333SOL     OW26927   5.445   2.486   2.879
 5333SOL    HW126928   5.442   2.464   2.782
 5333SOL    HW226929   5.417   2.581   2.893
 5334SOL     OW26930   3.440   3.025   5.257
 5334SOL    HW126931   3.497   3.087   5.202
 5334SOL    HW226932   3.488   2.939   5.271
 5335SOL     OW26933   0.279   8.665   4.329
 5335SOL    HW126934   0.238   8.629   4.414
 5335SOL    HW226935   0.359   8.610   4.305
 5336SOL     OW26936   5.140   2.001   2.138
 5336SOL    HW126937   5.102   1.926   2.085
 5336SOL    HW226938   5.238   2.010   2.119
 5337SOL     OW26939   8.833   3.116   1.927
 5337SOL    HW126940   8.872   3.145   2.014
 5337SOL    HW226941   8.819   3.196   1.869
 5338SOL     OW26942   4.161   9.723   3.117
 5338SOL    HW126943   4.196   9.775   3.039
 5338SOL    HW226944   4.209   9.636   3.124
 5339SOL     OW26945   5.686   0.156   3.100
 5339SOL    HW126946   5.705   0.166   3.198
 5339SOL    HW226947   5.726   0.232   3.050
 5340SOL     OW26948   4.556   8.837   5.268
 5340SOL    HW126949   4.589   8.911   5.210
 5340SOL    HW226950   4.634   8.783   5.300
 5341SOL     OW26951   4.752   2.511   1.728
 5341SOL    HW126952   4.843   2.533   1.695
 5341SOL    HW226953   4.742   2.411   1.737
 5342SOL     OW26954   3.066   5.435   5.227
 5342SOL    HW126955   3.048   5.497   5.303
 5342SOL    HW226956   3.060   5.340   5.259
 5343SOL     OW26957   4.741   3.575   4.003
 5343SOL    HW126958   4.780   3.667   4.017
 5343SOL    HW226959   4.800   3.523   3.942
 5344SOL     OW26960   4.414   0.400   4.906
 5344SOL    HW126961   4.371   0.437   4.988
 5344SOL    HW226962   4.344   0.365   4.844
 5345SOL     OW26963   9.978   2.096   0.835
 5345SOL    HW126964   9.979   2.156   0.756
 5345SOL    HW226965   9.912   2.022   0.821
 5346SOL     OW26966   3.441   1.040   2.496
 5346SOL    HW126967   3.361   1.056   2.554
 5346SOL    HW226968   3.518   1.013   2.553
 5347SOL     OW26969   3.092   1.449   4.924
 5347SOL    HW126970   3.159   1.515   4.959
 5347SOL    HW226971   3.062   1.389   4.998
 5348SOL     OW26972   2.697   6.352   0.453
 5348SOL    HW126973   2.750   6.269   0.468
 5348SOL    HW226974   2.617   6.352   0.512
 5349SOL     OW26975   3.326   9.866   4.112
 5349SOL    HW126976   3.300   9.820   4.027
 5349SOL    HW226977   3.403   9.926   4.096
 5350SOL     OW26978   7.978   0.781   4.275
 5350SOL    HW126979   8.038   0.791   4.354
 5350SOL    HW226980   8.012   0.708   4.216
 5351SOL     OW26981   2.818   7.045   2.281
 5351SOL    HW126982   2.849   6.962   2.327
 5351SOL    HW226983   2.873   7.123   2.311
 5352SOL     OW26984   5.326   1.529   0.928
 5352SOL    HW126985   5.421   1.546   0.902
 5352SOL    HW226986   5.315   1.432   0.950
 5353SOL     OW26987   1.746   1.607   3.379
 5353SOL    HW126988   1.793   1.685   3.419
 5353SOL    HW226989   1.781   1.592   3.286
 5354SOL     OW26990   3.191   4.904   3.317
 5354SOL    HW126991   3.185   4.811   3.352
 5354SOL    HW226992   3.205   4.901   3.218
 5355SOL     OW26993   4.231   9.178   0.967
 5355SOL    HW126994   4.186   9.200   1.053
 5355SOL    HW226995   4.162   9.157   0.897
 5356SOL     OW26996   5.057   0.420   4.633
 5356SOL    HW126997   5.086   0.505   4.676
 5356SOL    HW226998   4.971   0.390   4.674
 5357SOL     OW26999   3.988   9.868   0.941
 5357SOL    HW127000   3.970   9.807   0.864
 5357SOL    HW227001   4.001   9.961   0.907
 5358SOL     OW27002   2.386   8.490   1.626
 5358SOL    HW127003   2.376   8.584   1.594
 5358SOL    HW227004   2.311   8.468   1.689
 5359SOL     OW27005   2.447   8.131   4.905
 5359SOL    HW127006   2.454   8.157   5.001
 5359SOL    HW227007   2.527   8.165   4.855
 5360SOL     OW27008   6.873   4.006   1.338
 5360SOL    HW127009   6.935   4.015   1.416
 5360SOL    HW227010   6.857   4.096   1.298
 5361SOL     OW27011   1.958   2.249   4.497
 5361SOL    HW127012   1.873   2.292   4.529
 5361SOL    HW227013   2.036   2.298   4.537
 5362SOL     OW27014   6.387   7.580   2.683
 5362SOL    HW127015   6.319   7.641   2.641
 5362SOL    HW227016   6.460   7.562   2.617
 5363SOL     OW27017   9.650   2.591   4.581
 5363SOL    HW127018   9.699   2.662   4.531
 5363SOL    HW227019   9.716   2.524   4.617
 5364SOL     OW27020   3.724   3.936   1.247
 5364SOL    HW127021   3.768   3.926   1.336
 5364SOL    HW227022   3.672   3.853   1.226
 5365SOL     OW27023   9.042   7.797   1.682
 5365SOL    HW127024   9.064   7.817   1.587
 5365SOL    HW227025   9.121   7.819   1.740
 5366SOL     OW27026   2.278   0.287   4.879
 5366SOL    HW127027   2.279   0.350   4.801
 5366SOL    HW227028   2.355   0.224   4.871
 5367SOL     OW27029   5.515   7.935   4.498
 5367SOL    HW127030   5.561   7.982   4.573
 5367SOL    HW227031   5.437   7.989   4.467
 5368SOL     OW27032   1.092   2.863   3.520
 5368SOL    HW127033   1.073   2.780   3.467
 5368SOL    HW227034   1.075   2.943   3.464
 5369SOL     OW27035   0.027   9.870   2.431
 5369SOL    HW127036   0.106   9.932   2.436
 5369SOL    HW227037   9.955   9.904   2.492
 5370SOL     OW27038   8.343   5.720   2.439
 5370SOL    HW127039   8.341   5.626   2.404
 5370SOL    HW227040   8.438   5.748   2.454
 5371SOL     OW27041   1.698   8.604   3.105
 5371SOL    HW127042   1.733   8.645   3.189
 5371SOL    HW227043   1.665   8.676   3.045
 5372SOL     OW27044   0.696   7.465   2.919
 5372SOL    HW127045   0.718   7.451   2.823
 5372SOL    HW227046   0.713   7.560   2.945
 5373SOL     OW27047   1.374   6.122   4.863
 5373SOL    HW127048   1.432   6.079   4.793
 5373SOL    HW227049   1.325   6.198   4.822
 5374SOL     OW27050   6.166   8.197   2.409
 5374SOL    HW127051   6.190   8.114   2.460
 5374SOL    HW227052   6.140   8.173   2.316
 5375SOL     OW27053   0.992   7.324   0.265
 5375SOL    HW127054   1.069   7.353   0.208
 5375SOL    HW227055   1.023   7.253   0.329
 5376SOL     OW27056   8.241   8.504   2.500
 5376SOL    HW127057   8.292   8.481   2.417
 5376SOL    HW227058   8.303   8.545   2.567
 5377SOL     OW27059   3.503   5.481   2.123
 5377SOL    HW127060   3.455   5.396   2.148
 5377SOL    HW227061   3.470   5.556   2.180
 5378SOL     OW27062   0.210   8.391   0.523
 5378SOL    HW127063   0.267   8.320   0.481
 5378SOL    HW227064   0.117   8.384   0.487
 5379SOL     OW27065   0.855   4.736   1.934
 5379SOL    HW127066   0.934   4.701   1.985
 5379SOL    HW227067   0.887   4.793   1.858
 5380SOL     OW27068   5.002   6.497   1.822
 5380SOL    HW127069   5.048   6.411   1.801
 5380SOL    HW227070   5.066   6.573   1.812
 5381SOL     OW27071   2.666   9.762   2.617
 5381SOL    HW127072   2.586   9.798   2.568
 5381SOL    HW227073   2.740   9.745   2.552
 5382SOL     OW27074   0.439   1.453   4.581
 5382SOL    HW127075   0.414   1.444   4.677
 5382SOL    HW227076   0.532   1.488   4.574
 5383SOL     OW27077   6.744   7.277   3.777
 5383SOL    HW127078   6.717   7.212   3.847
 5383SOL    HW227079   6.665   7.296   3.717
 5384SOL     OW27080   3.974   9.498   3.500
 5384SOL    HW127081   3.993   9.562   3.426
 5384SOL    HW227082   3.996   9.405   3.471
 5385SOL     OW27083   4.195   4.224   0.586
 5385SOL    HW127084   4.214   4.297   0.521
 5385SOL    HW227085   4.242   4.140   0.558
 5386SOL     OW27086   2.297   6.860   3.790
 5386SOL    HW127087   2.381   6.806   3.789
 5386SOL    HW227088   2.232   6.820   3.855
 5387SOL     OW27089   7.391   6.520   4.511
 5387SOL    HW127090   7.422   6.463   4.587
 5387SOL    HW227091   7.310   6.480   4.470
 5388SOL     OW27092   1.135   3.295   0.297
 5388SOL    HW127093   1.135   3.367   0.366
 5388SOL    HW227094   1.216   3.303   0.239
 5389SOL     OW27095   9.207   8.655   0.244
 5389SOL    HW127096   9.262   8.578   0.212
 5389SOL    HW227097   9.256   8.703   0.317
 5390SOL     OW27098   4.534   3.694   3.397
 5390SOL    HW127099   4.438   3.668   3.393
 5390SOL    HW227100   4.578   3.669   3.310
 5391SOL     OW27101   4.028   5.550   1.822
 5391SOL    HW127102   4.084   5.601   1.756
 5391SOL    HW227103   3.935   5.542   1.787
 5392SOL     OW27104   0.444   8.725   2.177
 5392SOL    HW127105   0.485   8.634   2.168
 5392SOL    HW227106   0.484   8.786   2.109
 5393SOL     OW27107   0.482   3.198   4.361
 5393SOL    HW127108   0.401   3.190   4.302
 5393SOL    HW227109   0.562   3.218   4.305
 5394SOL     OW27110   8.186   4.806   0.182
 5394SOL    HW127111   8.211   4.710   0.194
 5394SOL    HW227112   8.267   4.859   0.155
 5395SOL     OW27113   2.834   0.652   0.351
 5395SOL    HW127114   2.778   0.617   0.275
 5395SOL    HW227115   2.905   0.712   0.314
 5396SOL     OW27116   4.405   4.882   0.836
 5396SOL    HW127117   4.441   4.794   0.865
 5396SOL    HW227118   4.314   4.870   0.796
 5397SOL     OW27119   8.717   5.238   1.824
 5397SOL    HW127120   8.717   5.316   1.761
 5397SOL    HW227121   8.772   5.260   1.904
 5398SOL     OW27122   2.372   8.867   3.438
 5398SOL    HW127123   2.290   8.919   3.462
 5398SOL    HW227124   2.429   8.857   3.520
 5399SOL     OW27125   9.606   4.820   2.666
 5399SOL    HW127126   9.666   4.820   2.585
 5399SOL    HW227127   9.553   4.735   2.668
 5400SOL     OW27128   7.479   2.786   3.963
 5400SOL    HW127129   7.422   2.772   3.882
 5400SOL    HW227130   7.478   2.703   4.019
 5401SOL     OW27131   3.851   7.531   2.832
 5401SOL    HW127132   3.928   7.486   2.787
 5401SOL    HW227133   3.884   7.613   2.878
 5402SOL     OW27134   4.858   5.318   1.827
 5402SOL    HW127135   4.896   5.339   1.737
 5402SOL    HW227136   4.854   5.219   1.839
 5403SOL     OW27137   1.893   9.942   3.500
 5403SOL    HW127138   1.798   9.929   3.527
 5403SOL    HW227139   1.897   9.968   3.404
 5404SOL     OW27140   3.745   8.312   4.311
 5404SOL    HW127141   3.833   8.318   4.358
 5404SOL    HW227142   3.758   8.267   4.223
 5405SOL     OW27143   5.531   0.990   2.089
 5405SOL    HW127144   5.448   0.943   2.057
 5405SOL    HW227145   5.578   0.932   2.156
 5406SOL     OW27146   1.832   2.175   3.534
 5406SOL    HW127147   1.907   2.110   3.516
 5406SOL    HW227148   1.871   2.263   3.561
 5407SOL     OW27149   3.058   8.747   4.933
 5407SOL    HW127150   3.043   8.802   4.851
 5407SOL    HW227151   3.149   8.706   4.930
 5408SOL     OW27152   9.427   7.794   4.369
 5408SOL    HW127153   9.393   7.858   4.438
 5408SOL    HW227154   9.440   7.703   4.410
 5409SOL     OW27155   3.441   9.299   1.130
 5409SOL    HW127156   3.346   9.331   1.130
 5409SOL    HW227157   3.500   9.370   1.168
 5410SOL     OW27158   8.274   1.166   0.251
 5410SOL    HW127159   8.203   1.152   0.182
 5410SOL    HW227160   8.233   1.194   0.337
 5411SOL     OW27161   2.439   3.208   0.068
 5411SOL    HW127162   2.512   3.187   0.133
 5411SOL    HW227163   2.378   3.277   0.107
 5412SOL     OW27164   7.033   7.378   5.145
 5412SOL    HW127165   7.100   7.440   5.186
 5412SOL    HW227166   7.077   7.326   5.071
 5413SOL     OW27167   1.393   6.774   0.821
 5413SOL    HW127168   1.300   6.806   0.803
 5413SOL    HW227169   1.420   6.708   0.751
 5414SOL     OW27170   6.755   0.756   3.021
 5414SOL    HW127171   6.692   0.679   3.037
 5414SOL    HW227172   6.714   0.818   2.954
 5415SOL     OW27173   6.804   3.128   2.911
 5415SOL    HW127174   6.853   3.114   2.998
 5415SOL    HW227175   6.861   3.183   2.850
 5416SOL     OW27176   8.714   5.687   3.401
 5416SOL    HW127177   8.748   5.781   3.411
 5416SOL    HW227178   8.680   5.654   3.489
 5417SOL     OW27179   7.881   7.995   2.210
 5417SOL    HW127180   7.851   7.989   2.115
 5417SOL    HW227181   7.931   8.081   2.223
 5418SOL     OW27182   6.982   9.668   3.983
 5418SOL    HW127183   7.009   9.572   3.988
 5418SOL    HW227184   6.996   9.711   4.073
 5419SOL     OW27185   8.954   2.143   2.895
 5419SOL    HW127186   8.959   2.056   2.943
 5419SOL    HW227187   8.859   2.163   2.871
 5420SOL     OW27188   0.801   3.641   3.948
 5420SOL    HW127189   0.895   3.647   3.982
 5420SOL    HW227190   0.738   3.631   4.025
 5421SOL     OW27191   6.372   8.175   4.697
 5421SOL    HW127192   6.376   8.075   4.699
 5421SOL    HW227193   6.360   8.205   4.602
 5422SOL     OW27194   9.095   3.654   4.261
 5422SOL    HW127195   9.001   3.624   4.278
 5422SOL    HW227196   9.119   3.728   4.324
 5423SOL     OW27197   6.301   7.850   3.286
 5423SOL    HW127198   6.265   7.922   3.226
 5423SOL    HW227199   6.319   7.889   3.377
 5424SOL     OW27200   0.092   6.154   4.506
 5424SOL    HW127201   0.189   6.157   4.526
 5424SOL    HW227202   0.040   6.160   4.591
 5425SOL     OW27203   6.076   0.400   2.812
 5425SOL    HW127204   6.110   0.313   2.847
 5425SOL    HW227205   5.993   0.384   2.758
 5426SOL     OW27206   6.381   9.574   3.272
 5426SOL    HW127207   6.440   9.609   3.200
 5426SOL    HW227208   6.370   9.643   3.344
 5427SOL     OW27209   5.152   2.043   1.097
 5427SOL    HW127210   5.117   2.136   1.087
 5427SOL    HW227211   5.184   2.010   1.008
 5428SOL     OW27212   4.156   9.483   2.586
 5428SOL    HW127213   4.137   9.553   2.654
 5428SOL    HW227214   4.244   9.503   2.541
 5429SOL     OW27215   4.098   4.065   2.524
 5429SOL    HW127216   4.136   4.070   2.617
 5429SOL    HW227217   4.094   4.157   2.485
 5430SOL     OW27218   0.930   3.178   0.788
 5430SOL    HW127219   0.994   3.107   0.817
 5430SOL    HW227220   0.930   3.251   0.856
 5431SOL     OW27221   9.491   5.850   2.134
 5431SOL    HW127222   9.499   5.797   2.050
 5431SOL    HW227223   9.466   5.789   2.210
 5432SOL     OW27224   9.231   8.208   5.248
 5432SOL    HW127225   9.199   8.174   5.336
 5432SOL    HW227226   9.196   8.300   5.233
 5433SOL     OW27227   0.653   9.338   2.895
 5433SOL    HW127228   0.653   9.297   2.804
 5433SOL    HW227229   0.743   9.377   2.914
 5434SOL     OW27230   6.462   9.270   2.396
 5434SOL    HW127231   6.523   9.291   2.320
 5434SOL    HW227232   6.383   9.331   2.394
 5435SOL     OW27233   1.527   2.731   3.027
 5435SOL    HW127234   1.463   2.659   3.001
 5435SOL    HW227235   1.602   2.691   3.079
 5436SOL     OW27236   7.977   8.046   3.444
 5436SOL    HW127237   7.925   8.096   3.513
 5436SOL    HW227238   7.921   7.973   3.406
 5437SOL     OW27239   2.382   2.746   2.549
 5437SOL    HW127240   2.413   2.777   2.639
 5437SOL    HW227241   2.460   2.722   2.493
 5438SOL     OW27242   2.651   1.255   2.091
 5438SOL    HW127243   2.668   1.157   2.078
 5438SOL    HW227244   2.734   1.306   2.066
 5439SOL     OW27245   8.664   6.353   2.476
 5439SOL    HW127246   8.708   6.298   2.547
 5439SOL    HW227247   8.566   6.335   2.476
 5440SOL     OW27248   0.636   3.339   5.086
 5440SOL    HW127249   0.652   3.417   5.147
 5440SOL    HW227250   0.710   3.335   5.019
 5441SOL     OW27251   3.018   6.249   4.723
 5441SOL    HW127252   3.105   6.262   4.675
 5441SOL    HW227253   2.949   6.220   4.657
 5442SOL     OW27254   2.169   9.360   0.480
 5442SOL    HW127255   2.222   9.276   0.486
 5442SOL    HW227256   2.123   9.377   0.567
 5443SOL     OW27257   2.483   1.380   0.371
 5443SOL    HW127258   2.570   1.420   0.401
 5443SOL    HW227259   2.498   1.332   0.284
 5444SOL     OW27260   9.494   3.812   0.611
 5444SOL    HW127261   9.544   3.888   0.569
 5444SOL    HW227262   9.477   3.833   0.707
 5445SOL     OW27263   6.017   0.840   4.131
 5445SOL    HW127264   6.081   0.774   4.170
 5445SOL    HW227265   5.988   0.905   4.201
 5446SOL     OW27266   6.773   1.335   1.063
 5446SOL    HW127267   6.695   1.277   1.040
 5446SOL    HW227268   6.768   1.363   1.158
 5447SOL     OW27269   9.874   8.891   0.230
 5447SOL    HW127270   9.786   8.929   0.261
 5447SOL    HW227271   9.919   8.846   0.307
 5448SOL     OW27272   8.837   5.506   0.102
 5448SOL    HW127273   8.828   5.595   0.058
 5448SOL    HW227274   8.750   5.480   0.143
 5449SOL     OW27275   7.254   9.611   2.914
 5449SOL    HW127276   7.252   9.675   2.991
 5449SOL    HW227277   7.160   9.588   2.888
 5450SOL     OW27278   0.980   7.300   4.109
 5450SOL    HW127279   1.075   7.270   4.106
 5450SOL    HW227280   0.932   7.268   4.027
 5451SOL     OW27281   0.099   9.719   3.818
 5451SOL    HW127282   0.058   9.803   3.783
 5451SOL    HW227283   0.140   9.737   3.907
 5452SOL     OW27284   2.821   4.644   5.078
 5452SOL    HW127285   2.850   4.706   5.150
 5452SOL    HW227286   2.870   4.557   5.086
 5453SOL     OW27287   4.130   3.282   1.926
 5453SOL    HW127288   4.203   3.349   1.912
 5453SOL    HW227289   4.067   3.316   1.996
 5454SOL     OW27290   8.538   0.266   1.208
 5454SOL    HW127291   8.631   0.283   1.241
 5454SOL    HW227292   8.472   0.310   1.269
 5455SOL     OW27293   4.939   1.189   0.195
 5455SOL    HW127294   4.841   1.171   0.195
 5455SOL    HW227295   4.990   1.104   0.206
 5456SOL     OW27296   9.395   9.634   4.729
 5456SOL    HW127297   9.422   9.602   4.639
 5456SOL    HW227298   9.397   9.558   4.794
 5457SOL     OW27299   2.655   4.096   2.899
 5457SOL    HW127300   2.659   4.190   2.865
 5457SOL    HW227301   2.701   4.091   2.988
 5458SOL     OW27302   3.152   6.011   3.912
 5458SOL    HW127303   3.229   5.956   3.882
 5458SOL    HW227304   3.152   6.019   4.012
 5459SOL     OW27305   4.442   7.108   2.517
 5459SOL    HW127306   4.413   7.159   2.436
 5459SOL    HW227307   4.387   7.025   2.526
 5460SOL     OW27308   4.389   2.504   0.829
 5460SOL    HW127309   4.466   2.444   0.849
 5460SOL    HW227310   4.303   2.455   0.844
 5461SOL     OW27311   9.709   2.098   1.372
 5461SOL    HW127312   9.719   2.022   1.308
 5461SOL    HW227313   9.780   2.166   1.354
 5462SOL     OW27314   3.496   3.550   4.030
 5462SOL    HW127315   3.578   3.590   3.989
 5462SOL    HW227316   3.489   3.578   4.125
 5463SOL     OW27317   9.767   8.482   3.823
 5463SOL    HW127318   9.758   8.447   3.916
 5463SOL    HW227319   9.831   8.425   3.771
 5464SOL     OW27320   1.350   2.549   4.589
 5464SOL    HW127321   1.281   2.591   4.530
 5464SOL    HW227322   1.335   2.450   4.593
 5465SOL     OW27323   8.837   9.187   0.695
 5465SOL    HW127324   8.881   9.275   0.677
 5465SOL    HW227325   8.907   9.118   0.712
 5466SOL     OW27326   3.753   4.190   3.703
 5466SOL    HW127327   3.714   4.264   3.648
 5466SOL    HW227328   3.815   4.135   3.647
 5467SOL     OW27329   0.891   7.847   1.414
 5467SOL    HW127330   0.833   7.772   1.447
 5467SOL    HW227331   0.946   7.882   1.490
 5468SOL     OW27332   4.865   3.092   1.134
 5468SOL    HW127333   4.854   3.131   1.043
 5468SOL    HW227334   4.962   3.090   1.159
 5469SOL     OW27335   7.891   9.943   0.300
 5469SOL    HW127336   7.933   9.990   0.377
 5469SOL    HW227337   7.832   9.869   0.333
 5470SOL     OW27338   9.986   3.308   4.478
 5470SOL    HW127339   0.082   3.300   4.454
 5470SOL    HW227340   9.974   3.381   4.545
 5471SOL     OW27341   8.079   5.557   0.537
 5471SOL    HW127342   8.004   5.492   0.548
 5471SOL    HW227343   8.043   5.650   0.547
 5472SOL     OW27344   8.560   9.474   0.735
 5472SOL    HW127345   8.627   9.446   0.803
 5472SOL    HW227346   8.484   9.409   0.734
 5473SOL     OW27347   1.233   6.351   1.131
 5473SOL    HW127348   1.185   6.263   1.129
 5473SOL    HW227349   1.178   6.418   1.179
 5474SOL     OW27350   8.631   1.656   3.257
 5474SOL    HW127351   8.557   1.724   3.259
 5474SOL    HW227352   8.619   1.597   3.177
 5475SOL     OW27353   0.560   3.327   3.399
 5475SOL    HW127354   0.500   3.404   3.419
 5475SOL    HW227355   0.611   3.301   3.481
 5476SOL     OW27356   2.754   0.754   0.595
 5476SOL    HW127357   2.782   0.726   0.503
 5476SOL    HW227358   2.658   0.731   0.609
 5477SOL     OW27359   0.045   3.490   0.816
 5477SOL    HW127360   0.039   3.397   0.853
 5477SOL    HW227361   0.050   3.486   0.716
 5478SOL     OW27362   9.030   5.201   0.487
 5478SOL    HW127363   9.108   5.256   0.520
 5478SOL    HW227364   9.046   5.174   0.392
 5479SOL     OW27365   1.772   5.417   0.213
 5479SOL    HW127366   1.696   5.364   0.175
 5479SOL    HW227367   1.759   5.514   0.192
 5480SOL     OW27368   3.861   3.195   3.491
 5480SOL    HW127369   3.852   3.190   3.590
 5480SOL    HW227370   3.785   3.145   3.448
 5481SOL     OW27371   7.513   0.860   1.160
 5481SOL    HW127372   7.563   0.814   1.087
 5481SOL    HW227373   7.456   0.792   1.208
 5482SOL     OW27374   0.370   2.961   4.484
 5482SOL    HW127375   0.405   3.035   4.427
 5482SOL    HW227376   0.289   2.921   4.440
 5483SOL     OW27377   4.207   4.944   2.970
 5483SOL    HW127378   4.139   5.016   2.953
 5483SOL    HW227379   4.161   4.860   3.000
 5484SOL     OW27380   8.970   3.405   4.773
 5484SOL    HW127381   8.883   3.444   4.744
 5484SOL    HW227382   9.045   3.464   4.743
 5485SOL     OW27383   9.884   2.973   2.283
 5485SOL    HW127384   9.932   2.952   2.197
 5485SOL    HW227385   9.878   2.890   2.338
 5486SOL     OW27386   5.090   2.347   1.525
 5486SOL    HW127387   5.007   2.293   1.515
 5486SOL    HW227388   5.067   2.444   1.523
 5487SOL     OW27389   7.580   3.559   2.436
 5487SOL    HW127390   7.664   3.613   2.426
 5487SOL    HW227391   7.506   3.619   2.468
 5488SOL     OW27392   7.833   8.504   4.757
 5488SOL    HW127393   7.785   8.569   4.816
 5488SOL    HW227394   7.872   8.551   4.679
 5489SOL     OW27395   5.317   8.406   2.582
 5489SOL    HW127396   5.397   8.459   2.554
 5489SOL    HW227397   5.339   8.351   2.663
 5490SOL     OW27398   3.333   8.890   0.571
 5490SOL    HW127399   3.244   8.886   0.526
 5490SOL    HW227400   3.335   8.967   0.635
 5491SOL     OW27401   9.989   1.902   1.708
 5491SOL    HW127402   0.071   1.910   1.652
 5491SOL    HW227403   9.940   1.819   1.684
 5492SOL     OW27404   3.949   8.001   3.629
 5492SOL    HW127405   4.030   7.950   3.657
 5492SOL    HW227406   3.946   8.005   3.529
 5493SOL     OW27407   9.592   4.653   0.644
 5493SOL    HW127408   9.620   4.588   0.574
 5493SOL    HW227409   9.517   4.614   0.698
 5494SOL     OW27410   6.478   9.877   4.349
 5494SOL    HW127411   6.535   9.903   4.426
 5494SOL    HW227412   6.532   9.879   4.264
 5495SOL     OW27413   3.080   9.358   4.927
 5495SOL    HW127414   3.154   9.305   4.884
 5495SOL    HW227415   3.020   9.395   4.856
 5496SOL     OW27416   5.412   5.086   1.177
 5496SOL    HW127417   5.506   5.053   1.177
 5496SOL    HW227418   5.408   5.176   1.133
 5497SOL     OW27419   8.920   9.830   5.059
 5497SOL    HW127420   8.958   9.742   5.089
 5497SOL    HW227421   8.926   9.896   5.133
 5498SOL     OW27422   5.794   1.892   4.894
 5498SOL    HW127423   5.836   1.921   4.809
 5498SOL    HW227424   5.770   1.972   4.949
 5499SOL     OW27425   2.077   9.617   0.859
 5499SOL    HW127426   2.066   9.663   0.770
 5499SOL    HW227427   2.174   9.603   0.877
 5500SOL     OW27428   6.621   1.466   0.454
 5500SOL    HW127429   6.667   1.384   0.487
 5500SOL    HW227430   6.640   1.542   0.516
 5501SOL     OW27431   5.131   9.632   4.056
 5501SOL    HW127432   5.124   9.730   4.075
 5501SOL    HW227433   5.217   9.612   4.010
 5502SOL     OW27434   1.900   0.008   4.485
 5502SOL    HW127435   1.813   0.058   4.488
 5502SOL    HW227436   1.952   0.027   4.568
 5503SOL     OW27437   3.495   3.286   1.549
 5503SOL    HW127438   3.528   3.192   1.547
 5503SOL    HW227439   3.554   3.340   1.610
 5504SOL     OW27440   2.373   4.404   2.803
 5504SOL    HW127441   2.397   4.457   2.722
 5504SOL    HW227442   2.343   4.466   2.875
 5505SOL     OW27443   4.696   9.469   4.198
 5505SOL    HW127444   4.734   9.519   4.276
 5505SOL    HW227445   4.760   9.472   4.122
 5506SOL     OW27446   7.353   0.685   1.297
 5506SOL    HW127447   7.346   0.703   1.395
 5506SOL    HW227448   7.297   0.606   1.273
 5507SOL     OW27449   8.800   6.154   0.315
 5507SOL    HW127450   8.767   6.128   0.405
 5507SOL    HW227451   8.797   6.254   0.305
 5508SOL     OW27452   1.950   2.021   2.383
 5508SOL    HW127453   1.883   2.058   2.318
 5508SOL    HW227454   1.901   1.972   2.456
 5509SOL     OW27455   2.696   7.100   5.061
 5509SOL    HW127456   2.772   7.107   5.126
 5509SOL    HW227457   2.615   7.144   5.099
 5510SOL     OW27458   9.322   2.851   2.842
 5510SOL    HW127459   9.364   2.914   2.908
 5510SOL    HW227460   9.309   2.898   2.755
 5511SOL     OW27461   6.665   0.674   4.630
 5511SOL    HW127462   6.743   0.658   4.570
 5511SOL    HW227463   6.674   0.617   4.712
 5512SOL     OW27464   8.821   8.374   0.410
 5512SOL    HW127465   8.875   8.445   0.364
 5512SOL    HW227466   8.881   8.320   0.469
 5513SOL     OW27467   9.024   7.106   1.614
 5513SOL    HW127468   8.949   7.066   1.562
 5513SOL    HW227469   9.094   7.036   1.629
 5514SOL     OW27470   2.493   0.910   3.320
 5514SOL    HW127471   2.467   0.817   3.294
 5514SOL    HW227472   2.429   0.975   3.278
 5515SOL     OW27473   2.943   3.397   3.377
 5515SOL    HW127474   2.888   3.474   3.345
 5515SOL    HW227475   3.016   3.430   3.437
 5516SOL     OW27476   3.696   0.800   3.230
 5516SOL    HW127477   3.782   0.763   3.264
 5516SOL    HW227478   3.688   0.783   3.131
 5517SOL     OW27479   2.068   3.912   3.127
 5517SOL    HW127480   2.118   3.843   3.181
 5517SOL    HW227481   2.007   3.866   3.063
 5518SOL     OW27482   9.559   5.939   1.825
 5518SOL    HW127483   9.550   5.842   1.846
 5518SOL    HW227484   9.641   5.976   1.869
 5519SOL     OW27485   8.038   8.215   2.251
 5519SOL    HW127486   8.122   8.199   2.200
 5519SOL    HW227487   8.060   8.234   2.347
 5520SOL     OW27488   8.568   2.918   2.459
 5520SOL    HW127489   8.574   2.851   2.534
 5520SOL    HW227490   8.535   2.872   2.377
 5521SOL     OW27491   2.294   0.411   2.413
 5521SOL    HW127492   2.341   0.494   2.441
 5521SOL    HW227493   2.331   0.333   2.463
 5522SOL     OW27494   0.828   3.536   2.391
 5522SOL    HW127495   0.918   3.503   2.364
 5522SOL    HW227496   0.809   3.622   2.342
 5523SOL     OW27497   8.689   7.705   0.473
 5523SOL    HW127498   8.647   7.778   0.528
 5523SOL    HW227499   8.650   7.707   0.381
 5524SOL     OW27500   8.692   0.243   1.776
 5524SOL    HW127501   8.724   0.197   1.858
 5524SOL    HW227502   8.703   0.182   1.697
 5525SOL     OW27503   8.335   5.725   4.621
 5525SOL    HW127504   8.242   5.754   4.598
 5525SOL    HW227505   8.374   5.790   4.687
 5526SOL     OW27506   3.129   4.896   0.168
 5526SOL    HW127507   3.228   4.907   0.158
 5526SOL    HW227508   3.108   4.799   0.182
 5527SOL     OW27509   8.449   3.142   4.490
 5527SOL    HW127510   8.473   3.125   4.586
 5527SOL    HW227511   8.531   3.135   4.434
 5528SOL     OW27512   4.916   7.406   3.245
 5528SOL    HW127513   4.917   7.466   3.325
 5528SOL    HW227514   4.935   7.312   3.273
 5529SOL     OW27515   0.611   3.804   5.331
 5529SOL    HW127516   0.527   3.835   5.285
 5529SOL    HW227517   0.594   3.798   5.430
 5530SOL     OW27518   2.585   4.942   4.540
 5530SOL    HW127519   2.550   4.974   4.628
 5530SOL    HW227520   2.566   5.011   4.470
 5531SOL     OW27521   0.051   3.738   3.925
 5531SOL    HW127522   0.045   3.784   3.836
 5531SOL    HW227523   0.091   3.801   3.992
 5532SOL     OW27524   0.687   6.580   3.660
 5532SOL    HW127525   0.641   6.512   3.603
 5532SOL    HW227526   0.644   6.583   3.750
 5533SOL     OW27527   6.234   1.587   1.075
 5533SOL    HW127528   6.312   1.525   1.063
 5533SOL    HW227529   6.191   1.568   1.163
 5534SOL     OW27530   5.739   0.181   3.377
 5534SOL    HW127531   5.822   0.174   3.432
 5534SOL    HW227532   5.663   0.213   3.434
 5535SOL     OW27533   5.580   0.778   5.060
 5535SOL    HW127534   5.657   0.751   5.118
 5535SOL    HW227535   5.614   0.829   4.981
 5536SOL     OW27536   1.647   6.913   0.303
 5536SOL    HW127537   1.597   6.836   0.263
 5536SOL    HW227538   1.599   6.998   0.284
 5537SOL     OW27539   6.403   7.555   3.782
 5537SOL    HW127540   6.441   7.567   3.874
 5537SOL    HW227541   6.441   7.624   3.721
 5538SOL     OW27542   8.033   3.597   1.846
 5538SOL    HW127543   8.118   3.629   1.887
 5538SOL    HW227544   8.013   3.504   1.878
 5539SOL     OW27545   5.244   0.324   3.870
 5539SOL    HW127546   5.208   0.350   3.959
 5539SOL    HW227547   5.182   0.356   3.798
 5540SOL     OW27548   3.266   2.282   1.021
 5540SOL    HW127549   3.334   2.217   0.988
 5540SOL    HW227550   3.304   2.375   1.018
 5541SOL     OW27551   3.464   0.761   0.498
 5541SOL    HW127552   3.516   0.770   0.413
 5541SOL    HW227553   3.461   0.850   0.544
 5542SOL     OW27554   6.180   2.349   3.501
 5542SOL    HW127555   6.278   2.338   3.484
 5542SOL    HW227556   6.129   2.311   3.424
 5543SOL     OW27557   0.309   8.296   2.359
 5543SOL    HW127558   0.398   8.264   2.326
 5543SOL    HW227559   0.285   8.246   2.443
 5544SOL     OW27560   3.427   8.651   0.925
 5544SOL    HW127561   3.509   8.621   0.877
 5544SOL    HW227562   3.351   8.659   0.861
 5545SOL     OW27563   5.321   7.797   4.264
 5545SOL    HW127564   5.419   7.783   4.277
 5545SOL    HW227565   5.271   7.750   4.337
 5546SOL     OW27566   3.174   1.799   1.672
 5546SOL    HW127567   3.193   1.862   1.747
 5546SOL    HW227568   3.250   1.801   1.607
 5547SOL     OW27569   1.976   0.898   3.972
 5547SOL    HW127570   2.027   0.979   4.002
 5547SOL    HW227571   1.927   0.919   3.888
 5548SOL     OW27572   8.307   7.453   1.081
 5548SOL    HW127573   8.271   7.493   1.166
 5548SOL    HW227574   8.356   7.369   1.102
 5549SOL     OW27575   9.428   2.970   2.114
 5549SOL    HW127576   9.439   2.920   2.029
 5549SOL    HW227577   9.480   3.056   2.109
 5550SOL     OW27578   4.510   6.092   1.685
 5550SOL    HW127579   4.546   6.000   1.668
 5550SOL    HW227580   4.451   6.090   1.765
 5551SOL     OW27581   3.595   8.783   4.550
 5551SOL    HW127582   3.517   8.763   4.610
 5551SOL    HW227583   3.623   8.699   4.503
 5552SOL     OW27584   9.663   6.844   0.121
 5552SOL    HW127585   9.667   6.744   0.122
 5552SOL    HW227586   9.693   6.878   0.033
 5553SOL     OW27587   4.206   8.973   4.637
 5553SOL    HW127588   4.170   9.054   4.681
 5553SOL    HW227589   4.258   8.999   4.556
 5554SOL     OW27590   3.490   3.650   1.461
 5554SOL    HW127591   3.406   3.599   1.443
 5554SOL    HW227592   3.532   3.677   1.375
 5555SOL     OW27593   3.122   7.191   0.169
 5555SOL    HW127594   3.108   7.210   0.266
 5555SOL    HW227595   3.120   7.092   0.154
 5556SOL     OW27596   3.778   5.807   1.031
 5556SOL    HW127597   3.730   5.860   1.101
 5556SOL    HW227598   3.842   5.744   1.076
 5557SOL     OW27599   5.124   3.749   1.879
 5557SOL    HW127600   5.222   3.765   1.875
 5557SOL    HW227601   5.089   3.732   1.787
 5558SOL     OW27602   8.256   4.361   1.851
 5558SOL    HW127603   8.189   4.366   1.776
 5558SOL    HW227604   8.337   4.414   1.827
 5559SOL     OW27605   8.889   5.644   5.127
 5559SOL    HW127606   8.816   5.595   5.081
 5559SOL    HW227607   8.970   5.586   5.132
 5560SOL     OW27608   3.258   5.137   4.972
 5560SOL    HW127609   3.284   5.225   5.012
 5560SOL    HW227610   3.188   5.151   4.902
 5561SOL     OW27611   3.169   2.120   1.220
 5561SOL    HW127612   3.167   2.167   1.309
 5561SOL    HW227613   3.206   2.182   1.151
 5562SOL     OW27614   6.491   7.291   4.218
 5562SOL    HW127615   6.502   7.253   4.310
 5562SOL    HW227616   6.546   7.373   4.208
 5563SOL     OW27617   3.806   6.565   1.150
 5563SOL    HW127618   3.723   6.617   1.128
 5563SOL    HW227619   3.880   6.595   1.090
 5564SOL     OW27620   0.361   7.852   4.939
 5564SOL    HW127621   0.440   7.796   4.964
 5564SOL    HW227622   0.344   7.845   4.841
 5565SOL     OW27623   8.047   9.938   4.072
 5565SOL    HW127624   8.028   9.862   4.134
 5565SOL    HW227625   7.987   9.932   3.992
 5566SOL     OW27626   6.733   2.094   3.710
 5566SOL    HW127627   6.688   2.163   3.767
 5566SOL    HW227628   6.666   2.025   3.682
 5567SOL     OW27629   2.887   2.180   2.024
 5567SOL    HW127630   2.811   2.233   2.059
 5567SOL    HW227631   2.876   2.084   2.050
 5568SOL     OW27632   6.889   8.880   3.761
 5568SOL    HW127633   6.935   8.808   3.813
 5568SOL    HW227634   6.804   8.845   3.723
 5569SOL     OW27635   1.410   6.762   5.247
 5569SOL    HW127636   1.481   6.691   5.245
 5569SOL    HW227637   1.345   6.746   5.173
 5570SOL     OW27638   4.150   1.518   4.700
 5570SOL    HW127639   4.158   1.516   4.800
 5570SOL    HW227640   4.087   1.446   4.670
 5571SOL     OW27641   7.340   8.575   4.370
 5571SOL    HW127642   7.311   8.671   4.372
 5571SOL    HW227643   7.262   8.516   4.391
 5572SOL     OW27644   7.023   3.145   1.080
 5572SOL    HW127645   7.042   3.122   0.984
 5572SOL    HW227646   6.971   3.072   1.122
 5573SOL     OW27647   8.732   8.898   2.677
 5573SOL    HW127648   8.700   8.860   2.590
 5573SOL    HW227649   8.788   8.830   2.725
 5574SOL     OW27650   0.508   9.568   2.819
 5574SOL    HW127651   0.552   9.485   2.853
 5574SOL    HW227652   0.437   9.597   2.883
 5575SOL     OW27653   8.632   7.272   2.026
 5575SOL    HW127654   8.645   7.202   1.956
 5575SOL    HW227655   8.555   7.247   2.084
 5576SOL     OW27656   9.182   4.186   3.860
 5576SOL    HW127657   9.207   4.229   3.947
 5576SOL    HW227658   9.234   4.101   3.849
 5577SOL     OW27659   3.755   3.995   2.364
 5577SOL    HW127660   3.656   3.980   2.369
 5577SOL    HW227661   3.776   4.089   2.391
 5578SOL     OW27662   8.444   1.866   3.229
 5578SOL    HW127663   8.346   1.847   3.235
 5578SOL    HW227664   8.471   1.927   3.303
 5579SOL     OW27665   1.114   3.753   2.131
 5579SOL    HW127666   1.209   3.739   2.102
 5579SOL    HW227667   1.085   3.846   2.107
 5580SOL     OW27668   9.039   7.442   0.378
 5580SOL    HW127669   9.101   7.376   0.420
 5580SOL    HW227670   8.960   7.393   0.340
 5581SOL     OW27671   1.552   5.599   3.157
 5581SOL    HW127672   1.507   5.526   3.106
 5581SOL    HW227673   1.627   5.637   3.103
 5582SOL     OW27674   1.271   2.074   0.248
 5582SOL    HW127675   1.198   2.007   0.239
 5582SOL    HW227676   1.241   2.162   0.210
 5583SOL     OW27677   3.881   1.364   0.281
 5583SOL    HW127678   3.930   1.442   0.319
 5583SOL    HW227679   3.791   1.393   0.249
 5584SOL     OW27680   8.024   4.732   4.441
 5584SOL    HW127681   8.064   4.726   4.350
 5584SOL    HW227682   8.025   4.828   4.471
 5585SOL     OW27683   7.850   9.591   2.070
 5585SOL    HW127684   7.775   9.584   2.005
 5585SOL    HW227685   7.838   9.673   2.126
 5586SOL     OW27686   9.784   3.022   1.356
 5586SOL    HW127687   9.884   3.021   1.346
 5586SOL    HW227688   9.742   3.038   1.267
 5587SOL     OW27689   5.830   4.726   0.841
 5587SOL    HW127690   5.824   4.640   0.891
 5587SOL    HW227691   5.739   4.752   0.807
 5588SOL     OW27692   1.068   5.484   2.218
 5588SOL    HW127693   1.022   5.464   2.132
 5588SOL    HW227694   1.111   5.574   2.213
 5589SOL     OW27695   1.394   4.710   3.504
 5589SOL    HW127696   1.300   4.721   3.536
 5589SOL    HW227697   1.453   4.774   3.552
 5590SOL     OW27698   4.238   2.932   3.416
 5590SOL    HW127699   4.268   2.882   3.334
 5590SOL    HW227700   4.223   2.867   3.490
 5591SOL     OW27701   7.904   4.801   1.066
 5591SOL    HW127702   7.890   4.894   1.098
 5591SOL    HW227703   7.817   4.752   1.066
 5592SOL     OW27704   1.865   0.378   4.972
 5592SOL    HW127705   1.853   0.319   4.892
 5592SOL    HW227706   1.876   0.473   4.943
 5593SOL     OW27707   7.628   1.265   4.685
 5593SOL    HW127708   7.583   1.230   4.768
 5593SOL    HW227709   7.596   1.358   4.666
 5594SOL     OW27710   1.930   9.132   2.424
 5594SOL    HW127711   1.858   9.139   2.493
 5594SOL    HW227712   1.940   9.220   2.378
 5595SOL     OW27713   2.034   4.899   1.295
 5595SOL    HW127714   2.102   4.955   1.247
 5595SOL    HW227715   1.990   4.838   1.230
 5596SOL     OW27716   3.897   3.524   3.292
 5596SOL    HW127717   3.877   3.485   3.382
 5596SOL    HW227718   3.938   3.454   3.233
 5597SOL     OW27719   1.089   8.197   5.269
 5597SOL    HW127720   0.996   8.175   5.240
 5597SOL    HW227721   1.086   8.237   5.361
 5598SOL     OW27722   9.002   7.731   1.094
 5598SOL    HW127723   8.929   7.668   1.120
 5598SOL    HW227724   9.034   7.709   1.002
 5599SOL     OW27725   1.530   4.740   4.234
 5599SOL    HW127726   1.627   4.735   4.211
 5599SOL    HW227727   1.477   4.754   4.150
 5600SOL     OW27728   3.620   2.704   3.733
 5600SOL    HW127729   3.674   2.780   3.698
 5600SOL    HW227730   3.531   2.737   3.764
 5601SOL     OW27731   1.351   3.292   0.621
 5601SOL    HW127732   1.437   3.337   0.644
 5601SOL    HW227733   1.370   3.201   0.585
 5602SOL     OW27734   5.555   9.824   3.941
 5602SOL    HW127735   5.535   9.904   3.997
 5602SOL    HW227736   5.650   9.796   3.957
 5603SOL     OW27737   8.235   2.729   3.131
 5603SOL    HW127738   8.217   2.647   3.077
 5603SOL    HW227739   8.180   2.806   3.096
 5604SOL     OW27740   0.958   7.733   2.715
 5604SOL    HW127741   0.895   7.722   2.638
 5604SOL    HW227742   0.984   7.643   2.750
 5605SOL     OW27743   7.185   3.693   0.734
 5605SOL    HW127744   7.089   3.721   0.731
 5605SOL    HW227745   7.221   3.687   0.640
 5606SOL     OW27746   9.477   2.119   4.629
 5606SOL    HW127747   9.459   2.038   4.685
 5606SOL    HW227748   9.392   2.168   4.614
 5607SOL     OW27749   2.353   5.157   0.726
 5607SOL    HW127750   2.443   5.162   0.683
 5607SOL    HW227751   2.364   5.143   0.825
 5608SOL     OW27752   3.544   0.021   4.034
 5608SOL    HW127753   3.609   9.982   3.969
 5608SOL    HW227754   3.481   0.082   3.985
 5609SOL     OW27755   9.236   8.279   1.868
 5609SOL    HW127756   9.290   8.202   1.900
 5609SOL    HW227757   9.291   8.335   1.806
 5610SOL     OW27758   0.701   9.701   1.263
 5610SOL    HW127759   0.603   9.717   1.250
 5610SOL    HW227760   0.720   9.686   1.360
 5611SOL     OW27761   4.444   8.606   2.551
 5611SOL    HW127762   4.378   8.545   2.595
 5611SOL    HW227763   4.529   8.607   2.604
 5612SOL     OW27764   7.812   0.655   2.577
 5612SOL    HW127765   7.877   0.581   2.558
 5612SOL    HW227766   7.852   0.742   2.548
 5613SOL     OW27767   1.116   3.547   4.675
 5613SOL    HW127768   1.111   3.451   4.648
 5613SOL    HW227769   1.163   3.555   4.762
 5614SOL     OW27770   0.769   2.491   4.265
 5614SOL    HW127771   0.865   2.467   4.277
 5614SOL    HW227772   0.719   2.475   4.350
 5615SOL     OW27773   7.174   7.344   4.343
 5615SOL    HW127774   7.197   7.298   4.257
 5615SOL    HW227775   7.122   7.281   4.401
 5616SOL     OW27776   1.176   5.977   2.353
 5616SOL    HW127777   1.088   5.989   2.399
 5616SOL    HW227778   1.171   5.895   2.295
 5617SOL     OW27779   6.777   7.523   2.677
 5617SOL    HW127780   6.768   7.519   2.777
 5617SOL    HW227781   6.864   7.566   2.654
 5618SOL     OW27782   1.252   8.883   3.418
 5618SOL    HW127783   1.278   8.807   3.477
 5618SOL    HW227784   1.324   8.896   3.349
 5619SOL     OW27785   1.628   2.707   2.098
 5619SOL    HW127786   1.555   2.728   2.034
 5619SOL    HW227787   1.699   2.777   2.093
 5620SOL     OW27788   6.400   1.940   2.909
 5620SOL    HW127789   6.310   1.917   2.873
 5620SOL    HW227790   6.389   1.990   2.995
 5621SOL     OW27791   1.300   5.343   1.794
 5621SOL    HW127792   1.361   5.369   1.719
 5621SOL    HW227793   1.355   5.312   1.872
 5622SOL     OW27794   4.607   5.725   1.066
 5622SOL    HW127795   4.588   5.655   0.997
 5622SOL    HW227796   4.524   5.778   1.085
 5623SOL     OW27797   5.828   9.702   3.682
 5623SOL    HW127798   5.802   9.606   3.675
 5623SOL    HW227799   5.781   9.754   3.610
 5624SOL     OW27800   8.240   1.683   5.193
 5624SOL    HW127801   8.226   1.585   5.207
 5624SOL    HW227802   8.333   1.708   5.217
 5625SOL     OW27803   2.223   4.505   2.436
 5625SOL    HW127804   2.256   4.509   2.342
 5625SOL    HW227805   2.172   4.420   2.450
 5626SOL     OW27806   2.929   7.524   3.689
 5626SOL    HW127807   2.964   7.599   3.745
 5626SOL    HW227808   2.829   7.527   3.688
 5627SOL     OW27809   9.752   5.811   1.389
 5627SOL    HW127810   9.677   5.793   1.452
 5627SOL    HW227811   9.719   5.803   1.295
 5628SOL     OW27812   1.754   5.490   1.628
 5628SOL    HW127813   1.788   5.584   1.625
 5628SOL    HW227814   1.760   5.456   1.721
 5629SOL     OW27815   4.012   9.229   3.434
 5629SOL    HW127816   3.919   9.192   3.433
 5629SOL    HW227817   4.054   9.214   3.344
 5630SOL     OW27818   2.513   8.195   1.939
 5630SOL    HW127819   2.540   8.100   1.955
 5630SOL    HW227820   2.550   8.226   1.852
 5631SOL     OW27821   1.076   7.372   4.534
 5631SOL    HW127822   1.166   7.334   4.511
 5631SOL    HW227823   1.024   7.305   4.586
 5632SOL     OW27824   1.266   5.105   1.517
 5632SOL    HW127825   1.251   5.084   1.614
 5632SOL    HW227826   1.313   5.029   1.474
 5633SOL     OW27827   5.446   0.663   4.131
 5633SOL    HW127828   5.514   0.627   4.195
 5633SOL    HW227829   5.451   0.612   4.045
 5634SOL     OW27830   2.306   1.752   4.495
 5634SOL    HW127831   2.303   1.843   4.453
 5634SOL    HW227832   2.270   1.758   4.588
 5635SOL     OW27833   5.835   8.891   2.469
 5635SOL    HW127834   5.796   8.825   2.533
 5635SOL    HW227835   5.931   8.869   2.451
 5636SOL     OW27836   3.177   0.255   2.967
 5636SOL    HW127837   3.110   0.237   3.039
 5636SOL    HW227838   3.159   0.344   2.926
 5637SOL     OW27839   0.571   0.802   5.212
 5637SOL    HW127840   0.591   0.894   5.247
 5637SOL    HW227841   0.527   0.810   5.122
 5638SOL     OW27842   0.789   4.292   2.084
 5638SOL    HW127843   0.786   4.356   2.007
 5638SOL    HW227844   0.698   4.284   2.124
 5639SOL     OW27845   8.959   5.813   1.353
 5639SOL    HW127846   8.951   5.838   1.257
 5639SOL    HW227847   9.056   5.810   1.379
 5640SOL     OW27848   1.370   6.456   0.804
 5640SOL    HW127849   1.380   6.357   0.808
 5640SOL    HW227850   1.402   6.496   0.891
 5641SOL     OW27851   0.726   8.817   3.897
 5641SOL    HW127852   0.743   8.747   3.828
 5641SOL    HW227853   0.813   8.848   3.936
 5642SOL     OW27854   4.416   2.747   0.022
 5642SOL    HW127855   4.327   2.786   0.046
 5642SOL    HW227856   4.485   2.819   0.024
 5643SOL     OW27857   4.937   9.192   1.469
 5643SOL    HW127858   4.968   9.213   1.376
 5643SOL    HW227859   4.905   9.276   1.513
 5644SOL     OW27860   1.238   8.235   1.007
 5644SOL    HW127861   1.293   8.196   0.933
 5644SOL    HW227862   1.282   8.319   1.041
 5645SOL     OW27863   9.570   5.205   2.795
 5645SOL    HW127864   9.538   5.126   2.742
 5645SOL    HW227865   9.523   5.287   2.763
 5646SOL     OW27866   3.034   1.469   0.776
 5646SOL    HW127867   3.070   1.472   0.682
 5646SOL    HW227868   2.993   1.557   0.798
 5647SOL     OW27869   6.913   1.328   4.953
 5647SOL    HW127870   6.958   1.320   4.864
 5647SOL    HW227871   6.852   1.407   4.953
 5648SOL     OW27872   0.261   4.590   4.247
 5648SOL    HW127873   0.284   4.500   4.211
 5648SOL    HW227874   0.330   4.619   4.313
 5649SOL     OW27875   7.366   7.348   5.039
 5649SOL    HW127876   7.303   7.280   5.002
 5649SOL    HW227877   7.368   7.340   5.139
 5650SOL     OW27878   1.621   7.360   1.369
 5650SOL    HW127879   1.683   7.363   1.291
 5650SOL    HW227880   1.528   7.380   1.338
 5651SOL     OW27881   6.019   9.839   1.570
 5651SOL    HW127882   6.071   9.899   1.631
 5651SOL    HW227883   5.969   9.894   1.503
 5652SOL     OW27884   5.882   1.573   2.014
 5652SOL    HW127885   5.895   1.563   2.113
 5652SOL    HW227886   5.784   1.584   1.994
 5653SOL     OW27887   1.559   3.793   4.624
 5653SOL    HW127888   1.578   3.725   4.553
 5653SOL    HW227889   1.568   3.885   4.585
 5654SOL     OW27890   9.428   9.817   0.993
 5654SOL    HW127891   9.366   9.849   1.064
 5654SOL    HW227892   9.375   9.785   0.914
 5655SOL     OW27893   4.022   3.526   0.684
 5655SOL    HW127894   4.060   3.617   0.702
 5655SOL    HW227895   4.097   3.459   0.679
 5656SOL     OW27896   2.797   3.521   2.361
 5656SOL    HW127897   2.759   3.443   2.410
 5656SOL    HW227898   2.724   3.584   2.336
 5657SOL     OW27899   8.449   5.914   4.794
 5657SOL    HW127900   8.426   5.952   4.883
 5657SOL    HW227901   8.545   5.885   4.793
 5658SOL     OW27902   0.838   8.480   0.119
 5658SOL    HW127903   0.830   8.385   0.089
 5658SOL    HW227904   0.752   8.528   0.101
 5659SOL     OW27905   0.845   5.598   4.055
 5659SOL    HW127906   0.771   5.663   4.065
 5659SOL    HW227907   0.927   5.633   4.100
 5660SOL     OW27908   6.907   1.805   3.473
 5660SOL    HW127909   6.836   1.754   3.523
 5660SOL    HW227910   6.886   1.902   3.475
 5661SOL     OW27911   9.679   0.044   1.491
 5661SOL    HW127912   9.696   9.957   1.538
 5661SOL    HW227913   9.762   0.099   1.493
 5662SOL     OW27914   4.270   0.835   2.039
 5662SOL    HW127915   4.219   0.914   2.071
 5662SOL    HW227916   4.243   0.813   1.945
 5663SOL     OW27917   7.358   0.975   0.960
 5663SOL    HW127918   7.321   0.888   0.926
 5663SOL    HW227919   7.414   0.959   1.040
 5664SOL     OW27920   8.403   1.673   0.763
 5664SOL    HW127921   8.366   1.763   0.786
 5664SOL    HW227922   8.372   1.646   0.671
 5665SOL     OW27923   1.103   7.099   3.855
 5665SOL    HW127924   1.101   7.048   3.769
 5665SOL    HW227925   1.010   7.125   3.880
 5666SOL     OW27926   2.478   1.283   0.632
 5666SOL    HW127927   2.392   1.239   0.656
 5666SOL    HW227928   2.477   1.309   0.536
 5667SOL     OW27929   5.507   7.832   2.643
 5667SOL    HW127930   5.520   7.912   2.585
 5667SOL    HW227931   5.475   7.862   2.733
 5668SOL     OW27932   1.676   8.267   1.312
 5668SOL    HW127933   1.676   8.336   1.384
 5668SOL    HW227934   1.757   8.279   1.255
 5669SOL     OW27935   6.787   9.715   3.307
 5669SOL    HW127936   6.853   9.650   3.268
 5669SOL    HW227937   6.740   9.672   3.384
 5670SOL     OW27938   2.971   9.772   3.434
 5670SOL    HW127939   2.931   9.799   3.346
 5670SOL    HW227940   2.995   9.854   3.486
 5671SOL     OW27941   3.469   5.530   4.484
 5671SOL    HW127942   3.389   5.563   4.435
 5671SOL    HW227943   3.464   5.431   4.496
 5672SOL     OW27944   9.831   7.493   1.666
 5672SOL    HW127945   9.877   7.504   1.754
 5672SOL    HW227946   9.735   7.467   1.682
 5673SOL     OW27947   3.264   1.259   3.226
 5673SOL    HW127948   3.363   1.271   3.234
 5673SOL    HW227949   3.219   1.288   3.311
 5674SOL     OW27950   4.405   8.617   0.636
 5674SOL    HW127951   4.484   8.572   0.595
 5674SOL    HW227952   4.353   8.550   0.690
 5675SOL     OW27953   8.626   4.086   3.937
 5675SOL    HW127954   8.569   4.152   3.986
 5675SOL    HW227955   8.708   4.131   3.903
 5676SOL     OW27956   5.248   0.914   1.172
 5676SOL    HW127957   5.211   0.860   1.248
 5676SOL    HW227958   5.205   0.884   1.086
 5677SOL     OW27959   3.112   6.393   2.612
 5677SOL    HW127960   3.104   6.361   2.518
 5677SOL    HW227961   3.161   6.481   2.613
 5678SOL     OW27962   3.991   7.373   1.990
 5678SOL    HW127963   3.893   7.353   2.001
 5678SOL    HW227964   4.034   7.302   1.935
 5679SOL     OW27965   3.681   5.404   0.924
 5679SOL    HW127966   3.621   5.326   0.942
 5679SOL    HW227967   3.755   5.406   0.992
 5680SOL     OW27968   7.135   7.874   2.540
 5680SOL    HW127969   7.138   7.916   2.449
 5680SOL    HW227970   7.204   7.917   2.598
 5681SOL     OW27971   8.681   1.102   3.375
 5681SOL    HW127972   8.613   1.154   3.324
 5681SOL    HW227973   8.710   1.154   3.456
 5682SOL     OW27974   7.052   9.237   3.128
 5682SOL    HW127975   6.975   9.251   3.066
 5682SOL    HW227976   7.030   9.163   3.192
 5683SOL     OW27977   1.274   5.911   4.605
 5683SOL    HW127978   1.367   5.924   4.638
 5683SOL    HW227979   1.240   5.821   4.633
 5684SOL     OW27980   5.747   1.635   4.810
 5684SOL    HW127981   5.772   1.725   4.846
 5684SOL    HW227982   5.652   1.636   4.781
 5685SOL     OW27983   1.263   8.892   0.125
 5685SOL    HW127984   1.171   8.857   0.109
 5685SOL    HW227985   1.258   8.989   0.150
 5686SOL     OW27986   8.084   9.425   3.507
 5686SOL    HW127987   8.025   9.502   3.481
 5686SOL    HW227988   8.124   9.385   3.425
 5687SOL     OW27989   8.934   8.623   0.582
 5687SOL    HW127990   8.845   8.655   0.613
 5687SOL    HW227991   8.936   8.621   0.482
 5688SOL     OW27992   0.845   5.655   1.230
 5688SOL    HW127993   0.770   5.676   1.293
 5688SOL    HW227994   0.841   5.717   1.152
 5689SOL     OW27995   8.538   1.136   0.264
 5689SOL    HW127996   8.570   1.059   0.210
 5689SOL    HW227997   8.439   1.148   0.251
 5690SOL     OW27998   4.394   1.842   4.461
 5690SOL    HW127999   4.490   1.827   4.487
 5690SOL    HW228000   4.366   1.934   4.487
 5691SOL     OW28001   3.703   2.122   4.981
 5691SOL    HW128002   3.782   2.090   5.033
 5691SOL    HW228003   3.665   2.046   4.928
 5692SOL     OW28004   7.877   0.379   1.673
 5692SOL    HW128005   7.884   0.401   1.576
 5692SOL    HW228006   7.965   0.397   1.718
 5693SOL     OW28007   8.680   1.714   0.792
 5693SOL    HW128008   8.735   1.631   0.801
 5693SOL    HW228009   8.584   1.689   0.778
 5694SOL     OW28010   1.112   2.084   4.620
 5694SOL    HW128011   1.159   2.022   4.682
 5694SOL    HW228012   1.048   2.032   4.563
 5695SOL     OW28013   5.210   1.488   4.591
 5695SOL    HW128014   5.226   1.586   4.589
 5695SOL    HW228015   5.270   1.443   4.524
 5696SOL     OW28016   7.397   0.844   5.073
 5696SOL    HW128017   7.395   0.906   4.995
 5696SOL    HW228018   7.321   0.779   5.066
 5697SOL     OW28019   1.567   8.331   0.901
 5697SOL    HW128020   1.513   8.255   0.866
 5697SOL    HW228021   1.615   8.377   0.826
 5698SOL     OW28022   7.351   4.926   1.141
 5698SOL    HW128023   7.287   4.982   1.194
 5698SOL    HW228024   7.440   4.926   1.186
 5699SOL     OW28025   0.750   6.414   4.403
 5699SOL    HW128026   0.807   6.362   4.466
 5699SOL    HW228027   0.655   6.415   4.435
 5700SOL     OW28028   1.314   8.298   2.427
 5700SOL    HW128029   1.368   8.267   2.505
 5700SOL    HW228030   1.305   8.224   2.361
 5701SOL     OW28031   3.333   2.252   0.299
 5701SOL    HW128032   3.415   2.254   0.357
 5701SOL    HW228033   3.272   2.326   0.327
 5702SOL     OW28034   1.960   8.343   2.259
 5702SOL    HW128035   1.911   8.368   2.343
 5702SOL    HW228036   1.924   8.396   2.183
 5703SOL     OW28037   3.141   7.741   3.344
 5703SOL    HW128038   3.178   7.718   3.254
 5703SOL    HW228039   3.069   7.676   3.368
 5704SOL     OW28040   1.409   2.774   0.668
 5704SOL    HW128041   1.311   2.765   0.653
 5704SOL    HW228042   1.455   2.688   0.646
 5705SOL     OW28043   5.135   4.525   3.667
 5705SOL    HW128044   5.108   4.548   3.760
 5705SOL    HW228045   5.141   4.608   3.612
 5706SOL     OW28046   5.787   0.342   4.243
 5706SOL    HW128047   5.735   0.363   4.161
 5706SOL    HW228048   5.881   0.375   4.232
 5707SOL     OW28049   9.828   1.993   5.196
 5707SOL    HW128050   9.729   2.006   5.193
 5707SOL    HW228051   9.862   1.970   5.105
 5708SOL     OW28052   2.938   9.760   0.752
 5708SOL    HW128053   3.026   9.805   0.737
 5708SOL    HW228054   2.866   9.812   0.705
 5709SOL     OW28055   7.849   5.830   0.304
 5709SOL    HW128056   7.890   5.764   0.241
 5709SOL    HW228057   7.873   5.805   0.398
 5710SOL     OW28058   3.478   1.963   1.996
 5710SOL    HW128059   3.467   1.879   2.049
 5710SOL    HW228060   3.501   2.038   2.058
 5711SOL     OW28061   3.355   9.008   3.438
 5711SOL    HW128062   3.419   9.079   3.467
 5711SOL    HW228063   3.290   9.046   3.372
 5712SOL     OW28064   1.968   9.248   1.205
 5712SOL    HW128065   1.988   9.213   1.297
 5712SOL    HW228066   2.044   9.304   1.174
 5713SOL     OW28067   2.877   9.703   2.453
 5713SOL    HW128068   2.976   9.716   2.463
 5713SOL    HW228069   2.858   9.605   2.442
 5714SOL     OW28070   1.977   3.311   2.699
 5714SOL    HW128071   1.961   3.277   2.606
 5714SOL    HW228072   2.049   3.257   2.742
 5715SOL     OW28073   4.004   1.052   4.710
 5715SOL    HW128074   4.097   1.017   4.705
 5715SOL    HW228075   3.981   1.073   4.805
 5716SOL     OW28076   4.366   7.841   4.195
 5716SOL    HW128077   4.373   7.940   4.183
 5716SOL    HW228078   4.443   7.797   4.147
 5717SOL     OW28079   3.469   2.246   1.818
 5717SOL    HW128080   3.415   2.161   1.819
 5717SOL    HW228081   3.566   2.224   1.827
 5718SOL     OW28082   9.911   7.986   2.803
 5718SOL    HW128083   9.845   7.941   2.863
 5718SOL    HW228084   9.980   7.920   2.773
 5719SOL     OW28085   4.197   0.772   1.759
 5719SOL    HW128086   4.192   0.815   1.668
 5719SOL    HW228087   4.280   0.717   1.764
 5720SOL     OW28088   6.856   0.425   1.390
 5720SOL    HW128089   6.866   0.411   1.292
 5720SOL    HW228090   6.903   0.510   1.416
 5721SOL     OW28091   7.678   3.833   0.298
 5721SOL    HW128092   7.765   3.848   0.345
 5721SOL    HW228093   7.604   3.876   0.349
 5722SOL     OW28094   9.641   8.554   2.341
 5722SOL    HW128095   9.722   8.565   2.285
 5722SOL    HW228096   9.626   8.457   2.361
 5723SOL     OW28097   9.907   1.221   0.891
 5723SOL    HW128098   9.860   1.141   0.927
 5723SOL    HW228099   9.883   1.301   0.944
 5724SOL     OW28100   5.046   9.981   3.255
 5724SOL    HW128101   4.947   9.997   3.247
 5724SOL    HW228102   5.067   9.889   3.221
 5725SOL     OW28103   5.466   6.732   2.553
 5725SOL    HW128104   5.492   6.708   2.647
 5725SOL    HW228105   5.464   6.648   2.497
 5726SOL     OW28106   8.013   9.222   2.679
 5726SOL    HW128107   8.103   9.261   2.661
 5726SOL    HW228108   7.992   9.231   2.777
 5727SOL     OW28109   8.391   4.880   2.282
 5727SOL    HW128110   8.448   4.798   2.281
 5727SOL    HW228111   8.296   4.856   2.262
 5728SOL     OW28112   5.324   8.422   5.093
 5728SOL    HW128113   5.394   8.488   5.066
 5728SOL    HW228114   5.313   8.354   5.021
 5729SOL     OW28115   1.657   9.569   4.229
 5729SOL    HW128116   1.623   9.475   4.226
 5729SOL    HW228117   1.646   9.605   4.322
 5730SOL     OW28118   9.402   4.631   4.387
 5730SOL    HW128119   9.304   4.631   4.364
 5730SOL    HW228120   9.429   4.540   4.418
 5731SOL     OW28121   8.174   6.281   1.898
 5731SOL    HW128122   8.144   6.267   1.993
 5731SOL    HW228123   8.149   6.374   1.869
 5732SOL     OW28124   8.544   6.059   2.061
 5732SOL    HW128125   8.636   6.026   2.038
 5732SOL    HW228126   8.517   6.130   1.997
 5733SOL     OW28127   0.467   3.165   3.197
 5733SOL    HW128128   0.541   3.155   3.130
 5733SOL    HW228129   0.496   3.226   3.270
 5734SOL     OW28130   1.227   2.130   2.751
 5734SOL    HW128131   1.233   2.184   2.667
 5734SOL    HW228132   1.279   2.175   2.824
 5735SOL     OW28133   0.388   7.271   1.684
 5735SOL    HW128134   0.390   7.276   1.584
 5735SOL    HW228135   0.378   7.175   1.712
 5736SOL     OW28136   3.703   0.492   3.466
 5736SOL    HW128137   3.616   0.540   3.461
 5736SOL    HW228138   3.762   0.537   3.534
 5737SOL     OW28139   1.451   0.191   2.362
 5737SOL    HW128140   1.447   0.250   2.281
 5737SOL    HW228141   1.539   0.204   2.409
 5738SOL     OW28142   7.246   8.735   4.057
 5738SOL    HW128143   7.270   8.825   4.020
 5738SOL    HW228144   7.326   8.675   4.052
 5739SOL     OW28145   1.069   3.655   4.033
 5739SOL    HW128146   1.099   3.718   3.961
 5739SOL    HW228147   1.126   3.573   4.032
 5740SOL     OW28148   1.586   2.079   2.423
 5740SOL    HW128149   1.623   2.145   2.490
 5740SOL    HW228150   1.639   2.085   2.338
 5741SOL     OW28151   9.680   7.577   0.388
 5741SOL    HW128152   9.742   7.504   0.416
 5741SOL    HW228153   9.678   7.648   0.459
 5742SOL     OW28154   1.314   1.006   0.523
 5742SOL    HW128155   1.340   1.035   0.431
 5742SOL    HW228156   1.221   1.037   0.544
 5743SOL     OW28157   3.046   5.001   5.103
 5743SOL    HW128158   3.137   5.033   5.079
 5743SOL    HW228159   2.991   4.991   5.019
 5744SOL     OW28160   9.614   1.399   2.811
 5744SOL    HW128161   9.627   1.493   2.778
 5744SOL    HW228162   9.703   1.354   2.818
 5745SOL     OW28163   3.605   2.478   0.990
 5745SOL    HW128164   3.619   2.487   0.892
 5745SOL    HW228165   3.663   2.405   1.026
 5746SOL     OW28166   1.623   3.390   1.644
 5746SOL    HW128167   1.692   3.461   1.659
 5746SOL    HW228168   1.588   3.359   1.732
 5747SOL     OW28169   6.852   0.920   5.228
 5747SOL    HW128170   6.861   0.925   5.327
 5747SOL    HW228171   6.831   1.011   5.192
 5748SOL     OW28172   4.123   1.120   1.428
 5748SOL    HW128173   4.081   1.136   1.338
 5748SOL    HW228174   4.127   1.206   1.478
 5749SOL     OW28175   3.763   7.877   4.247
 5749SOL    HW128176   3.844   7.898   4.192
 5749SOL    HW228177   3.771   7.921   4.336
 5750SOL     OW28178   4.460   7.965   2.531
 5750SOL    HW128179   4.458   7.949   2.630
 5750SOL    HW228180   4.551   7.998   2.504
 5751SOL     OW28181   9.429   5.468   3.166
 5751SOL    HW128182   9.487   5.397   3.125
 5751SOL    HW228183   9.335   5.458   3.134
 5752SOL     OW28184   0.047   8.706   1.115
 5752SOL    HW128185   0.075   8.719   1.210
 5752SOL    HW228186   0.117   8.655   1.065
 5753SOL     OW28187   8.774   4.504   4.947
 5753SOL    HW128188   8.680   4.496   4.979
 5753SOL    HW228189   8.788   4.593   4.904
 5754SOL     OW28190   4.558   5.532   0.854
 5754SOL    HW128191   4.508   5.552   0.770
 5754SOL    HW228192   4.632   5.468   0.835
 5755SOL     OW28193   8.547   1.337   5.196
 5755SOL    HW128194   8.464   1.346   5.251
 5755SOL    HW228195   8.523   1.346   5.099
 5756SOL     OW28196   9.799   4.091   3.403
 5756SOL    HW128197   9.874   4.152   3.428
 5756SOL    HW228198   9.767   4.041   3.484
 5757SOL     OW28199   1.280   9.580   1.615
 5757SOL    HW128200   1.314   9.549   1.526
 5757SOL    HW228201   1.329   9.531   1.688
 5758SOL     OW28202   4.126   1.785   1.962
 5758SOL    HW128203   4.026   1.792   1.963
 5758SOL    HW228204   4.153   1.708   1.904
 5759SOL     OW28205   8.937   1.634   2.184
 5759SOL    HW128206   8.970   1.549   2.224
 5759SOL    HW228207   8.975   1.644   2.091
 5760SOL     OW28208   9.880   7.982   0.929
 5760SOL    HW128209   9.882   7.935   1.017
 5760SOL    HW228210   9.905   8.078   0.942
 5761SOL     OW28211   9.720   6.991   3.259
 5761SOL    HW128212   9.621   7.005   3.266
 5761SOL    HW228213   9.739   6.897   3.232
 5762SOL     OW28214   0.458   1.977   0.339
 5762SOL    HW128215   0.442   2.060   0.286
 5762SOL    HW228216   0.425   1.990   0.432
 5763SOL     OW28217   4.671   3.695   0.396
 5763SOL    HW128218   4.624   3.775   0.434
 5763SOL    HW228219   4.698   3.633   0.470
 5764SOL     OW28220   8.440   4.274   4.833
 5764SOL    HW128221   8.414   4.183   4.867
 5764SOL    HW228222   8.381   4.299   4.756
 5765SOL     OW28223   5.414   9.834   1.857
 5765SOL    HW128224   5.318   9.848   1.835
 5765SOL    HW228225   5.423   9.760   1.923
 5766SOL     OW28226   7.861   8.253   3.600
 5766SOL    HW128227   7.866   8.331   3.537
 5766SOL    HW228228   7.772   8.253   3.645
 5767SOL     OW28229   6.996   0.576   0.797
 5767SOL    HW128230   6.939   0.632   0.738
 5767SOL    HW228231   7.086   0.618   0.807
 5768SOL     OW28232   8.077   0.574   4.119
 5768SOL    HW128233   8.164   0.614   4.092
 5768SOL    HW228234   8.094   0.486   4.163
 5769SOL     OW28235   5.599   8.393   4.420
 5769SOL    HW128236   5.603   8.491   4.441
 5769SOL    HW228237   5.519   8.374   4.362
 5770SOL     OW28238   7.219   2.747   2.958
 5770SOL    HW128239   7.301   2.748   2.900
 5770SOL    HW228240   7.228   2.676   3.027
 5771SOL     OW28241   1.895   4.408   2.346
 5771SOL    HW128242   1.805   4.410   2.388
 5771SOL    HW228243   1.959   4.361   2.406
 5772SOL     OW28244   3.878   8.578   5.244
 5772SOL    HW128245   3.835   8.524   5.172
 5772SOL    HW228246   3.872   8.528   5.331
 5773SOL     OW28247   6.442   1.962   4.610
 5773SOL    HW128248   6.438   2.053   4.652
 5773SOL    HW228249   6.471   1.895   4.679
 5774SOL     OW28250   4.002   9.258   1.725
 5774SOL    HW128251   4.067   9.208   1.782
 5774SOL    HW228252   3.940   9.194   1.680
 5775SOL     OW28253   3.281   0.129   2.741
 5775SOL    HW128254   3.211   0.067   2.704
 5775SOL    HW228255   3.244   0.176   2.821
 5776SOL     OW28256   1.878   5.762   3.228
 5776SOL    HW128257   1.852   5.733   3.136
 5776SOL    HW228258   1.806   5.821   3.265
 5777SOL     OW28259   6.753   9.734   2.620
 5777SOL    HW128260   6.808   9.815   2.638
 5777SOL    HW228261   6.789   9.686   2.541
 5778SOL     OW28262   9.861   8.390   1.325
 5778SOL    HW128263   9.951   8.384   1.369
 5778SOL    HW228264   9.822   8.298   1.316
 5779SOL     OW28265   0.234   5.218   4.031
 5779SOL    HW128266   0.287   5.185   3.953
 5779SOL    HW228267   0.289   5.286   4.081
 5780SOL     OW28268   1.783   8.051   2.750
 5780SOL    HW128269   1.836   8.037   2.833
 5780SOL    HW228270   1.687   8.031   2.767
 5781SOL     OW28271   1.699   3.409   2.364
 5781SOL    HW128272   1.688   3.372   2.271
 5781SOL    HW228273   1.759   3.349   2.417
 5782SOL     OW28274   4.958   4.029   3.323
 5782SOL    HW128275   5.045   3.987   3.349
 5782SOL    HW228276   4.883   3.975   3.361
 5783SOL     OW28277   7.472   9.973   3.218
 5783SOL    HW128278   7.524   0.018   3.146
 5783SOL    HW228279   7.534   9.944   3.291
 5784SOL     OW28280   8.872   7.097   4.411
 5784SOL    HW128281   8.803   7.099   4.483
 5784SOL    HW228282   8.940   7.168   4.428
 5785SOL     OW28283   4.179   7.215   3.615
 5785SOL    HW128284   4.104   7.149   3.620
 5785SOL    HW228285   4.142   7.306   3.595
 5786SOL     OW28286   9.261   5.889   2.998
 5786SOL    HW128287   9.291   5.983   2.984
 5786SOL    HW228288   9.338   5.826   2.986
 5787SOL     OW28289   6.833   7.517   3.447
 5787SOL    HW128290   6.877   7.434   3.483
 5787SOL    HW228291   6.734   7.509   3.455
 5788SOL     OW28292   2.910   3.386   3.911
 5788SOL    HW128293   2.832   3.332   3.941
 5788SOL    HW228294   2.893   3.483   3.929
 5789SOL     OW28295   2.192   6.419   4.083
 5789SOL    HW128296   2.222   6.515   4.091
 5789SOL    HW228297   2.261   6.366   4.035
 5790SOL     OW28298   4.777   5.992   2.251
 5790SOL    HW128299   4.713   5.937   2.197
 5790SOL    HW228300   4.726   6.062   2.302
 5791SOL     OW28301   1.361   4.487   0.892
 5791SOL    HW128302   1.335   4.390   0.895
 5791SOL    HW228303   1.450   4.499   0.935
 5792SOL     OW28304   0.976   8.880   0.937
 5792SOL    HW128305   1.069   8.845   0.946
 5792SOL    HW228306   0.975   8.978   0.958
 5793SOL     OW28307   2.037   4.586   4.330
 5793SOL    HW128308   1.948   4.552   4.360
 5793SOL    HW228309   2.109   4.543   4.384
 5794SOL     OW28310   3.862   8.321   1.141
 5794SOL    HW128311   3.951   8.314   1.187
 5794SOL    HW228312   3.875   8.319   1.042
 5795SOL     OW28313   0.255   5.344   2.729
 5795SOL    HW128314   0.178   5.281   2.732
 5795SOL    HW228315   0.268   5.385   2.820
 5796SOL     OW28316   1.609   2.004   1.707
 5796SOL    HW128317   1.680   2.059   1.664
 5796SOL    HW228318   1.519   2.041   1.683
 5797SOL     OW28319   9.030   5.798   4.610
 5797SOL    HW128320   9.118   5.794   4.565
 5797SOL    HW228321   8.960   5.830   4.546
 5798SOL     OW28322   3.482   7.210   2.761
 5798SOL    HW128323   3.512   7.208   2.666
 5798SOL    HW228324   3.383   7.226   2.765
 5799SOL     OW28325   7.421   3.110   1.906
 5799SOL    HW128326   7.343   3.051   1.924
 5799SOL    HW228327   7.436   3.170   1.984
 5800SOL     OW28328   0.861   4.811   0.187
 5800SOL    HW128329   0.953   4.795   0.151
 5800SOL    HW228330   0.867   4.847   0.280
 5801SOL     OW28331   4.262   0.164   2.060
 5801SOL    HW128332   4.317   0.082   2.077
 5801SOL    HW228333   4.306   0.243   2.102
 5802SOL     OW28334   2.530   0.448   4.031
 5802SOL    HW128335   2.489   0.385   4.097
 5802SOL    HW228336   2.459   0.512   3.999
 5803SOL     OW28337   6.878   4.266   1.225
 5803SOL    HW128338   6.903   4.320   1.306
 5803SOL    HW228339   6.825   4.323   1.162
 5804SOL     OW28340   3.166   9.619   4.319
 5804SOL    HW128341   3.169   9.589   4.223
 5804SOL    HW228342   3.167   9.539   4.379
 5805SOL     OW28343   1.827   0.002   1.256
 5805SOL    HW128344   1.926   0.004   1.240
 5805SOL    HW228345   1.784   0.080   1.210
 5806SOL     OW28346   4.921   0.732   2.434
 5806SOL    HW128347   4.841   0.753   2.489
 5806SOL    HW228348   4.896   0.728   2.337
 5807SOL     OW28349   7.943   4.902   5.106
 5807SOL    HW128350   7.880   4.893   5.183
 5807SOL    HW228351   7.999   4.820   5.099
 5808SOL     OW28352   1.243   7.588   3.831
 5808SOL    HW128353   1.160   7.543   3.800
 5808SOL    HW228354   1.237   7.606   3.930
 5809SOL     OW28355   4.593   0.008   0.767
 5809SOL    HW128356   4.496   0.027   0.752
 5809SOL    HW228357   4.603   9.920   0.813
 5810SOL     OW28358   9.396   3.708   2.125
 5810SOL    HW128359   9.465   3.744   2.187
 5810SOL    HW228360   9.435   3.696   2.034
 5811SOL     OW28361   8.227   8.229   4.172
 5811SOL    HW128362   8.222   8.181   4.259
 5811SOL    HW228363   8.166   8.186   4.106
 5812SOL     OW28364   8.383   1.104   4.580
 5812SOL    HW128365   8.340   1.182   4.624
 5812SOL    HW228366   8.405   1.035   4.649
 5813SOL     OW28367   8.436   5.498   3.913
 5813SOL    HW128368   8.447   5.479   4.010
 5813SOL    HW228369   8.507   5.562   3.883
 5814SOL     OW28370   2.835   3.911   0.980
 5814SOL    HW128371   2.892   3.936   1.057
 5814SOL    HW228372   2.861   3.964   0.899
 5815SOL     OW28373   0.420   3.737   4.976
 5815SOL    HW128374   0.518   3.752   4.969
 5815SOL    HW228375   0.377   3.755   4.887
 5816SOL     OW28376   2.872   4.391   3.257
 5816SOL    HW128377   2.913   4.303   3.281
 5816SOL    HW228378   2.900   4.461   3.323
 5817SOL     OW28379   7.963   3.303   1.127
 5817SOL    HW128380   8.054   3.325   1.162
 5817SOL    HW228381   7.919   3.236   1.186
 5818SOL     OW28382   2.882   9.724   4.713
 5818SOL    HW128383   2.942   9.753   4.638
 5818SOL    HW228384   2.788   9.753   4.693
 5819SOL     OW28385   3.273   8.073   3.231
 5819SOL    HW128386   3.333   8.004   3.191
 5819SOL    HW228387   3.194   8.028   3.273
 5820SOL     OW28388   8.956   8.501   4.229
 5820SOL    HW128389   8.883   8.482   4.294
 5820SOL    HW228390   8.974   8.419   4.174
 5821SOL     OW28391   8.239   0.195   2.416
 5821SOL    HW128392   8.279   0.104   2.422
 5821SOL    HW228393   8.307   0.263   2.443
 5822SOL     OW28394   7.936   0.294   3.915
 5822SOL    HW128395   7.905   0.271   4.008
 5822SOL    HW228396   7.925   0.392   3.899
 5823SOL     OW28397   8.702   4.407   4.311
 5823SOL    HW128398   8.694   4.441   4.405
 5823SOL    HW228399   8.679   4.309   4.309
 5824SOL     OW28400   4.965   3.390   2.562
 5824SOL    HW128401   4.999   3.475   2.523
 5824SOL    HW228402   4.992   3.384   2.658
 5825SOL     OW28403   8.420   0.683   0.705
 5825SOL    HW128404   8.348   0.680   0.636
 5825SOL    HW228405   8.484   0.757   0.683
 5826SOL     OW28406   0.280   9.264   2.474
 5826SOL    HW128407   0.349   9.209   2.520
 5826SOL    HW228408   0.242   9.331   2.538
 5827SOL     OW28409   8.418   3.106   0.519
 5827SOL    HW128410   8.427   3.027   0.458
 5827SOL    HW228411   8.473   3.092   0.601
 5828SOL     OW28412   3.242   3.991   1.712
 5828SOL    HW128413   3.324   3.948   1.676
 5828SOL    HW228414   3.174   4.001   1.639
 5829SOL     OW28415   0.545   9.500   4.751
 5829SOL    HW128416   0.533   9.503   4.651
 5829SOL    HW228417   0.486   9.568   4.793
 5830SOL     OW28418   6.079   1.009   2.299
 5830SOL    HW128419   6.095   1.054   2.211
 5830SOL    HW228420   6.133   0.926   2.303
 5831SOL     OW28421   2.061   9.333   4.914
 5831SOL    HW128422   2.069   9.367   5.007
 5831SOL    HW228423   1.994   9.259   4.911
 5832SOL     OW28424   9.911   1.898   2.996
 5832SOL    HW128425   0.000   1.893   2.952
 5832SOL    HW228426   9.916   1.958   3.076
 5833SOL     OW28427   9.613   0.646   2.723
 5833SOL    HW128428   9.596   0.622   2.819
 5833SOL    HW228429   9.704   0.685   2.714
 5834SOL     OW28430   3.572   5.244   4.802
 5834SOL    HW128431   3.587   5.338   4.830
 5834SOL    HW228432   3.656   5.207   4.762
 5835SOL     OW28433   8.045   2.567   0.880
 5835SOL    HW128434   8.092   2.541   0.964
 5835SOL    HW228435   8.107   2.554   0.802
 5836SOL     OW28436   1.535   9.313   4.278
 5836SOL    HW128437   1.504   9.333   4.371
 5836SOL    HW228438   1.462   9.266   4.228
 5837SOL     OW28439   7.409   8.350   3.306
 5837SOL    HW128440   7.318   8.373   3.271
 5837SOL    HW228441   7.469   8.326   3.230
 5838SOL     OW28442   3.197   2.981   1.615
 5838SOL    HW128443   3.125   3.024   1.669
 5838SOL    HW228444   3.282   2.979   1.668
 5839SOL     OW28445   4.073   1.818   0.265
 5839SOL    HW128446   4.147   1.872   0.305
 5839SOL    HW228447   4.080   1.821   0.166
 5840SOL     OW28448   0.028   3.249   0.938
 5840SOL    HW128449   0.102   3.185   0.957
 5840SOL    HW228450   9.978   3.268   1.023
 5841SOL     OW28451   9.203   7.495   0.166
 5841SOL    HW128452   9.135   7.488   0.239
 5841SOL    HW228453   9.285   7.541   0.201
 5842SOL     OW28454   1.210   6.014   2.796
 5842SOL    HW128455   1.218   6.036   2.893
 5842SOL    HW228456   1.151   5.934   2.785
 5843SOL     OW28457   8.357   4.600   3.938
 5843SOL    HW128458   8.351   4.556   4.027
 5843SOL    HW228459   8.447   4.582   3.897
 5844SOL     OW28460   6.999   0.796   4.664
 5844SOL    HW128461   6.926   0.863   4.674
 5844SOL    HW228462   7.076   0.822   4.722
 5845SOL     OW28463   3.746   2.330   4.610
 5845SOL    HW128464   3.799   2.246   4.622
 5845SOL    HW228465   3.650   2.313   4.634
 5846SOL     OW28466   8.591   8.246   0.326
 5846SOL    HW128467   8.678   8.294   0.335
 5846SOL    HW228468   8.569   8.200   0.412
 5847SOL     OW28469   0.530   1.546   0.827
 5847SOL    HW128470   0.554   1.596   0.911
 5847SOL    HW228471   0.433   1.522   0.829
 5848SOL     OW28472   9.610   8.523   3.365
 5848SOL    HW128473   9.550   8.455   3.322
 5848SOL    HW228474   9.599   8.518   3.465
 5849SOL     OW28475   9.871   7.681   4.744
 5849SOL    HW128476   9.798   7.633   4.791
 5849SOL    HW228477   9.865   7.779   4.763
 5850SOL     OW28478   5.859   9.913   2.714
 5850SOL    HW128479   5.794   9.941   2.784
 5850SOL    HW228480   5.884   9.817   2.727
 5851SOL     OW28481   3.090   7.081   3.929
 5851SOL    HW128482   3.173   7.079   3.874
 5851SOL    HW228483   3.099   7.152   3.999
 5852SOL     OW28484   2.748   1.193   3.391
 5852SOL    HW128485   2.808   1.269   3.366
 5852SOL    HW228486   2.655   1.212   3.359
 5853SOL     OW28487   9.100   7.654   0.849
 5853SOL    HW128488   9.064   7.575   0.799
 5853SOL    HW228489   9.090   7.736   0.792
 5854SOL     OW28490   0.266   4.648   4.746
 5854SOL    HW128491   0.352   4.609   4.780
 5854SOL    HW228492   0.221   4.581   4.688
 5855SOL     OW28493   9.596   3.483   0.334
 5855SOL    HW128494   9.639   3.396   0.311
 5855SOL    HW228495   9.599   3.544   0.255
 5856SOL     OW28496   9.278   6.716   1.959
 5856SOL    HW128497   9.240   6.804   1.991
 5856SOL    HW228498   9.269   6.648   2.032
 5857SOL     OW28499   8.892   9.184   1.199
 5857SOL    HW128500   8.887   9.284   1.200
 5857SOL    HW228501   8.816   9.147   1.146
 5858SOL     OW28502   0.476   0.775   0.209
 5858SOL    HW128503   0.408   0.710   0.243
 5858SOL    HW228504   0.442   0.868   0.219
 5859SOL     OW28505   3.864   4.946   5.019
 5859SOL    HW128506   3.850   4.878   5.091
 5859SOL    HW228507   3.788   5.010   5.019
 5860SOL     OW28508   3.469   7.311   5.123
 5860SOL    HW128509   3.428   7.224   5.150
 5860SOL    HW228510   3.557   7.294   5.079
 5861SOL     OW28511   8.519   2.910   2.857
 5861SOL    HW128512   8.508   2.874   2.950
 5861SOL    HW228513   8.543   2.835   2.795
 5862SOL     OW28514   2.879   0.817   0.824
 5862SOL    HW128515   2.904   0.913   0.831
 5862SOL    HW228516   2.835   0.800   0.736
 5863SOL     OW28517   1.076   8.699   2.725
 5863SOL    HW128518   1.135   8.624   2.752
 5863SOL    HW228519   1.021   8.672   2.646
 5864SOL     OW28520   4.179   9.765   1.982
 5864SOL    HW128521   4.216   9.708   1.908
 5864SOL    HW228522   4.145   9.852   1.943
 5865SOL     OW28523   7.143   8.654   3.656
 5865SOL    HW128524   7.215   8.586   3.671
 5865SOL    HW228525   7.089   8.666   3.740
 5866SOL     OW28526   6.163   2.060   4.280
 5866SOL    HW128527   6.212   2.142   4.251
 5866SOL    HW228528   6.082   2.047   4.221
 5867SOL     OW28529   6.813   1.272   4.588
 5867SOL    HW128530   6.767   1.357   4.561
 5867SOL    HW228531   6.901   1.294   4.630
 5868SOL     OW28532   8.045   1.699   0.502
 5868SOL    HW128533   8.139   1.666   0.503
 5868SOL    HW228534   8.001   1.674   0.416
 5869SOL     OW28535   2.086   2.681   1.765
 5869SOL    HW128536   2.170   2.629   1.748
 5869SOL    HW228537   2.086   2.763   1.709
 5870SOL     OW28538   3.043   7.607   4.565
 5870SOL    HW128539   3.089   7.571   4.647
 5870SOL    HW228540   2.980   7.679   4.592
 5871SOL     OW28541   8.025   8.898   4.851
 5871SOL    HW128542   8.030   8.820   4.914
 5871SOL    HW228543   7.932   8.906   4.816
 5872SOL     OW28544   9.789   0.498   4.101
 5872SOL    HW128545   9.689   0.496   4.096
 5872SOL    HW228546   9.823   0.411   4.136
 5873SOL     OW28547   0.907   4.824   3.934
 5873SOL    HW128548   0.877   4.761   3.862
 5873SOL    HW228549   0.902   4.918   3.899
 5874SOL     OW28550   5.096   0.942   2.457
 5874SOL    HW128551   5.028   0.870   2.442
 5874SOL    HW228552   5.128   0.939   2.552
 5875SOL     OW28553   4.127   8.664   0.088
 5875SOL    HW128554   4.044   8.637   0.138
 5875SOL    HW228555   4.146   8.761   0.105
 5876SOL     OW28556   6.286   9.059   4.712
 5876SOL    HW128557   6.309   8.965   4.736
 5876SOL    HW228558   6.258   9.108   4.795
 5877SOL     OW28559   4.812   0.372   4.750
 5877SOL    HW128560   4.739   0.343   4.687
 5877SOL    HW228561   4.780   0.363   4.844
 5878SOL     OW28562   6.558   7.543   3.444
 5878SOL    HW128563   6.530   7.577   3.355
 5878SOL    HW228564   6.541   7.614   3.513
 5879SOL     OW28565   7.764   8.324   2.900
 5879SOL    HW128566   7.810   8.240   2.926
 5879SOL    HW228567   7.810   8.402   2.942
 5880SOL     OW28568   1.588   2.686   4.608
 5880SOL    HW128569   1.504   2.635   4.590
 5880SOL    HW228570   1.649   2.678   4.529
 5881SOL     OW28571   2.151   7.572   0.775
 5881SOL    HW128572   2.121   7.511   0.848
 5881SOL    HW228573   2.079   7.639   0.756
 5882SOL     OW28574   6.887   2.544   0.469
 5882SOL    HW128575   6.838   2.629   0.486
 5882SOL    HW228576   6.971   2.542   0.523
 5883SOL     OW28577   2.022   0.684   2.531
 5883SOL    HW128578   2.045   0.649   2.622
 5883SOL    HW228579   2.099   0.738   2.496
 5884SOL     OW28580   4.465   0.630   2.084
 5884SOL    HW128581   4.392   0.697   2.077
 5884SOL    HW228582   4.535   0.649   2.015
 5885SOL     OW28583   3.691   6.712   1.543
 5885SOL    HW128584   3.761   6.769   1.499
 5885SOL    HW228585   3.614   6.769   1.571
 5886SOL     OW28586   0.014   3.977   0.228
 5886SOL    HW128587   0.030   3.892   0.178
 5886SOL    HW228588   9.962   4.040   0.171
 5887SOL     OW28589   4.943   0.495   0.480
 5887SOL    HW128590   4.936   0.422   0.412
 5887SOL    HW228591   4.924   0.459   0.571
 5888SOL     OW28592   3.734   8.863   3.522
 5888SOL    HW128593   3.801   8.793   3.546
 5888SOL    HW228594   3.660   8.822   3.470
 5889SOL     OW28595   9.952   9.485   3.873
 5889SOL    HW128596   0.020   9.554   3.847
 5889SOL    HW228597   9.867   9.530   3.900
 5890SOL     OW28598   7.648   9.631   3.448
 5890SOL    HW128599   7.592   9.620   3.366
 5890SOL    HW228600   7.629   9.557   3.512
 5891SOL     OW28601   4.912   5.554   1.107
 5891SOL    HW128602   4.978   5.549   1.182
 5891SOL    HW228603   4.902   5.649   1.078
 5892SOL     OW28604   7.522   2.353   1.965
 5892SOL    HW128605   7.577   2.284   1.918
 5892SOL    HW228606   7.546   2.354   2.062
 5893SOL     OW28607   2.383   0.299   0.214
 5893SOL    HW128608   2.287   0.270   0.208
 5893SOL    HW228609   2.388   0.398   0.226
 5894SOL     OW28610   2.190   0.509   1.696
 5894SOL    HW128611   2.179   0.483   1.792
 5894SOL    HW228612   2.187   0.428   1.638
 5895SOL     OW28613   2.895   8.379   2.615
 5895SOL    HW128614   2.954   8.336   2.548
 5895SOL    HW228615   2.947   8.446   2.668
 5896SOL     OW28616   8.281   2.774   4.276
 5896SOL    HW128617   8.272   2.837   4.353
 5896SOL    HW228618   8.194   2.767   4.228
 5897SOL     OW28619   0.536   6.154   0.461
 5897SOL    HW128620   0.628   6.114   0.461
 5897SOL    HW228621   0.516   6.191   0.551
 5898SOL     OW28622   9.397   6.821   4.076
 5898SOL    HW128623   9.424   6.743   4.021
 5898SOL    HW228624   9.400   6.904   4.021
 5899SOL     OW28625   9.786   0.843   2.414
 5899SOL    HW128626   9.716   0.911   2.437
 5899SOL    HW228627   9.822   0.802   2.497
 5900SOL     OW28628   5.287   0.129   1.158
 5900SOL    HW128629   5.317   0.126   1.063
 5900SOL    HW228630   5.360   0.166   1.215
 5901SOL     OW28631   9.409   1.636   1.483
 5901SOL    HW128632   9.494   1.683   1.460
 5901SOL    HW228633   9.379   1.664   1.574
 5902SOL     OW28634   7.423   4.323   0.567
 5902SOL    HW128635   7.352   4.295   0.503
 5902SOL    HW228636   7.513   4.317   0.522
 5903SOL     OW28637   1.856   7.072   1.857
 5903SOL    HW128638   1.762   7.050   1.830
 5903SOL    HW228639   1.877   7.027   1.944
 5904SOL     OW28640   4.539   0.774   3.146
 5904SOL    HW128641   4.455   0.815   3.184
 5904SOL    HW228642   4.543   0.792   3.048
 5905SOL     OW28643   6.607   8.010   3.099
 5905SOL    HW128644   6.702   8.012   3.068
 5905SOL    HW228645   6.554   7.948   3.041
 5906SOL     OW28646   7.407   9.451   4.584
 5906SOL    HW128647   7.501   9.471   4.610
 5906SOL    HW228648   7.350   9.531   4.603
 5907SOL     OW28649   1.126   5.804   0.327
 5907SOL    HW128650   1.177   5.871   0.273
 5907SOL    HW228651   1.188   5.756   0.388
 5908SOL     OW28652   3.820   4.253   2.431
 5908SOL    HW128653   3.798   4.284   2.523
 5908SOL    HW228654   3.916   4.271   2.411
 5909SOL     OW28655   6.546   8.515   4.399
 5909SOL    HW128656   6.569   8.612   4.390
 5909SOL    HW228657   6.614   8.469   4.457
 5910SOL     OW28658   7.462   0.971   1.663
 5910SOL    HW128659   7.550   0.929   1.686
 5910SOL    HW228660   7.477   1.059   1.619
 5911SOL     OW28661   7.243   2.574   3.191
 5911SOL    HW128662   7.336   2.611   3.205
 5911SOL    HW228663   7.178   2.630   3.242
 5912SOL     OW28664   7.400   0.529   2.919
 5912SOL    HW128665   7.329   0.508   2.986
 5912SOL    HW228666   7.490   0.509   2.957
 5913SOL     OW28667   2.080   4.691   3.144
 5913SOL    HW128668   2.019   4.632   3.196
 5913SOL    HW228669   2.075   4.784   3.179
 5914SOL     OW28670   7.078   2.948   2.584
 5914SOL    HW128671   6.998   2.939   2.644
 5914SOL    HW228672   7.129   3.030   2.608
 5915SOL     OW28673   9.376   7.998   4.554
 5915SOL    HW128674   9.393   8.066   4.483
 5915SOL    HW228675   9.457   7.991   4.613
 5916SOL     OW28676   8.466   0.289   0.461
 5916SOL    HW128677   8.549   0.247   0.423
 5916SOL    HW228678   8.489   0.334   0.548
 5917SOL     OW28679   1.417   0.247   0.571
 5917SOL    HW128680   1.509   0.268   0.603
 5917SOL    HW228681   1.394   0.152   0.594
 5918SOL     OW28682   3.299   2.401   3.881
 5918SOL    HW128683   3.218   2.446   3.918
 5918SOL    HW228684   3.276   2.356   3.795
 5919SOL     OW28685   2.735   1.662   5.182
 5919SOL    HW128686   2.679   1.695   5.106
 5919SOL    HW228687   2.809   1.728   5.199
 5920SOL     OW28688   2.304   5.409   1.207
 5920SOL    HW128689   2.238   5.464   1.257
 5920SOL    HW228690   2.348   5.345   1.270
 5921SOL     OW28691   4.760   9.806   5.100
 5921SOL    HW128692   4.848   9.852   5.112
 5921SOL    HW228693   4.699   9.864   5.046
 5922SOL     OW28694   3.034   0.277   1.777
 5922SOL    HW128695   3.095   0.197   1.780
 5922SOL    HW228696   3.072   0.345   1.714
 5923SOL     OW28697   3.071   4.154   4.108
 5923SOL    HW128698   3.031   4.188   4.193
 5923SOL    HW228699   3.159   4.200   4.092
 5924SOL     OW28700   1.681   7.861   1.462
 5924SOL    HW128701   1.741   7.917   1.520
 5924SOL    HW228702   1.707   7.764   1.472
 5925SOL     OW28703   9.679   9.460   3.076
 5925SOL    HW128704   9.729   9.378   3.106
 5925SOL    HW228705   9.593   9.466   3.126
 5926SOL     OW28706   3.295   8.253   0.536
 5926SOL    HW128707   3.350   8.246   0.453
 5926SOL    HW228708   3.353   8.285   0.612
 5927SOL     OW28709   3.771   7.636   3.702
 5927SOL    HW128710   3.739   7.576   3.629
 5927SOL    HW228711   3.833   7.586   3.762
 5928SOL     OW28712   3.232   5.654   0.556
 5928SOL    HW128713   3.147   5.606   0.536
 5928SOL    HW228714   3.283   5.604   0.626
 5929SOL     OW28715   4.472   1.751   1.834
 5929SOL    HW128716   4.554   1.775   1.783
 5929SOL    HW228717   4.423   1.834   1.860
 5930SOL     OW28718   6.097   1.255   0.915
 5930SOL    HW128719   6.002   1.236   0.886
 5930SOL    HW228720   6.128   1.339   0.872
 5931SOL     OW28721   3.595   4.108   1.653
 5931SOL    HW128722   3.693   4.094   1.669
 5931SOL    HW228723   3.548   4.020   1.651
 5932SOL     OW28724   0.454   8.129   1.621
 5932SOL    HW128725   0.394   8.165   1.693
 5932SOL    HW228726   0.537   8.092   1.662
 5933SOL     OW28727   8.345   7.317   3.586
 5933SOL    HW128728   8.335   7.259   3.506
 5933SOL    HW228729   8.310   7.270   3.667
 5934SOL     OW28730   1.391   8.143   0.799
 5934SOL    HW128731   1.348   8.158   0.710
 5934SOL    HW228732   1.404   8.045   0.813
 5935SOL     OW28733   1.039   7.385   2.195
 5935SOL    HW128734   1.056   7.342   2.107
 5935SOL    HW228735   0.948   7.358   2.228
 5936SOL     OW28736   4.763   2.746   0.141
 5936SOL    HW128737   4.749   2.649   0.120
 5936SOL    HW228738   4.707   2.801   0.080
 5937SOL     OW28739   6.083   9.674   4.498
 5937SOL    HW128740   6.105   9.592   4.551
 5937SOL    HW228741   5.998   9.659   4.448
 5938SOL     OW28742   9.443   2.207   3.028
 5938SOL    HW128743   9.471   2.297   2.993
 5938SOL    HW228744   9.416   2.149   2.951
 5939SOL     OW28745   4.691   2.885   1.618
 5939SOL    HW128746   4.768   2.907   1.678
 5939SOL    HW228747   4.605   2.908   1.664
 5940SOL     OW28748   6.716   0.611   3.589
 5940SOL    HW128749   6.670   0.670   3.523
 5940SOL    HW228750   6.700   0.515   3.564
 5941SOL     OW28751   6.978   0.865   2.188
 5941SOL    HW128752   6.933   0.937   2.241
 5941SOL    HW228753   7.067   0.845   2.230
 5942SOL     OW28754   4.485   7.915   2.798
 5942SOL    HW128755   4.557   7.955   2.855
 5942SOL    HW228756   4.505   7.818   2.782
 5943SOL     OW28757   7.680   7.783   5.235
 5943SOL    HW128758   7.670   7.858   5.171
 5943SOL    HW228759   7.695   7.820   5.327
 5944SOL     OW28760   2.155   8.432   1.772
 5944SOL    HW128761   2.206   8.416   1.856
 5944SOL    HW228762   2.096   8.354   1.752
 5945SOL     OW28763   0.127   6.338   2.416
 5945SOL    HW128764   0.181   6.372   2.493
 5945SOL    HW228765   0.167   6.370   2.330
 5946SOL     OW28766   4.799   5.643   3.176
 5946SOL    HW128767   4.875   5.596   3.221
 5946SOL    HW228768   4.830   5.678   3.087
 5947SOL     OW28769   4.900   3.154   2.174
 5947SOL    HW128770   4.907   3.055   2.184
 5947SOL    HW228771   4.875   3.195   2.262
 5948SOL     OW28772   2.845   7.054   3.617
 5948SOL    HW128773   2.776   7.028   3.686
 5948SOL    HW228774   2.801   7.104   3.543
 5949SOL     OW28775   6.515   7.104   4.692
 5949SOL    HW128776   6.497   7.189   4.742
 5949SOL    HW228777   6.598   7.061   4.729
 5950SOL     OW28778   3.337   2.312   4.878
 5950SOL    HW128779   3.265   2.377   4.856
 5950SOL    HW228780   3.396   2.298   4.798
 5951SOL     OW28781   2.088   5.416   3.959
 5951SOL    HW128782   2.131   5.500   3.994
 5951SOL    HW228783   2.028   5.378   4.029
 5952SOL     OW28784   1.849   8.915   3.940
 5952SOL    HW128785   1.900   8.845   3.990
 5952SOL    HW228786   1.899   9.001   3.945
 5953SOL     OW28787   7.271   8.997   3.998
 5953SOL    HW128788   7.179   9.029   3.974
 5953SOL    HW228789   7.319   9.068   4.050
 5954SOL     OW28790   2.275   5.274   0.253
 5954SOL    HW128791   2.326   5.202   0.300
 5954SOL    HW228792   2.200   5.233   0.200
 5955SOL     OW28793   7.487   3.235   0.514
 5955SOL    HW128794   7.473   3.319   0.565
 5955SOL    HW228795   7.467   3.250   0.417
 5956SOL     OW28796   8.194   5.202   4.427
 5956SOL    HW128797   8.235   5.146   4.355
 5956SOL    HW228798   8.152   5.283   4.386
 5957SOL     OW28799   2.612   1.018   4.685
 5957SOL    HW128800   2.696   1.027   4.737
 5957SOL    HW228801   2.616   0.936   4.628
 5958SOL     OW28802   3.527   5.942   1.334
 5958SOL    HW128803   3.587   5.862   1.340
 5958SOL    HW228804   3.581   6.025   1.335
 5959SOL     OW28805   2.633   7.354   4.114
 5959SOL    HW128806   2.605   7.414   4.039
 5959SOL    HW228807   2.559   7.345   4.179
 5960SOL     OW28808   0.410   6.797   1.870
 5960SOL    HW128809   0.357   6.822   1.951
 5960SOL    HW228810   0.408   6.872   1.804
 5961SOL     OW28811   8.354   9.180   1.111
 5961SOL    HW128812   8.404   9.120   1.047
 5961SOL    HW228813   8.319   9.125   1.186
 5962SOL     OW28814   9.976   5.074   4.592
 5962SOL    HW128815   0.059   5.074   4.536
 5962SOL    HW228816   9.911   5.008   4.554
 5963SOL     OW28817   2.338   5.659   2.755
 5963SOL    HW128818   2.305   5.611   2.836
 5963SOL    HW228819   2.265   5.718   2.720
 5964SOL     OW28820   1.606   3.255   4.012
 5964SOL    HW128821   1.610   3.309   3.928
 5964SOL    HW228822   1.553   3.171   3.995
 5965SOL     OW28823   8.317   5.394   1.070
 5965SOL    HW128824   8.379   5.400   1.148
 5965SOL    HW228825   8.367   5.421   0.987
 5966SOL     OW28826   1.326   8.038   1.781
 5966SOL    HW128827   1.371   8.007   1.697
 5966SOL    HW228828   1.376   8.001   1.860
 5967SOL     OW28829   9.563   6.050   4.282
 5967SOL    HW128830   9.658   6.036   4.254
 5967SOL    HW228831   9.547   6.147   4.299
 5968SOL     OW28832   8.484   5.893   0.598
 5968SOL    HW128833   8.470   5.987   0.631
 5968SOL    HW228834   8.568   5.856   0.639
 5969SOL     OW28835   8.380   3.678   5.152
 5969SOL    HW128836   8.392   3.606   5.083
 5969SOL    HW228837   8.283   3.700   5.161
 5970SOL     OW28838   9.020   0.425   4.924
 5970SOL    HW128839   9.117   0.404   4.912
 5970SOL    HW228840   9.010   0.521   4.952
 5971SOL     OW28841   2.488   4.156   2.304
 5971SOL    HW128842   2.527   4.162   2.212
 5971SOL    HW228843   2.559   4.170   2.372
 5972SOL     OW28844   1.140   7.836   4.480
 5972SOL    HW128845   1.222   7.841   4.424
 5972SOL    HW228846   1.094   7.748   4.466
 5973SOL     OW28847   0.602   8.610   0.095
 5973SOL    HW128848   0.520   8.558   0.121
 5973SOL    HW228849   0.588   8.707   0.114
 5974SOL     OW28850   0.514   5.254   2.664
 5974SOL    HW128851   0.559   5.327   2.612
 5974SOL    HW228852   0.417   5.276   2.674
 5975SOL     OW28853   9.676   3.910   0.096
 5975SOL    HW128854   9.745   3.967   0.052
 5975SOL    HW228855   9.709   3.881   0.186
 5976SOL     OW28856   0.996   4.451   3.499
 5976SOL    HW128857   0.982   4.366   3.447
 5976SOL    HW228858   1.015   4.526   3.436
 5977SOL     OW28859   8.745   4.486   3.401
 5977SOL    HW128860   8.825   4.546   3.410
 5977SOL    HW228861   8.731   4.463   3.305
 5978SOL     OW28862   8.206   4.236   3.549
 5978SOL    HW128863   8.222   4.305   3.620
 5978SOL    HW228864   8.209   4.145   3.590
 5979SOL     OW28865   1.989   7.859   1.778
 5979SOL    HW128866   2.010   7.802   1.698
 5979SOL    HW228867   2.074   7.897   1.815
 5980SOL     OW28868   6.296   9.748   2.290
 5980SOL    HW128869   6.309   9.832   2.343
 5980SOL    HW228870   6.268   9.772   2.197
 5981SOL     OW28871   6.943   0.124   5.316
 5981SOL    HW128872   6.936   0.041   5.261
 5981SOL    HW228873   6.949   0.100   5.413
 5982SOL     OW28874   9.559   5.036   3.635
 5982SOL    HW128875   9.644   4.985   3.651
 5982SOL    HW228876   9.483   4.989   3.680
 5983SOL     OW28877   1.750   4.161   4.367
 5983SOL    HW128878   1.692   4.095   4.414
 5983SOL    HW228879   1.707   4.252   4.371
 5984SOL     OW28880   3.068   2.587   1.056
 5984SOL    HW128881   3.164   2.580   1.030
 5984SOL    HW228882   3.050   2.526   1.134
 5985SOL     OW28883   2.837   9.470   5.075
 5985SOL    HW128884   2.867   9.562   5.049
 5985SOL    HW228885   2.916   9.415   5.101
 5986SOL     OW28886   1.572   3.405   0.753
 5986SOL    HW128887   1.566   3.431   0.850
 5986SOL    HW228888   1.626   3.474   0.704
 5987SOL     OW28889   6.068   9.044   1.886
 5987SOL    HW128890   6.122   9.115   1.841
 5987SOL    HW228891   5.989   9.085   1.930
 5988SOL     OW28892   8.028   0.504   2.500
 5988SOL    HW128893   7.980   0.485   2.414
 5988SOL    HW228894   8.100   0.571   2.484
 5989SOL     OW28895   7.242   2.956   1.474
 5989SOL    HW128896   7.183   3.027   1.438
 5989SOL    HW228897   7.337   2.976   1.450
 5990SOL     OW28898   3.506   1.835   2.916
 5990SOL    HW128899   3.533   1.798   3.004
 5990SOL    HW228900   3.471   1.928   2.927
 5991SOL     OW28901   9.812   9.236   3.180
 5991SOL    HW128902   9.725   9.187   3.180
 5991SOL    HW228903   9.882   9.180   3.223
 5992SOL     OW28904   0.403   8.012   3.859
 5992SOL    HW128905   0.387   8.033   3.763
 5992SOL    HW228906   0.465   7.934   3.867
 5993SOL     OW28907   9.325   4.670   0.164
 5993SOL    HW128908   9.252   4.613   0.201
 5993SOL    HW228909   9.411   4.619   0.164
 5994SOL     OW28910   2.068   8.047   0.339
 5994SOL    HW128911   1.974   8.015   0.348
 5994SOL    HW228912   2.070   8.136   0.295
 5995SOL     OW28913   3.481   5.242   0.173
 5995SOL    HW128914   3.489   5.181   0.252
 5995SOL    HW228915   3.570   5.250   0.129
 5996SOL     OW28916   5.101   7.616   2.365
 5996SOL    HW128917   5.158   7.590   2.287
 5996SOL    HW228918   5.116   7.713   2.386
 5997SOL     OW28919   9.085   9.625   5.149
 5997SOL    HW128920   9.158   9.678   5.194
 5997SOL    HW228921   9.086   9.532   5.184
 5998SOL     OW28922   3.136   2.814   1.888
 5998SOL    HW128923   3.098   2.906   1.875
 5998SOL    HW228924   3.130   2.762   1.803
 5999SOL     OW28925   1.177   9.280   0.638
 5999SOL    HW128926   1.250   9.248   0.698
 5999SOL    HW228927   1.092   9.230   0.658
 6000SOL     OW28928   1.781   2.460   5.010
 6000SOL    HW128929   1.725   2.524   4.958
 6000SOL    HW228930   1.860   2.508   5.049
 6001SOL     OW28931   5.275   8.222   4.915
 6001SOL    HW128932   5.346   8.152   4.919
 6001SOL    HW228933   5.263   8.253   4.821
 6002SOL     OW28934   1.198   8.101   1.241
 6002SOL    HW128935   1.282   8.117   1.294
 6002SOL    HW228936   1.207   8.143   1.151
 6003SOL     OW28937   3.433   2.105   4.187
 6003SOL    HW128938   3.363   2.117   4.117
 6003SOL    HW228939   3.462   2.195   4.221
 6004SOL     OW28940   7.626   4.003   1.380
 6004SOL    HW128941   7.528   3.991   1.364
 6004SOL    HW228942   7.651   3.960   1.467
 6005SOL     OW28943   8.793   5.490   4.133
 6005SOL    HW128944   8.838   5.402   4.119
 6005SOL    HW228945   8.843   5.544   4.201
 6006SOL     OW28946   1.035   9.801   1.809
 6006SOL    HW128947   1.088   9.881   1.839
 6006SOL    HW228948   1.021   9.805   1.710
 6007SOL     OW28949   8.819   9.620   4.221
 6007SOL    HW128950   8.901   9.564   4.214
 6007SOL    HW228951   8.738   9.563   4.204
 6008SOL     OW28952   1.395   3.067   1.306
 6008SOL    HW128953   1.475   3.047   1.363
 6008SOL    HW228954   1.363   2.982   1.263
 6009SOL     OW28955   5.555   1.320   1.233
 6009SOL    HW128956   5.653   1.322   1.212
 6009SOL    HW228957   5.510   1.248   1.179
 6010SOL     OW28958   8.486   8.271   3.093
 6010SOL    HW128959   8.548   8.286   3.169
 6010SOL    HW228960   8.430   8.353   3.078
 6011SOL     OW28961   2.701   5.944   0.691
 6011SOL    HW128962   2.652   6.017   0.740
 6011SOL    HW228963   2.665   5.855   0.719
 6012SOL     OW28964   7.123   9.321   2.057
 6012SOL    HW128965   7.188   9.278   1.995
 6012SOL    HW228966   7.162   9.406   2.093
 6013SOL     OW28967   2.517   6.435   4.426
 6013SOL    HW128968   2.605   6.481   4.433
 6013SOL    HW228969   2.445   6.495   4.463
 6014SOL     OW28970   0.365   5.215   3.548
 6014SOL    HW128971   0.410   5.175   3.468
 6014SOL    HW228972   0.266   5.204   3.539
 6015SOL     OW28973   8.107   7.365   4.886
 6015SOL    HW128974   8.132   7.451   4.841
 6015SOL    HW228975   8.072   7.384   4.978
 6016SOL     OW28976   2.989   9.287   2.851
 6016SOL    HW128977   2.977   9.270   2.949
 6016SOL    HW228978   3.006   9.385   2.836
 6017SOL     OW28979   2.502   8.712   4.761
 6017SOL    HW128980   2.565   8.788   4.776
 6017SOL    HW228981   2.480   8.668   4.848
 6018SOL     OW28982   8.439   6.334   3.581
 6018SOL    HW128983   8.377   6.311   3.506
 6018SOL    HW228984   8.404   6.297   3.667
 6019SOL     OW28985   0.943   8.643   2.494
 6019SOL    HW128986   0.885   8.692   2.429
 6019SOL    HW228987   0.960   8.551   2.460
 6020SOL     OW28988   0.800   1.968   1.579
 6020SOL    HW128989   0.858   1.898   1.622
 6020SOL    HW228990   0.766   2.031   1.649
 6021SOL     OW28991   3.757   3.717   2.285
 6021SOL    HW128992   3.811   3.659   2.345
 6021SOL    HW228993   3.766   3.813   2.313
 6022SOL     OW28994   4.034   2.616   1.885
 6022SOL    HW128995   4.087   2.669   1.951
 6022SOL    HW228996   4.090   2.596   1.805
 6023SOL     OW28997   2.985   0.855   1.310
 6023SOL    HW128998   2.926   0.845   1.230
 6023SOL    HW228999   2.974   0.946   1.349
 6024SOL     OW29000   8.289   4.544   0.222
 6024SOL    HW129001   8.367   4.502   0.269
 6024SOL    HW229002   8.204   4.521   0.270
 6025SOL     OW29003   7.028   2.712   3.300
 6025SOL    HW129004   7.017   2.759   3.212
 6025SOL    HW229005   6.938   2.697   3.340
 6026SOL     OW29006   8.045   0.625   1.486
 6026SOL    HW129007   7.991   0.547   1.456
 6026SOL    HW229008   8.064   0.685   1.408
 6027SOL     OW29009   0.345   1.615   1.195
 6027SOL    HW129010   0.372   1.620   1.291
 6027SOL    HW229011   0.425   1.634   1.137
 6028SOL     OW29012   1.422   3.620   3.382
 6028SOL    HW129013   1.375   3.561   3.447
 6028SOL    HW229014   1.368   3.627   3.298
 6029SOL     OW29015   2.582   7.930   2.007
 6029SOL    HW129016   2.676   7.964   1.997
 6029SOL    HW229017   2.577   7.836   1.975
 6030SOL     OW29018   5.172   6.297   2.310
 6030SOL    HW129019   5.233   6.298   2.389
 6030SOL    HW229020   5.171   6.206   2.269
 6031SOL     OW29021   7.838   9.315   3.891
 6031SOL    HW129022   7.769   9.296   3.961
 6031SOL    HW229023   7.891   9.395   3.918
 6032SOL     OW29024   7.949   2.004   0.909
 6032SOL    HW129025   8.033   2.030   0.956
 6032SOL    HW229026   7.970   1.934   0.840
 6033SOL     OW29027   4.372   7.210   3.800
 6033SOL    HW129028   4.300   7.215   3.731
 6033SOL    HW229029   4.424   7.125   3.789
 6034SOL     OW29030   3.756   8.422   5.055
 6034SOL    HW129031   3.676   8.362   5.059
 6034SOL    HW229032   3.830   8.376   5.005
 6035SOL     OW29033   9.576   6.475   1.949
 6035SOL    HW129034   9.513   6.404   1.917
 6035SOL    HW229035   9.639   6.435   2.015
 6036SOL     OW29036   8.272   9.390   0.957
 6036SOL    HW129037   8.296   9.359   0.865
 6036SOL    HW229038   8.297   9.319   1.023
 6037SOL     OW29039   1.501   3.316   4.832
 6037SOL    HW129040   1.501   3.320   4.732
 6037SOL    HW229041   1.541   3.400   4.868
 6038SOL     OW29042   2.068   8.720   4.952
 6038SOL    HW129043   2.136   8.751   4.886
 6038SOL    HW229044   2.012   8.649   4.910
 6039SOL     OW29045   3.066   2.411   3.237
 6039SOL    HW129046   3.081   2.485   3.302
 6039SOL    HW229047   2.981   2.429   3.186
 6040SOL     OW29048   3.946   1.839   3.268
 6040SOL    HW129049   3.908   1.801   3.352
 6040SOL    HW229050   4.043   1.861   3.282
 6041SOL     OW29051   0.927   9.410   3.953
 6041SOL    HW129052   0.889   9.321   3.977
 6041SOL    HW229053   0.887   9.481   4.011
 6042SOL     OW29054   9.508   8.510   5.089
 6042SOL    HW129055   9.510   8.438   5.158
 6042SOL    HW229056   9.493   8.470   4.998
 6043SOL     OW29057   8.001   8.994   1.894
 6043SOL    HW129058   8.083   9.050   1.903
 6043SOL    HW229059   7.990   8.937   1.975
 6044SOL     OW29060   0.676   7.854   4.095
 6044SOL    HW129061   0.642   7.832   4.003
 6044SOL    HW229062   0.776   7.863   4.092
 6045SOL     OW29063   7.026   0.688   2.993
 6045SOL    HW129064   6.933   0.707   3.027
 6045SOL    HW229065   7.027   0.695   2.894
 6046SOL     OW29066   2.100   7.450   5.195
 6046SOL    HW129067   2.080   7.366   5.145
 6046SOL    HW229068   2.052   7.449   5.283
 6047SOL     OW29069   9.141   1.671   1.415
 6047SOL    HW129070   9.092   1.587   1.439
 6047SOL    HW229071   9.238   1.660   1.439
 6048SOL     OW29072   7.232   1.316   2.564
 6048SOL    HW129073   7.201   1.410   2.555
 6048SOL    HW229074   7.322   1.314   2.607
 6049SOL     OW29075   6.918   0.465   1.118
 6049SOL    HW129076   6.873   0.551   1.096
 6049SOL    HW229077   6.914   0.404   1.039
 6050SOL     OW29078   5.247   0.462   1.522
 6050SOL    HW129079   5.243   0.489   1.426
 6050SOL    HW229080   5.238   0.362   1.530
 6051SOL     OW29081   1.024   6.589   2.526
 6051SOL    HW129082   1.049   6.493   2.517
 6051SOL    HW229083   1.076   6.643   2.460
 6052SOL     OW29084   6.062   0.049   5.088
 6052SOL    HW129085   6.025   9.957   5.106
 6052SOL    HW229086   6.080   0.059   4.991
 6053SOL     OW29087   3.364   0.990   3.221
 6053SOL    HW129088   3.302   1.067   3.211
 6053SOL    HW229089   3.416   1.000   3.306
 6054SOL     OW29090   6.742   7.546   2.951
 6054SOL    HW129091   6.766   7.571   3.045
 6054SOL    HW229092   6.643   7.540   2.943
 6055SOL     OW29093   0.811   6.714   3.446
 6055SOL    HW129094   0.903   6.676   3.450
 6055SOL    HW229095   0.757   6.679   3.522
 6056SOL     OW29096   1.392   8.449   1.072
 6056SOL    HW129097   1.464   8.404   1.019
 6056SOL    HW229098   1.410   8.547   1.077
 6057SOL     OW29099   9.800   6.772   4.352
 6057SOL    HW129100   9.881   6.712   4.360
 6057SOL    HW229101   9.828   6.867   4.366
 6058SOL     OW29102   1.124   4.762   0.124
 6058SOL    HW129103   1.176   4.841   0.091
 6058SOL    HW229104   1.133   4.754   0.223
 6059SOL     OW29105   1.714   7.643   0.622
 6059SOL    HW129106   1.617   7.622   0.625
 6059SOL    HW229107   1.742   7.660   0.527
 6060SOL     OW29108   8.818   7.848   1.317
 6060SOL    HW129109   8.792   7.773   1.377
 6060SOL    HW229110   8.871   7.813   1.240
 6061SOL     OW29111   2.873   0.987   4.782
 6061SOL    HW129112   2.922   1.053   4.838
 6061SOL    HW229113   2.901   0.996   4.686
 6062SOL     OW29114   1.213   9.380   0.968
 6062SOL    HW129115   1.143   9.446   0.943
 6062SOL    HW229116   1.182   9.325   1.045
 6063SOL     OW29117   8.523   2.005   5.139
 6063SOL    HW129118   8.437   2.021   5.090
 6063SOL    HW229119   8.588   2.077   5.117
 6064SOL     OW29120   7.882   8.471   3.405
 6064SOL    HW129121   7.918   8.547   3.459
 6064SOL    HW229122   7.783   8.482   3.395
 6065SOL     OW29123   7.856   3.112   3.199
 6065SOL    HW129124   7.857   3.020   3.162
 6065SOL    HW229125   7.821   3.109   3.293
 6066SOL     OW29126   8.831   2.436   2.624
 6066SOL    HW129127   8.824   2.501   2.700
 6066SOL    HW229128   8.751   2.377   2.624
 6067SOL     OW29129   0.586   9.204   3.430
 6067SOL    HW129130   0.617   9.274   3.365
 6067SOL    HW229131   0.598   9.114   3.389
 6068SOL     OW29132   9.930   2.372   4.422
 6068SOL    HW129133   0.009   2.311   4.419
 6068SOL    HW229134   9.851   2.325   4.381
 6069SOL     OW29135   6.843   1.784   1.909
 6069SOL    HW129136   6.936   1.816   1.890
 6069SOL    HW229137   6.846   1.688   1.938
 6070SOL     OW29138   8.543   8.005   4.252
 6070SOL    HW129139   8.457   7.959   4.228
 6070SOL    HW229140   8.585   7.959   4.330
 6071SOL     OW29141   9.881   6.617   2.231
 6071SOL    HW129142   9.962   6.633   2.174
 6071SOL    HW229143   9.869   6.694   2.293
 6072SOL     OW29144   9.315   8.886   0.109
 6072SOL    HW129145   9.238   8.828   0.136
 6072SOL    HW229146   9.399   8.832   0.107
 6073SOL     OW29147   1.705   3.267   1.411
 6073SOL    HW129148   1.681   3.307   1.500
 6073SOL    HW229149   1.718   3.341   1.345
 6074SOL     OW29150   9.547   2.101   0.902
 6074SOL    HW129151   9.465   2.098   0.960
 6074SOL    HW229152   9.628   2.111   0.959
 6075SOL     OW29153   3.308   2.603   4.600
 6075SOL    HW129154   3.259   2.675   4.552
 6075SOL    HW229155   3.309   2.520   4.545
 6076SOL     OW29156   2.451   7.856   0.235
 6076SOL    HW129157   2.448   7.857   0.335
 6076SOL    HW229158   2.522   7.792   0.205
 6077SOL     OW29159   3.010   2.087   2.987
 6077SOL    HW129160   3.092   2.128   3.029
 6077SOL    HW229161   2.931   2.102   3.047
 6078SOL     OW29162   1.632   3.846   0.558
 6078SOL    HW129163   1.673   3.899   0.631
 6078SOL    HW229164   1.578   3.906   0.499
 6079SOL     OW29165   3.665   8.240   4.571
 6079SOL    HW129166   3.680   8.277   4.480
 6079SOL    HW229167   3.619   8.308   4.628
 6080SOL     OW29168   2.021   8.620   1.619
 6080SOL    HW129169   1.988   8.700   1.670
 6080SOL    HW229170   2.062   8.555   1.682
 6081SOL     OW29171   5.326   4.624   1.457
 6081SOL    HW129172   5.353   4.546   1.513
 6081SOL    HW229173   5.400   4.692   1.458
 6082SOL     OW29174   9.071   1.686   0.530
 6082SOL    HW129175   8.998   1.739   0.573
 6082SOL    HW229176   9.104   1.735   0.449
 6083SOL     OW29177   6.555   1.363   5.087
 6083SOL    HW129178   6.456   1.358   5.075
 6083SOL    HW229179   6.595   1.274   5.065
 6084SOL     OW29180   0.703   7.214   0.952
 6084SOL    HW129181   0.731   7.145   1.019
 6084SOL    HW229182   0.779   7.276   0.934
 6085SOL     OW29183   6.816   9.873   2.969
 6085SOL    HW129184   6.796   9.778   2.944
 6085SOL    HW229185   6.753   9.902   3.041
 6086SOL     OW29186   0.550   9.704   3.578
 6086SOL    HW129187   0.573   9.789   3.625
 6086SOL    HW229188   0.465   9.668   3.615
 6087SOL     OW29189   8.203   9.304   3.288
 6087SOL    HW129190   8.231   9.326   3.195
 6087SOL    HW229191   8.268   9.239   3.327
 6088SOL     OW29192   9.742   5.788   4.757
 6088SOL    HW129193   9.807   5.849   4.803
 6088SOL    HW229194   9.751   5.798   4.658
 6089SOL     OW29195   1.327   7.362   2.269
 6089SOL    HW129196   1.385   7.433   2.231
 6089SOL    HW229197   1.234   7.371   2.234
 6090SOL     OW29198   9.390   7.299   4.656
 6090SOL    HW129199   9.318   7.368   4.656
 6090SOL    HW229200   9.480   7.344   4.649
 6091SOL     OW29201   8.374   0.106   3.035
 6091SOL    HW129202   8.437   0.164   3.086
 6091SOL    HW229203   8.326   0.160   2.966
 6092SOL     OW29204   4.094   2.138   2.800
 6092SOL    HW129205   4.148   2.060   2.831
 6092SOL    HW229206   4.060   2.189   2.880
 6093SOL     OW29207   1.967   7.553   1.337
 6093SOL    HW129208   1.913   7.487   1.285
 6093SOL    HW229209   2.053   7.571   1.289
 6094SOL     OW29210   2.885   3.946   5.183
 6094SOL    HW129211   2.975   3.990   5.174
 6094SOL    HW229212   2.891   3.851   5.152
 6095SOL     OW29213   2.273   6.615   0.135
 6095SOL    HW129214   2.243   6.665   0.054
 6095SOL    HW229215   2.373   6.607   0.134
 6096SOL     OW29216   6.535   8.524   2.613
 6096SOL    HW129217   6.541   8.574   2.527
 6096SOL    HW229218   6.466   8.452   2.605
 6097SOL     OW29219   9.626   1.981   1.898
 6097SOL    HW129220   9.621   1.989   1.798
 6097SOL    HW229221   9.577   2.057   1.940
 6098SOL     OW29222   9.401   8.657   2.432
 6098SOL    HW129223   9.402   8.616   2.523
 6098SOL    HW229224   9.480   8.624   2.380
 6099SOL     OW29225   9.602   3.678   5.189
 6099SOL    HW129226   9.569   3.644   5.277
 6099SOL    HW229227   9.532   3.736   5.147
 6100SOL     OW29228   9.909   0.436   2.567
 6100SOL    HW129229   9.942   0.381   2.490
 6100SOL    HW229230   9.811   0.420   2.580
 6101SOL     OW29231   5.188   8.723   3.765
 6101SOL    HW129232   5.115   8.779   3.805
 6101SOL    HW229233   5.164   8.626   3.774
 6102SOL     OW29234   2.637   2.613   2.814
 6102SOL    HW129235   2.588   2.527   2.801
 6102SOL    HW229236   2.571   2.689   2.819
 6103SOL     OW29237   9.237   1.228   1.805
 6103SOL    HW129238   9.333   1.250   1.823
 6103SOL    HW229239   9.231   1.160   1.732
 6104SOL     OW29240   5.198   9.897   2.444
 6104SOL    HW129241   5.181   9.799   2.431
 6104SOL    HW229242   5.280   9.923   2.392
 6105SOL     OW29243   8.395   5.971   4.331
 6105SOL    HW129244   8.405   6.001   4.426
 6105SOL    HW229245   8.413   6.048   4.270
 6106SOL     OW29246   9.857   6.838   3.029
 6106SOL    HW129247   9.829   6.915   2.972
 6106SOL    HW229248   9.955   6.823   3.020
 6107SOL     OW29249   2.099   7.417   4.394
 6107SOL    HW129250   2.191   7.438   4.361
 6107SOL    HW229251   2.036   7.489   4.366
 6108SOL     OW29252   8.084   3.565   3.289
 6108SOL    HW129253   8.070   3.617   3.205
 6108SOL    HW229254   8.132   3.623   3.356
 6109SOL     OW29255   4.957   7.556   3.472
 6109SOL    HW129256   5.009   7.493   3.530
 6109SOL    HW229257   4.881   7.594   3.524
 6110SOL     OW29258   2.744   7.518   3.243
 6110SOL    HW129259   2.811   7.547   3.311
 6110SOL    HW229260   2.772   7.430   3.204
 6111SOL     OW29261   2.177   8.473   3.479
 6111SOL    HW129262   2.111   8.475   3.403
 6111SOL    HW229263   2.145   8.533   3.552
 6112SOL     OW29264   9.521   4.230   0.412
 6112SOL    HW129265   9.439   4.233   0.468
 6112SOL    HW229266   9.497   4.210   0.317
 6113SOL     OW29267   4.536   2.089   1.491
 6113SOL    HW129268   4.505   2.104   1.585
 6113SOL    HW229269   4.519   1.994   1.465
 6114SOL     OW29270   7.357   1.900   4.344
 6114SOL    HW129271   7.273   1.937   4.382
 6114SOL    HW229272   7.436   1.948   4.383
 6115SOL     OW29273   7.443   1.112   3.631
 6115SOL    HW129274   7.526   1.143   3.677
 6115SOL    HW229275   7.367   1.111   3.695
 6116SOL     OW29276   2.479   7.220   5.172
 6116SOL    HW129277   2.461   7.267   5.258
 6116SOL    HW229278   2.396   7.218   5.116
 6117SOL     OW29279   0.825   4.470   1.639
 6117SOL    HW129280   0.924   4.454   1.638
 6117SOL    HW229281   0.792   4.468   1.733
 6118SOL     OW29282   6.367   0.553   0.901
 6118SOL    HW129283   6.353   0.652   0.913
 6118SOL    HW229284   6.465   0.533   0.901
 6119SOL     OW29285   1.442   5.779   5.024
 6119SOL    HW129286   1.499   5.791   5.105
 6119SOL    HW229287   1.385   5.861   5.011
 6120SOL     OW29288   0.398   8.801   1.005
 6120SOL    HW129289   0.433   8.796   0.911
 6120SOL    HW229290   0.359   8.713   1.030
 6121SOL     OW29291   3.795   5.113   4.705
 6121SOL    HW129292   3.726   5.041   4.711
 6121SOL    HW229293   3.883   5.073   4.680
 6122SOL     OW29294   8.993   9.684   2.645
 6122SOL    HW129295   9.085   9.674   2.606
 6122SOL    HW229296   9.000   9.689   2.744
 6123SOL     OW29297   3.898   8.599   1.147
 6123SOL    HW129298   3.823   8.654   1.184
 6123SOL    HW229299   3.873   8.503   1.149
 6124SOL     OW29300   2.610   2.063   2.982
 6124SOL    HW129301   2.668   2.055   2.901
 6124SOL    HW229302   2.667   2.080   3.062
 6125SOL     OW29303   9.329   7.600   0.521
 6125SOL    HW129304   9.257   7.669   0.534
 6125SOL    HW229305   9.362   7.604   0.426
 6126SOL     OW29306   8.606   8.419   2.226
 6126SOL    HW129307   8.656   8.355   2.168
 6126SOL    HW229308   8.637   8.513   2.208
 6127SOL     OW29309   1.610   7.916   4.971
 6127SOL    HW129310   1.707   7.928   4.948
 6127SOL    HW229311   1.594   7.944   5.066
 6128SOL     OW29312   2.890   9.619   0.154
 6128SOL    HW129313   2.793   9.598   0.140
 6128SOL    HW229314   2.899   9.708   0.197
 6129SOL     OW29315   5.417   8.738   3.608
 6129SOL    HW129316   5.333   8.737   3.663
 6129SOL    HW229317   5.494   8.711   3.666
 6130SOL     OW29318   3.039   8.080   4.366
 6130SOL    HW129319   3.101   8.020   4.416
 6130SOL    HW229320   2.975   8.025   4.312
 6131SOL     OW29321   0.204   4.079   0.395
 6131SOL    HW129322   0.137   4.047   0.328
 6131SOL    HW229323   0.239   4.001   0.447
 6132SOL     OW29324   4.178   1.292   4.411
 6132SOL    HW129325   4.117   1.300   4.490
 6132SOL    HW229326   4.229   1.207   4.416
 6133SOL     OW29327   8.540   6.977   2.895
 6133SOL    HW129328   8.582   7.054   2.849
 6133SOL    HW229329   8.517   6.906   2.828
 6134SOL     OW29330   9.852   8.196   2.380
 6134SOL    HW129331   9.927   8.261   2.370
 6134SOL    HW229332   9.850   8.134   2.302
 6135SOL     OW29333   1.176   4.547   4.214
 6135SOL    HW129334   1.159   4.637   4.174
 6135SOL    HW229335   1.250   4.554   4.281
 6136SOL     OW29336   8.904   4.179   3.895
 6136SOL    HW129337   9.002   4.175   3.880
 6136SOL    HW229338   8.874   4.275   3.897
 6137SOL     OW29339   7.277   1.593   2.560
 6137SOL    HW129340   7.356   1.544   2.597
 6137SOL    HW229341   7.304   1.641   2.476
 6138SOL     OW29342   5.287   6.428   2.090
 6138SOL    HW129343   5.224   6.443   2.014
 6138SOL    HW229344   5.236   6.389   2.167
 6139SOL     OW29345   5.144   9.261   1.779
 6139SOL    HW129346   5.129   9.176   1.728
 6139SOL    HW229347   5.211   9.246   1.851
 6140SOL     OW29348   6.602   9.083   3.523
 6140SOL    HW129349   6.587   9.182   3.526
 6140SOL    HW229350   6.517   9.038   3.495
 6141SOL     OW29351   1.403   7.302   2.655
 6141SOL    HW129352   1.430   7.252   2.574
 6141SOL    HW229353   1.386   7.398   2.631
 6142SOL     OW29354   7.476   1.432   2.660
 6142SOL    HW129355   7.547   1.422   2.590
 6142SOL    HW229356   7.519   1.457   2.747
 6143SOL     OW29357   1.604   7.401   4.793
 6143SOL    HW129358   1.618   7.408   4.694
 6143SOL    HW229359   1.691   7.419   4.840
 6144SOL     OW29360   4.405   9.329   2.912
 6144SOL    HW129361   4.386   9.243   2.959
 6144SOL    HW229362   4.461   9.311   2.831
 6145SOL     OW29363   7.009   0.110   1.590
 6145SOL    HW129364   6.991   0.036   1.526
 6145SOL    HW229365   6.927   0.167   1.599
 6146SOL     OW29366   0.695   0.269   1.118
 6146SOL    HW129367   0.753   0.330   1.171
 6146SOL    HW229368   0.749   0.191   1.085
 6147SOL     OW29369   6.109   7.354   4.295
 6147SOL    HW129370   6.174   7.430   4.297
 6147SOL    HW229371   6.138   7.283   4.358
 6148SOL     OW29372   0.865   9.181   0.457
 6148SOL    HW129373   0.901   9.163   0.549
 6148SOL    HW229374   0.903   9.267   0.423
 6149SOL     OW29375   0.247   2.352   2.392
 6149SOL    HW129376   0.321   2.377   2.330
 6149SOL    HW229377   0.280   2.350   2.486
 6150SOL     OW29378   8.152   1.062   4.375
 6150SOL    HW129379   8.232   1.040   4.432
 6150SOL    HW229380   8.069   1.034   4.423
 6151SOL     OW29381   3.029   8.576   2.758
 6151SOL    HW129382   3.081   8.660   2.737
 6151SOL    HW229383   3.085   8.516   2.814
 6152SOL     OW29384   6.038   2.232   3.701
 6152SOL    HW129385   5.961   2.179   3.664
 6152SOL    HW229386   6.093   2.269   3.626
 6153SOL     OW29387   5.238   1.454   3.793
 6153SOL    HW129388   5.173   1.457   3.717
 6153SOL    HW229389   5.326   1.422   3.761
 6154SOL     OW29390   0.390   4.236   2.601
 6154SOL    HW129391   0.404   4.300   2.677
 6154SOL    HW229392   0.471   4.179   2.591
 6155SOL     OW29393   8.783   0.998   5.047
 6155SOL    HW129394   8.713   1.038   4.988
 6155SOL    HW229395   8.767   0.899   5.055
 6156SOL     OW29396   1.515   5.180   5.205
 6156SOL    HW129397   1.545   5.272   5.229
 6156SOL    HW229398   1.584   5.135   5.149
 6157SOL     OW29399   7.413   0.472   4.094
 6157SOL    HW129400   7.363   0.414   4.031
 6157SOL    HW229401   7.509   0.476   4.066
 6158SOL     OW29402   4.338   7.692   3.802
 6158SOL    HW129403   4.392   7.608   3.790
 6158SOL    HW229404   4.398   7.768   3.827
 6159SOL     OW29405   9.247   7.697   1.233
 6159SOL    HW129406   9.172   7.710   1.169
 6159SOL    HW229407   9.329   7.741   1.196
 6160SOL     OW29408   3.389   8.605   3.676
 6160SOL    HW129409   3.407   8.570   3.585
 6160SOL    HW229410   3.344   8.694   3.669
 6161SOL     OW29411   0.856   0.269   2.608
 6161SOL    HW129412   0.792   0.248   2.682
 6161SOL    HW229413   0.931   0.324   2.644
 6162SOL     OW29414   4.027   3.206   5.119
 6162SOL    HW129415   4.091   3.143   5.074
 6162SOL    HW229416   3.934   3.184   5.092
 6163SOL     OW29417   0.300   3.138   2.064
 6163SOL    HW129418   0.336   3.055   2.022
 6163SOL    HW229419   0.287   3.124   2.162
 6164SOL     OW29420   4.845   2.800   4.060
 6164SOL    HW129421   4.889   2.866   4.120
 6164SOL    HW229422   4.774   2.845   4.005
 6165SOL     OW29423   4.228   4.766   2.393
 6165SOL    HW129424   4.262   4.738   2.483
 6165SOL    HW229425   4.194   4.860   2.399
 6166SOL     OW29426   0.073   6.588   4.915
 6166SOL    HW129427   0.161   6.625   4.945
 6166SOL    HW229428   0.071   6.489   4.930
 6167SOL     OW29429   1.612   0.947   3.117
 6167SOL    HW129430   1.684   0.951   3.186
 6167SOL    HW229431   1.534   0.896   3.153
 6168SOL     OW29432   0.172   1.340   2.178
 6168SOL    HW129433   0.224   1.343   2.264
 6168SOL    HW229434   0.235   1.324   2.102
 6169SOL     OW29435   1.426   7.300   1.792
 6169SOL    HW129436   1.453   7.280   1.887
 6169SOL    HW229437   1.402   7.396   1.784
 6170SOL     OW29438   5.705   8.883   4.958
 6170SOL    HW129439   5.679   8.979   4.958
 6170SOL    HW229440   5.636   8.830   5.007
 6171SOL     OW29441   9.785   4.876   3.676
 6171SOL    HW129442   9.823   4.844   3.589
 6171SOL    HW229443   9.856   4.873   3.746
 6172SOL     OW29444   0.703   8.880   3.252
 6172SOL    HW129445   0.787   8.919   3.213
 6172SOL    HW229446   0.716   8.861   3.349
 6173SOL     OW29447   1.039   8.784   5.147
 6173SOL    HW129448   0.988   8.869   5.131
 6173SOL    HW229449   1.113   8.776   5.082
 6174SOL     OW29450   2.297   0.779   2.171
 6174SOL    HW129451   2.285   0.692   2.219
 6174SOL    HW229452   2.210   0.827   2.165
 6175SOL     OW29453   2.306   0.592   3.978
 6175SOL    HW129454   2.256   0.593   3.891
 6175SOL    HW229455   2.241   0.591   4.054
 6176SOL     OW29456   2.401   7.647   2.564
 6176SOL    HW129457   2.441   7.738   2.560
 6176SOL    HW229458   2.466   7.581   2.525
 6177SOL     OW29459   4.537   6.989   3.030
 6177SOL    HW129460   4.567   6.953   3.119
 6177SOL    HW229461   4.446   7.028   3.039
 6178SOL     OW29462   1.108   9.598   2.784
 6178SOL    HW129463   1.205   9.621   2.786
 6178SOL    HW229464   1.067   9.632   2.700
 6179SOL     OW29465   3.720   9.648   0.233
 6179SOL    HW129466   3.647   9.656   0.301
 6179SOL    HW229467   3.724   9.554   0.199
 6180SOL     OW29468   4.905   1.427   1.992
 6180SOL    HW129469   4.948   1.422   1.902
 6180SOL    HW229470   4.957   1.371   2.057
 6181SOL     OW29471   4.989   1.898   3.108
 6181SOL    HW129472   5.051   1.855   3.173
 6181SOL    HW229473   4.948   1.980   3.149
 6182SOL     OW29474   1.090   7.342   3.053
 6182SOL    HW129475   1.160   7.384   3.111
 6182SOL    HW229476   1.125   7.257   3.016
 6183SOL     OW29477   2.983   7.518   1.165
 6183SOL    HW129478   2.886   7.494   1.170
 6183SOL    HW229479   3.022   7.480   1.080
 6184SOL     OW29480   0.074   2.276   4.103
 6184SOL    HW129481   0.164   2.309   4.074
 6184SOL    HW229482   0.081   2.231   4.192
 6185SOL     OW29483   3.192   8.213   1.436
 6185SOL    HW129484   3.263   8.143   1.425
 6185SOL    HW229485   3.162   8.215   1.531
 6186SOL     OW29486   3.561   6.438   4.389
 6186SOL    HW129487   3.563   6.339   4.382
 6186SOL    HW229488   3.608   6.478   4.311
 6187SOL     OW29489   0.050   0.682   0.425
 6187SOL    HW129490   0.014   0.771   0.394
 6187SOL    HW229491   0.043   0.677   0.524
 6188SOL     OW29492   8.349   4.251   3.112
 6188SOL    HW129493   8.376   4.250   3.208
 6188SOL    HW229494   8.259   4.294   3.104
 6189SOL     OW29495   5.428   9.262   1.444
 6189SOL    HW129496   5.461   9.298   1.531
 6189SOL    HW229497   5.505   9.224   1.392
 6190SOL     OW29498   0.825   4.708   3.186
 6190SOL    HW129499   0.743   4.724   3.242
 6190SOL    HW229500   0.899   4.675   3.245
 6191SOL     OW29501   7.765   7.606   3.603
 6191SOL    HW129502   7.759   7.703   3.577
 6191SOL    HW229503   7.816   7.556   3.533
 6192SOL     OW29504   8.571   7.463   1.620
 6192SOL    HW129505   8.614   7.482   1.708
 6192SOL    HW229506   8.572   7.364   1.603
 6193SOL     OW29507   3.473   6.960   2.874
 6193SOL    HW129508   3.448   6.965   2.971
 6193SOL    HW229509   3.477   7.052   2.836
 6194SOL     OW29510   8.670   7.634   0.954
 6194SOL    HW129511   8.570   7.623   0.950
 6194SOL    HW229512   8.702   7.608   1.045
 6195SOL     OW29513   9.963   4.496   0.434
 6195SOL    HW129514   9.971   4.575   0.494
 6195SOL    HW229515   9.935   4.526   0.343
 6196SOL     OW29516   8.712   5.075   3.765
 6196SOL    HW129517   8.770   5.018   3.707
 6196SOL    HW229518   8.726   5.051   3.861
 6197SOL     OW29519   2.047   0.222   2.684
 6197SOL    HW129520   2.093   0.143   2.644
 6197SOL    HW229521   2.036   0.293   2.614
 6198SOL     OW29522   9.899   5.979   0.959
 6198SOL    HW129523   9.978   5.987   0.898
 6198SOL    HW229524   9.929   5.995   1.053
 6199SOL     OW29525   1.349   9.774   4.445
 6199SOL    HW129526   1.311   9.796   4.535
 6199SOL    HW229527   1.309   9.689   4.411
 6200SOL     OW29528   1.585   5.615   4.858
 6200SOL    HW129529   1.547   5.690   4.912
 6200SOL    HW229530   1.580   5.637   4.761
 6201SOL     OW29531   9.538   3.274   4.611
 6201SOL    HW129532   9.446   3.235   4.610
 6201SOL    HW229533   9.604   3.203   4.636
 6202SOL     OW29534   1.438   3.445   4.119
 6202SOL    HW129535   1.509   3.382   4.088
 6202SOL    HW229536   1.438   3.526   4.060
 6203SOL     OW29537   8.535   8.625   3.425
 6203SOL    HW129538   8.472   8.549   3.438
 6203SOL    HW229539   8.626   8.591   3.405
 6204SOL     OW29540   9.809   9.127   1.139
 6204SOL    HW129541   9.784   9.203   1.199
 6204SOL    HW229542   9.896   9.146   1.095
 6205SOL     OW29543   3.478   8.107   2.069
 6205SOL    HW129544   3.541   8.182   2.048
 6205SOL    HW229545   3.447   8.115   2.163
 6206SOL     OW29546   0.835   1.945   0.554
 6206SOL    HW129547   0.762   1.883   0.580
 6206SOL    HW229548   0.809   1.993   0.470
 6207SOL     OW29549   7.690   0.448   4.283
 6207SOL    HW129550   7.697   0.544   4.256
 6207SOL    HW229551   7.597   0.429   4.316
 6208SOL     OW29552   6.795   8.676   3.421
 6208SOL    HW129553   6.750   8.728   3.494
 6208SOL    HW229554   6.808   8.735   3.341
 6209SOL     OW29555   9.597   7.705   1.909
 6209SOL    HW129556   9.605   7.746   1.818
 6209SOL    HW229557   9.516   7.646   1.911
 6210SOL     OW29558   9.164   6.168   4.712
 6210SOL    HW129559   9.237   6.100   4.703
 6210SOL    HW229560   9.167   6.231   4.634
 6211SOL     OW29561   3.091   3.628   1.670
 6211SOL    HW129562   3.098   3.681   1.754
 6211SOL    HW229563   3.164   3.559   1.667
 6212SOL     OW29564   9.457   4.114   4.153
 6212SOL    HW129565   9.388   4.044   4.133
 6212SOL    HW229566   9.519   4.081   4.224
 6213SOL     OW29567   4.962   8.214   3.371
 6213SOL    HW129568   4.917   8.126   3.389
 6213SOL    HW229569   4.925   8.283   3.433
 6214SOL     OW29570   2.622   1.547   2.506
 6214SOL    HW129571   2.569   1.632   2.509
 6214SOL    HW229572   2.662   1.535   2.415
 6215SOL     OW29573   1.588   9.827   0.480
 6215SOL    HW129574   1.519   9.880   0.530
 6215SOL    HW229575   1.656   9.890   0.442
 6216SOL     OW29576   1.129   5.074   2.607
 6216SOL    HW129577   1.108   5.076   2.704
 6216SOL    HW229578   1.192   4.998   2.588
 6217SOL     OW29579   1.787   6.207   2.284
 6217SOL    HW129580   1.872   6.181   2.238
 6217SOL    HW229581   1.780   6.159   2.371
 6218SOL     OW29582   3.826   1.718   1.459
 6218SOL    HW129583   3.796   1.671   1.376
 6218SOL    HW229584   3.926   1.725   1.459
 6219SOL     OW29585   9.308   7.384   4.960
 6219SOL    HW129586   9.307   7.287   4.936
 6219SOL    HW229587   9.274   7.396   5.053
 6220SOL     OW29588   9.389   7.636   4.906
 6220SOL    HW129589   9.363   7.682   4.990
 6220SOL    HW229590   9.363   7.539   4.911
 6221SOL     OW29591   9.230   7.019   0.745
 6221SOL    HW129592   9.168   7.093   0.769
 6221SOL    HW229593   9.282   7.043   0.663
 6222SOL     OW29594   4.700   6.650   1.004
 6222SOL    HW129595   4.619   6.694   0.964
 6222SOL    HW229596   4.731   6.702   1.083
 6223SOL     OW29597   2.037   4.566   4.913
 6223SOL    HW129598   2.059   4.489   4.973
 6223SOL    HW229599   2.096   4.643   4.935
 6224SOL     OW29600   4.156   3.052   0.285
 6224SOL    HW129601   4.242   3.099   0.304
 6224SOL    HW229602   4.108   3.034   0.371
 6225SOL     OW29603   3.284   1.707   2.818
 6225SOL    HW129604   3.210   1.741   2.875
 6225SOL    HW229605   3.371   1.742   2.853
 6226SOL     OW29606   8.133   0.979   4.980
 6226SOL    HW129607   8.196   0.904   4.998
 6226SOL    HW229608   8.040   0.949   5.001
 6227SOL     OW29609   9.299   3.400   1.506
 6227SOL    HW129610   9.228   3.375   1.572
 6227SOL    HW229611   9.355   3.320   1.485
 6228SOL     OW29612   1.909   7.664   3.970
 6228SOL    HW129613   1.997   7.705   3.945
 6228SOL    HW229614   1.924   7.568   3.995
 6229SOL     OW29615   9.308   3.052   4.366
 6229SOL    HW129616   9.386   2.989   4.364
 6229SOL    HW229617   9.296   3.087   4.459
 6230SOL     OW29618   4.449   3.201   1.274
 6230SOL    HW129619   4.447   3.142   1.354
 6230SOL    HW229620   4.366   3.256   1.271
 6231SOL     OW29621   1.630   8.636   2.436
 6231SOL    HW129622   1.632   8.618   2.338
 6231SOL    HW229623   1.606   8.732   2.452
 6232SOL     OW29624   4.519   4.911   3.359
 6232SOL    HW129625   4.467   4.964   3.292
 6232SOL    HW229626   4.601   4.874   3.315
 6233SOL     OW29627   4.135   0.319   4.980
 6233SOL    HW129628   4.168   0.297   4.888
 6233SOL    HW229629   4.050   0.373   4.973
 6234SOL     OW29630   7.395   9.282   3.740
 6234SOL    HW129631   7.307   9.285   3.788
 6234SOL    HW229632   7.439   9.194   3.758
 6235SOL     OW29633   0.807   1.437   0.845
 6235SOL    HW129634   0.712   1.469   0.848
 6235SOL    HW229635   0.823   1.375   0.922
 6236SOL     OW29636   4.447   2.571   4.607
 6236SOL    HW129637   4.491   2.515   4.678
 6236SOL    HW229638   4.508   2.580   4.529
 6237SOL     OW29639   2.814   6.870   1.152
 6237SOL    HW129640   2.818   6.824   1.063
 6237SOL    HW229641   2.901   6.915   1.170
 6238SOL     OW29642   3.455   2.325   2.583
 6238SOL    HW129643   3.441   2.409   2.530
 6238SOL    HW229644   3.366   2.292   2.616
 6239SOL     OW29645   2.322   8.290   1.058
 6239SOL    HW129646   2.238   8.251   1.020
 6239SOL    HW229647   2.351   8.236   1.138
 6240SOL     OW29648   9.980   4.118   1.364
 6240SOL    HW129649   0.040   4.043   1.335
 6240SOL    HW229650   9.951   4.103   1.458
 6241SOL     OW29651   2.133   3.534   2.318
 6241SOL    HW129652   2.177   3.468   2.379
 6241SOL    HW229653   2.042   3.502   2.295
 6242SOL     OW29654   4.429   9.123   2.004
 6242SOL    HW129655   4.475   9.045   1.960
 6242SOL    HW229656   4.488   9.203   1.997
 6243SOL     OW29657   9.100   5.162   0.216
 6243SOL    HW129658   9.145   5.078   0.187
 6243SOL    HW229659   9.021   5.180   0.158
 6244SOL     OW29660   0.226   2.864   1.738
 6244SOL    HW129661   0.133   2.826   1.735
 6244SOL    HW229662   0.229   2.948   1.684
 6245SOL     OW29663   8.133   6.648   2.965
 6245SOL    HW129664   8.214   6.704   2.985
 6245SOL    HW229665   8.074   6.646   3.045
 6246SOL     OW29666   6.422   1.468   2.640
 6246SOL    HW129667   6.480   1.425   2.572
 6246SOL    HW229668   6.473   1.479   2.726
 6247SOL     OW29669   9.308   8.696   2.888
 6247SOL    HW129670   9.298   8.620   2.953
 6247SOL    HW229671   9.402   8.728   2.888
 6248SOL     OW29672   1.096   2.920   4.894
 6248SOL    HW129673   1.061   3.008   4.926
 6248SOL    HW229674   1.188   2.931   4.858
 6249SOL     OW29675   1.894   8.285   4.293
 6249SOL    HW129676   1.906   8.190   4.322
 6249SOL    HW229677   1.892   8.289   4.193
 6250SOL     OW29678   2.778   0.585   3.323
 6250SOL    HW129679   2.877   0.587   3.336
 6250SOL    HW229680   2.755   0.524   3.247
 6251SOL     OW29681   8.348   5.367   0.149
 6251SOL    HW129682   8.281   5.434   0.181
 6251SOL    HW229683   8.314   5.275   0.167
 6252SOL     OW29684   9.609   6.228   3.097
 6252SOL    HW129685   9.686   6.197   3.041
 6252SOL    HW229686   9.594   6.163   3.171
 6253SOL     OW29687   2.635   6.423   3.741
 6253SOL    HW129688   2.550   6.438   3.690
 6253SOL    HW229689   2.647   6.496   3.808
 6254SOL     OW29690   1.124   0.791   2.911
 6254SOL    HW129691   1.125   0.699   2.950
 6254SOL    HW229692   1.070   0.851   2.970
 6255SOL     OW29693   4.727   1.840   1.738
 6255SOL    HW129694   4.763   1.766   1.795
 6255SOL    HW229695   4.725   1.925   1.790
 6256SOL     OW29696   0.648   3.057   1.061
 6256SOL    HW129697   0.598   2.973   1.039
 6256SOL    HW229698   0.745   3.036   1.073
 6257SOL     OW29699   2.789   0.888   4.007
 6257SOL    HW129700   2.690   0.884   4.014
 6257SOL    HW229701   2.821   0.818   3.943
 6258SOL     OW29702   1.077   8.392   0.508
 6258SOL    HW129703   1.102   8.465   0.572
 6258SOL    HW229704   1.079   8.427   0.415
 6259SOL     OW29705   3.548   6.365   5.157
 6259SOL    HW129706   3.522   6.375   5.061
 6259SOL    HW229707   3.634   6.414   5.173
 6260SOL     OW29708   8.372   2.479   4.508
 6260SOL    HW129709   8.378   2.498   4.410
 6260SOL    HW229710   8.373   2.381   4.523
 6261SOL     OW29711   4.505   7.822   5.038
 6261SOL    HW129712   4.565   7.888   5.083
 6261SOL    HW229713   4.528   7.729   5.068
 6262SOL     OW29714   1.899   3.449   0.490
 6262SOL    HW129715   1.965   3.514   0.454
 6262SOL    HW229716   1.946   3.364   0.515
 6263SOL     OW29717   9.780   0.262   3.361
 6263SOL    HW129718   9.863   0.293   3.408
 6263SOL    HW229719   9.806   0.203   3.284
 6264SOL     OW29720   6.065   1.447   1.403
 6264SOL    HW129721   6.007   1.522   1.371
 6264SOL    HW229722   6.085   1.386   1.327
 6265SOL     OW29723   4.195   0.768   3.799
 6265SOL    HW129724   4.123   0.836   3.808
 6265SOL    HW229725   4.253   0.791   3.720
 6266SOL     OW29726   7.965   2.733   4.724
 6266SOL    HW129727   8.041   2.668   4.722
 6266SOL    HW229728   7.964   2.786   4.639
 6267SOL     OW29729   2.369   7.874   4.898
 6267SOL    HW129730   2.413   7.963   4.906
 6267SOL    HW229731   2.305   7.875   4.820
 6268SOL     OW29732   2.405   8.569   0.530
 6268SOL    HW129733   2.491   8.601   0.571
 6268SOL    HW229734   2.390   8.616   0.443
 6269SOL     OW29735   3.328   9.091   0.755
 6269SOL    HW129736   3.266   9.073   0.832
 6269SOL    HW229737   3.390   9.166   0.779
 6270SOL     OW29738   3.884   2.237   3.360
 6270SOL    HW129739   3.969   2.288   3.373
 6270SOL    HW229740   3.855   2.197   3.447
 6271SOL     OW29741   1.159   3.506   0.911
 6271SOL    HW129742   1.205   3.417   0.908
 6271SOL    HW229743   1.192   3.563   0.836
 6272SOL     OW29744   6.018   9.784   2.355
 6272SOL    HW129745   6.115   9.763   2.345
 6272SOL    HW229746   5.964   9.719   2.302
 6273SOL     OW29747   9.746   5.809   4.479
 6273SOL    HW129748   9.650   5.834   4.489
 6273SOL    HW229749   9.761   5.764   4.391
 6274SOL     OW29750   1.376   8.165   0.317
 6274SOL    HW129751   1.414   8.236   0.259
 6274SOL    HW229752   1.437   8.087   0.320
 6275SOL     OW29753   8.457   4.287   0.974
 6275SOL    HW129754   8.500   4.365   0.928
 6275SOL    HW229755   8.366   4.313   1.006
 6276SOL     OW29756   4.330   1.967   1.943
 6276SOL    HW129757   4.252   1.908   1.961
 6276SOL    HW229758   4.392   1.966   2.021
 6277SOL     OW29759   8.803   6.651   4.551
 6277SOL    HW129760   8.844   6.560   4.554
 6277SOL    HW229761   8.760   6.666   4.463
 6278SOL     OW29762   7.736   1.099   2.744
 6278SOL    HW129763   7.686   1.017   2.715
 6278SOL    HW229764   7.759   1.154   2.663
 6279SOL     OW29765   2.391   2.564   0.652
 6279SOL    HW129766   2.343   2.650   0.637
 6279SOL    HW229767   2.346   2.491   0.599
 6280SOL     OW29768   3.900   9.644   4.200
 6280SOL    HW129769   3.820   9.691   4.237
 6280SOL    HW229770   3.958   9.612   4.274
 6281SOL     OW29771   1.258   6.651   2.111
 6281SOL    HW129772   1.336   6.589   2.122
 6281SOL    HW229773   1.227   6.682   2.200
 6282SOL     OW29774   8.628   4.242   5.158
 6282SOL    HW129775   8.544   4.208   5.201
 6282SOL    HW229776   8.608   4.326   5.108
 6283SOL     OW29777   8.501   2.025   3.445
 6283SOL    HW129778   8.444   2.097   3.486
 6283SOL    HW229779   8.593   2.061   3.430
 6284SOL     OW29780   1.631   2.850   5.064
 6284SOL    HW129781   1.632   2.937   5.015
 6284SOL    HW229782   1.645   2.775   4.999
 6285SOL     OW29783   3.561   9.155   4.160
 6285SOL    HW129784   3.551   9.092   4.237
 6285SOL    HW229785   3.487   9.140   4.094
 6286SOL     OW29786   1.075   7.944   1.617
 6286SOL    HW129787   1.120   7.997   1.688
 6286SOL    HW229788   1.130   7.864   1.594
 6287SOL     OW29789   6.073   8.831   3.700
 6287SOL    HW129790   6.124   8.910   3.666
 6287SOL    HW229791   6.058   8.842   3.798
 6288SOL     OW29792   1.654   9.856   2.035
 6288SOL    HW129793   1.574   9.806   2.001
 6288SOL    HW229794   1.626   9.948   2.064
 6289SOL     OW29795   7.369   0.505   0.248
 6289SOL    HW129796   7.430   0.437   0.288
 6289SOL    HW229797   7.411   0.595   0.255
 6290SOL     OW29798   1.566   6.157   1.532
 6290SOL    HW129799   1.531   6.080   1.586
 6290SOL    HW229800   1.660   6.138   1.504
 6291SOL     OW29801   4.345   6.315   0.914
 6291SOL    HW129802   4.441   6.342   0.919
 6291SOL    HW229803   4.327   6.241   0.979
 6292SOL     OW29804   4.128   6.349   1.245
 6292SOL    HW129805   4.144   6.411   1.169
 6292SOL    HW229806   4.135   6.400   1.331
 6293SOL     OW29807   8.128   5.882   0.121
 6293SOL    HW129808   8.078   5.796   0.115
 6293SOL    HW229809   8.064   5.958   0.121
 6294SOL     OW29810   8.709   5.016   4.032
 6294SOL    HW129811   8.675   4.923   4.016
 6294SOL    HW229812   8.635   5.072   4.068
 6295SOL     OW29813   2.691   4.592   3.881
 6295SOL    HW129814   2.591   4.584   3.874
 6295SOL    HW229815   2.716   4.604   3.977
 6296SOL     OW29816   0.907   8.162   1.546
 6296SOL    HW129817   0.955   8.228   1.489
 6296SOL    HW229818   0.966   8.084   1.566
 6297SOL     OW29819   0.137   5.012   4.191
 6297SOL    HW129820   0.162   5.032   4.286
 6297SOL    HW229821   0.165   5.088   4.133
 6298SOL     OW29822   7.094   1.112   0.677
 6298SOL    HW129823   7.004   1.076   0.652
 6298SOL    HW229824   7.164   1.044   0.655
 6299SOL     OW29825   4.182   0.780   0.908
 6299SOL    HW129826   4.146   0.722   0.981
 6299SOL    HW229827   4.130   0.866   0.906
 6300SOL     OW29828   9.097   5.395   3.425
 6300SOL    HW129829   9.018   5.336   3.442
 6300SOL    HW229830   9.065   5.483   3.390
 6301SOL     OW29831   5.405   0.658   2.335
 6301SOL    HW129832   5.447   0.583   2.282
 6301SOL    HW229833   5.318   0.628   2.372
 6302SOL     OW29834   5.257   0.485   2.689
 6302SOL    HW129835   5.342   0.441   2.663
 6302SOL    HW229836   5.249   0.487   2.789
 6303SOL     OW29837   9.884   8.936   0.673
 6303SOL    HW129838   9.902   8.838   0.666
 6303SOL    HW229839   9.967   8.983   0.703
 6304SOL     OW29840   9.683   6.576   0.127
 6304SOL    HW129841   9.599   6.522   0.120
 6304SOL    HW229842   9.754   6.521   0.171
 6305SOL     OW29843   0.656   4.669   0.095
 6305SOL    HW129844   0.657   4.654   6.744
 6305SOL    HW229845   0.734   4.726   0.120
 6306SOL     OW29846   9.479   5.874   4.483
 6306SOL    HW129847   9.398   5.817   4.470
 6306SOL    HW229848   9.490   5.935   4.404
 6307SOL     OW29849   1.349   6.265   5.239
 6307SOL    HW129850   1.359   6.318   5.323
 6307SOL    HW229851   1.272   6.202   5.248
 6308SOL     OW29852   2.733   0.152   4.424
 6308SOL    HW129853   2.730   0.252   4.423
 6308SOL    HW229854   2.700   0.117   4.336
 6309SOL     OW29855   1.894   5.399   1.405
 6309SOL    HW129856   1.839   5.425   1.486
 6309SOL    HW229857   1.833   5.367   1.333
 6310SOL     OW29858   3.501   8.122   4.828
 6310SOL    HW129859   3.600   8.109   4.824
 6310SOL    HW229860   3.456   8.043   4.787
 6311SOL     OW29861   8.778   0.143   2.024
 6311SOL    HW129862   8.696   0.112   2.072
 6311SOL    HW229863   8.799   0.237   2.051
 6312SOL     OW29864   9.911   2.699   3.827
 6312SOL    HW129865   9.924   2.779   3.884
 6312SOL    HW229866   9.814   2.688   3.806
 6313SOL     OW29867   0.932   6.806   3.003
 6313SOL    HW129868   1.031   6.791   2.992
 6313SOL    HW229869   0.917   6.889   3.057
 6314SOL     OW29870   7.592   0.759   3.747
 6314SOL    HW129871   7.595   0.659   3.746
 6314SOL    HW229872   7.526   0.791   3.678
 6315SOL     OW29873   1.919   9.690   0.118
 6315SOL    HW129874   1.870   9.751   0.057
 6315SOL    HW229875   1.877   9.599   0.116
 6316SOL     OW29876   6.093   0.600   3.742
 6316SOL    HW129877   6.163   0.574   3.677
 6316SOL    HW229878   6.003   0.594   3.698
 6317SOL     OW29879   7.301   0.762   1.551
 6317SOL    HW129880   7.223   0.744   1.611
 6317SOL    HW229881   7.358   0.833   1.592
 6318SOL     OW29882   7.850   1.601   2.543
 6318SOL    HW129883   7.881   1.653   2.463
 6318SOL    HW229884   7.788   1.528   2.513
 6319SOL     OW29885   4.140   2.345   3.473
 6319SOL    HW129886   4.109   2.365   3.566
 6319SOL    HW229887   4.207   2.414   3.444
 6320SOL     OW29888   7.191   7.800   3.311
 6320SOL    HW129889   7.283   7.781   3.275
 6320SOL    HW229890   7.123   7.782   3.241
 6321SOL     OW29891   7.873   0.020   1.718
 6321SOL    HW129892   7.860   9.920   1.723
 6321SOL    HW229893   7.871   0.049   1.623
 6322SOL     OW29894   3.233   8.371   2.293
 6322SOL    HW129895   3.299   8.295   2.291
 6322SOL    HW229896   3.207   8.395   2.200
 6323SOL     OW29897   0.801   0.068   1.590
 6323SOL    HW129898   0.859   9.986   1.590
 6323SOL    HW229899   0.738   0.064   1.512
 6324SOL     OW29900   2.984   0.380   1.181
 6324SOL    HW129901   3.077   0.354   1.205
 6324SOL    HW229902   2.937   0.415   1.262
 6325SOL     OW29903   0.446   2.477   1.913
 6325SOL    HW129904   0.532   2.432   1.890
 6325SOL    HW229905   0.422   2.543   1.841
 6326SOL     OW29906   8.239   6.976   2.348
 6326SOL    HW129907   8.252   7.044   2.420
 6326SOL    HW229908   8.226   6.886   2.389
 6327SOL     OW29909   3.266   0.430   4.436
 6327SOL    HW129910   3.263   0.457   4.340
 6327SOL    HW229911   3.357   0.395   4.458
 6328SOL     OW29912   9.764   6.348   3.540
 6328SOL    HW129913   9.767   6.254   3.572
 6328SOL    HW229914   9.807   6.355   3.450
 6329SOL     OW29915   9.428   0.207   1.178
 6329SOL    HW129916   9.364   0.270   1.221
 6329SOL    HW229917   9.385   0.164   1.100
 6330SOL     OW29918   2.972   7.245   2.388
 6330SOL    HW129919   3.011   7.328   2.350
 6330SOL    HW229920   2.908   7.268   2.461
 6331SOL     OW29921   0.536   9.753   1.672
 6331SOL    HW129922   0.459   9.693   1.694
 6331SOL    HW229923   0.501   9.841   1.639
 6332SOL     OW29924   3.927   8.520   2.030
 6332SOL    HW129925   3.897   8.483   1.942
 6332SOL    HW229926   3.846   8.543   2.085
 6333SOL     OW29927   4.619   2.327   0.911
 6333SOL    HW129928   4.617   2.405   0.973
 6333SOL    HW229929   4.625   2.242   0.964
 6334SOL     OW29930   0.910   5.927   3.904
 6334SOL    HW129931   0.999   5.887   3.883
 6334SOL    HW229932   0.883   5.899   3.997
 6335SOL     OW29933   9.053   5.191   3.108
 6335SOL    HW129934   9.047   5.141   3.194
 6335SOL    HW229935   8.961   5.203   3.070
 6336SOL     OW29936   3.173   0.076   3.365
 6336SOL    HW129937   3.112   0.119   3.298
 6336SOL    HW229938   3.121   0.057   3.448
 6337SOL     OW29939   3.835   0.167   2.517
 6337SOL    HW129940   3.923   0.186   2.473
 6337SOL    HW229941   3.763   0.163   2.447
 6338SOL     OW29942   8.756   0.068   1.573
 6338SOL    HW129943   8.796   9.982   1.605
 6338SOL    HW229944   8.696   0.050   1.495
 6339SOL     OW29945   7.209   1.997   1.686
 6339SOL    HW129946   7.131   2.037   1.638
 6339SOL    HW229947   7.270   1.953   1.621
 6340SOL     OW29948   7.409   9.403   1.637
 6340SOL    HW129949   7.319   9.445   1.652
 6340SOL    HW229950   7.458   9.455   1.567
 6341SOL     OW29951   7.928   8.123   2.998
 6341SOL    HW129952   8.014   8.081   2.968
 6341SOL    HW229953   7.942   8.166   3.088
 6342SOL     OW29954   2.220   7.616   4.224
 6342SOL    HW129955   2.131   7.642   4.261
 6342SOL    HW229956   2.271   7.699   4.199
 6343SOL     OW29957   7.100   4.470   0.233
 6343SOL    HW129958   7.071   4.393   0.176
 6343SOL    HW229959   7.028   4.539   0.235
 6344SOL     OW29960   8.299   5.635   3.000
 6344SOL    HW129961   8.295   5.591   3.090
 6344SOL    HW229962   8.237   5.588   2.937
 6345SOL     OW29963   3.271   6.615   2.609
 6345SOL    HW129964   3.360   6.578   2.635
 6345SOL    HW229965   3.254   6.699   2.659
 6346SOL     OW29966   7.421   3.133   1.310
 6346SOL    HW129967   7.323   3.148   1.308
 6346SOL    HW229968   7.467   3.209   1.264
 6347SOL     OW29969   4.305   1.372   1.639
 6347SOL    HW129970   4.329   1.302   1.707
 6347SOL    HW229971   4.359   1.357   1.556
 6348SOL     OW29972   7.339   7.601   4.942
 6348SOL    HW129973   7.354   7.664   5.018
 6348SOL    HW229974   7.347   7.506   4.975
 6349SOL     OW29975   9.541   8.828   3.145
 6349SOL    HW129976   9.456   8.804   3.193
 6349SOL    HW229977   9.619   8.808   3.204
 6350SOL     OW29978   9.095   2.710   2.919
 6350SOL    HW129979   9.176   2.761   2.891
 6350SOL    HW229980   9.031   2.772   2.965
 6351SOL     OW29981   4.556   1.966   3.899
 6351SOL    HW129982   4.537   2.028   3.823
 6351SOL    HW229983   4.486   1.894   3.901
 6352SOL     OW29984   8.516   4.070   0.256
 6352SOL    HW129985   8.585   4.068   0.328
 6352SOL    HW229986   8.514   3.982   0.208
 6353SOL     OW29987   3.146   7.281   1.618
 6353SOL    HW129988   3.112   7.339   1.544
 6353SOL    HW229989   3.090   7.295   1.700
 6354SOL     OW29990   3.740   1.599   1.218
 6354SOL    HW129991   3.759   1.504   1.194
 6354SOL    HW229992   3.654   1.605   1.268
 6355SOL     OW29993   6.426   1.468   0.735
 6355SOL    HW129994   6.512   1.516   0.721
 6355SOL    HW229995   6.436   1.373   0.706
 6356SOL     OW29996   9.576   6.032   1.174
 6356SOL    HW129997   9.579   6.068   1.081
 6356SOL    HW229998   9.580   5.932   1.172
 6357SOL     OW29999   7.282   2.108   4.016
 6357SOL    HW130000   7.366   2.060   4.039
 6357SOL    HW230001   7.211   2.085   4.084
 6358SOL     OW30002   1.317   2.055   2.382
 6358SOL    HW130003   1.302   1.960   2.354
 6358SOL    HW230004   1.415   2.069   2.398
 6359SOL     OW30005   5.561   4.069   0.467
 6359SOL    HW130006   5.508   3.986   0.451
 6359SOL    HW230007   5.534   4.110   0.554
 6360SOL     OW30008   0.047   2.701   1.411
 6360SOL    HW130009   0.096   2.628   1.458
 6360SOL    HW230010   0.111   2.754   1.355
 6361SOL     OW30011   0.053   9.361   3.094
 6361SOL    HW130012   9.964   9.332   3.130
 6361SOL    HW230013   0.126   9.318   3.149
 6362SOL     OW30014   8.654   7.866   4.459
 6362SOL    HW130015   8.721   7.911   4.518
 6362SOL    HW230016   8.693   7.784   4.419
 6363SOL     OW30017   7.937   3.424   5.075
 6363SOL    HW130018   8.018   3.384   5.033
 6363SOL    HW230019   7.911   3.507   5.026
 6364SOL     OW30020   1.919   1.755   4.786
 6364SOL    HW130021   1.869   1.838   4.812
 6364SOL    HW230022   1.878   1.716   4.704
 6365SOL     OW30023   2.600   2.302   4.475
 6365SOL    HW130024   2.685   2.342   4.510
 6365SOL    HW230025   2.620   2.213   4.435
 6366SOL     OW30026   4.455   7.209   4.858
 6366SOL    HW130027   4.544   7.216   4.904
 6366SOL    HW230028   4.383   7.231   4.923
 6367SOL     OW30029   0.937   3.512   3.191
 6367SOL    HW130030   0.871   3.439   3.212
 6367SOL    HW230031   1.029   3.472   3.186
 6368SOL     OW30032   1.781   5.337   2.357
 6368SOL    HW130033   1.688   5.365   2.380
 6368SOL    HW230034   1.844   5.370   2.427
 6369SOL     OW30035   6.798   7.861   2.279
 6369SOL    HW130036   6.753   7.847   2.367
 6369SOL    HW230037   6.736   7.834   2.205
 6370SOL     OW30038   3.400   5.555   0.754
 6370SOL    HW130039   3.361   5.480   0.808
 6370SOL    HW230040   3.472   5.600   0.807
 6371SOL     OW30041   0.216   3.947   0.992
 6371SOL    HW130042   0.266   4.032   1.013
 6371SOL    HW230043   0.282   3.875   0.971
 6372SOL     OW30044   1.177   3.372   4.118
 6372SOL    HW130045   1.271   3.406   4.113
 6372SOL    HW230046   1.177   3.272   4.111
 6373SOL     OW30047   9.871   9.839   4.408
 6373SOL    HW130048   9.831   9.830   4.317
 6373SOL    HW230049   9.924   9.924   4.412
 6374SOL     OW30050   9.805   8.020   2.174
 6374SOL    HW130051   9.745   7.941   2.174
 6374SOL    HW230052   9.867   8.016   2.096
 6375SOL     OW30053   8.513   0.416   3.632
 6375SOL    HW130054   8.562   0.342   3.586
 6375SOL    HW230055   8.461   0.469   3.565
 6376SOL     OW30056   3.126   4.073   5.132
 6376SOL    HW130057   3.178   4.012   5.073
 6376SOL    HW230058   3.171   4.162   5.136
 6377SOL     OW30059   0.933   1.961   1.195
 6377SOL    HW130060   0.967   2.016   1.272
 6377SOL    HW230061   0.993   1.974   1.116
 6378SOL     OW30062   7.412   9.231   5.203
 6378SOL    HW130063   7.315   9.212   5.218
 6378SOL    HW230064   7.421   9.311   5.145
 6379SOL     OW30065   1.723   4.034   1.675
 6379SOL    HW130066   1.769   4.079   1.599
 6379SOL    HW230067   1.655   4.096   1.714
 6380SOL     OW30068   4.041   3.094   3.308
 6380SOL    HW130069   3.978   3.133   3.375
 6380SOL    HW230070   4.114   3.044   3.354
 6381SOL     OW30071   9.125   5.413   3.890
 6381SOL    HW130072   9.032   5.435   3.863
 6381SOL    HW230073   9.142   5.315   3.877
 6382SOL     OW30074   3.141   2.473   4.784
 6382SOL    HW130075   3.089   2.401   4.740
 6382SOL    HW230076   3.187   2.528   4.715
 6383SOL     OW30077   6.371   8.278   4.437
 6383SOL    HW130078   6.456   8.228   4.422
 6383SOL    HW230079   6.390   8.376   4.434
 6384SOL     OW30080   4.261   3.265   4.825
 6384SOL    HW130081   4.194   3.284   4.753
 6384SOL    HW230082   4.232   3.184   4.877
 6385SOL     OW30083   0.985   7.611   4.434
 6385SOL    HW130084   1.017   7.525   4.475
 6385SOL    HW230085   0.960   7.595   4.339
 6386SOL     OW30086   3.961   8.327   4.896
 6386SOL    HW130087   4.039   8.271   4.865
 6386SOL    HW230088   3.988   8.423   4.897
 6387SOL     OW30089   1.753   6.836   4.215
 6387SOL    HW130090   1.793   6.751   4.181
 6387SOL    HW230091   1.670   6.815   4.267
 6388SOL     OW30092   1.476   2.220   0.367
 6388SOL    HW130093   1.560   2.222   0.312
 6388SOL    HW230094   1.408   2.161   0.323
 6389SOL     OW30095   4.888   0.955   1.281
 6389SOL    HW130096   4.896   1.053   1.263
 6389SOL    HW230097   4.876   0.906   1.195
 6390SOL     OW30098   7.091   0.015   4.983
 6390SOL    HW130099   7.175   0.035   5.034
 6390SOL    HW230100   7.058   0.099   4.939
 6391SOL     OW30101   1.464   4.904   4.444
 6391SOL    HW130102   1.490   4.858   4.529
 6391SOL    HW230103   1.486   4.845   4.367
 6392SOL     OW30104   8.441   6.985   1.246
 6392SOL    HW130105   8.499   6.974   1.326
 6392SOL    HW230106   8.461   6.912   1.180
 6393SOL     OW30107   9.650   7.616   1.085
 6393SOL    HW130108   9.660   7.613   0.985
 6393SOL    HW230109   9.582   7.685   1.109
 6394SOL     OW30110   7.161   7.622   4.333
 6394SOL    HW130111   7.166   7.522   4.336
 6394SOL    HW230112   7.214   7.660   4.408
 6395SOL     OW30113   8.175   2.108   4.724
 6395SOL    HW130114   8.080   2.134   4.742
 6395SOL    HW230115   8.218   2.076   4.808
 6396SOL     OW30116   3.749   0.835   2.275
 6396SOL    HW130117   3.755   0.770   2.199
 6396SOL    HW230118   3.654   0.842   2.305
 6397SOL     OW30119   7.123   9.714   3.326
 6397SOL    HW130120   7.162   9.734   3.416
 6397SOL    HW230121   7.184   9.748   3.255
 6398SOL     OW30122   1.270   5.129   5.101
 6398SOL    HW130123   1.280   5.054   5.036
 6398SOL    HW230124   1.357   5.142   5.150
 6399SOL     OW30125   3.241   6.837   2.770
 6399SOL    HW130126   3.326   6.884   2.793
 6399SOL    HW230127   3.167   6.904   2.760
 6400SOL     OW30128   3.160   6.769   0.710
 6400SOL    HW130129   3.254   6.801   0.694
 6400SOL    HW230130   3.104   6.845   0.743
 6401SOL     OW30131   0.066   4.539   2.556
 6401SOL    HW130132   0.034   4.633   2.568
 6401SOL    HW230133   9.989   4.481   2.533
 6402SOL     OW30134   2.290   6.653   1.840
 6402SOL    HW130135   2.227   6.632   1.766
 6402SOL    HW230136   2.383   6.659   1.803
 6403SOL     OW30137   8.093   8.279   2.515
 6403SOL    HW130138   8.150   8.361   2.514
 6403SOL    HW230139   8.006   8.300   2.560
 6404SOL     OW30140   0.294   3.346   4.509
 6404SOL    HW130141   0.372   3.312   4.456
 6404SOL    HW230142   0.267   3.278   4.577
 6405SOL     OW30143   5.389   0.168   4.415
 6405SOL    HW130144   5.359   0.229   4.488
 6405SOL    HW230145   5.331   0.086   4.415
 6406SOL     OW30146   1.439   4.578   0.126
 6406SOL    HW130147   1.350   4.533   0.122
 6406SOL    HW230148   1.426   4.677   0.130
 6407SOL     OW30149   4.835   9.807   2.645
 6407SOL    HW130150   4.915   9.754   2.672
 6407SOL    HW230151   4.859   9.866   2.568
 6408SOL     OW30152   5.943   7.698   3.102
 6408SOL    HW130153   5.996   7.666   3.180
 6408SOL    HW230154   5.918   7.794   3.117
 6409SOL     OW30155   3.017   6.815   3.946
 6409SOL    HW130156   3.033   6.913   3.946
 6409SOL    HW230157   3.080   6.770   3.882
 6410SOL     OW30158   1.586   8.983   3.986
 6410SOL    HW130159   1.588   9.008   4.083
 6410SOL    HW230160   1.676   8.947   3.959
 6411SOL     OW30161   0.715   6.515   2.922
 6411SOL    HW130162   0.747   6.540   3.014
 6411SOL    HW230163   0.648   6.582   2.891
 6412SOL     OW30164   1.957   5.453   2.533
 6412SOL    HW130165   1.960   5.428   2.630
 6412SOL    HW230166   1.917   5.545   2.523
 6413SOL     OW30167   6.528   9.902   3.562
 6413SOL    HW130168   6.580   9.967   3.506
 6413SOL    HW230169   6.585   9.821   3.578
 6414SOL     OW30170   4.497   4.035   4.169
 6414SOL    HW130171   4.432   4.033   4.245
 6414SOL    HW230172   4.568   3.965   4.184
 6415SOL     OW30173   3.104   5.666   4.639
 6415SOL    HW130174   3.123   5.593   4.705
 6415SOL    HW230175   3.135   5.637   4.548
 6416SOL     OW30176   4.164   3.387   0.111
 6416SOL    HW130177   4.155   3.295   0.074
 6416SOL    HW230178   4.076   3.434   0.106
 6417SOL     OW30179   9.559   6.952   1.271
 6417SOL    HW130180   9.644   6.954   1.324
 6417SOL    HW230181   9.511   6.867   1.289
 6418SOL     OW30182   7.645   4.648   1.405
 6418SOL    HW130183   7.616   4.737   1.371
 6418SOL    HW230184   7.630   4.643   1.503
 6419SOL     OW30185   5.396   1.980   2.042
 6419SOL    HW130186   5.483   2.004   2.084
 6419SOL    HW230187   5.405   1.893   1.993
 6420SOL     OW30188   0.002   4.764   2.139
 6420SOL    HW130189   9.925   4.701   2.139
 6420SOL    HW230190   0.082   4.720   2.179
 6421SOL     OW30191   1.386   8.445   0.616
 6421SOL    HW130192   1.314   8.501   0.656
 6421SOL    HW230193   1.354   8.351   0.605
 6422SOL     OW30194   5.698   1.465   3.549
 6422SOL    HW130195   5.750   1.386   3.517
 6422SOL    HW230196   5.707   1.540   3.483
 6423SOL     OW30197   2.425   5.073   1.808
 6423SOL    HW130198   2.381   5.128   1.879
 6423SOL    HW230199   2.524   5.079   1.818
 6424SOL     OW30200   1.386   4.795   4.007
 6424SOL    HW130201   1.420   4.883   3.972
 6424SOL    HW230202   1.290   4.804   4.033
 6425SOL     OW30203   0.508   8.628   4.877
 6425SOL    HW130204   0.594   8.644   4.926
 6425SOL    HW230205   0.494   8.529   4.867
 6426SOL     OW30206   9.713   4.369   5.273
 6426SOL    HW130207   9.656   4.415   5.206
 6426SOL    HW230208   9.745   4.435   5.341
 6427SOL     OW30209   5.973   1.354   3.826
 6427SOL    HW130210   6.066   1.335   3.796
 6427SOL    HW230211   5.909   1.293   3.780
 6428SOL     OW30212   0.714   8.135   2.732
 6428SOL    HW130213   0.723   8.232   2.755
 6428SOL    HW230214   0.636   8.122   2.671
 6429SOL     OW30215   8.720   4.212   0.114
 6429SOL    HW130216   8.634   4.192   0.160
 6429SOL    HW230217   8.752   4.131   0.065
 6430SOL     OW30218   1.146   0.594   5.048
 6430SOL    HW130219   1.201   0.674   5.026
 6430SOL    HW230220   1.186   0.546   5.126
 6431SOL     OW30221   9.318   5.885   3.747
 6431SOL    HW130222   9.292   5.933   3.831
 6431SOL    HW230223   9.289   5.789   3.754
 6432SOL     OW30224   3.921   1.451   3.877
 6432SOL    HW130225   3.899   1.469   3.973
 6432SOL    HW230226   3.849   1.395   3.837
 6433SOL     OW30227   3.366   3.393   0.622
 6433SOL    HW130228   3.408   3.346   0.545
 6433SOL    HW230229   3.437   3.435   0.679
 6434SOL     OW30230   4.937   7.580   4.601
 6434SOL    HW130231   5.022   7.605   4.555
 6434SOL    HW230232   4.860   7.625   4.555
 6435SOL     OW30233   1.769   4.265   3.609
 6435SOL    HW130234   1.699   4.241   3.675
 6435SOL    HW230235   1.809   4.182   3.570
 6436SOL     OW30236   0.586   0.062   3.325
 6436SOL    HW130237   0.645   0.137   3.356
 6436SOL    HW230238   0.497   0.068   3.371
 6437SOL     OW30239   0.547   9.737   5.088
 6437SOL    HW130240   0.563   9.663   5.153
 6437SOL    HW230241   0.484   9.804   5.129
 6438SOL     OW30242   9.919   0.194   1.479
 6438SOL    HW130243   0.004   0.216   1.526
 6438SOL    HW230244   9.935   0.187   1.381
 6439SOL     OW30245   8.687   6.511   5.030
 6439SOL    HW130246   8.713   6.414   5.026
 6439SOL    HW230247   8.731   6.553   5.110
 6440SOL     OW30248   1.886   2.334   1.794
 6440SOL    HW130249   1.825   2.396   1.844
 6440SOL    HW230250   1.897   2.250   1.846
 6441SOL     OW30251   8.036   5.527   4.903
 6441SOL    HW130252   7.965   5.562   4.841
 6441SOL    HW230253   8.104   5.599   4.920
 6442SOL     OW30254   6.837   0.963   4.404
 6442SOL    HW130255   6.869   1.047   4.360
 6442SOL    HW230256   6.824   0.980   4.502
 6443SOL     OW30257   9.385   3.955   3.788
 6443SOL    HW130258   9.430   3.901   3.718
 6443SOL    HW230259   9.447   4.026   3.821
 6444SOL     OW30260   3.519   3.771   3.369
 6444SOL    HW130261   3.549   3.849   3.423
 6444SOL    HW230262   3.485   3.700   3.431
 6445SOL     OW30263   8.909   8.978   4.020
 6445SOL    HW130264   8.853   8.915   4.073
 6445SOL    HW230265   8.993   8.999   4.070
 6446SOL     OW30266   3.572   3.714   1.206
 6446SOL    HW130267   3.608   3.634   1.159
 6446SOL    HW230268   3.491   3.748   1.159
 6447SOL     OW30269   6.153   9.436   4.630
 6447SOL    HW130270   6.125   9.418   4.724
 6447SOL    HW230271   6.253   9.432   4.623
 6448SOL     OW30272   9.644   7.126   4.361
 6448SOL    HW130273   9.587   7.048   4.335
 6448SOL    HW230274   9.740   7.096   4.367
 6449SOL     OW30275   2.291   5.269   4.854
 6449SOL    HW130276   2.390   5.262   4.858
 6449SOL    HW230277   2.258   5.222   4.771
 6450SOL     OW30278   2.414   2.464   4.588
 6450SOL    HW130279   2.475   2.404   4.536
 6450SOL    HW230280   2.433   2.559   4.564
 6451SOL     OW30281   8.801   3.674   3.805
 6451SOL    HW130282   8.838   3.766   3.799
 6451SOL    HW230283   8.876   3.608   3.809
 6452SOL     OW30284   8.708   7.115   4.631
 6452SOL    HW130285   8.787   7.151   4.680
 6452SOL    HW230286   8.688   7.023   4.663
 6453SOL     OW30287   1.823   9.343   4.544
 6453SOL    HW130288   1.849   9.439   4.547
 6453SOL    HW230289   1.743   9.331   4.484
 6454SOL     OW30290   8.097   2.844   3.949
 6454SOL    HW130291   8.077   2.925   3.894
 6454SOL    HW230292   8.112   2.765   3.889
 6455SOL     OW30293   3.518   0.907   4.527
 6455SOL    HW130294   3.614   0.927   4.548
 6455SOL    HW230295   3.461   0.928   4.607
 6456SOL     OW30296   4.269   8.436   2.697
 6456SOL    HW130297   4.231   8.468   2.784
 6456SOL    HW230298   4.198   8.391   2.644
 6457SOL     OW30299   1.885   5.928   4.124
 6457SOL    HW130300   1.826   5.853   4.093
 6457SOL    HW230301   1.956   5.891   4.184
 6458SOL     OW30302   0.722   0.882   3.552
 6458SOL    HW130303   0.633   0.916   3.521
 6458SOL    HW230304   0.725   0.883   3.652
 6459SOL     OW30305   0.701   2.039   4.781
 6459SOL    HW130306   0.732   2.092   4.702
 6459SOL    HW230307   0.655   1.956   4.748
 6460SOL     OW30308   4.538   1.901   2.627
 6460SOL    HW130309   4.638   1.903   2.631
 6460SOL    HW230310   4.500   1.953   2.703
 6461SOL     OW30311   7.921   6.709   2.794
 6461SOL    HW130312   8.002   6.688   2.848
 6461SOL    HW230313   7.929   6.666   2.704
 6462SOL     OW30314   8.797   0.411   2.097
 6462SOL    HW130315   8.700   0.398   2.118
 6462SOL    HW230316   8.809   0.496   2.046
 6463SOL     OW30317   9.141   2.661   5.186
 6463SOL    HW130318   9.165   2.632   5.278
 6463SOL    HW230319   9.221   2.702   5.142
 6464SOL     OW30320   5.004   5.494   3.283
 6464SOL    HW130321   5.076   5.451   3.227
 6464SOL    HW230322   5.037   5.504   3.377
 6465SOL     OW30323   2.499   0.583   4.679
 6465SOL    HW130324   2.411   0.537   4.663
 6465SOL    HW230325   2.569   0.514   4.695
 6466SOL     OW30326   7.521   0.138   2.398
 6466SOL    HW130327   7.501   0.057   2.343
 6466SOL    HW230328   7.444   0.159   2.457
 6467SOL     OW30329   9.923   1.981   4.169
 6467SOL    HW130330   9.991   1.943   4.106
 6467SOL    HW230331   9.908   1.917   4.245
 6468SOL     OW30332   0.361   6.793   3.647
 6468SOL    HW130333   0.430   6.862   3.669
 6468SOL    HW230334   0.271   6.837   3.640
 6469SOL     OW30335   5.093   0.896   3.299
 6469SOL    HW130336   4.999   0.920   3.322
 6469SOL    HW230337   5.151   0.908   3.379
 6470SOL     OW30338   8.077   7.229   4.119
 6470SOL    HW130339   8.156   7.273   4.163
 6470SOL    HW230340   7.994   7.252   4.169
 6471SOL     OW30341   7.949   7.770   4.490
 6471SOL    HW130342   8.047   7.783   4.473
 6471SOL    HW230343   7.935   7.683   4.537
 6472SOL     OW30344   0.837   3.437   2.078
 6472SOL    HW130345   0.754   3.409   2.126
 6472SOL    HW230346   0.908   3.458   2.145
 6473SOL     OW30347   8.929   0.609   0.815
 6473SOL    HW130348   8.930   0.528   0.757
 6473SOL    HW230349   8.839   0.617   0.859
 6474SOL     OW30350   8.427   2.027   2.284
 6474SOL    HW130351   8.512   2.001   2.239
 6474SOL    HW230352   8.375   1.945   2.307
 6475SOL     OW30353   3.964   1.928   2.368
 6475SOL    HW130354   4.007   2.010   2.407
 6475SOL    HW230355   4.014   1.847   2.398
 6476SOL     OW30356   9.125   2.672   4.020
 6476SOL    HW130357   9.216   2.633   4.037
 6476SOL    HW230358   9.121   2.765   4.056
 6477SOL     OW30359   2.624   0.540   3.554
 6477SOL    HW130360   2.621   0.627   3.603
 6477SOL    HW230361   2.674   0.552   3.468
 6478SOL     OW30362   1.828   2.066   1.064
 6478SOL    HW130363   1.753   2.006   1.092
 6478SOL    HW230364   1.862   2.117   1.143
 6479SOL     OW30365   2.907   4.575   3.459
 6479SOL    HW130366   2.894   4.672   3.479
 6479SOL    HW230367   2.843   4.521   3.513
 6480SOL     OW30368   5.827   8.812   3.583
 6480SOL    HW130369   5.785   8.903   3.581
 6480SOL    HW230370   5.918   8.818   3.624
 6481SOL     OW30371   0.721   5.223   2.312
 6481SOL    HW130372   0.629   5.184   2.300
 6481SOL    HW230373   0.785   5.150   2.335
 6482SOL     OW30374   9.032   9.541   4.894
 6482SOL    HW130375   9.054   9.565   4.988
 6482SOL    HW230376   9.064   9.613   4.832
 6483SOL     OW30377   2.816   4.856   4.660
 6483SOL    HW130378   2.776   4.813   4.741
 6483SOL    HW230379   2.742   4.890   4.601
 6484SOL     OW30380   2.044   1.249   2.020
 6484SOL    HW130381   2.097   1.334   2.019
 6484SOL    HW230382   2.100   1.174   1.986
 6485SOL     OW30383   1.876   3.399   0.994
 6485SOL    HW130384   1.801   3.333   0.993
 6485SOL    HW230385   1.843   3.488   0.962
 6486SOL     OW30386   0.494   2.375   0.543
 6486SOL    HW130387   0.586   2.390   0.580
 6486SOL    HW230388   0.443   2.316   0.605
 6487SOL     OW30389   8.063   0.936   1.860
 6487SOL    HW130390   8.083   1.016   1.804
 6487SOL    HW230391   8.022   0.864   1.803
 6488SOL     OW30392   8.277   9.731   1.598
 6488SOL    HW130393   8.186   9.703   1.629
 6488SOL    HW230394   8.317   9.794   1.664
 6489SOL     OW30395   0.646   7.937   0.414
 6489SOL    HW130396   0.715   8.008   0.428
 6489SOL    HW230397   0.604   7.948   0.324
 6490SOL     OW30398   0.825   1.636   2.910
 6490SOL    HW130399   0.875   1.671   2.990
 6490SOL    HW230400   0.755   1.571   2.941
 6491SOL     OW30401   2.100   6.051   1.429
 6491SOL    HW130402   2.165   6.087   1.362
 6491SOL    HW230403   2.141   6.055   1.520
 6492SOL     OW30404   5.390   0.286   4.171
 6492SOL    HW130405   5.385   0.251   4.264
 6492SOL    HW230406   5.305   0.335   4.149
 6493SOL     OW30407   1.553   4.889   3.632
 6493SOL    HW130408   1.527   4.981   3.663
 6493SOL    HW230409   1.580   4.834   3.710
 6494SOL     OW30410   3.217   8.035   0.699
 6494SOL    HW130411   3.284   8.017   0.771
 6494SOL    HW230412   3.250   8.109   0.641
 6495SOL     OW30413   7.730   7.525   4.361
 6495SOL    HW130414   7.763   7.614   4.330
 6495SOL    HW230415   7.648   7.500   4.310
 6496SOL     OW30416   4.798   8.206   5.155
 6496SOL    HW130417   4.765   8.113   5.171
 6496SOL    HW230418   4.869   8.204   5.084
 6497SOL     OW30419   1.691   4.479   0.086
 6497SOL    HW130420   1.692   4.414   0.011
 6497SOL    HW230421   1.597   4.510   0.103
 6498SOL     OW30422   1.124   8.768   2.197
 6498SOL    HW130423   1.129   8.675   2.233
 6498SOL    HW230424   1.112   8.764   2.098
 6499SOL     OW30425   9.302   6.053   2.139
 6499SOL    HW130426   9.374   5.984   2.135
 6499SOL    HW230427   9.249   6.051   2.054
 6500SOL     OW30428   0.983   8.389   4.582
 6500SOL    HW130429   0.945   8.297   4.573
 6500SOL    HW230430   0.924   8.444   4.641
 6501SOL     OW30431   9.261   5.535   4.093
 6501SOL    HW130432   9.271   5.463   4.162
 6501SOL    HW230433   9.213   5.500   4.013
 6502SOL     OW30434   2.520   2.480   1.568
 6502SOL    HW130435   2.494   2.521   1.480
 6502SOL    HW230436   2.448   2.499   1.635
 6503SOL     OW30437   9.607   2.690   1.718
 6503SOL    HW130438   9.619   2.759   1.646
 6503SOL    HW230439   9.687   2.630   1.720
 6504SOL     OW30440   9.427   9.113   0.209
 6504SOL    HW130441   9.376   9.034   0.175
 6504SOL    HW230442   9.452   9.172   0.132
 6505SOL     OW30443   7.759   8.979   4.142
 6505SOL    HW130444   7.859   8.980   4.137
 6505SOL    HW230445   7.722   8.940   4.058
 6506SOL     OW30446   3.612   8.566   3.834
 6506SOL    HW130447   3.601   8.635   3.906
 6506SOL    HW230448   3.538   8.577   3.767
 6507SOL     OW30449   9.761   9.286   2.340
 6507SOL    HW130450   9.683   9.309   2.282
 6507SOL    HW230451   9.797   9.197   2.313
 6508SOL     OW30452   2.720   1.258   4.925
 6508SOL    HW130453   2.675   1.220   5.005
 6508SOL    HW230454   2.671   1.340   4.895
 6509SOL     OW30455   6.174   9.597   5.000
 6509SOL    HW130456   6.253   9.614   4.940
 6509SOL    HW230457   6.118   9.523   4.962
 6510SOL     OW30458   0.069   3.621   1.706
 6510SOL    HW130459   9.987   3.573   1.740
 6510SOL    HW230460   0.059   3.719   1.723
 6511SOL     OW30461   0.075   3.641   1.191
 6511SOL    HW130462   0.086   3.605   1.284
 6511SOL    HW230463   0.142   3.598   1.130
 6512SOL     OW30464   9.837   4.146   0.098
 6512SOL    HW130465   9.902   4.216   0.067
 6512SOL    HW230466   9.767   4.188   0.155
 6513SOL     OW30467   0.735   2.810   0.851
 6513SOL    HW130468   0.742   2.892   0.794
 6513SOL    HW230469   0.826   2.780   0.877
 6514SOL     OW30470   8.087   7.347   2.286
 6514SOL    HW130471   8.090   7.344   2.386
 6514SOL    HW230472   8.055   7.259   2.250
 6515SOL     OW30473   8.701   4.203   1.778
 6515SOL    HW130474   8.616   4.198   1.831
 6515SOL    HW230475   8.685   4.256   1.694
 6516SOL     OW30476   0.577   4.910   3.054
 6516SOL    HW130477   0.525   4.980   3.005
 6516SOL    HW230478   0.628   4.953   3.128
 6517SOL     OW30479   0.398   1.099   2.416
 6517SOL    HW130480   0.364   1.193   2.405
 6517SOL    HW230481   0.407   1.078   2.513
 6518SOL     OW30482   8.025   4.560   4.818
 6518SOL    HW130483   8.093   4.582   4.747
 6518SOL    HW230484   7.933   4.574   4.781
 6519SOL     OW30485   4.451   7.885   4.513
 6519SOL    HW130486   4.450   7.862   4.610
 6519SOL    HW230487   4.440   7.802   4.459
 6520SOL     OW30488   2.372   7.891   0.959
 6520SOL    HW130489   2.294   7.871   1.019
 6520SOL    HW230490   2.346   7.963   0.894
 6521SOL     OW30491   0.199   1.632   2.978
 6521SOL    HW130492   0.270   1.568   2.950
 6521SOL    HW230493   0.116   1.582   3.003
 6522SOL     OW30494   4.321   2.673   1.066
 6522SOL    HW130495   4.225   2.664   1.093
 6522SOL    HW230496   4.331   2.643   0.971
 6523SOL     OW30497   0.665   4.245   3.727
 6523SOL    HW130498   0.745   4.302   3.745
 6523SOL    HW230499   0.582   4.300   3.737
 6524SOL     OW30500   1.283   8.492   2.743
 6524SOL    HW130501   1.302   8.524   2.650
 6524SOL    HW230502   1.367   8.456   2.784
 6525SOL     OW30503   2.970   3.416   5.173
 6525SOL    HW130504   3.026   3.418   5.090
 6525SOL    HW230505   3.009   3.349   5.237
 6526SOL     OW30506   0.142   4.946   1.580
 6526SOL    HW130507   0.178   4.912   1.667
 6526SOL    HW230508   0.054   4.902   1.562
 6527SOL     OW30509   3.403   0.146   0.920
 6527SOL    HW130510   3.439   0.161   0.828
 6527SOL    HW230511   3.328   0.080   0.917
 6528SOL     OW30512   7.949   5.260   1.994
 6528SOL    HW130513   8.037   5.226   2.028
 6528SOL    HW230514   7.942   5.358   2.014
 6529SOL     OW30515   9.022   7.432   0.699
 6529SOL    HW130516   9.009   7.349   0.752
 6529SOL    HW230517   9.084   7.414   0.623
 6530SOL     OW30518   0.966   7.760   5.080
 6530SOL    HW130519   1.036   7.797   5.019
 6530SOL    HW230520   0.896   7.828   5.097
 6531SOL     OW30521   9.636   6.766   0.542
 6531SOL    HW130522   9.546   6.738   0.511
 6531SOL    HW230523   9.688   6.804   0.466
 6532SOL     OW30524   2.008   9.827   2.130
 6532SOL    HW130525   1.913   9.806   2.150
 6532SOL    HW230526   2.017   9.853   2.034
 6533SOL     OW30527   3.799   7.349   0.874
 6533SOL    HW130528   3.766   7.373   0.965
 6533SOL    HW230529   3.749   7.401   0.805
 6534SOL     OW30530   7.071   4.029   1.526
 6534SOL    HW130531   7.123   3.973   1.590
 6534SOL    HW230532   7.129   4.103   1.491
 6535SOL     OW30533   2.213   2.335   3.912
 6535SOL    HW130534   2.195   2.238   3.902
 6535SOL    HW230535   2.241   2.355   4.006
 6536SOL     OW30536   2.205   2.794   5.140
 6536SOL    HW130537   2.250   2.854   5.207
 6536SOL    HW230538   2.222   2.829   5.048
 6537SOL     OW30539   7.888   3.759   4.469
 6537SOL    HW130540   7.806   3.738   4.415
 6537SOL    HW230541   7.882   3.713   4.557
 6538SOL     OW30542   3.931   6.375   0.585
 6538SOL    HW130543   3.993   6.343   0.657
 6538SOL    HW230544   3.837   6.351   0.610
 6539SOL     OW30545   1.820   0.446   1.151
 6539SOL    HW130546   1.915   0.476   1.164
 6539SOL    HW230547   1.777   0.504   1.081
 6540SOL     OW30548   9.046   0.969   4.972
 6540SOL    HW130549   9.116   1.027   5.015
 6540SOL    HW230550   8.956   0.996   5.005
 6541SOL     OW30551   3.481   4.036   2.103
 6541SOL    HW130552   3.563   4.022   2.048
 6541SOL    HW230553   3.496   3.999   2.195
 6542SOL     OW30554   2.391   3.830   0.198
 6542SOL    HW130555   2.422   3.738   0.172
 6542SOL    HW230556   2.379   3.834   0.297
 6543SOL     OW30557   3.221   9.424   2.203
 6543SOL    HW130558   3.299   9.470   2.246
 6543SOL    HW230559   3.253   9.341   2.157
 6544SOL     OW30560   1.201   8.972   2.360
 6544SOL    HW130561   1.230   8.924   2.443
 6544SOL    HW230562   1.159   8.906   2.297
 6545SOL     OW30563   8.237   7.163   1.906
 6545SOL    HW130564   8.241   7.241   1.968
 6545SOL    HW230565   8.236   7.078   1.959
 6546SOL     OW30566   4.358   1.746   0.628
 6546SOL    HW130567   4.336   1.831   0.676
 6546SOL    HW230568   4.443   1.758   0.577
 6547SOL     OW30569   6.025   2.578   3.521
 6547SOL    HW130570   6.069   2.655   3.567
 6547SOL    HW230571   6.088   2.500   3.519
 6548SOL     OW30572   3.399   2.288   3.436
 6548SOL    HW130573   3.359   2.364   3.385
 6548SOL    HW230574   3.466   2.241   3.378
 6549SOL     OW30575   0.780   5.823   5.001
 6549SOL    HW130576   0.716   5.846   5.074
 6549SOL    HW230577   0.739   5.756   4.940
 6550SOL     OW30578   5.323   1.240   3.278
 6550SOL    HW130579   5.377   1.324   3.268
 6550SOL    HW230580   5.323   1.212   3.374
 6551SOL     OW30581   0.130   6.329   0.985
 6551SOL    HW130582   0.060   6.332   1.056
 6551SOL    HW230583   0.086   6.333   0.895
 6552SOL     OW30584   4.811   4.170   1.135
 6552SOL    HW130585   4.825   4.249   1.194
 6552SOL    HW230586   4.741   4.110   1.174
 6553SOL     OW30587   6.421   1.797   1.060
 6553SOL    HW130588   6.342   1.736   1.061
 6553SOL    HW230589   6.392   1.890   1.038
 6554SOL     OW30590   9.071   2.210   5.195
 6554SOL    HW130591   9.012   2.132   5.216
 6554SOL    HW230592   9.015   2.290   5.174
 6555SOL     OW30593   3.258   7.845   2.343
 6555SOL    HW130594   3.336   7.875   2.398
 6555SOL    HW230595   3.173   7.864   2.391
 6556SOL     OW30596   5.245   8.195   3.415
 6556SOL    HW130597   5.246   8.135   3.495
 6556SOL    HW230598   5.154   8.194   3.374
 6557SOL     OW30599   4.414   7.966   3.537
 6557SOL    HW130600   4.391   8.015   3.453
 6557SOL    HW230601   4.490   7.904   3.519
 6558SOL     OW30602   4.896   0.757   2.160
 6558SOL    HW130603   4.995   0.770   2.153
 6558SOL    HW230604   4.849   0.828   2.108
 6559SOL     OW30605   7.758   7.640   4.040
 6559SOL    HW130606   7.791   7.690   4.120
 6559SOL    HW230607   7.659   7.654   4.031
 6560SOL     OW30608   8.187   0.856   0.358
 6560SOL    HW130609   8.190   0.826   0.263
 6560SOL    HW230610   8.198   0.777   0.418
 6561SOL     OW30611   9.891   5.366   4.852
 6561SOL    HW130612   9.809   5.378   4.908
 6561SOL    HW230613   9.864   5.345   4.758
 6562SOL     OW30614   7.231   9.704   5.210
 6562SOL    HW130615   7.155   9.761   5.241
 6562SOL    HW230616   7.202   9.608   5.207
 6563SOL     OW30617   2.579   1.752   4.979
 6563SOL    HW130618   2.479   1.759   4.975
 6563SOL    HW230619   2.619   1.808   4.907
 6564SOL     OW30620   9.777   2.204   4.247
 6564SOL    HW130621   9.792   2.278   4.182
 6564SOL    HW230622   9.829   2.123   4.218
 6565SOL     OW30623   2.875   7.042   1.523
 6565SOL    HW130624   2.819   7.110   1.475
 6565SOL    HW230625   2.815   6.980   1.574
 6566SOL     OW30626   0.150   7.603   5.029
 6566SOL    HW130627   0.155   7.615   4.930
 6566SOL    HW230628   0.078   7.662   5.065
 6567SOL     OW30629   3.137   5.426   2.501
 6567SOL    HW130630   3.048   5.442   2.543
 6567SOL    HW230631   3.210   5.451   2.565
 6568SOL     OW30632   1.233   4.252   2.026
 6568SOL    HW130633   1.326   4.215   2.014
 6568SOL    HW230634   1.172   4.179   2.056
 6569SOL     OW30635   0.583   8.353   3.087
 6569SOL    HW130636   0.574   8.392   3.179
 6569SOL    HW230637   0.519   8.399   3.025
 6570SOL     OW30638   7.335   2.411   0.668
 6570SOL    HW130639   7.402   2.464   0.615
 6570SOL    HW230640   7.332   2.317   0.633
 6571SOL     OW30641   3.051   3.681   0.081
 6571SOL    HW130642   2.962   3.707   0.041
 6571SOL    HW230643   3.036   3.629   0.165
 6572SOL     OW30644   5.067   0.019   2.017
 6572SOL    HW130645   4.993   0.052   2.075
 6572SOL    HW230646   5.140   0.088   2.014
 6573SOL     OW30647   3.923   6.689   2.011
 6573SOL    HW130648   3.908   6.681   2.109
 6573SOL    HW230649   3.841   6.724   1.967
 6574SOL     OW30650   3.273   0.456   4.889
 6574SOL    HW130651   3.268   0.549   4.851
 6574SOL    HW230652   3.363   0.443   4.932
 6575SOL     OW30653   5.194   3.980   0.996
 6575SOL    HW130654   5.163   4.059   1.048
 6575SOL    HW230655   5.278   3.944   1.036
 6576SOL     OW30656   5.302   2.184   2.621
 6576SOL    HW130657   5.250   2.142   2.547
 6576SOL    HW230658   5.252   2.177   2.706
 6577SOL     OW30659   4.054   3.656   0.346
 6577SOL    HW130660   4.096   3.567   0.361
 6577SOL    HW230661   3.957   3.652   0.372
 6578SOL     OW30662   5.084   7.715   5.205
 6578SOL    HW130663   5.091   7.777   5.283
 6578SOL    HW230664   5.175   7.695   5.170
 6579SOL     OW30665   9.229   7.514   4.592
 6579SOL    HW130666   9.168   7.521   4.513
 6579SOL    HW230667   9.206   7.587   4.658
 6580SOL     OW30668   4.658   9.025   2.375
 6580SOL    HW130669   4.715   8.980   2.444
 6580SOL    HW230670   4.707   9.104   2.337
 6581SOL     OW30671   8.422   5.307   1.990
 6581SOL    HW130672   8.334   5.277   2.025
 6581SOL    HW230673   8.486   5.230   1.989
 6582SOL     OW30674   3.009   4.527   4.741
 6582SOL    HW130675   3.039   4.581   4.819
 6582SOL    HW230676   2.984   4.435   4.771
 6583SOL     OW30677   8.194   0.976   4.095
 6583SOL    HW130678   8.236   1.058   4.054
 6583SOL    HW230679   8.170   0.996   4.191
 6584SOL     OW30680   8.926   8.290   2.474
 6584SOL    HW130681   8.953   8.277   2.570
 6584SOL    HW230682   8.826   8.288   2.467
 6585SOL     OW30683   9.835   6.280   1.873
 6585SOL    HW130684   9.896   6.335   1.816
 6585SOL    HW230685   9.818   6.328   1.960
 6586SOL     OW30686   5.756   7.417   3.626
 6586SOL    HW130687   5.775   7.378   3.536
 6586SOL    HW230688   5.673   7.377   3.664
 6587SOL     OW30689   9.513   1.526   0.695
 6587SOL    HW130690   9.464   1.585   0.760
 6587SOL    HW230691   9.609   1.521   0.720
 6588SOL     OW30692   4.694   4.507   2.683
 6588SOL    HW130693   4.723   4.414   2.660
 6588SOL    HW230694   4.719   4.569   2.608
 6589SOL     OW30695   3.549   2.177   3.853
 6589SOL    HW130696   3.606   2.204   3.930
 6589SOL    HW230697   3.566   2.238   3.775
 6590SOL     OW30698   1.771   5.443   1.899
 6590SOL    HW130699   1.711   5.508   1.946
 6590SOL    HW230700   1.749   5.350   1.927
 6591SOL     OW30701   8.592   8.132   3.816
 6591SOL    HW130702   8.646   8.103   3.895
 6591SOL    HW230703   8.565   8.228   3.828
 6592SOL     OW30704   8.846   1.775   0.286
 6592SOL    HW130705   8.799   1.845   0.340
 6592SOL    HW230706   8.944   1.793   0.287
 6593SOL     OW30707   8.421   5.479   4.722
 6593SOL    HW130708   8.417   5.487   4.821
 6593SOL    HW230709   8.379   5.560   4.680
 6594SOL     OW30710   3.561   7.190   2.497
 6594SOL    HW130711   3.557   7.280   2.454
 6594SOL    HW230712   3.512   7.124   2.441
 6595SOL     OW30713   8.530   8.651   0.260
 6595SOL    HW130714   8.468   8.574   0.274
 6595SOL    HW230715   8.606   8.622   0.201
 6596SOL     OW30716   6.419   7.294   5.087
 6596SOL    HW130717   6.320   7.282   5.086
 6596SOL    HW230718   6.451   7.308   4.993
 6597SOL     OW30719   4.078   8.857   1.964
 6597SOL    HW130720   4.162   8.817   1.929
 6597SOL    HW230721   4.049   8.809   2.047
 6598SOL     OW30722   2.582   6.973   3.305
 6598SOL    HW130723   2.494   6.976   3.351
 6598SOL    HW230724   2.621   6.881   3.312
 6599SOL     OW30725   2.926   4.071   0.771
 6599SOL    HW130726   2.917   4.170   0.776
 6599SOL    HW230727   2.902   4.040   0.679
 6600SOL     OW30728   1.476   2.334   0.055
 6600SOL    HW130729   1.492   2.429   0.029
 6600SOL    HW230730   1.382   2.322   0.085
 6601SOL     OW30731   7.136   2.545   1.801
 6601SOL    HW130732   7.181   2.634   1.791
 6601SOL    HW230733   7.093   2.519   1.714
 6602SOL     OW30734   7.486   1.261   1.601
 6602SOL    HW130735   7.504   1.257   1.700
 6602SOL    HW230736   7.402   1.312   1.585
 6603SOL     OW30737   1.163   3.141   3.144
 6603SOL    HW130738   1.171   3.218   3.207
 6603SOL    HW230739   1.204   3.166   3.056
 6604SOL     OW30740   0.265   9.962   1.315
 6604SOL    HW130741   0.293   0.055   1.338
 6604SOL    HW230742   0.193   9.932   1.378
 6605SOL     OW30743   4.470   1.236   2.097
 6605SOL    HW130744   4.548   1.297   2.114
 6605SOL    HW230745   4.492   1.144   2.132
 6606SOL     OW30746   1.722   2.055   5.175
 6606SOL    HW130747   1.681   2.143   5.149
 6606SOL    HW230748   1.661   1.980   5.147
 6607SOL     OW30749   9.857   7.661   4.467
 6607SOL    HW130750   9.898   7.577   4.432
 6607SOL    HW230751   9.863   7.662   4.567
 6608SOL     OW30752   9.217   6.398   3.388
 6608SOL    HW130753   9.147   6.434   3.449
 6608SOL    HW230754   9.213   6.447   3.301
 6609SOL     OW30755   8.076   4.988   4.558
 6609SOL    HW130756   8.113   5.063   4.504
 6609SOL    HW230757   8.150   4.942   4.607
 6610SOL     OW30758   7.915   5.556   1.104
 6610SOL    HW130759   7.834   5.565   1.047
 6610SOL    HW230760   7.954   5.646   1.122
 6611SOL     OW30761   8.272   3.457   1.597
 6611SOL    HW130762   8.282   3.444   1.696
 6611SOL    HW230763   8.348   3.413   1.550
 6612SOL     OW30764   3.961   0.120   0.117
 6612SOL    HW130765   4.055   0.092   0.100
 6612SOL    HW230766   3.907   0.042   0.147
 6613SOL     OW30767   5.980   1.159   5.078
 6613SOL    HW130768   6.002   1.253   5.103
 6613SOL    HW230769   5.886   1.154   5.045
 6614SOL     OW30770   2.984   7.603   2.544
 6614SOL    HW130771   2.891   7.622   2.575
 6614SOL    HW230772   3.031   7.548   2.613
 6615SOL     OW30773   1.489   5.152   3.692
 6615SOL    HW130774   1.397   5.184   3.668
 6615SOL    HW230775   1.557   5.212   3.650
 6616SOL     OW30776   9.602   4.342   4.231
 6616SOL    HW130777   9.563   4.371   4.318
 6616SOL    HW230778   9.544   4.271   4.191
 6617SOL     OW30779   8.199   5.176   2.087
 6617SOL    HW130780   8.218   5.094   2.033
 6617SOL    HW230781   8.249   5.171   2.174
 6618SOL     OW30782   8.258   4.284   4.357
 6618SOL    HW130783   8.266   4.188   4.329
 6618SOL    HW230784   8.163   4.304   4.378
 6619SOL     OW30785   8.858   1.500   0.803
 6619SOL    HW130786   8.955   1.517   0.786
 6619SOL    HW230787   8.827   1.422   0.748
 6620SOL     OW30788   1.260   2.284   2.524
 6620SOL    HW130789   1.270   2.201   2.469
 6620SOL    HW230790   1.335   2.346   2.503
 6621SOL     OW30791   2.556   8.195   0.783
 6621SOL    HW130792   2.460   8.167   0.787
 6621SOL    HW230793   2.580   8.243   0.867
 6622SOL     OW30794   7.405   3.690   1.292
 6622SOL    HW130795   7.382   3.788   1.293
 6622SOL    HW230796   7.369   3.646   1.374
 6623SOL     OW30797   8.612   3.905   4.898
 6623SOL    HW130798   8.624   3.873   4.992
 6623SOL    HW230799   8.530   3.961   4.891
 6624SOL     OW30800   9.113   9.635   3.073
 6624SOL    HW130801   9.138   9.722   3.117
 6624SOL    HW230802   9.160   9.628   2.986
 6625SOL     OW30803   2.553   7.768   4.036
 6625SOL    HW130804   2.471   7.802   4.081
 6625SOL    HW230805   2.620   7.841   4.028
 6626SOL     OW30806   0.019   5.881   4.467
 6626SOL    HW130807   0.041   5.978   4.479
 6626SOL    HW230808   9.921   5.868   4.479
 6627SOL     OW30809   0.577   8.175   1.144
 6627SOL    HW130810   0.607   8.130   1.228
 6627SOL    HW230811   0.551   8.106   1.077
 6628SOL     OW30812   5.664   4.001   0.219
 6628SOL    HW130813   5.630   4.036   0.306
 6628SOL    HW230814   5.588   3.963   0.166
 6629SOL     OW30815   7.526   3.761   0.083
 6629SOL    HW130816   7.587   3.791   0.156
 6629SOL    HW230817   7.533   3.824   0.006
 6630SOL     OW30818   2.579   9.459   2.015
 6630SOL    HW130819   2.577   9.521   1.936
 6630SOL    HW230820   2.657   9.481   2.073
 6631SOL     OW30821   4.991   2.095   4.607
 6631SOL    HW130822   4.902   2.139   4.615
 6631SOL    HW230823   5.063   2.163   4.616
 6632SOL     OW30824   1.361   7.522   5.177
 6632SOL    HW130825   1.389   7.607   5.223
 6632SOL    HW230826   1.279   7.486   5.223
 6633SOL     OW30827   2.116   9.593   2.230
 6633SOL    HW130828   2.080   9.677   2.188
 6633SOL    HW230829   2.185   9.553   2.170
 6634SOL     OW30830   1.389   0.121   4.057
 6634SOL    HW130831   1.373   0.214   4.022
 6634SOL    HW230832   1.365   0.054   3.987
 6635SOL     OW30833   4.012   3.015   2.377
 6635SOL    HW130834   4.049   2.938   2.429
 6635SOL    HW230835   3.950   2.981   2.307
 6636SOL     OW30836   3.854   1.316   1.539
 6636SOL    HW130837   3.937   1.364   1.510
 6636SOL    HW230838   3.816   1.362   1.619
 6637SOL     OW30839   0.446   3.382   0.566
 6637SOL    HW130840   0.529   3.391   0.511
 6637SOL    HW230841   0.421   3.472   0.602
 6638SOL     OW30842   5.170   0.877   2.715
 6638SOL    HW130843   5.089   0.823   2.739
 6638SOL    HW230844   5.243   0.817   2.685
 6639SOL     OW30845   1.664   5.036   0.123
 6639SOL    HW130846   1.625   5.022   0.213
 6639SOL    HW230847   1.748   4.982   0.114
 6640SOL     OW30848   1.745   1.111   4.972
 6640SOL    HW130849   1.842   1.096   4.948
 6640SOL    HW230850   1.739   1.153   5.062
 6641SOL     OW30851   4.553   5.544   2.131
 6641SOL    HW130852   4.633   5.487   2.118
 6641SOL    HW230853   4.471   5.495   2.100
 6642SOL     OW30854   2.895   3.042   0.213
 6642SOL    HW130855   2.960   3.014   0.284
 6642SOL    HW230856   2.861   2.961   0.165
 6643SOL     OW30857   0.775   5.798   2.470
 6643SOL    HW130858   0.739   5.762   2.383
 6643SOL    HW230859   0.702   5.846   2.518
 6644SOL     OW30860   9.515   7.530   2.313
 6644SOL    HW130861   9.610   7.562   2.320
 6644SOL    HW230862   9.454   7.609   2.303
 6645SOL     OW30863   5.451   0.371   3.060
 6645SOL    HW130864   5.428   0.337   3.151
 6645SOL    HW230865   5.502   0.300   3.011
 6646SOL     OW30866   2.994   8.728   4.070
 6646SOL    HW130867   2.981   8.696   3.976
 6646SOL    HW230868   3.046   8.814   4.069
 6647SOL     OW30869   4.176   8.590   0.905
 6647SOL    HW130870   4.232   8.667   0.936
 6647SOL    HW230871   4.080   8.617   0.902
 6648SOL     OW30872   3.679   3.020   3.381
 6648SOL    HW130873   3.584   2.993   3.393
 6648SOL    HW230874   3.709   2.994   3.289
 6649SOL     OW30875   1.734   8.216   5.108
 6649SOL    HW130876   1.676   8.240   5.030
 6649SOL    HW230877   1.752   8.298   5.162
 6650SOL     OW30878   4.441   1.348   1.393
 6650SOL    HW130879   4.467   1.262   1.349
 6650SOL    HW230880   4.521   1.390   1.435
 6651SOL     OW30881   0.617   1.842   1.412
 6651SOL    HW130882   0.609   1.911   1.340
 6651SOL    HW230883   0.675   1.878   1.486
 6652SOL     OW30884   2.381   4.708   4.138
 6652SOL    HW130885   2.390   4.613   4.169
 6652SOL    HW230886   2.463   4.759   4.163
 6653SOL     OW30887   8.291   3.903   1.835
 6653SOL    HW130888   8.245   3.975   1.886
 6653SOL    HW230889   8.290   3.924   1.737
 6654SOL     OW30890   6.451   5.284   0.802
 6654SOL    HW130891   6.532   5.343   0.801
 6654SOL    HW230892   6.424   5.262   0.708
 6655SOL     OW30893   8.705   3.403   3.468
 6655SOL    HW130894   8.706   3.425   3.371
 6655SOL    HW230895   8.763   3.323   3.485
 6656SOL     OW30896   7.606   1.293   1.242
 6656SOL    HW130897   7.509   1.269   1.245
 6656SOL    HW230898   7.630   1.345   1.324
 6657SOL     OW30899   9.882   9.041   2.051
 6657SOL    HW130900   9.975   9.018   2.020
 6657SOL    HW230901   9.878   9.035   2.150
 6658SOL     OW30902   6.927   1.528   1.987
 6658SOL    HW130903   6.989   1.551   2.062
 6658SOL    HW230904   6.860   1.460   2.019
 6659SOL     OW30905   8.785   2.232   3.163
 6659SOL    HW130906   8.883   2.248   3.159
 6659SOL    HW230907   8.766   2.163   3.234
 6660SOL     OW30908   4.196   4.981   3.394
 6660SOL    HW130909   4.251   4.993   3.311
 6660SOL    HW230910   4.209   5.060   3.454
 6661SOL     OW30911   5.494   1.710   3.424
 6661SOL    HW130912   5.452   1.628   3.388
 6661SOL    HW230913   5.591   1.711   3.401
 6662SOL     OW30914   9.220   5.829   1.427
 6662SOL    HW130915   9.278   5.906   1.401
 6662SOL    HW230916   9.212   5.826   1.527
 6663SOL     OW30917   2.099   5.916   4.903
 6663SOL    HW130918   2.093   6.013   4.880
 6663SOL    HW230919   2.047   5.899   4.987
 6664SOL     OW30920   9.763   8.940   4.836
 6664SOL    HW130921   9.810   8.990   4.763
 6664SOL    HW230922   9.830   8.907   4.902
 6665SOL     OW30923   2.649   3.902   2.118
 6665SOL    HW130924   2.632   3.999   2.102
 6665SOL    HW230925   2.738   3.876   2.080
 6666SOL     OW30926   3.132   2.610   2.528
 6666SOL    HW130927   3.074   2.613   2.447
 6666SOL    HW230928   3.113   2.689   2.587
 6667SOL     OW30929   2.371   0.297   4.210
 6667SOL    HW130930   2.392   0.211   4.164
 6667SOL    HW230931   2.272   0.307   4.221
 6668SOL     OW30932   7.511   2.556   0.518
 6668SOL    HW130933   7.481   2.649   0.495
 6668SOL    HW230934   7.564   2.519   0.442
 6669SOL     OW30935   2.699   2.388   4.001
 6669SOL    HW130936   2.645   2.304   4.006
 6669SOL    HW230937   2.653   2.460   4.054
 6670SOL     OW30938   7.704   0.073   4.021
 6670SOL    HW130939   7.761   0.128   4.083
 6670SOL    HW230940   7.762   0.009   3.971
 6671SOL     OW30941   9.564   9.882   3.638
 6671SOL    HW130942   9.492   9.909   3.702
 6671SOL    HW230943   9.619   9.962   3.614
 6672SOL     OW30944   7.966   6.857   3.660
 6672SOL    HW130945   7.986   6.761   3.639
 6672SOL    HW230946   8.042   6.914   3.630
 6673SOL     OW30947   9.393   6.692   4.924
 6673SOL    HW130948   9.359   6.775   4.879
 6673SOL    HW230949   9.339   6.674   5.007
 6674SOL     OW30950   1.152   3.476   2.551
 6674SOL    HW130951   1.152   3.535   2.632
 6674SOL    HW230952   1.236   3.423   2.549
 6675SOL     OW30953   8.958   1.686   2.879
 6675SOL    HW130954   8.896   1.608   2.875
 6675SOL    HW230955   9.053   1.653   2.880
 6676SOL     OW30956   5.283   8.355   2.924
 6676SOL    HW130957   5.189   8.320   2.916
 6676SOL    HW230958   5.288   8.419   3.001
 6677SOL     OW30959   0.893   6.650   4.454
 6677SOL    HW130960   0.863   6.668   4.548
 6677SOL    HW230961   0.845   6.570   4.418
 6678SOL     OW30962   8.014   3.112   1.578
 6678SOL    HW130963   8.087   3.125   1.646
 6678SOL    HW230964   7.948   3.044   1.613
 6679SOL     OW30965   4.910   5.590   2.202
 6679SOL    HW130966   5.005   5.588   2.169
 6679SOL    HW230967   4.901   5.662   2.272
 6680SOL     OW30968   4.957   3.372   0.567
 6680SOL    HW130969   4.905   3.286   0.569
 6680SOL    HW230970   5.005   3.384   0.654
 6681SOL     OW30971   9.013   3.846   0.135
 6681SOL    HW130972   9.042   3.893   0.218
 6681SOL    HW230973   9.090   3.836   0.073
 6682SOL     OW30974   8.065   7.381   2.563
 6682SOL    HW130975   8.017   7.468   2.572
 6682SOL    HW230976   8.021   7.313   2.621
 6683SOL     OW30977   2.126   3.553   3.859
 6683SOL    HW130978   2.214   3.531   3.900
 6683SOL    HW230979   2.130   3.645   3.819
 6684SOL     OW30980   7.265   0.676   0.503
 6684SOL    HW130981   7.171   0.677   0.471
 6684SOL    HW230982   7.327   0.687   0.425
 6685SOL     OW30983   2.899   5.222   4.372
 6685SOL    HW130984   2.966   5.296   4.361
 6685SOL    HW230985   2.946   5.137   4.391
 6686SOL     OW30986   2.336   9.417   1.782
 6686SOL    HW130987   2.327   9.318   1.767
 6686SOL    HW230988   2.312   9.438   1.877
 6687SOL     OW30989   3.082   0.705   1.735
 6687SOL    HW130990   3.013   0.708   1.662
 6687SOL    HW230991   3.135   0.789   1.735
 6688SOL     OW30992   9.005   4.578   1.024
 6688SOL    HW130993   9.052   4.662   1.051
 6688SOL    HW230994   9.072   4.513   0.987
 6689SOL     OW30995   2.503   7.173   2.544
 6689SOL    HW130996   2.440   7.211   2.612
 6689SOL    HW230997   2.596   7.206   2.562
 6690SOL     OW30998   2.284   5.405   0.625
 6690SOL    HW130999   2.308   5.314   0.657
 6690SOL    HW231000   2.203   5.437   0.674
 6691SOL     OW31001   2.201   9.893   4.094
 6691SOL    HW131002   2.157   9.863   4.010
 6691SOL    HW231003   2.132   9.909   4.164
 6692SOL     OW31004   2.586   9.736   3.479
 6692SOL    HW131005   2.558   9.640   3.479
 6692SOL    HW231006   2.587   9.770   3.385
 6693SOL     OW31007   0.843   0.088   0.269
 6693SOL    HW131008   0.932   0.046   0.290
 6693SOL    HW231009   0.851   0.187   0.273
 6694SOL     OW31010   1.392   6.903   1.403
 6694SOL    HW131011   1.332   6.875   1.478
 6694SOL    HW231012   1.462   6.964   1.438
 6695SOL     OW31013   5.183   7.498   3.118
 6695SOL    HW131014   5.096   7.489   3.069
 6695SOL    HW231015   5.175   7.572   3.186
 6696SOL     OW31016   5.625   8.066   4.715
 6696SOL    HW131017   5.574   8.048   4.799
 6696SOL    HW231018   5.637   8.165   4.704
 6697SOL     OW31019   4.726   2.654   1.266
 6697SOL    HW131020   4.694   2.648   1.360
 6697SOL    HW231021   4.711   2.746   1.231
 6698SOL     OW31022   0.841   7.746   1.974
 6698SOL    HW131023   0.843   7.846   1.970
 6698SOL    HW231024   0.882   7.709   1.891
 6699SOL     OW31025   4.077   8.044   2.634
 6699SOL    HW131026   4.047   8.140   2.634
 6699SOL    HW231027   4.002   7.986   2.605
 6700SOL     OW31028   2.905   8.476   4.600
 6700SOL    HW131029   2.920   8.478   4.699
 6700SOL    HW231030   2.992   8.459   4.554
 6701SOL     OW31031   5.246   0.943   4.625
 6701SOL    HW131032   5.178   1.016   4.638
 6701SOL    HW231033   5.308   0.967   4.551
 6702SOL     OW31034   1.452   6.498   1.065
 6702SOL    HW131035   1.460   6.574   1.129
 6702SOL    HW231036   1.374   6.441   1.091
 6703SOL     OW31037   9.491   5.278   1.971
 6703SOL    HW131038   9.552   5.216   1.922
 6703SOL    HW231039   9.466   5.238   2.059
 6704SOL     OW31040   1.858   6.218   1.919
 6704SOL    HW131041   1.909   6.270   1.851
 6704SOL    HW231042   1.917   6.199   1.998
 6705SOL     OW31043   4.358   5.951   2.748
 6705SOL    HW131044   4.358   5.893   2.667
 6705SOL    HW231045   4.284   6.018   2.742
 6706SOL     OW31046   4.555   9.277   3.803
 6706SOL    HW131047   4.611   9.207   3.847
 6706SOL    HW231048   4.474   9.236   3.763
 6707SOL     OW31049   4.447   8.427   3.723
 6707SOL    HW131050   4.543   8.420   3.751
 6707SOL    HW231051   4.402   8.339   3.736
 6708SOL     OW31052   5.344   5.095   0.152
 6708SOL    HW131053   5.411   5.123   0.083
 6708SOL    HW231054   5.372   5.128   0.242
 6709SOL     OW31055   9.739   3.937   3.897
 6709SOL    HW131056   9.677   4.016   3.899
 6709SOL    HW231057   9.800   3.941   3.976
 6710SOL     OW31058   3.960   4.136   4.794
 6710SOL    HW131059   3.911   4.206   4.845
 6710SOL    HW231060   4.058   4.142   4.816
 6711SOL     OW31061   1.537   4.863   3.150
 6711SOL    HW131062   1.599   4.831   3.078
 6711SOL    HW231063   1.474   4.790   3.174
 6712SOL     OW31064   1.867   4.566   2.924
 6712SOL    HW131065   1.899   4.492   2.982
 6712SOL    HW231066   1.945   4.617   2.889
 6713SOL     OW31067   3.803   0.657   0.483
 6713SOL    HW131068   3.875   0.723   0.501
 6713SOL    HW231069   3.803   0.633   0.386
 6714SOL     OW31070   4.185   8.836   4.878
 6714SOL    HW131071   4.165   8.903   4.949
 6714SOL    HW231072   4.191   8.882   4.790
 6715SOL     OW31073   4.146   3.455   1.503
 6715SOL    HW131074   4.101   3.394   1.568
 6715SOL    HW231075   4.239   3.475   1.534
 6716SOL     OW31076   9.625   1.962   3.181
 6716SOL    HW131077   9.573   1.949   3.265
 6716SOL    HW231078   9.632   1.874   3.133
 6717SOL     OW31079   8.683   9.107   1.838
 6717SOL    HW131080   8.750   9.033   1.834
 6717SOL    HW231081   8.682   9.156   1.751
 6718SOL     OW31082   1.275   1.903   2.907
 6718SOL    HW131083   1.283   1.953   2.994
 6718SOL    HW231084   1.248   1.966   2.835
 6719SOL     OW31085   3.103   3.875   2.333
 6719SOL    HW131086   3.078   3.781   2.356
 6719SOL    HW231087   3.161   3.876   2.252
 6720SOL     OW31088   6.671   0.295   2.524
 6720SOL    HW131089   6.648   0.387   2.494
 6720SOL    HW231090   6.616   0.271   2.604
 6721SOL     OW31091   6.168   1.502   0.816
 6721SOL    HW131092   6.171   1.551   0.903
 6721SOL    HW231093   6.260   1.497   0.777
 6722SOL     OW31094   7.780   6.721   4.922
 6722SOL    HW131095   7.824   6.777   4.851
 6722SOL    HW231096   7.836   6.640   4.940
 6723SOL     OW31097   1.490   6.658   3.579
 6723SOL    HW131098   1.566   6.705   3.623
 6723SOL    HW231099   1.523   6.606   3.501
 6724SOL     OW31100   3.463   8.353   4.317
 6724SOL    HW131101   3.556   8.321   4.297
 6724SOL    HW231102   3.397   8.285   4.285
 6725SOL     OW31103   5.224   2.590   1.813
 6725SOL    HW131104   5.295   2.587   1.883
 6725SOL    HW231105   5.177   2.502   1.809
 6726SOL     OW31106   8.115   8.827   3.164
 6726SOL    HW131107   8.025   8.862   3.136
 6726SOL    HW231108   8.180   8.840   3.089
 6727SOL     OW31109   5.079   0.992   1.502
 6727SOL    HW131110   5.023   0.954   1.427
 6727SOL    HW231111   5.043   1.081   1.528
 6728SOL     OW31112   3.436   1.278   0.806
 6728SOL    HW131113   3.437   1.373   0.837
 6728SOL    HW231114   3.370   1.268   0.731
 6729SOL     OW31115   4.775   1.907   0.353
 6729SOL    HW131116   4.845   1.945   0.414
 6729SOL    HW231117   4.729   1.982   0.305
 6730SOL     OW31118   2.825   2.044   5.011
 6730SOL    HW131119   2.781   2.128   5.043
 6730SOL    HW231120   2.850   1.987   5.089
 6731SOL     OW31121   1.735   0.172   1.633
 6731SOL    HW131122   1.767   0.085   1.594
 6731SOL    HW231123   1.795   0.246   1.603
 6732SOL     OW31124   8.542   9.427   3.163
 6732SOL    HW131125   8.576   9.420   3.257
 6732SOL    HW231126   8.530   9.335   3.126
 6733SOL     OW31127   3.342   9.746   1.032
 6733SOL    HW131128   3.322   9.706   1.121
 6733SOL    HW231129   3.439   9.736   1.011
 6734SOL     OW31130   7.324   3.872   1.875
 6734SOL    HW131131   7.312   3.875   1.776
 6734SOL    HW231132   7.348   3.963   1.909
 6735SOL     OW31133   4.151   8.508   2.944
 6735SOL    HW131134   4.082   8.444   2.978
 6735SOL    HW231135   4.110   8.598   2.933
 6736SOL     OW31136   0.995   4.399   2.235
 6736SOL    HW131137   0.930   4.359   2.171
 6736SOL    HW231138   0.962   4.388   2.329
 6737SOL     OW31139   1.427   4.612   1.794
 6737SOL    HW131140   1.347   4.562   1.828
 6737SOL    HW231141   1.495   4.547   1.761
 6738SOL     OW31142   4.717   0.834   2.609
 6738SOL    HW131143   4.686   0.927   2.629
 6738SOL    HW231144   4.642   0.770   2.625
 6739SOL     OW31145   1.198   6.365   4.824
 6739SOL    HW131146   1.101   6.388   4.820
 6739SOL    HW231147   1.232   6.350   4.731
 6740SOL     OW31148   4.630   1.102   0.810
 6740SOL    HW131149   4.630   1.025   0.746
 6740SOL    HW231150   4.636   1.067   0.904
 6741SOL     OW31151   8.547   1.801   3.598
 6741SOL    HW131152   8.528   1.885   3.546
 6741SOL    HW231153   8.645   1.790   3.609
 6742SOL     OW31154   7.005   0.062   3.817
 6742SOL    HW131155   6.978   0.158   3.822
 6742SOL    HW231156   7.056   0.046   3.733
 6743SOL     OW31157   0.080   2.830   4.819
 6743SOL    HW131158   0.167   2.878   4.834
 6743SOL    HW231159   0.083   2.741   4.865
 6744SOL     OW31160   0.642   4.125   2.655
 6744SOL    HW131161   0.687   4.210   2.682
 6744SOL    HW231162   0.626   4.069   2.737
 6745SOL     OW31163   1.995   0.200   3.952
 6745SOL    HW131164   1.921   0.158   4.005
 6745SOL    HW231165   2.017   0.142   3.874
 6746SOL     OW31166   3.560   0.138   2.357
 6746SOL    HW131167   3.563   0.229   2.315
 6746SOL    HW231168   3.482   0.088   2.321
 6747SOL     OW31169   2.157   0.283   4.469
 6747SOL    HW131170   2.116   0.286   4.378
 6747SOL    HW231171   2.195   0.191   4.485
 6748SOL     OW31172   2.648   4.356   2.818
 6748SOL    HW131173   2.549   4.368   2.819
 6748SOL    HW231174   2.684   4.384   2.729
 6749SOL     OW31175   8.698   5.959   0.945
 6749SOL    HW131176   8.779   6.016   0.961
 6749SOL    HW231177   8.670   5.917   1.032
 6750SOL     OW31178   0.123   6.892   1.611
 6750SOL    HW131179   0.102   6.822   1.543
 6750SOL    HW231180   0.097   6.859   1.702
 6751SOL     OW31181   9.665   8.410   2.016
 6751SOL    HW131182   9.640   8.318   2.044
 6751SOL    HW231183   9.720   8.406   1.933
 6752SOL     OW31184   8.022   9.786   4.666
 6752SOL    HW131185   7.942   9.759   4.719
 6752SOL    HW231186   8.079   9.848   4.720
 6753SOL     OW31187   9.275   1.029   4.352
 6753SOL    HW131188   9.328   1.009   4.434
 6753SOL    HW231189   9.256   0.945   4.302
 6754SOL     OW31190   2.236   6.846   4.336
 6754SOL    HW131191   2.297   6.923   4.318
 6754SOL    HW231192   2.156   6.878   4.387
 6755SOL     OW31193   8.873   2.722   0.977
 6755SOL    HW131194   8.807   2.666   1.026
 6755SOL    HW231195   8.966   2.692   1.001
 6756SOL     OW31196   7.095   1.809   4.048
 6756SOL    HW131197   7.018   1.829   3.987
 6756SOL    HW231198   7.103   1.882   4.115
 6757SOL     OW31199   8.590   1.467   2.386
 6757SOL    HW131200   8.638   1.380   2.397
 6757SOL    HW231201   8.500   1.451   2.347
 6758SOL     OW31202   2.365   6.242   1.911
 6758SOL    HW131203   2.442   6.256   1.849
 6758SOL    HW231204   2.294   6.188   1.865
 6759SOL     OW31205   1.057   5.312   4.743
 6759SOL    HW131206   1.132   5.320   4.677
 6759SOL    HW231207   0.982   5.261   4.703
 6760SOL     OW31208   7.537   2.720   4.867
 6760SOL    HW131209   7.453   2.668   4.858
 6760SOL    HW231210   7.526   2.811   4.827
 6761SOL     OW31211   0.753   3.018   1.362
 6761SOL    HW131212   0.799   2.988   1.278
 6761SOL    HW231213   0.655   3.027   1.344
 6762SOL     OW31214   4.312   2.223   5.051
 6762SOL    HW131215   4.378   2.298   5.052
 6762SOL    HW231216   4.313   2.178   4.962
 6763SOL     OW31217   2.729   2.741   4.383
 6763SOL    HW131218   2.779   2.658   4.363
 6763SOL    HW231219   2.703   2.786   4.297
 6764SOL     OW31220   8.994   1.975   1.772
 6764SOL    HW131221   8.981   1.902   1.705
 6764SOL    HW231222   9.054   1.943   1.846
 6765SOL     OW31223   8.343   2.001   1.391
 6765SOL    HW131224   8.260   1.953   1.420
 6765SOL    HW231225   8.382   1.955   1.311
 6766SOL     OW31226   0.574   6.332   0.942
 6766SOL    HW131227   0.573   6.432   0.945
 6766SOL    HW231228   0.663   6.298   0.970
 6767SOL     OW31229   1.954   3.639   3.088
 6767SOL    HW131230   1.868   3.600   3.053
 6767SOL    HW231231   1.970   3.606   3.181
 6768SOL     OW31232   5.789   1.296   2.948
 6768SOL    HW131233   5.724   1.309   2.873
 6768SOL    HW231234   5.865   1.240   2.917
 6769SOL     OW31235   4.435   5.254   1.667
 6769SOL    HW131236   4.517   5.311   1.673
 6769SOL    HW231237   4.362   5.294   1.721
 6770SOL     OW31238   4.633   0.982   4.060
 6770SOL    HW131239   4.658   0.900   4.008
 6770SOL    HW231240   4.692   0.990   4.141
 6771SOL     OW31241   1.318   8.604   4.386
 6771SOL    HW131242   1.271   8.570   4.468
 6771SOL    HW231243   1.372   8.530   4.345
 6772SOL     OW31244   7.165   0.232   2.954
 6772SOL    HW131245   7.149   0.319   3.001
 6772SOL    HW231246   7.263   0.209   2.959
 6773SOL     OW31247   2.510   6.632   2.197
 6773SOL    HW131248   2.462   6.675   2.273
 6773SOL    HW231249   2.449   6.566   2.152
 6774SOL     OW31250   9.404   6.939   0.171
 6774SOL    HW131251   9.406   7.035   0.143
 6774SOL    HW231252   9.495   6.900   0.161
 6775SOL     OW31253   2.024   1.304   1.111
 6775SOL    HW131254   2.027   1.379   1.177
 6775SOL    HW231255   2.110   1.252   1.115
 6776SOL     OW31256   8.970   4.974   4.512
 6776SOL    HW131257   9.065   4.974   4.480
 6776SOL    HW231258   8.943   4.880   4.536
 6777SOL     OW31259   1.774   4.626   4.899
 6777SOL    HW131260   1.729   4.562   4.836
 6777SOL    HW231261   1.872   4.605   4.903
 6778SOL     OW31262   2.811   2.901   1.640
 6778SOL    HW131263   2.846   2.931   1.552
 6778SOL    HW231264   2.785   2.805   1.635
 6779SOL     OW31265   9.277   0.578   4.993
 6779SOL    HW131266   9.287   0.480   4.975
 6779SOL    HW231267   9.332   0.629   4.927
 6780SOL     OW31268   8.980   5.625   3.334
 6780SOL    HW131269   8.881   5.636   3.345
 6780SOL    HW231270   9.014   5.698   3.275
 6781SOL     OW31271   9.908   0.606   3.067
 6781SOL    HW131272   9.857   0.578   3.148
 6781SOL    HW231273   9.927   0.526   3.010
 6782SOL     OW31274   7.013   8.452   4.948
 6782SOL    HW131275   7.043   8.418   5.037
 6782SOL    HW231276   7.090   8.499   4.903
 6783SOL     OW31277   1.860   1.914   3.093
 6783SOL    HW131278   1.790   1.924   3.163
 6783SOL    HW231279   1.940   1.870   3.132
 6784SOL     OW31280   2.523   5.533   0.586
 6784SOL    HW131281   2.503   5.622   0.544
 6784SOL    HW231282   2.437   5.484   0.601
 6785SOL     OW31283   9.166   6.986   3.789
 6785SOL    HW131284   9.091   7.001   3.854
 6785SOL    HW231285   9.160   6.893   3.753
 6786SOL     OW31286   3.543   0.687   5.104
 6786SOL    HW131287   3.553   0.725   5.012
 6786SOL    HW231288   3.523   0.589   5.097
 6787SOL     OW31289   9.953   8.310   3.192
 6787SOL    HW131290   9.970   8.269   3.102
 6787SOL    HW231291   9.933   8.237   3.257
 6788SOL     OW31292   3.059   6.016   1.590
 6788SOL    HW131293   3.138   6.018   1.529
 6788SOL    HW231294   2.979   6.052   1.542
 6789SOL     OW31295   9.601   1.157   1.453
 6789SOL    HW131296   9.646   1.183   1.539
 6789SOL    HW231297   9.662   1.097   1.401
 6790SOL     OW31298   8.968   9.761   0.183
 6790SOL    HW131299   8.981   9.665   0.158
 6790SOL    HW231300   9.047   9.793   0.235
 6791SOL     OW31301   0.606   8.939   0.615
 6791SOL    HW131302   0.556   8.877   0.676
 6791SOL    HW231303   0.553   9.023   0.603
 6792SOL     OW31304   2.291   7.521   3.764
 6792SOL    HW131305   2.245   7.498   3.849
 6792SOL    HW231306   2.249   7.472   3.688
 6793SOL     OW31307   0.035   9.902   5.110
 6793SOL    HW131308   9.969   9.839   5.152
 6793SOL    HW231309   9.989   9.986   5.083
 6794SOL     OW31310   4.775   8.021   3.461
 6794SOL    HW131311   4.728   7.933   3.454
 6794SOL    HW231312   4.709   8.095   3.442
 6795SOL     OW31313   2.718   7.291   0.944
 6795SOL    HW131314   2.671   7.214   0.902
 6795SOL    HW231315   2.713   7.370   0.884
 6796SOL     OW31316   1.395   9.705   5.172
 6796SOL    HW131317   1.303   9.666   5.165
 6796SOL    HW231318   1.459   9.633   5.201
 6797SOL     OW31319   9.472   2.877   4.116
 6797SOL    HW131320   9.401   2.943   4.089
 6797SOL    HW231321   9.549   2.884   4.053
 6798SOL     OW31322   1.754   6.970   4.581
 6798SOL    HW131323   1.767   6.966   4.680
 6798SOL    HW231324   1.764   6.878   4.543
 6799SOL     OW31325   7.147   5.176   0.222
 6799SOL    HW131326   7.119   5.179   0.318
 6799SOL    HW231327   7.236   5.132   0.214
 6800SOL     OW31328   0.286   4.498   3.162
 6800SOL    HW131329   0.374   4.499   3.116
 6800SOL    HW231330   0.244   4.589   3.154
 6801SOL     OW31331   9.441   3.757   1.547
 6801SOL    HW131332   9.384   3.721   1.473
 6801SOL    HW231333   9.383   3.791   1.620
 6802SOL     OW31334   0.191   4.891   0.203
 6802SOL    HW131335   0.096   4.883   0.173
 6802SOL    HW231336   0.238   4.958   0.145
 6803SOL     OW31337   0.138   6.320   1.444
 6803SOL    HW131338   0.174   6.244   1.390
 6803SOL    HW231339   0.133   6.402   1.386
 6804SOL     OW31340   0.652   4.714   5.068
 6804SOL    HW131341   0.691   4.634   5.022
 6804SOL    HW231342   0.648   4.791   5.005
 6805SOL     OW31343   2.636   7.965   0.656
 6805SOL    HW131344   2.715   7.989   0.599
 6805SOL    HW231345   2.609   8.044   0.710
 6806SOL     OW31346   4.232   3.554   4.341
 6806SOL    HW131347   4.291   3.473   4.345
 6806SOL    HW231348   4.286   3.634   4.316
 6807SOL     OW31349   4.618   1.777   0.544
 6807SOL    HW131350   4.643   1.836   0.620
 6807SOL    HW231351   4.661   1.811   0.460
 6808SOL     OW31352   4.436   5.510   0.335
 6808SOL    HW131353   4.525   5.515   0.290
 6808SOL    HW231354   4.383   5.435   0.296
 6809SOL     OW31355   2.829   0.167   4.700
 6809SOL    HW131356   2.813   0.144   4.605
 6809SOL    HW231357   2.925   0.193   4.713
 6810SOL     OW31358   9.595   8.286   2.409
 6810SOL    HW131359   9.688   8.252   2.393
 6810SOL    HW231360   9.579   8.296   2.507
 6811SOL     OW31361   2.966   6.430   3.900
 6811SOL    HW131362   2.967   6.477   3.812
 6811SOL    HW231363   2.907   6.349   3.894
 6812SOL     OW31364   1.904   6.342   4.351
 6812SOL    HW131365   1.905   6.336   4.251
 6812SOL    HW231366   1.998   6.353   4.384
 6813SOL     OW31367   4.726   2.384   4.012
 6813SOL    HW131368   4.645   2.428   3.973
 6813SOL    HW231369   4.764   2.443   4.084
 6814SOL     OW31370   4.631   1.471   1.798
 6814SOL    HW131371   4.543   1.455   1.843
 6814SOL    HW231372   4.683   1.540   1.847
 6815SOL     OW31373   2.855   8.812   0.097
 6815SOL    HW131374   2.789   8.883   0.073
 6815SOL    HW231375   2.945   8.836   0.059
 6816SOL     OW31376   7.884   2.706   1.846
 6816SOL    HW131377   7.801   2.664   1.883
 6816SOL    HW231378   7.953   2.711   1.918
 6817SOL     OW31379   8.156   1.865   3.241
 6817SOL    HW131380   8.066   1.836   3.209
 6817SOL    HW231381   8.154   1.876   3.340
 6818SOL     OW31382   0.455   0.951   3.523
 6818SOL    HW131383   0.443   0.937   3.622
 6818SOL    HW231384   0.393   1.023   3.493
 6819SOL     OW31385   8.288   0.754   5.020
 6819SOL    HW131386   8.278   0.664   5.062
 6819SOL    HW231387   8.371   0.798   5.055
 6820SOL     OW31388   9.682   3.353   2.448
 6820SOL    HW131389   9.584   3.355   2.428
 6820SOL    HW231390   9.731   3.310   2.372
 6821SOL     OW31391   5.715   1.588   3.791
 6821SOL    HW131392   5.677   1.530   3.862
 6821SOL    HW231393   5.718   1.537   3.704
 6822SOL     OW31394   1.823   5.085   3.306
 6822SOL    HW131395   1.864   5.125   3.388
 6822SOL    HW231396   1.730   5.056   3.327
 6823SOL     OW31397   2.993   0.173   3.162
 6823SOL    HW131398   2.923   0.215   3.220
 6823SOL    HW231399   2.949   0.114   3.094
 6824SOL     OW31400   4.270   9.938   1.307
 6824SOL    HW131401   4.222   9.859   1.269
 6824SOL    HW231402   4.317   9.987   1.234
 6825SOL     OW31403   9.974   6.636   4.667
 6825SOL    HW131404   0.002   6.608   4.759
 6825SOL    HW231405   9.878   6.613   4.653
 6826SOL     OW31406   4.284   8.625   3.870
 6826SOL    HW131407   4.282   8.706   3.812
 6826SOL    HW231408   4.328   8.550   3.822
 6827SOL     OW31409   8.811   3.092   0.547
 6827SOL    HW131410   8.896   3.071   0.596
 6827SOL    HW231411   8.733   3.070   0.605
 6828SOL     OW31412   9.310   4.371   3.681
 6828SOL    HW131413   9.249   4.316   3.738
 6828SOL    HW231414   9.313   4.333   3.589
 6829SOL     OW31415   2.307   6.518   1.434
 6829SOL    HW131416   2.307   6.435   1.490
 6829SOL    HW231417   2.239   6.508   1.361
 6830SOL     OW31418   4.860   4.105   4.069
 6830SOL    HW131419   4.861   4.005   4.066
 6830SOL    HW231420   4.815   4.136   4.153
 6831SOL     OW31421   3.750   1.697   1.725
 6831SOL    HW131422   3.778   1.713   1.631
 6831SOL    HW231423   3.740   1.598   1.740
 6832SOL     OW31424   8.520   5.694   1.388
 6832SOL    HW131425   8.464   5.744   1.453
 6832SOL    HW231426   8.610   5.676   1.428
 6833SOL     OW31427   6.966   9.035   4.929
 6833SOL    HW131428   6.958   9.096   4.850
 6833SOL    HW231429   7.054   8.988   4.926
 6834SOL     OW31430   9.876   3.956   4.136
 6834SOL    HW131431   9.842   3.880   4.193
 6834SOL    HW231432   9.975   3.949   4.126
 6835SOL     OW31433   1.433   0.213   4.840
 6835SOL    HW131434   1.337   0.186   4.842
 6835SOL    HW231435   1.489   0.136   4.808
 6836SOL     OW31436   3.928   8.595   4.618
 6836SOL    HW131437   3.892   8.688   4.621
 6836SOL    HW231438   3.958   8.568   4.709
 6837SOL     OW31439   4.446   0.228   3.438
 6837SOL    HW131440   4.533   0.275   3.450
 6837SOL    HW231441   4.443   0.148   3.498
 6838SOL     OW31442   8.714   6.587   2.333
 6838SOL    HW131443   8.694   6.506   2.390
 6838SOL    HW231444   8.631   6.642   2.323
 6839SOL     OW31445   8.764   3.950   4.135
 6839SOL    HW131446   8.720   3.996   4.058
 6839SOL    HW231447   8.753   3.851   4.126
 6840SOL     OW31448   1.837   3.756   3.508
 6840SOL    HW131449   1.786   3.723   3.429
 6840SOL    HW231450   1.803   3.713   3.591
 6841SOL     OW31451   3.668   6.314   0.638
 6841SOL    HW131452   3.657   6.236   0.699
 6841SOL    HW231453   3.593   6.379   0.653
 6842SOL     OW31454   4.797   8.949   3.113
 6842SOL    HW131455   4.765   9.022   3.052
 6842SOL    HW231456   4.874   8.983   3.167
 6843SOL     OW31457   1.633   9.100   1.760
 6843SOL    HW131458   1.573   9.140   1.829
 6843SOL    HW231459   1.650   9.004   1.783
 6844SOL     OW31460   1.796   4.092   3.942
 6844SOL    HW131461   1.712   4.121   3.896
 6844SOL    HW231462   1.838   4.017   3.890
 6845SOL     OW31463   2.202   9.103   2.404
 6845SOL    HW131464   2.240   9.158   2.479
 6845SOL    HW231465   2.102   9.101   2.413
 6846SOL     OW31466   0.894   6.288   4.602
 6846SOL    HW131467   0.902   6.357   4.675
 6846SOL    HW231468   0.971   6.224   4.609
 6847SOL     OW31469   0.331   2.002   0.584
 6847SOL    HW131470   0.263   1.930   0.592
 6847SOL    HW231471   0.285   2.091   0.578
 6848SOL     OW31472   3.157   0.674   4.029
 6848SOL    HW131473   3.084   0.706   4.089
 6848SOL    HW231474   3.213   0.606   4.077
 6849SOL     OW31475   4.388   1.343   0.208
 6849SOL    HW131476   4.440   1.257   0.213
 6849SOL    HW231477   4.291   1.323   0.213
 6850SOL     OW31478   3.809   3.715   2.757
 6850SOL    HW131479   3.842   3.774   2.683
 6850SOL    HW231480   3.746   3.767   2.815
 6851SOL     OW31481   2.794   9.184   1.254
 6851SOL    HW131482   2.885   9.187   1.295
 6851SOL    HW231483   2.754   9.276   1.257
 6852SOL     OW31484   4.534   9.184   3.179
 6852SOL    HW131485   4.461   9.130   3.138
 6852SOL    HW231486   4.608   9.195   3.112
 6853SOL     OW31487   4.708   4.277   2.215
 6853SOL    HW131488   4.635   4.245   2.154
 6853SOL    HW231489   4.718   4.376   2.206
 6854SOL     OW31490   2.284   6.675   4.124
 6854SOL    HW131491   2.269   6.737   4.201
 6854SOL    HW231492   2.383   6.663   4.110
 6855SOL     OW31493   5.208   4.269   1.387
 6855SOL    HW131494   5.184   4.286   1.482
 6855SOL    HW231495   5.195   4.352   1.333
 6856SOL     OW31496   1.876   7.665   4.576
 6856SOL    HW131497   1.830   7.753   4.585
 6856SOL    HW231498   1.951   7.660   4.643
 6857SOL     OW31499   2.629   2.731   4.930
 6857SOL    HW131500   2.569   2.775   4.863
 6857SOL    HW231501   2.682   2.800   4.978
 6858SOL     OW31502   9.633   6.734   4.769
 6858SOL    HW131503   9.659   6.662   4.704
 6858SOL    HW231504   9.560   6.700   4.828
 6859SOL     OW31505   1.454   6.617   2.417
 6859SOL    HW131506   1.458   6.568   2.330
 6859SOL    HW231507   1.506   6.566   2.485
 6860SOL     OW31508   5.864   8.903   2.985
 6860SOL    HW131509   5.855   8.808   2.955
 6860SOL    HW231510   5.831   8.964   2.914
 6861SOL     OW31511   0.684   0.355   2.124
 6861SOL    HW131512   0.623   0.288   2.083
 6861SOL    HW231513   0.736   0.313   2.198
 6862SOL     OW31514   6.530   5.016   0.578
 6862SOL    HW131515   6.608   5.018   0.640
 6862SOL    HW231516   6.561   4.987   0.487
 6863SOL     OW31517   6.212   8.251   3.398
 6863SOL    HW131518   6.267   8.203   3.329
 6863SOL    HW231519   6.270   8.312   3.451
 6864SOL     OW31520   2.243   5.399   1.741
 6864SOL    HW131521   2.323   5.433   1.790
 6864SOL    HW231522   2.161   5.445   1.775
 6865SOL     OW31523   8.894   6.934   1.194
 6865SOL    HW131524   8.885   6.933   1.294
 6865SOL    HW231525   8.926   7.023   1.164
 6866SOL     OW31526   2.391   2.954   1.423
 6866SOL    HW131527   2.336   3.036   1.408
 6866SOL    HW231528   2.333   2.873   1.417
 6867SOL     OW31529   5.619   2.498   2.269
 6867SOL    HW131530   5.529   2.529   2.302
 6867SOL    HW231531   5.667   2.451   2.343
 6868SOL     OW31532   4.979   7.507   2.060
 6868SOL    HW131533   4.932   7.531   2.145
 6868SOL    HW231534   4.935   7.556   1.984
 6869SOL     OW31535   0.591   8.887   2.012
 6869SOL    HW131536   0.597   8.959   2.082
 6869SOL    HW231537   0.677   8.836   2.009
 6870SOL     OW31538   7.202   8.416   2.671
 6870SOL    HW131539   7.226   8.513   2.663
 6870SOL    HW231540   7.103   8.406   2.668
 6871SOL     OW31541   7.211   1.086   4.277
 6871SOL    HW131542   7.188   1.018   4.346
 6871SOL    HW231543   7.292   1.057   4.227
 6872SOL     OW31544   1.335   4.208   1.171
 6872SOL    HW131545   1.334   4.221   1.072
 6872SOL    HW231546   1.257   4.152   1.198
 6873SOL     OW31547   0.104   8.355   1.449
 6873SOL    HW131548   0.173   8.427   1.455
 6873SOL    HW231549   0.148   8.267   1.434
 6874SOL     OW31550   4.271   7.605   2.623
 6874SOL    HW131551   4.249   7.684   2.566
 6874SOL    HW231552   4.317   7.535   2.568
 6875SOL     OW31553   0.136   5.932   5.208
 6875SOL    HW131554   0.155   5.906   5.113
 6875SOL    HW231555   0.058   5.878   5.242
 6876SOL     OW31556   4.212   3.031   0.877
 6876SOL    HW131557   4.286   3.064   0.936
 6876SOL    HW231558   4.234   3.048   0.782
 6877SOL     OW31559   5.746   0.430   4.641
 6877SOL    HW131560   5.702   0.363   4.582
 6877SOL    HW231561   5.680   0.499   4.669
 6878SOL     OW31562   6.777   0.703   1.047
 6878SOL    HW131563   6.750   0.718   1.142
 6878SOL    HW231564   6.860   0.755   1.027
 6879SOL     OW31565   3.079   5.486   0.265
 6879SOL    HW131566   3.020   5.421   0.217
 6879SOL    HW231567   3.037   5.513   0.351
 6880SOL     OW31568   0.614   5.126   3.946
 6880SOL    HW131569   0.528   5.124   3.893
 6880SOL    HW231570   0.632   5.220   3.976
 6881SOL     OW31571   7.291   2.106   2.385
 6881SOL    HW131572   7.217   2.139   2.327
 6881SOL    HW231573   7.373   2.092   2.329
 6882SOL     OW31574   4.920   3.449   3.838
 6882SOL    HW131575   4.884   3.392   3.764
 6882SOL    HW231576   4.990   3.398   3.888
 6883SOL     OW31577   2.735   5.411   4.514
 6883SOL    HW131578   2.780   5.337   4.464
 6883SOL    HW231579   2.753   5.400   4.612
 6884SOL     OW31580   1.351   2.435   2.197
 6884SOL    HW131581   1.282   2.363   2.193
 6884SOL    HW231582   1.401   2.429   2.284
 6885SOL     OW31583   4.333   0.892   3.585
 6885SOL    HW131584   4.419   0.843   3.571
 6885SOL    HW231585   4.349   0.971   3.644
 6886SOL     OW31586   3.953   8.345   3.036
 6886SOL    HW131587   3.902   8.327   3.121
 6886SOL    HW231588   4.006   8.264   3.012
 6887SOL     OW31589   2.837   7.518   0.062
 6887SOL    HW131590   2.797   7.430   0.085
 6887SOL    HW231591   2.936   7.509   0.052
 6888SOL     OW31592   3.321   7.738   0.725
 6888SOL    HW131593   3.343   7.823   0.772
 6888SOL    HW231594   3.371   7.663   0.768
 6889SOL     OW31595   2.647   3.538   1.635
 6889SOL    HW131596   2.680   3.567   1.545
 6889SOL    HW231597   2.547   3.550   1.640
 6890SOL     OW31598   3.064   5.179   5.312
 6890SOL    HW131599   3.103   5.129   5.390
 6890SOL    HW231600   3.045   5.115   5.237
 6891SOL     OW31601   2.811   2.123   3.174
 6891SOL    HW131602   2.866   2.089   3.250
 6891SOL    HW231603   2.751   2.196   3.206
 6892SOL     OW31604   2.130   3.202   3.478
 6892SOL    HW131605   2.178   3.114   3.469
 6892SOL    HW231606   2.177   3.271   3.423
 6893SOL     OW31607   1.157   1.557   0.560
 6893SOL    HW131608   1.103   1.592   0.483
 6893SOL    HW231609   1.169   1.630   0.627
 6894SOL     OW31610   9.720   5.321   5.233
 6894SOL    HW131611   9.674   5.375   5.304
 6894SOL    HW231612   9.697   5.357   5.143
 6895SOL     OW31613   4.022   3.043   1.554
 6895SOL    HW131614   4.056   3.036   1.460
 6895SOL    HW231615   3.942   2.984   1.565
 6896SOL     OW31616   6.985   7.335   4.828
 6896SOL    HW131617   7.044   7.267   4.872
 6896SOL    HW231618   7.040   7.412   4.796
 6897SOL     OW31619   7.958   0.712   1.730
 6897SOL    HW131620   7.976   0.637   1.794
 6897SOL    HW231621   7.988   0.686   1.639
 6898SOL     OW31622   9.398   3.823   5.081
 6898SOL    HW131623   9.360   3.915   5.069
 6898SOL    HW231624   9.361   3.763   5.010
 6899SOL     OW31625   9.655   7.012   4.035
 6899SOL    HW131626   9.691   6.919   4.046
 6899SOL    HW231627   9.574   7.009   3.977
 6900SOL     OW31628   0.960   5.308   3.631
 6900SOL    HW131629   0.928   5.281   3.540
 6900SOL    HW231630   0.882   5.329   3.689
 6901SOL     OW31631   3.847   0.988   1.296
 6901SOL    HW131632   3.900   1.059   1.249
 6901SOL    HW231633   3.849   1.005   1.394
 6902SOL     OW31634   1.865   5.896   2.113
 6902SOL    HW131635   1.769   5.898   2.140
 6902SOL    HW231636   1.914   5.828   2.168
 6903SOL     OW31637   2.663   5.180   3.857
 6903SOL    HW131638   2.623   5.089   3.869
 6903SOL    HW231639   2.736   5.194   3.924
 6904SOL     OW31640   3.523   7.237   2.158
 6904SOL    HW131641   3.510   7.152   2.209
 6904SOL    HW231642   3.531   7.313   2.223
 6905SOL     OW31643   4.969   8.860   3.898
 6905SOL    HW131644   4.887   8.853   3.841
 6905SOL    HW231645   4.959   8.937   3.960
 6906SOL     OW31646   7.516   8.675   3.622
 6906SOL    HW131647   7.460   8.757   3.613
 6906SOL    HW231648   7.462   8.601   3.663
 6907SOL     OW31649   5.143   0.408   4.112
 6907SOL    HW131650   5.114   0.391   4.207
 6907SOL    HW231651   5.072   0.460   4.065
 6908SOL     OW31652   1.146   8.396   2.011
 6908SOL    HW131653   1.130   8.331   2.085
 6908SOL    HW231654   1.058   8.429   1.976
 6909SOL     OW31655   3.997   0.109   0.806
 6909SOL    HW131656   4.075   0.167   0.786
 6909SOL    HW231657   3.922   0.164   0.842
 6910SOL     OW31658   6.123   1.036   3.435
 6910SOL    HW131659   6.098   1.050   3.531
 6910SOL    HW231660   6.069   1.098   3.377
 6911SOL     OW31661   0.222   1.771   3.214
 6911SOL    HW131662   0.298   1.733   3.266
 6911SOL    HW231663   0.218   1.726   3.125
 6912SOL     OW31664   0.821   8.324   4.921
 6912SOL    HW131665   0.918   8.299   4.933
 6912SOL    HW231666   0.814   8.397   4.853
 6913SOL     OW31667   4.112   2.503   1.363
 6913SOL    HW131668   4.095   2.544   1.274
 6913SOL    HW231669   4.203   2.529   1.395
 6914SOL     OW31670   8.620   2.738   2.668
 6914SOL    HW131671   8.704   2.710   2.714
 6914SOL    HW231672   8.574   2.657   2.631
 6915SOL     OW31673   1.336   7.222   1.550
 6915SOL    HW131674   1.407   7.166   1.508
 6915SOL    HW231675   1.367   7.253   1.640
 6916SOL     OW31676   2.216   1.600   0.615
 6916SOL    HW131677   2.259   1.676   0.567
 6916SOL    HW231678   2.221   1.517   0.560
 6917SOL     OW31679   3.862   0.497   2.376
 6917SOL    HW131680   3.778   0.544   2.404
 6917SOL    HW231681   3.844   0.443   2.293
 6918SOL     OW31682   1.350   7.886   5.073
 6918SOL    HW131683   1.376   7.830   5.151
 6918SOL    HW231684   1.425   7.889   5.007
 6919SOL     OW31685   9.342   5.050   5.155
 6919SOL    HW131686   9.416   4.986   5.135
 6919SOL    HW231687   9.338   5.066   5.254
 6920SOL     OW31688   2.161   1.943   4.146
 6920SOL    HW131689   2.062   1.932   4.156
 6920SOL    HW231690   2.200   1.973   4.233
 6921SOL     OW31691   3.921   8.050   0.650
 6921SOL    HW131692   3.896   7.972   0.593
 6921SOL    HW231693   3.843   8.074   0.708
 6922SOL     OW31694   1.681   2.248   2.921
 6922SOL    HW131695   1.722   2.285   3.005
 6922SOL    HW231696   1.738   2.174   2.885
 6923SOL     OW31697   6.723   7.856   3.742
 6923SOL    HW131698   6.802   7.806   3.706
 6923SOL    HW231699   6.750   7.908   3.822
 6924SOL     OW31700   3.243   4.573   3.152
 6924SOL    HW131701   3.216   4.590   3.246
 6924SOL    HW231702   3.328   4.623   3.132
 6925SOL     OW31703   8.780   1.299   4.329
 6925SOL    HW131704   8.811   1.383   4.375
 6925SOL    HW231705   8.682   1.287   4.343
 6926SOL     OW31706   2.276   9.753   4.465
 6926SOL    HW131707   2.369   9.723   4.444
 6926SOL    HW231708   2.210   9.702   4.411
 6927SOL     OW31709   7.258   0.471   4.535
 6927SOL    HW131710   7.324   0.435   4.469
 6927SOL    HW231711   7.167   0.435   4.515
 6928SOL     OW31712   2.890   8.054   3.014
 6928SOL    HW131713   2.812   8.107   3.048
 6928SOL    HW231714   2.948   8.027   3.091
 6929SOL     OW31715   7.141   9.187   5.272
 6929SOL    HW131716   7.160   9.162   5.367
 6929SOL    HW231717   7.063   9.133   5.239
 6930SOL     OW31718   8.517   3.628   2.862
 6930SOL    HW131719   8.456   3.603   2.936
 6930SOL    HW231720   8.465   3.675   2.790
 6931SOL     OW31721   7.680   7.080   3.935
 6931SOL    HW131722   7.674   7.101   3.837
 6931SOL    HW231723   7.749   7.009   3.950
 6932SOL     OW31724   2.832   1.580   2.677
 6932SOL    HW131725   2.912   1.603   2.622
 6932SOL    HW231726   2.756   1.557   2.616
 6933SOL     OW31727   3.249   8.547   2.505
 6933SOL    HW131728   3.240   8.492   2.422
 6933SOL    HW231729   3.239   8.644   2.482
 6934SOL     OW31730   8.703   1.321   1.736
 6934SOL    HW131731   8.613   1.314   1.779
 6934SOL    HW231732   8.730   1.417   1.730
 6935SOL     OW31733   1.783   5.856   4.677
 6935SOL    HW131734   1.755   5.815   4.590
 6935SOL    HW231735   1.854   5.800   4.720
 6936SOL     OW31736   6.929   9.025   2.273
 6936SOL    HW131737   6.924   8.986   2.365
 6936SOL    HW231738   6.997   8.975   2.220
 6937SOL     OW31739   7.135   4.137   0.659
 6937SOL    HW131740   7.102   4.135   0.565
 6937SOL    HW231741   7.226   4.095   0.663
 6938SOL     OW31742   2.249   3.275   0.746
 6938SOL    HW131743   2.209   3.318   0.827
 6938SOL    HW231744   2.290   3.188   0.771
 6939SOL     OW31745   8.162   0.791   0.093
 6939SOL    HW131746   8.234   0.849   0.054
 6939SOL    HW231747   8.076   0.808   0.045
 6940SOL     OW31748   5.427   7.313   2.183
 6940SOL    HW131749   5.404   7.367   2.264
 6940SOL    HW231750   5.444   7.375   2.106
 6941SOL     OW31751   5.182   4.964   0.659
 6941SOL    HW131752   5.103   4.909   0.630
 6941SOL    HW231753   5.172   4.987   0.756
 6942SOL     OW31754   1.688   0.204   2.510
 6942SOL    HW131755   1.670   0.127   2.571
 6942SOL    HW231756   1.772   0.187   2.459
 6943SOL     OW31757   6.553   7.313   2.349
 6943SOL    HW131758   6.596   7.250   2.285
 6943SOL    HW231759   6.460   7.282   2.370
 6944SOL     OW31760   4.315   4.839   5.176
 6944SOL    HW131761   4.320   4.889   5.090
 6944SOL    HW231762   4.402   4.791   5.191
 6945SOL     OW31763   1.356   6.442   5.027
 6945SOL    HW131764   1.302   6.408   4.950
 6945SOL    HW231765   1.355   6.374   5.100
 6946SOL     OW31766   4.404   9.383   3.351
 6946SOL    HW131767   4.463   9.315   3.307
 6946SOL    HW231768   4.343   9.422   3.282
 6947SOL     OW31769   2.525   6.467   5.041
 6947SOL    HW131770   2.561   6.379   5.071
 6947SOL    HW231771   2.575   6.541   5.085
 6948SOL     OW31772   9.383   5.813   2.576
 6948SOL    HW131773   9.330   5.879   2.523
 6948SOL    HW231774   9.324   5.771   2.645
 6949SOL     OW31775   4.800   1.283   2.575
 6949SOL    HW131776   4.847   1.246   2.495
 6949SOL    HW231777   4.828   1.232   2.656
 6950SOL     OW31778   6.952   8.661   2.102
 6950SOL    HW131779   6.957   8.607   2.018
 6950SOL    HW231780   6.859   8.697   2.113
 6951SOL     OW31781   3.025   3.470   4.260
 6951SOL    HW131782   3.085   3.543   4.227
 6951SOL    HW231783   2.982   3.498   4.346
 6952SOL     OW31784   0.320   2.358   4.017
 6952SOL    HW131785   0.301   2.355   3.919
 6952SOL    HW231786   0.415   2.384   4.032
 6953SOL     OW31787   0.172   2.036   3.263
 6953SOL    HW131788   0.096   2.037   3.327
 6953SOL    HW231789   0.193   1.941   3.237
 6954SOL     OW31790   4.112   0.044   0.410
 6954SOL    HW131791   4.027   0.086   0.439
 6954SOL    HW231792   4.173   0.115   0.372
 6955SOL     OW31793   8.103   4.322   2.314
 6955SOL    HW131794   8.069   4.407   2.273
 6955SOL    HW231795   8.033   4.251   2.307
 6956SOL     OW31796   6.304   7.535   4.748
 6956SOL    HW131797   6.208   7.532   4.721
 6956SOL    HW231798   6.312   7.573   4.840
 6957SOL     OW31799   5.896   1.296   1.560
 6957SOL    HW131800   5.832   1.364   1.595
 6957SOL    HW231801   5.964   1.340   1.502
 6958SOL     OW31802   3.923   2.166   0.068
 6958SOL    HW131803   4.022   2.155   0.060
 6958SOL    HW231804   3.880   2.075   0.074
 6959SOL     OW31805   1.751   9.609   0.551
 6959SOL    HW131806   1.839   9.646   0.580
 6959SOL    HW231807   1.690   9.685   0.527
 6960SOL     OW31808   8.971   9.404   3.901
 6960SOL    HW131809   8.915   9.471   3.852
 6960SOL    HW231810   9.061   9.399   3.858
 6961SOL     OW31811   2.228   7.788   2.065
 6961SOL    HW131812   2.231   7.856   2.138
 6961SOL    HW231813   2.235   7.834   1.976
 6962SOL     OW31814   5.860   1.263   3.455
 6962SOL    HW131815   5.953   1.298   3.448
 6962SOL    HW231816   5.826   1.239   3.364
 6963SOL     OW31817   0.914   5.484   1.995
 6963SOL    HW131818   0.833   5.426   1.984
 6963SOL    HW231819   0.885   5.579   2.007
 6964SOL     OW31820   7.424   8.971   2.903
 6964SOL    HW131821   7.515   9.007   2.924
 6964SOL    HW231822   7.358   9.046   2.903
 6965SOL     OW31823   0.361   6.201   1.063
 6965SOL    HW131824   0.438   6.253   1.027
 6965SOL    HW231825   0.275   6.244   1.034
 6966SOL     OW31826   8.095   2.968   2.632
 6966SOL    HW131827   8.036   3.048   2.645
 6966SOL    HW231828   8.101   2.947   2.535
 6967SOL     OW31829   3.444   2.535   1.367
 6967SOL    HW131830   3.443   2.604   1.440
 6967SOL    HW231831   3.381   2.461   1.390
 6968SOL     OW31832   1.930   4.322   3.995
 6968SOL    HW131833   1.868   4.388   4.038
 6968SOL    HW231834   1.883   4.235   3.984
 6969SOL     OW31835   1.804   7.059   5.089
 6969SOL    HW131836   1.723   7.118   5.097
 6969SOL    HW231837   1.792   6.979   5.147
 6970SOL     OW31838   3.809   3.574   4.327
 6970SOL    HW131839   3.884   3.574   4.393
 6970SOL    HW231840   3.762   3.662   4.329
 6971SOL     OW31841   3.855   2.677   2.089
 6971SOL    HW131842   3.834   2.615   2.165
 6971SOL    HW231843   3.917   2.631   2.025
 6972SOL     OW31844   9.454   5.781   0.214
 6972SOL    HW131845   9.466   5.869   0.260
 6972SOL    HW231846   9.375   5.734   0.252
 6973SOL     OW31847   3.339   5.115   1.347
 6973SOL    HW131848   3.387   5.202   1.333
 6973SOL    HW231849   3.401   5.039   1.326
 6974SOL     OW31850   6.004   1.784   2.216
 6974SOL    HW131851   5.956   1.702   2.247
 6974SOL    HW231852   5.996   1.856   2.285
 6975SOL     OW31853   0.085   3.905   1.735
 6975SOL    HW131854   0.128   3.934   1.820
 6975SOL    HW231855   0.148   3.918   1.658
 6976SOL     OW31856   5.867   2.444   3.918
 6976SOL    HW131857   5.815   2.530   3.919
 6976SOL    HW231858   5.959   2.462   3.882
 6977SOL     OW31859   2.402   0.076   4.059
 6977SOL    HW131860   2.332   0.007   4.078
 6977SOL    HW231861   2.385   0.117   3.969
 6978SOL     OW31862   7.959   1.575   4.951
 6978SOL    HW131863   7.882   1.621   4.997
 6978SOL    HW231864   7.949   1.584   4.852
 6979SOL     OW31865   0.671   7.395   5.223
 6979SOL    HW131866   0.610   7.453   5.276
 6979SOL    HW231867   0.723   7.450   5.158
 6980SOL     OW31868   8.498   6.239   2.853
 6980SOL    HW131869   8.570   6.176   2.825
 6980SOL    HW231870   8.526   6.333   2.830
 6981SOL     OW31871   0.588   6.399   1.775
 6981SOL    HW131872   0.539   6.394   1.688
 6981SOL    HW231873   0.550   6.332   1.839
 6982SOL     OW31874   8.922   0.359   2.530
 6982SOL    HW131875   8.881   0.333   2.617
 6982SOL    HW231876   8.907   0.457   2.514
 6983SOL     OW31877   0.506   7.676   2.236
 6983SOL    HW131878   0.437   7.634   2.296
 6983SOL    HW231879   0.569   7.606   2.203
 6984SOL     OW31880   8.809   8.450   1.275
 6984SOL    HW131881   8.792   8.458   1.373
 6984SOL    HW231882   8.757   8.372   1.238
 6985SOL     OW31883   0.306   1.218   1.417
 6985SOL    HW131884   0.230   1.236   1.354
 6985SOL    HW231885   0.390   1.205   1.365
 6986SOL     OW31886   4.469   3.831   1.763
 6986SOL    HW131887   4.391   3.860   1.819
 6986SOL    HW231888   4.517   3.757   1.810
 6987SOL     OW31889   2.391   2.426   1.115
 6987SOL    HW131890   2.350   2.475   1.039
 6987SOL    HW231891   2.414   2.491   1.188
 6988SOL     OW31892   7.994   8.222   4.539
 6988SOL    HW131893   8.009   8.243   4.635
 6988SOL    HW231894   7.899   8.196   4.524
 6989SOL     OW31895   3.256   6.260   4.595
 6989SOL    HW131896   3.338   6.202   4.595
 6989SOL    HW231897   3.267   6.332   4.526
 6990SOL     OW31898   9.239   5.672   2.770
 6990SOL    HW131899   9.311   5.668   2.840
 6990SOL    HW231900   9.159   5.719   2.807
 6991SOL     OW31901   4.280   8.393   0.756
 6991SOL    HW131902   4.245   8.459   0.823
 6991SOL    HW231903   4.203   8.347   0.712
 6992SOL     OW31904   9.351   8.813   0.429
 6992SOL    HW131905   9.432   8.755   0.428
 6992SOL    HW231906   9.354   8.874   0.508
 6993SOL     OW31907   3.489   7.537   3.371
 6993SOL    HW131908   3.432   7.478   3.313
 6993SOL    HW231909   3.431   7.586   3.436
 6994SOL     OW31910   5.184   0.824   2.214
 6994SOL    HW131911   5.251   0.757   2.245
 6994SOL    HW231912   5.155   0.882   2.290
 6995SOL     OW31913   3.436   2.871   2.900
 6995SOL    HW131914   3.378   2.917   2.833
 6995SOL    HW231915   3.412   2.901   2.992
 6996SOL     OW31916   8.487   9.157   2.032
 6996SOL    HW131917   8.504   9.233   2.095
 6996SOL    HW231918   8.564   9.150   1.968
 6997SOL     OW31919   3.619   1.379   2.120
 6997SOL    HW131920   3.612   1.306   2.188
 6997SOL    HW231921   3.602   1.467   2.163
 6998SOL     OW31922   2.172   4.030   3.482
 6998SOL    HW131923   2.157   3.931   3.477
 6998SOL    HW231924   2.237   4.058   3.411
 6999SOL     OW31925   5.528   7.786   3.529
 6999SOL    HW131926   5.432   7.789   3.559
 6999SOL    HW231927   5.588   7.786   3.609
 7000SOL     OW31928   3.883   1.025   3.336
 7000SOL    HW131929   3.909   0.928   3.342
 7000SOL    HW231930   3.783   1.033   3.340
 7001SOL     OW31931   4.246   4.162   4.808
 7001SOL    HW131932   4.234   4.248   4.758
 7001SOL    HW231933   4.320   4.173   4.875
 7002SOL     OW31934   1.089   1.858   2.173
 7002SOL    HW131935   1.042   1.913   2.242
 7002SOL    HW231936   1.177   1.827   2.209
 7003SOL     OW31937   2.365   7.152   0.712
 7003SOL    HW131938   2.373   7.233   0.655
 7003SOL    HW231939   2.332   7.075   0.657
 7004SOL     OW31940   2.114   6.595   1.629
 7004SOL    HW131941   2.030   6.629   1.586
 7004SOL    HW231942   2.183   6.578   1.558
 7005SOL     OW31943   9.883   0.712   2.643
 7005SOL    HW131944   9.903   0.618   2.615
 7005SOL    HW231945   9.965   0.753   2.682
 7006SOL     OW31946   7.445   3.527   2.006
 7006SOL    HW131947   7.521   3.576   1.963
 7006SOL    HW231948   7.359   3.553   1.962
 7007SOL     OW31949   6.461   5.146   0.183
 7007SOL    HW131950   6.439   5.228   0.235
 7007SOL    HW231951   6.483   5.171   0.089
 7008SOL     OW31952   3.831   3.099   1.991
 7008SOL    HW131953   3.880   3.184   2.008
 7008SOL    HW231954   3.839   3.039   2.070
 7009SOL     OW31955   9.535   8.729   0.142
 7009SOL    HW131956   9.594   8.781   0.202
 7009SOL    HW231957   9.549   8.631   0.158
 7010SOL     OW31958   4.373   2.531   3.141
 7010SOL    HW131959   4.324   2.450   3.109
 7010SOL    HW231960   4.430   2.567   3.067
 7011SOL     OW31961   0.674   9.131   4.391
 7011SOL    HW131962   0.583   9.163   4.418
 7011SOL    HW231963   0.721   9.204   4.342
 7012SOL     OW31964   8.825   3.600   4.315
 7012SOL    HW131965   8.791   3.635   4.227
 7012SOL    HW231966   8.769   3.523   4.344
 7013SOL     OW31967   9.655   1.670   2.746
 7013SOL    HW131968   9.755   1.672   2.746
 7013SOL    HW231969   9.623   1.646   2.654
 7014SOL     OW31970   7.796   9.728   4.814
 7014SOL    HW131971   7.818   9.734   4.911
 7014SOL    HW231972   7.746   9.810   4.786
 7015SOL     OW31973   5.691   0.231   3.818
 7015SOL    HW131974   5.791   0.225   3.823
 7015SOL    HW231975   5.656   0.277   3.900
 7016SOL     OW31976   1.016   2.340   1.938
 7016SOL    HW131977   1.005   2.334   2.037
 7016SOL    HW231978   0.973   2.424   1.905
 7017SOL     OW31979   0.565   2.411   0.284
 7017SOL    HW131980   0.541   2.404   0.381
 7017SOL    HW231981   0.530   2.331   0.235
 7018SOL     OW31982   2.606   5.642   2.924
 7018SOL    HW131983   2.523   5.616   2.874
 7018SOL    HW231984   2.673   5.568   2.918
 7019SOL     OW31985   8.142   5.148   1.745
 7019SOL    HW131986   8.082   5.096   1.684
 7019SOL    HW231987   8.192   5.084   1.804
 7020SOL     OW31988   1.445   4.697   5.063
 7020SOL    HW131989   1.537   4.737   5.063
 7020SOL    HW231990   1.387   4.746   5.127
 7021SOL     OW31991   4.209   4.409   3.367
 7021SOL    HW131992   4.303   4.380   3.350
 7021SOL    HW231993   4.148   4.330   3.363
 7022SOL     OW31994   8.197   3.159   1.778
 7022SOL    HW131995   8.210   3.249   1.819
 7022SOL    HW231996   8.285   3.126   1.742
 7023SOL     OW31997   9.290   7.978   2.977
 7023SOL    HW131998   9.366   7.983   3.041
 7023SOL    HW231999   9.316   8.021   2.891
 7024SOL     OW32000   2.970   1.071   0.848
 7024SOL    HW132001   3.031   1.069   0.927
 7024SOL    HW232002   2.907   1.149   0.856
 7025SOL     OW32003   6.611   8.597   2.331
 7025SOL    HW132004   6.651   8.663   2.267
 7025SOL    HW232005   6.524   8.564   2.296
 7026SOL     OW32006   5.989   0.309   5.031
 7026SOL    HW132007   6.016   0.221   5.069
 7026SOL    HW232008   6.070   0.357   4.996
 7027SOL     OW32009   5.506   0.028   2.057
 7027SOL    HW132010   5.502   0.117   2.013
 7027SOL    HW232011   5.475   9.957   1.992
 7028SOL     OW32012   1.151   9.558   1.905
 7028SOL    HW132013   1.124   9.644   1.861
 7028SOL    HW232014   1.079   9.529   1.968
 7029SOL     OW32015   1.073   9.393   1.627
 7029SOL    HW132016   1.134   9.472   1.638
 7029SOL    HW232017   1.102   9.320   1.690
 7030SOL     OW32018   7.973   0.173   1.328
 7030SOL    HW132019   7.996   0.197   1.234
 7030SOL    HW232020   8.057   0.153   1.379
 7031SOL     OW32021   4.733   1.575   3.249
 7031SOL    HW132022   4.668   1.631   3.302
 7031SOL    HW232023   4.818   1.565   3.300
 7032SOL     OW32024   4.729   3.899   3.424
 7032SOL    HW132025   4.660   3.828   3.409
 7032SOL    HW232026   4.686   3.989   3.419
 7033SOL     OW32027   4.408   1.321   5.012
 7033SOL    HW132028   4.334   1.388   5.001
 7033SOL    HW232029   4.418   1.268   4.928
 7034SOL     OW32030   1.095   8.257   4.908
 7034SOL    HW132031   1.155   8.219   4.978
 7034SOL    HW232032   1.083   8.191   4.834
 7035SOL     OW32033   9.074   1.998   3.788
 7035SOL    HW132034   8.983   1.968   3.818
 7035SOL    HW232035   9.110   2.064   3.854
 7036SOL     OW32036   2.882   7.267   3.215
 7036SOL    HW132037   2.901   7.178   3.174
 7036SOL    HW232038   2.966   7.303   3.256
 7037SOL     OW32039   8.542   2.868   4.290
 7037SOL    HW132040   8.454   2.826   4.268
 7037SOL    HW232041   8.558   2.863   4.388
 7038SOL     OW32042   8.055   1.386   2.956
 7038SOL    HW132043   8.151   1.412   2.958
 7038SOL    HW232044   8.045   1.290   2.981
 7039SOL     OW32045   5.238   5.776   1.839
 7039SOL    HW132046   5.203   5.863   1.874
 7039SOL    HW232047   5.164   5.708   1.836
 7040SOL     OW32048   8.196   5.550   0.291
 7040SOL    HW132049   8.289   5.583   0.307
 7040SOL    HW232050   8.146   5.551   0.378
 7041SOL     OW32051   4.473   3.012   4.970
 7041SOL    HW132052   4.531   3.024   4.890
 7041SOL    HW232053   4.498   3.079   5.040
 7042SOL     OW32054   0.489   1.889   3.498
 7042SOL    HW132055   0.572   1.867   3.548
 7042SOL    HW232056   0.465   1.812   3.438
 7043SOL     OW32057   1.485   4.863   1.726
 7043SOL    HW132058   1.462   4.770   1.756
 7043SOL    HW232059   1.471   4.870   1.627
 7044SOL     OW32060   8.008   4.024   1.217
 7044SOL    HW132061   8.103   4.024   1.248
 7044SOL    HW232062   7.978   4.119   1.202
 7045SOL     OW32063   8.278   9.398   1.954
 7045SOL    HW132064   8.248   9.308   1.921
 7045SOL    HW232065   8.206   9.465   1.938
 7046SOL     OW32066   5.042   3.404   0.825
 7046SOL    HW132067   5.005   3.484   0.872
 7046SOL    HW232068   4.996   3.322   0.858
 7047SOL     OW32069   3.956   7.775   2.954
 7047SOL    HW132070   4.053   7.770   2.928
 7047SOL    HW232071   3.944   7.848   3.021
 7048SOL     OW32072   0.004   7.492   3.812
 7048SOL    HW132073   0.028   7.412   3.757
 7048SOL    HW232074   9.923   7.537   3.773
 7049SOL     OW32075   9.141   9.206   0.556
 7049SOL    HW132076   9.128   9.144   0.633
 7049SOL    HW232077   9.089   9.290   0.571
 7050SOL     OW32078   0.005   8.920   4.320
 7050SOL    HW132079   9.952   8.848   4.364
 7050SOL    HW232080   0.014   8.901   4.222
 7051SOL     OW32081   4.357   5.342   2.069
 7051SOL    HW132082   4.268   5.309   2.101
 7051SOL    HW232083   4.429   5.282   2.103
 7052SOL     OW32084   6.097   1.285   1.183
 7052SOL    HW132085   6.166   1.225   1.225
 7052SOL    HW232086   6.103   1.279   1.084
 7053SOL     OW32087   1.568   3.724   1.313
 7053SOL    HW132088   1.487   3.751   1.260
 7053SOL    HW232089   1.565   3.767   1.403
 7054SOL     OW32090   8.220   7.817   4.441
 7054SOL    HW132091   8.294   7.790   4.502
 7054SOL    HW232092   8.252   7.816   4.346
 7055SOL     OW32093   4.274   3.928   1.929
 7055SOL    HW132094   4.263   4.026   1.945
 7055SOL    HW232095   4.199   3.895   1.872
 7056SOL     OW32096   0.663   4.002   3.300
 7056SOL    HW132097   0.717   4.020   3.383
 7056SOL    HW232098   0.726   3.985   3.224
 7057SOL     OW32099   8.936   7.244   4.711
 7057SOL    HW132100   9.005   7.250   4.639
 7057SOL    HW232101   8.981   7.222   4.798
 7058SOL     OW32102   6.762   0.486   5.089
 7058SOL    HW132103   6.679   0.436   5.112
 7058SOL    HW232104   6.842   0.434   5.120
 7059SOL     OW32105   2.402   3.540   3.902
 7059SOL    HW132106   2.494   3.538   3.863
 7059SOL    HW232107   2.408   3.558   4.001
 7060SOL     OW32108   1.930   1.419   5.119
 7060SOL    HW132109   1.941   1.401   5.021
 7060SOL    HW232110   1.864   1.354   5.157
 7061SOL     OW32111   5.537   4.733   1.193
 7061SOL    HW132112   5.567   4.638   1.184
 7061SOL    HW232113   5.532   4.757   1.290
 7062SOL     OW32114   5.491   2.325   3.098
 7062SOL    HW132115   5.423   2.252   3.102
 7062SOL    HW232116   5.474   2.382   3.018
 7063SOL     OW32117   7.815   6.230   4.391
 7063SOL    HW132118   7.792   6.321   4.357
 7063SOL    HW232119   7.830   6.236   4.490
 7064SOL     OW32120   2.498   6.358   1.290
 7064SOL    HW132121   2.576   6.338   1.350
 7064SOL    HW232122   2.438   6.424   1.336
 7065SOL     OW32123   0.244   8.149   2.577
 7065SOL    HW132124   0.174   8.082   2.554
 7065SOL    HW232125   0.222   8.189   2.666
 7066SOL     OW32126   2.836   5.221   4.087
 7066SOL    HW132127   2.854   5.208   4.184
 7066SOL    HW232128   2.921   5.240   4.039
 7067SOL     OW32129   0.637   2.143   4.122
 7067SOL    HW132130   0.595   2.217   4.175
 7067SOL    HW232131   0.570   2.071   4.105
 7068SOL     OW32132   3.600   6.915   0.205
 7068SOL    HW132133   3.537   6.846   0.169
 7068SOL    HW232134   3.594   6.997   0.148
 7069SOL     OW32135   5.606   7.480   4.491
 7069SOL    HW132136   5.598   7.453   4.395
 7069SOL    HW232137   5.540   7.551   4.511
 7070SOL     OW32138   1.489   8.223   2.621
 7070SOL    HW132139   1.479   8.134   2.667
 7070SOL    HW232140   1.507   8.294   2.689
 7071SOL     OW32141   6.481   4.657   0.745
 7071SOL    HW132142   6.448   4.747   0.770
 7071SOL    HW232143   6.447   4.632   0.655
 7072SOL     OW32144   8.135   3.760   1.005
 7072SOL    HW132145   8.164   3.855   0.995
 7072SOL    HW232146   8.035   3.754   0.995
 7073SOL     OW32147   9.211   5.788   1.003
 7073SOL    HW132148   9.210   5.689   1.022
 7073SOL    HW232149   9.246   5.804   0.911
 7074SOL     OW32150   5.091   0.427   3.268
 7074SOL    HW132151   5.111   0.346   3.214
 7074SOL    HW232152   5.097   0.508   3.210
 7075SOL     OW32153   8.263   9.318   2.654
 7075SOL    HW132154   8.284   9.404   2.700
 7075SOL    HW232155   8.333   9.299   2.585
 7076SOL     OW32156   4.772   5.013   1.526
 7076SOL    HW132157   4.729   4.923   1.534
 7076SOL    HW232158   4.835   5.013   1.448
 7077SOL     OW32159   3.883   1.154   3.082
 7077SOL    HW132160   3.894   1.110   3.171
 7077SOL    HW232161   3.927   1.097   3.012
 7078SOL     OW32162   0.126   8.398   0.792
 7078SOL    HW132163   0.164   8.393   0.699
 7078SOL    HW232164   0.027   8.400   0.788
 7079SOL     OW32165   0.754   2.497   1.142
 7079SOL    HW132166   0.823   2.431   1.112
 7079SOL    HW232167   0.699   2.525   1.063
 7080SOL     OW32168   3.133   1.118   2.490
 7080SOL    HW132169   3.131   1.211   2.528
 7080SOL    HW232170   3.136   1.123   2.390
 7081SOL     OW32171   3.970   4.880   0.427
 7081SOL    HW132172   3.999   4.785   0.437
 7081SOL    HW232173   4.004   4.916   0.340
 7082SOL     OW32174   0.325   7.089   4.334
 7082SOL    HW132175   0.274   7.009   4.364
 7082SOL    HW232176   0.317   7.161   4.402
 7083SOL     OW32177   5.462   0.235   1.861
 7083SOL    HW132178   5.376   0.240   1.912
 7083SOL    HW232179   5.469   0.314   1.799
 7084SOL     OW32180   5.462   1.820   1.098
 7084SOL    HW132181   5.459   1.731   1.144
 7084SOL    HW232182   5.435   1.892   1.163
 7085SOL     OW32183   8.823   6.616   5.245
 7085SOL    HW132184   8.884   6.689   5.275
 7085SOL    HW232185   8.868   6.527   5.257
 7086SOL     OW32186   1.304   9.188   4.178
 7086SOL    HW132187   1.245   9.268   4.162
 7086SOL    HW232188   1.265   9.133   4.251
 7087SOL     OW32189   2.487   0.108   4.864
 7087SOL    HW132190   2.504   0.088   4.767
 7087SOL    HW232191   2.574   0.121   4.911
 7088SOL     OW32192   5.261   6.968   2.952
 7088SOL    HW132193   5.283   6.950   2.857
 7088SOL    HW232194   5.163   6.958   2.967
 7089SOL     OW32195   2.500   2.012   1.039
 7089SOL    HW132196   2.526   2.107   1.018
 7089SOL    HW232197   2.413   1.992   0.995
 7090SOL     OW32198   6.306   9.565   2.945
 7090SOL    HW132199   6.322   9.471   2.975
 7090SOL    HW232200   6.380   9.623   2.979
 7091SOL     OW32201   4.148   9.334   2.818
 7091SOL    HW132202   4.243   9.342   2.848
 7091SOL    HW232203   4.135   9.387   2.734
 7092SOL     OW32204   9.120   2.928   4.124
 7092SOL    HW132205   9.180   2.986   4.068
 7092SOL    HW232206   9.137   2.948   4.221
 7093SOL     OW32207   8.747   3.544   0.992
 7093SOL    HW132208   8.706   3.476   0.931
 7093SOL    HW232209   8.835   3.510   1.025
 7094SOL     OW32210   1.903   4.203   2.879
 7094SOL    HW132211   1.914   4.254   2.964
 7094SOL    HW232212   1.981   4.220   2.819
 7095SOL     OW32213   0.976   2.725   0.950
 7095SOL    HW132214   1.002   2.636   0.913
 7095SOL    HW232215   0.976   2.721   1.050
 7096SOL     OW32216   4.560   4.112   3.697
 7096SOL    HW132217   4.654   4.129   3.725
 7096SOL    HW232218   4.508   4.076   3.774
 7097SOL     OW32219   9.689   4.544   2.367
 7097SOL    HW132220   9.755   4.481   2.409
 7097SOL    HW232221   9.717   4.563   2.273
 7098SOL     OW32222   3.593   7.254   3.189
 7098SOL    HW132223   3.630   7.161   3.195
 7098SOL    HW232224   3.625   7.297   3.105
 7099SOL     OW32225   0.360   5.716   0.725
 7099SOL    HW132226   0.262   5.695   0.732
 7099SOL    HW232227   0.407   5.641   0.680
 7100SOL     OW32228   3.770   6.739   4.012
 7100SOL    HW132229   3.714   6.797   3.952
 7100SOL    HW232230   3.867   6.757   3.995
 7101SOL     OW32231   0.995   2.883   2.620
 7101SOL    HW132232   0.928   2.945   2.580
 7101SOL    HW232233   1.021   2.814   2.553
 7102SOL     OW32234   8.889   8.241   3.593
 7102SOL    HW132235   8.966   8.205   3.539
 7102SOL    HW232236   8.810   8.180   3.584
 7103SOL     OW32237   3.460   3.396   1.907
 7103SOL    HW132238   3.362   3.377   1.912
 7103SOL    HW232239   3.481   3.443   1.821
 7104SOL     OW32240   1.935   2.552   4.685
 7104SOL    HW132241   2.020   2.505   4.659
 7104SOL    HW232242   1.857   2.498   4.654
 7105SOL     OW32243   1.716   5.761   4.411
 7105SOL    HW132244   1.767   5.686   4.369
 7105SOL    HW232245   1.762   5.847   4.392
 7106SOL     OW32246   1.226   9.893   3.133
 7106SOL    HW132247   1.325   9.902   3.143
 7106SOL    HW232248   1.194   9.813   3.183
 7107SOL     OW32249   0.420   6.439   4.226
 7107SOL    HW132250   0.447   6.408   4.317
 7107SOL    HW232251   0.475   6.390   4.157
 7108SOL     OW32252   8.250   2.951   4.479
 7108SOL    HW132253   8.308   3.031   4.466
 7108SOL    HW232254   8.283   2.899   4.558
 7109SOL     OW32255   5.981   9.269   4.492
 7109SOL    HW132256   6.007   9.174   4.511
 7109SOL    HW232257   6.042   9.330   4.542
 7110SOL     OW32258   6.112   7.645   3.312
 7110SOL    HW132259   6.188   7.709   3.300
 7110SOL    HW232260   6.147   7.551   3.312
 7111SOL     OW32261   4.813   3.740   2.962
 7111SOL    HW132262   4.813   3.747   2.863
 7111SOL    HW232263   4.847   3.826   3.001
 7112SOL     OW32264   0.395   5.244   0.979
 7112SOL    HW132265   0.433   5.321   1.030
 7112SOL    HW232266   0.459   5.216   0.908
 7113SOL     OW32267   0.206   7.051   2.303
 7113SOL    HW132268   0.113   7.055   2.268
 7113SOL    HW232269   0.256   7.133   2.275
 7114SOL     OW32270   4.491   3.434   2.296
 7114SOL    HW132271   4.432   3.476   2.228
 7114SOL    HW232272   4.465   3.466   2.387
 7115SOL     OW32273   4.292   2.012   4.065
 7115SOL    HW132274   4.223   1.976   4.002
 7115SOL    HW232275   4.339   1.936   4.109
 7116SOL     OW32276   2.392   3.892   4.089
 7116SOL    HW132277   2.376   3.911   3.992
 7116SOL    HW232278   2.304   3.892   4.137
 7117SOL     OW32279   8.651   3.723   2.525
 7117SOL    HW132280   8.701   3.678   2.599
 7117SOL    HW232281   8.702   3.803   2.494
 7118SOL     OW32282   5.979   1.971   2.431
 7118SOL    HW132283   5.905   2.036   2.412
 7118SOL    HW232284   6.064   2.021   2.447
 7119SOL     OW32285   3.848   3.806   5.069
 7119SOL    HW132286   3.941   3.798   5.033
 7119SOL    HW232287   3.842   3.889   5.125
 7120SOL     OW32288   3.636   1.639   4.237
 7120SOL    HW132289   3.556   1.691   4.208
 7120SOL    HW232290   3.607   1.556   4.285
 7121SOL     OW32291   2.358   3.881   0.472
 7121SOL    HW132292   2.259   3.885   0.482
 7121SOL    HW232293   2.398   3.836   0.552
 7122SOL     OW32294   7.602   9.413   3.619
 7122SOL    HW132295   7.653   9.337   3.578
 7122SOL    HW232296   7.521   9.378   3.664
 7123SOL     OW32297   2.113   9.721   1.835
 7123SOL    HW132298   2.024   9.767   1.834
 7123SOL    HW232299   2.126   9.672   1.749
 7124SOL     OW32300   5.214   9.939   4.400
 7124SOL    HW132301   5.219   9.851   4.448
 7124SOL    HW232302   5.134   9.990   4.432
 7125SOL     OW32303   8.530   2.490   0.811
 7125SOL    HW132304   8.482   2.438   0.740
 7125SOL    HW232305   8.609   2.438   0.843
 7126SOL     OW32306   8.577   7.050   0.713
 7126SOL    HW132307   8.673   7.031   0.731
 7126SOL    HW232308   8.569   7.125   0.647
 7127SOL     OW32309   4.130   2.179   2.408
 7127SOL    HW132310   4.175   2.097   2.373
 7127SOL    HW232311   4.196   2.232   2.463
 7128SOL     OW32312   3.804   7.080   2.578
 7128SOL    HW132313   3.785   7.033   2.664
 7128SOL    HW232314   3.721   7.126   2.546
 7129SOL     OW32315   7.545   4.605   0.786
 7129SOL    HW132316   7.526   4.513   0.821
 7129SOL    HW232317   7.584   4.598   0.693
 7130SOL     OW32318   3.231   9.057   5.206
 7130SOL    HW132319   3.284   9.127   5.254
 7130SOL    HW232320   3.283   8.971   5.206
 7131SOL     OW32321   0.178   6.826   4.658
 7131SOL    HW132322   0.090   6.780   4.675
 7131SOL    HW232323   0.187   6.845   4.561
 7132SOL     OW32324   7.549   2.345   3.342
 7132SOL    HW132325   7.505   2.428   3.374
 7132SOL    HW232326   7.486   2.268   3.351
 7133SOL     OW32327   8.598   1.510   3.037
 7133SOL    HW132328   8.666   1.494   2.966
 7133SOL    HW232329   8.506   1.491   3.001
 7134SOL     OW32330   9.663   4.019   0.511
 7134SOL    HW132331   9.703   3.967   0.436
 7134SOL    HW232332   9.607   4.093   0.473
 7135SOL     OW32333   7.455   2.817   0.480
 7135SOL    HW132334   7.424   2.879   0.552
 7135SOL    HW232335   7.410   2.842   0.394
 7136SOL     OW32336   5.472   1.410   4.888
 7136SOL    HW132337   5.438   1.403   4.981
 7136SOL    HW232338   5.510   1.321   4.859
 7137SOL     OW32339   9.442   5.676   2.958
 7137SOL    HW132340   9.443   5.612   3.035
 7137SOL    HW232341   9.536   5.700   2.934
 7138SOL     OW32342   7.440   3.283   0.251
 7138SOL    HW132343   7.404   3.215   0.188
 7138SOL    HW232344   7.449   3.371   0.204
 7139SOL     OW32345   9.654   5.107   3.287
 7139SOL    HW132346   9.630   5.162   3.208
 7139SOL    HW232347   9.588   5.122   3.360
 7140SOL     OW32348   1.250   0.993   3.896
 7140SOL    HW132349   1.241   1.051   3.976
 7140SOL    HW232350   1.347   0.980   3.875
 7141SOL     OW32351   2.033   6.961   2.792
 7141SOL    HW132352   2.084   6.999   2.715
 7141SOL    HW232353   1.940   6.998   2.790
 7142SOL     OW32354   4.409   3.758   0.146
 7142SOL    HW132355   4.316   3.795   0.143
 7142SOL    HW232356   4.474   3.834   0.148
 7143SOL     OW32357   1.409   4.491   4.889
 7143SOL    HW132358   1.363   4.530   4.810
 7143SOL    HW232359   1.424   4.562   4.958
 7144SOL     OW32360   8.516   8.888   4.900
 7144SOL    HW132361   8.427   8.932   4.901
 7144SOL    HW232362   8.587   8.955   4.923
 7145SOL     OW32363   7.283   0.925   0.613
 7145SOL    HW132364   7.273   0.835   0.572
 7145SOL    HW232365   7.342   0.982   0.555
 7146SOL     OW32366   8.788   7.470   4.690
 7146SOL    HW132367   8.692   7.442   4.684
 7146SOL    HW232368   8.846   7.389   4.699
 7147SOL     OW32369   8.750   1.385   1.417
 7147SOL    HW132370   8.772   1.293   1.384
 7147SOL    HW232371   8.653   1.403   1.404
 7148SOL     OW32372   2.472   9.012   2.394
 7148SOL    HW132373   2.374   9.018   2.380
 7148SOL    HW232374   2.508   8.930   2.348
 7149SOL     OW32375   3.445   8.927   2.123
 7149SOL    HW132376   3.530   8.966   2.087
 7149SOL    HW232377   3.413   8.855   2.061
 7150SOL     OW32378   8.353   2.818   4.686
 7150SOL    HW132379   8.391   2.728   4.708
 7150SOL    HW232380   8.295   2.850   4.761
 7151SOL     OW32381   2.997   1.777   3.688
 7151SOL    HW132382   2.922   1.755   3.626
 7151SOL    HW232383   3.009   1.877   3.692
 7152SOL     OW32384   4.754   7.683   2.188
 7152SOL    HW132385   4.785   7.740   2.264
 7152SOL    HW232386   4.695   7.737   2.128
 7153SOL     OW32387   7.791   9.446   1.562
 7153SOL    HW132388   7.757   9.385   1.634
 7153SOL    HW232389   7.878   9.410   1.527
 7154SOL     OW32390   2.795   1.369   4.195
 7154SOL    HW132391   2.804   1.295   4.129
 7154SOL    HW232392   2.851   1.446   4.167
 7155SOL     OW32393   2.218   8.463   2.988
 7155SOL    HW132394   2.181   8.458   2.896
 7155SOL    HW232395   2.198   8.378   3.037
 7156SOL     OW32396   9.044   9.973   2.470
 7156SOL    HW132397   8.950   9.947   2.492
 7156SOL    HW232398   9.086   9.902   2.413
 7157SOL     OW32399   4.911   5.217   2.983
 7157SOL    HW132400   4.900   5.308   2.942
 7157SOL    HW232401   4.887   5.222   3.080
 7158SOL     OW32402   0.391   0.724   3.377
 7158SOL    HW132403   0.418   0.802   3.434
 7158SOL    HW232404   0.460   0.653   3.382
 7159SOL     OW32405   2.878   5.829   1.731
 7159SOL    HW132406   2.820   5.858   1.807
 7159SOL    HW232407   2.939   5.904   1.705
 7160SOL     OW32408   1.954   9.390   2.323
 7160SOL    HW132409   2.011   9.461   2.282
 7160SOL    HW232410   1.859   9.402   2.293
 7161SOL     OW32411   1.413   7.224   4.897
 7161SOL    HW132412   1.483   7.276   4.848
 7161SOL    HW232413   1.411   7.130   4.862
 7162SOL     OW32414   4.737   1.116   3.620
 7162SOL    HW132415   4.757   1.109   3.718
 7162SOL    HW232416   4.691   1.202   3.601
 7163SOL     OW32417   1.633   4.471   1.670
 7163SOL    HW132418   1.723   4.428   1.676
 7163SOL    HW232419   1.633   4.539   1.596
 7164SOL     OW32420   2.512   2.985   0.730
 7164SOL    HW132421   2.513   3.042   0.813
 7164SOL    HW232422   2.592   3.005   0.675
 7165SOL     OW32423   7.318   3.030   0.917
 7165SOL    HW132424   7.226   3.051   0.884
 7165SOL    HW232425   7.313   2.960   0.988
 7166SOL     OW32426   6.152   1.790   2.550
 7166SOL    HW132427   6.073   1.834   2.507
 7166SOL    HW232428   6.236   1.835   2.521
 7167SOL     OW32429   7.630   9.624   5.124
 7167SOL    HW132430   7.716   9.670   5.105
 7167SOL    HW232431   7.634   9.582   5.215
 7168SOL     OW32432   8.974   5.878   1.088
 7168SOL    HW132433   8.954   5.971   1.059
 7168SOL    HW232434   9.068   5.855   1.062
 7169SOL     OW32435   9.158   1.090   2.602
 7169SOL    HW132436   9.251   1.056   2.614
 7169SOL    HW232437   9.109   1.032   2.537
 7170SOL     OW32438   1.274   6.833   0.214
 7170SOL    HW132439   1.202   6.773   0.181
 7170SOL    HW232440   1.258   6.926   0.180
 7171SOL     OW32441   4.041   9.975   1.461
 7171SOL    HW132442   4.002   9.887   1.484
 7171SOL    HW232443   4.126   9.962   1.410
 7172SOL     OW32444   4.427   3.157   0.999
 7172SOL    HW132445   4.398   3.248   0.969
 7172SOL    HW232446   4.445   3.159   1.098
 7173SOL     OW32447   9.316   3.077   3.983
 7173SOL    HW132448   9.280   3.061   3.891
 7173SOL    HW232449   9.396   3.138   3.977
 7174SOL     OW32450   4.900   3.976   3.055
 7174SOL    HW132451   4.873   4.053   2.997
 7174SOL    HW232452   4.927   4.010   3.145
 7175SOL     OW32453   6.187   0.021   3.592
 7175SOL    HW132454   6.228   0.051   3.506
 7175SOL    HW232455   6.248   0.043   3.668
 7176SOL     OW32456   1.965   2.409   3.597
 7176SOL    HW132457   1.943   2.497   3.555
 7176SOL    HW232458   2.063   2.404   3.616
 7177SOL     OW32459   4.247   4.386   4.212
 7177SOL    HW132460   4.219   4.350   4.301
 7177SOL    HW232461   4.345   4.372   4.200
 7178SOL     OW32462   9.885   0.035   0.448
 7178SOL    HW132463   9.836   0.101   0.505
 7178SOL    HW232464   9.848   9.944   0.464
 7179SOL     OW32465   9.029   7.122   0.142
 7179SOL    HW132466   9.117   7.165   0.123
 7179SOL    HW232467   9.038   7.022   0.134
 7180SOL     OW32468   5.098   0.679   1.609
 7180SOL    HW132469   5.149   0.595   1.590
 7180SOL    HW232470   5.097   0.737   1.528
 7181SOL     OW32471   1.891   8.302   1.629
 7181SOL    HW132472   1.835   8.364   1.574
 7181SOL    HW232473   1.862   8.307   1.724
 7182SOL     OW32474   2.630   2.315   0.470
 7182SOL    HW132475   2.604   2.367   0.389
 7182SOL    HW232476   2.709   2.359   0.513
 7183SOL     OW32477   7.320   1.913   2.848
 7183SOL    HW132478   7.410   1.870   2.858
 7183SOL    HW232479   7.308   1.981   2.920
 7184SOL     OW32480   1.878   4.352   1.662
 7184SOL    HW132481   1.889   4.300   1.747
 7184SOL    HW232482   1.883   4.290   1.584
 7185SOL     OW32483   7.990   7.710   2.879
 7185SOL    HW132484   7.943   7.761   2.808
 7185SOL    HW232485   8.088   7.705   2.858
 7186SOL     OW32486   0.682   3.139   3.039
 7186SOL    HW132487   0.728   3.061   2.996
 7186SOL    HW232488   0.748   3.189   3.096
 7187SOL     OW32489   7.007   0.853   1.034
 7187SOL    HW132490   7.042   0.848   1.128
 7187SOL    HW232491   7.027   0.943   0.996
 7188SOL     OW32492   7.620   2.845   0.190
 7188SOL    HW132493   7.669   2.767   0.151
 7188SOL    HW232494   7.659   2.869   0.278
 7189SOL     OW32495   4.738   5.748   1.319
 7189SOL    HW132496   4.671   5.781   1.385
 7189SOL    HW232497   4.694   5.739   1.229
 7190SOL     OW32498   3.014   2.059   4.118
 7190SOL    HW132499   3.096   2.084   4.067
 7190SOL    HW232500   3.040   2.002   4.196
 7191SOL     OW32501   9.870   0.105   3.159
 7191SOL    HW132502   9.866   0.128   3.062
 7191SOL    HW232503   9.965   0.099   3.189
 7192SOL     OW32504   0.658   3.666   3.521
 7192SOL    HW132505   0.612   3.690   3.436
 7192SOL    HW232506   0.632   3.731   3.592
 7193SOL     OW32507   8.262   5.099   1.427
 7193SOL    HW132508   8.348   5.081   1.475
 7193SOL    HW232509   8.271   5.071   1.331
 7194SOL     OW32510   9.396   9.473   4.038
 7194SOL    HW132511   9.425   9.493   3.944
 7194SOL    HW232512   9.350   9.554   4.076
 7195SOL     OW32513   7.747   2.061   3.547
 7195SOL    HW132514   7.763   2.018   3.458
 7195SOL    HW232515   7.748   2.160   3.537
 7196SOL     OW32516   5.209   1.175   1.245
 7196SOL    HW132517   5.222   1.078   1.224
 7196SOL    HW232518   5.267   1.201   1.323
 7197SOL     OW32519   3.228   4.905   3.040
 7197SOL    HW132520   3.315   4.939   3.004
 7197SOL    HW232521   3.156   4.972   3.021
 7198SOL     OW32522   7.285   4.933   0.867
 7198SOL    HW132523   7.373   4.929   0.821
 7198SOL    HW232524   7.300   4.946   0.965
 7199SOL     OW32525   9.876   1.085   4.599
 7199SOL    HW132526   9.849   1.010   4.660
 7199SOL    HW232527   9.814   1.088   4.520
 7200SOL     OW32528   2.580   6.861   4.964
 7200SOL    HW132529   2.623   6.947   4.995
 7200SOL    HW232530   2.620   6.833   4.877
 7201SOL     OW32531   9.213   2.169   1.995
 7201SOL    HW132532   9.186   2.211   1.908
 7201SOL    HW232533   9.152   2.201   2.067
 7202SOL     OW32534   2.518   2.350   4.818
 7202SOL    HW132535   2.604   2.400   4.834
 7202SOL    HW232536   2.471   2.390   4.739
 7203SOL     OW32537   1.297   7.118   2.056
 7203SOL    HW132538   1.387   7.160   2.061
 7203SOL    HW232539   1.305   7.026   2.017
 7204SOL     OW32540   4.558   8.531   0.290
 7204SOL    HW132541   4.581   8.500   0.383
 7204SOL    HW232542   4.463   8.507   0.270
 7205SOL     OW32543   4.094   4.381   2.076
 7205SOL    HW132544   4.031   4.305   2.094
 7205SOL    HW232545   4.092   4.444   2.154
 7206SOL     OW32546   5.497   0.400   2.598
 7206SOL    HW132547   5.510   0.311   2.553
 7206SOL    HW232548   5.577   0.458   2.581
 7207SOL     OW32549   2.887   2.766   1.156
 7207SOL    HW132550   2.949   2.843   1.175
 7207SOL    HW232551   2.940   2.691   1.116
 7208SOL     OW32552   7.816   9.284   2.483
 7208SOL    HW132553   7.893   9.271   2.546
 7208SOL    HW232554   7.850   9.310   2.393
 7209SOL     OW32555   5.936   8.813   1.831
 7209SOL    HW132556   5.988   8.898   1.839
 7209SOL    HW232557   5.938   8.764   1.918
 7210SOL     OW32558   1.204   0.344   3.316
 7210SOL    HW132559   1.190   0.408   3.392
 7210SOL    HW232560   1.130   0.354   3.250
 7211SOL     OW32561   9.220   6.693   2.393
 7211SOL    HW132562   9.207   6.671   2.490
 7211SOL    HW232563   9.149   6.758   2.364
 7212SOL     OW32564   7.730   8.167   4.516
 7212SOL    HW132565   7.666   8.209   4.580
 7212SOL    HW232566   7.718   8.209   4.425
 7213SOL     OW32567   2.111   5.553   1.342
 7213SOL    HW132568   2.088   5.649   1.328
 7213SOL    HW232569   2.028   5.501   1.363
 7214SOL     OW32570   3.813   2.761   2.690
 7214SOL    HW132571   3.773   2.838   2.740
 7214SOL    HW232572   3.753   2.737   2.613
 7215SOL     OW32573   1.348   3.301   0.116
 7215SOL    HW132574   1.308   3.248   0.041
 7215SOL    HW232575   1.390   3.384   0.080
 7216SOL     OW32576   3.356   8.874   1.104
 7216SOL    HW132577   3.305   8.942   1.053
 7216SOL    HW232578   3.385   8.800   1.043
 7217SOL     OW32579   0.184   1.033   1.073
 7217SOL    HW132580   0.111   0.996   1.017
 7217SOL    HW232581   0.206   0.969   1.146
 7218SOL     OW32582   6.615   1.620   1.129
 7218SOL    HW132583   6.558   1.699   1.104
 7218SOL    HW232584   6.573   1.536   1.095
 7219SOL     OW32585   9.108   2.115   4.744
 7219SOL    HW132586   9.147   2.182   4.681
 7219SOL    HW232587   9.131   2.023   4.714
 7220SOL     OW32588   0.008   8.713   2.947
 7220SOL    HW132589   0.046   8.640   3.003
 7220SOL    HW232590   9.973   8.786   3.006
 7221SOL     OW32591   0.628   5.470   2.534
 7221SOL    HW132592   0.647   5.531   2.611
 7221SOL    HW232593   0.710   5.464   2.476
 7222SOL     OW32594   4.819   8.934   4.924
 7222SOL    HW132595   4.760   8.966   4.998
 7222SOL    HW232596   4.915   8.950   4.949
 7223SOL     OW32597   9.284   6.878   0.983
 7223SOL    HW132598   9.200   6.829   1.006
 7223SOL    HW232599   9.273   6.925   0.896
 7224SOL     OW32600   3.803   9.234   1.164
 7224SOL    HW132601   3.748   9.310   1.199
 7224SOL    HW232602   3.898   9.248   1.189
 7225SOL     OW32603   9.391   6.413   3.596
 7225SOL    HW132604   9.341   6.400   3.510
 7225SOL    HW232605   9.365   6.340   3.660
 7226SOL     OW32606   5.645   9.153   4.948
 7226SOL    HW132607   5.732   9.194   4.974
 7226SOL    HW232608   5.603   9.206   4.874
 7227SOL     OW32609   0.224   9.749   4.058
 7227SOL    HW132610   0.314   9.771   4.019
 7227SOL    HW232611   0.228   9.660   4.102
 7228SOL     OW32612   0.794   2.355   4.976
 7228SOL    HW132613   0.810   2.389   4.883
 7228SOL    HW232614   0.835   2.264   4.985
 7229SOL     OW32615   8.736   8.528   3.084
 7229SOL    HW132616   8.765   8.502   2.991
 7229SOL    HW232617   8.692   8.618   3.081
 7230SOL     OW32618   7.942   0.578   3.245
 7230SOL    HW132619   7.932   0.612   3.339
 7230SOL    HW232620   7.875   0.623   3.186
 7231SOL     OW32621   8.688   0.278   5.105
 7231SOL    HW132622   8.778   0.240   5.085
 7231SOL    HW232623   8.618   0.219   5.066
 7232SOL     OW32624   2.044   4.552   3.562
 7232SOL    HW132625   2.051   4.476   3.627
 7232SOL    HW232626   1.963   4.607   3.584
 7233SOL     OW32627   2.076   7.216   3.172
 7233SOL    HW132628   2.148   7.248   3.233
 7233SOL    HW232629   1.992   7.269   3.189
 7234SOL     OW32630   9.787   1.242   2.417
 7234SOL    HW132631   9.786   1.292   2.331
 7234SOL    HW232632   9.841   1.292   2.485
 7235SOL     OW32633   9.721   6.573   4.569
 7235SOL    HW132634   9.730   6.474   4.555
 7235SOL    HW232635   9.722   6.619   4.481
 7236SOL     OW32636   8.744   2.614   5.021
 7236SOL    HW132637   8.648   2.639   5.031
 7236SOL    HW232638   8.801   2.696   5.022
 7237SOL     OW32639   1.165   4.519   1.171
 7237SOL    HW132640   1.252   4.568   1.170
 7237SOL    HW232641   1.108   4.555   1.245
 7238SOL     OW32642   3.874   5.405   1.121
 7238SOL    HW132643   3.906   5.361   1.205
 7238SOL    HW232644   3.906   5.499   1.118
 7239SOL     OW32645   8.930   1.518   4.949
 7239SOL    HW132646   8.861   1.456   4.913
 7239SOL    HW232647   8.893   1.611   4.952
 7240SOL     OW32648   1.457   3.529   0.019
 7240SOL    HW132649   1.538   3.554   0.073
 7240SOL    HW232650   1.453   3.587   6.686
 7241SOL     OW32651   9.604   4.583   0.202
 7241SOL    HW132652   9.607   4.683   0.201
 7241SOL    HW232653   9.612   4.551   0.297
 7242SOL     OW32654   9.425   3.336   2.321
 7242SOL    HW132655   9.385   3.274   2.388
 7242SOL    HW232656   9.467   3.283   2.247
 7243SOL     OW32657   9.602   3.137   3.346
 7243SOL    HW132658   9.657   3.171   3.269
 7243SOL    HW232659   9.506   3.130   3.318
 7244SOL     OW32660   1.700   0.536   2.202
 7244SOL    HW132661   1.670   0.567   2.292
 7244SOL    HW232662   1.711   0.436   2.204
 7245SOL     OW32663   9.587   0.312   3.070
 7245SOL    HW132664   9.643   0.231   3.054
 7245SOL    HW232665   9.548   0.308   3.161
 7246SOL     OW32666   0.972   7.495   1.509
 7246SOL    HW132667   1.045   7.533   1.453
 7246SOL    HW232668   0.960   7.398   1.486
 7247SOL     OW32669   3.983   0.891   5.036
 7247SOL    HW132670   3.959   0.985   5.013
 7247SOL    HW232671   3.916   0.856   5.102
 7248SOL     OW32672   0.968   1.708   3.135
 7248SOL    HW132673   1.068   1.711   3.137
 7248SOL    HW232674   0.931   1.788   3.182
 7249SOL     OW32675   4.736   4.191   4.302
 7249SOL    HW132676   4.658   4.251   4.281
 7249SOL    HW232677   4.706   4.121   4.368
 7250SOL     OW32678   4.842   7.355   4.737
 7250SOL    HW132679   4.884   7.426   4.680
 7250SOL    HW232680   4.769   7.309   4.686
 7251SOL     OW32681   3.436   6.086   2.074
 7251SOL    HW132682   3.357   6.101   2.015
 7251SOL    HW232683   3.517   6.067   2.017
 7252SOL     OW32684   2.825   8.253   3.638
 7252SOL    HW132685   2.917   8.220   3.615
 7252SOL    HW232686   2.796   8.321   3.571
 7253SOL     OW32687   8.450   0.360   2.491
 7253SOL    HW132688   8.537   0.320   2.465
 7253SOL    HW232689   8.450   0.379   2.590
 7254SOL     OW32690   1.659   2.453   2.735
 7254SOL    HW132691   1.662   2.389   2.812
 7254SOL    HW232692   1.672   2.403   2.649
 7255SOL     OW32693   8.097   0.919   3.365
 7255SOL    HW132694   8.160   0.988   3.330
 7255SOL    HW232695   8.100   0.838   3.306
 7256SOL     OW32696   9.381   7.615   1.700
 7256SOL    HW132697   9.341   7.698   1.738
 7256SOL    HW232698   9.335   7.591   1.615
 7257SOL     OW32699   4.278   4.409   0.394
 7257SOL    HW132700   4.277   4.325   0.339
 7257SOL    HW232701   4.294   4.487   0.333
 7258SOL     OW32702   4.813   9.553   0.752
 7258SOL    HW132703   4.867   9.625   0.796
 7258SOL    HW232704   4.803   9.573   0.655
 7259SOL     OW32705   0.035   9.919   1.467
 7259SOL    HW132706   9.989   9.851   1.410
 7259SOL    HW232707   9.983   0.004   1.467
 7260SOL     OW32708   3.419   7.868   3.710
 7260SOL    HW132709   3.507   7.892   3.669
 7260SOL    HW232710   3.430   7.855   3.808
 7261SOL     OW32711   5.428   8.680   4.088
 7261SOL    HW132712   5.356   8.616   4.059
 7261SOL    HW232713   5.400   8.774   4.066
 7262SOL     OW32714   1.212   5.964   5.011
 7262SOL    HW132715   1.189   6.014   5.094
 7262SOL    HW232716   1.264   6.023   4.949
 7263SOL     OW32717   6.803   1.538   3.869
 7263SOL    HW132718   6.901   1.527   3.849
 7263SOL    HW232719   6.791   1.568   3.963
 7264SOL     OW32720   2.242   4.323   3.156
 7264SOL    HW132721   2.274   4.397   3.097
 7264SOL    HW232722   2.242   4.353   3.252
 7265SOL     OW32723   0.348   5.712   1.161
 7265SOL    HW132724   0.253   5.741   1.168
 7265SOL    HW232725   0.404   5.787   1.127
 7266SOL     OW32726   0.468   5.100   3.319
 7266SOL    HW132727   0.456   5.172   3.250
 7266SOL    HW232728   0.559   5.060   3.308
 7267SOL     OW32729   6.725   9.621   2.864
 7267SOL    HW132730   6.727   9.665   2.774
 7267SOL    HW232731   6.695   9.526   2.854
 7268SOL     OW32732   4.113   3.504   1.084
 7268SOL    HW132733   4.030   3.459   1.052
 7268SOL    HW232734   4.093   3.598   1.112
 7269SOL     OW32735   7.687   1.971   0.960
 7269SOL    HW132736   7.785   1.981   0.941
 7269SOL    HW232737   7.635   2.027   0.895
 7270SOL     OW32738   7.891   4.177   0.621
 7270SOL    HW132739   7.917   4.268   0.651
 7270SOL    HW232740   7.974   4.123   0.603
 7271SOL     OW32741   0.466   5.307   3.133
 7271SOL    HW132742   0.387   5.365   3.153
 7271SOL    HW232743   0.549   5.361   3.136
 7272SOL     OW32744   2.289   3.398   0.205
 7272SOL    HW132745   2.201   3.352   0.217
 7272SOL    HW232746   2.310   3.451   0.287
 7273SOL     OW32747   2.085   3.641   0.416
 7273SOL    HW132748   2.086   3.729   0.463
 7273SOL    HW232749   2.178   3.606   0.407
 7274SOL     OW32750   2.463   3.107   4.596
 7274SOL    HW132751   2.410   3.067   4.521
 7274SOL    HW232752   2.430   3.199   4.616
 7275SOL     OW32753   2.401   3.377   1.441
 7275SOL    HW132754   2.497   3.359   1.419
 7275SOL    HW232755   2.347   3.295   1.422
 7276SOL     OW32756   1.760   5.688   3.762
 7276SOL    HW132757   1.850   5.696   3.719
 7276SOL    HW232758   1.709   5.613   3.720
 7277SOL     OW32759   1.809   3.957   1.291
 7277SOL    HW132760   1.715   3.971   1.261
 7277SOL    HW232761   1.849   3.880   1.241
 7278SOL     OW32762   8.717   2.930   1.088
 7278SOL    HW132763   8.690   2.891   1.176
 7278SOL    HW232764   8.778   2.867   1.040
 7279SOL     OW32765   0.146   9.050   3.892
 7279SOL    HW132766   0.076   9.113   3.859
 7279SOL    HW232767   0.176   8.991   3.817
 7280SOL     OW32768   0.588   7.286   0.552
 7280SOL    HW132769   0.629   7.277   0.461
 7280SOL    HW232770   0.599   7.201   0.602
 7281SOL     OW32771   0.697   7.902   0.803
 7281SOL    HW132772   0.646   7.825   0.765
 7281SOL    HW232773   0.649   7.938   0.883
 7282SOL     OW32774   4.200   6.658   3.596
 7282SOL    HW132775   4.160   6.577   3.638
 7282SOL    HW232776   4.182   6.658   3.498
 7283SOL     OW32777   5.384   7.053   3.177
 7283SOL    HW132778   5.344   7.012   3.095
 7283SOL    HW232779   5.328   7.130   3.207
 7284SOL     OW32780   1.620   9.047   1.352
 7284SOL    HW132781   1.668   9.105   1.418
 7284SOL    HW232782   1.686   9.002   1.292
 7285SOL     OW32783   0.940   0.219   4.432
 7285SOL    HW132784   0.890   0.304   4.448
 7285SOL    HW232785   0.929   0.191   4.337
 7286SOL     OW32786   0.428   1.011   2.969
 7286SOL    HW132787   0.431   0.944   2.894
 7286SOL    HW232788   0.390   0.967   3.051
 7287SOL     OW32789   7.223   0.667   4.012
 7287SOL    HW132790   7.169   0.689   4.093
 7287SOL    HW232791   7.303   0.613   4.039
 7288SOL     OW32792   1.060   2.650   0.301
 7288SOL    HW132793   1.087   2.600   0.383
 7288SOL    HW232794   0.972   2.614   0.268
 7289SOL     OW32795   0.184   5.855   4.950
 7289SOL    HW132796   0.192   5.756   4.960
 7289SOL    HW232797   0.274   5.894   4.927
 7290SOL     OW32798   0.123   9.399   0.425
 7290SOL    HW132799   0.138   9.310   0.469
 7290SOL    HW232800   0.073   9.385   0.339
 7291SOL     OW32801   1.447   5.418   4.480
 7291SOL    HW132802   1.358   5.372   4.477
 7291SOL    HW232803   1.490   5.412   4.390
 7292SOL     OW32804   5.236   6.904   1.997
 7292SOL    HW132805   5.304   6.945   2.059
 7292SOL    HW232806   5.164   6.860   2.050
 7293SOL     OW32807   2.636   4.882   2.081
 7293SOL    HW132808   2.673   4.810   2.139
 7293SOL    HW232809   2.663   4.866   1.986
 7294SOL     OW32810   1.216   5.926   0.907
 7294SOL    HW132811   1.191   5.948   1.001
 7294SOL    HW232812   1.182   5.998   0.846
 7295SOL     OW32813   1.011   0.247   1.921
 7295SOL    HW132814   1.063   0.162   1.922
 7295SOL    HW232815   0.951   0.249   1.841
 7296SOL     OW32816   1.362   0.171   1.779
 7296SOL    HW132817   1.414   0.147   1.861
 7296SOL    HW232818   1.410   0.242   1.728
 7297SOL     OW32819   6.974   9.489   4.264
 7297SOL    HW132820   6.988   9.588   4.261
 7297SOL    HW232821   7.029   9.445   4.194
 7298SOL     OW32822   2.173   3.272   1.745
 7298SOL    HW132823   2.114   3.277   1.664
 7298SOL    HW232824   2.221   3.185   1.746
 7299SOL     OW32825   3.824   6.312   3.612
 7299SOL    HW132826   3.906   6.360   3.643
 7299SOL    HW232827   3.749   6.377   3.601
 7300SOL     OW32828   8.700   4.356   2.089
 7300SOL    HW132829   8.779   4.359   2.028
 7300SOL    HW232830   8.638   4.283   2.058
 7301SOL     OW32831   3.967   2.647   0.155
 7301SOL    HW132832   3.923   2.702   0.226
 7301SOL    HW232833   3.918   2.660   0.069
 7302SOL     OW32834   4.766   9.251   2.258
 7302SOL    HW132835   4.765   9.345   2.223
 7302SOL    HW232836   4.813   9.192   2.192
 7303SOL     OW32837   0.564   8.196   3.431
 7303SOL    HW132838   0.558   8.288   3.394
 7303SOL    HW232839   0.620   8.197   3.513
 7304SOL     OW32840   2.738   4.129   4.913
 7304SOL    HW132841   2.752   4.158   5.008
 7304SOL    HW232842   2.644   4.100   4.900
 7305SOL     OW32843   0.182   7.828   3.035
 7305SOL    HW132844   0.269   7.781   3.049
 7305SOL    HW232845   0.110   7.761   3.019
 7306SOL     OW32846   9.603   7.110   5.030
 7306SOL    HW132847   9.594   7.103   4.931
 7306SOL    HW232848   9.608   7.207   5.057
 7307SOL     OW32849   1.024   3.160   5.007
 7307SOL    HW132850   1.119   3.188   4.999
 7307SOL    HW232851   0.965   3.234   4.974
 7308SOL     OW32852   9.167   6.875   1.686
 7308SOL    HW132853   9.222   6.792   1.672
 7308SOL    HW232854   9.081   6.851   1.731
 7309SOL     OW32855   5.238   3.597   0.785
 7309SOL    HW132856   5.178   3.673   0.758
 7309SOL    HW232857   5.183   3.514   0.798
 7310SOL     OW32858   0.157   7.726   3.812
 7310SOL    HW132859   0.095   7.648   3.818
 7310SOL    HW232860   0.122   7.801   3.868
 7311SOL     OW32861   6.489   2.425   3.492
 7311SOL    HW132862   6.471   2.453   3.398
 7311SOL    HW232863   6.567   2.363   3.494
 7312SOL     OW32864   2.168   4.122   0.648
 7312SOL    HW132865   2.226   4.093   0.724
 7312SOL    HW232866   2.217   4.188   0.591
 7313SOL     OW32867   0.371   7.055   1.143
 7313SOL    HW132868   0.383   6.966   1.099
 7313SOL    HW232869   0.307   7.046   1.219
 7314SOL     OW32870   0.170   0.675   4.772
 7314SOL    HW132871   0.212   0.765   4.781
 7314SOL    HW232872   0.189   0.621   4.854
 7315SOL     OW32873   5.158   7.702   3.832
 7315SOL    HW132874   5.138   7.613   3.874
 7315SOL    HW232875   5.198   7.764   3.899
 7316SOL     OW32876   9.839   3.489   1.807
 7316SOL    HW132877   9.798   3.579   1.818
 7316SOL    HW232878   9.768   3.419   1.815
 7317SOL     OW32879   2.331   1.461   2.839
 7317SOL    HW132880   2.284   1.545   2.812
 7317SOL    HW232881   2.376   1.421   2.760
 7318SOL     OW32882   0.651   3.143   4.580
 7318SOL    HW132883   0.600   3.137   4.665
 7318SOL    HW232884   0.589   3.161   4.504
 7319SOL     OW32885   5.024   6.801   2.138
 7319SOL    HW132886   4.965   6.879   2.116
 7319SOL    HW232887   4.986   6.752   2.216
 7320SOL     OW32888   9.181   9.322   1.013
 7320SOL    HW132889   9.253   9.272   0.965
 7320SOL    HW232890   9.103   9.261   1.029
 7321SOL     OW32891   1.094   4.856   1.259
 7321SOL    HW132892   1.123   4.841   1.165
 7321SOL    HW232893   1.051   4.773   1.294
 7322SOL     OW32894   4.116   7.739   4.167
 7322SOL    HW132895   4.126   7.663   4.102
 7322SOL    HW232896   4.206   7.778   4.188
 7323SOL     OW32897   0.486   7.714   0.246
 7323SOL    HW132898   0.502   7.804   0.204
 7323SOL    HW232899   0.455   7.726   0.340
 7324SOL     OW32900   3.572   5.348   1.634
 7324SOL    HW132901   3.633   5.300   1.572
 7324SOL    HW232902   3.522   5.282   1.690
 7325SOL     OW32903   8.852   6.261   2.296
 7325SOL    HW132904   8.936   6.299   2.332
 7325SOL    HW232905   8.774   6.298   2.346
 7326SOL     OW32906   5.627   4.340   0.805
 7326SOL    HW132907   5.573   4.258   0.789
 7326SOL    HW232908   5.566   4.417   0.827
 7327SOL     OW32909   8.604   3.025   0.713
 7327SOL    HW132910   8.658   3.060   0.789
 7327SOL    HW232911   8.582   2.929   0.728
 7328SOL     OW32912   1.461   5.589   3.861
 7328SOL    HW132913   1.467   5.688   3.847
 7328SOL    HW232914   1.390   5.551   3.802
 7329SOL     OW32915   0.094   1.106   2.761
 7329SOL    HW132916   0.022   1.166   2.726
 7329SOL    HW232917   0.156   1.159   2.819
 7330SOL     OW32918   2.009   2.821   3.311
 7330SOL    HW132919   1.934   2.887   3.317
 7330SOL    HW232920   2.019   2.789   3.217
 7331SOL     OW32921   9.122   9.964   0.727
 7331SOL    HW132922   9.069   9.950   0.643
 7331SOL    HW232923   9.061   9.960   0.806
 7332SOL     OW32924   8.574   6.211   1.644
 7332SOL    HW132925   8.572   6.151   1.563
 7332SOL    HW232926   8.588   6.305   1.614
 7333SOL     OW32927   7.474   2.290   4.323
 7333SOL    HW132928   7.452   2.374   4.372
 7333SOL    HW232929   7.529   2.311   4.243
 7334SOL     OW32930   2.748   0.137   4.957
 7334SOL    HW132931   2.790   0.215   5.003
 7334SOL    HW232932   2.779   0.133   4.862
 7335SOL     OW32933   3.336   2.863   0.391
 7335SOL    HW132934   3.376   2.915   0.315
 7335SOL    HW232935   3.238   2.883   0.397
 7336SOL     OW32936   4.207   1.703   3.094
 7336SOL    HW132937   4.306   1.692   3.087
 7336SOL    HW232938   4.163   1.614   3.098
 7337SOL     OW32939   1.561   5.138   4.350
 7337SOL    HW132940   1.640   5.168   4.403
 7337SOL    HW232941   1.521   5.057   4.392
 7338SOL     OW32942   9.615   1.590   4.074
 7338SOL    HW132943   9.628   1.671   4.132
 7338SOL    HW232944   9.570   1.518   4.128
 7339SOL     OW32945   0.614   9.928   3.740
 7339SOL    HW132946   0.687   9.994   3.725
 7339SOL    HW232947   0.525   9.974   3.733
 7340SOL     OW32948   6.294   0.120   3.362
 7340SOL    HW132949   6.218   0.131   3.297
 7340SOL    HW232950   6.352   0.201   3.360
 7341SOL     OW32951   1.103   5.122   0.719
 7341SOL    HW132952   1.099   5.023   0.731
 7341SOL    HW232953   1.198   5.151   0.715
 7342SOL     OW32954   1.816   1.873   0.610
 7342SOL    HW132955   1.742   1.869   0.543
 7342SOL    HW232956   1.865   1.786   0.611
 7343SOL     OW32957   9.299   0.898   3.701
 7343SOL    HW132958   9.333   0.947   3.622
 7343SOL    HW232959   9.237   0.957   3.754
 7344SOL     OW32960   7.915   2.347   2.034
 7344SOL    HW132961   7.875   2.400   2.109
 7344SOL    HW232962   7.993   2.397   1.996
 7345SOL     OW32963   3.732   6.498   1.715
 7345SOL    HW132964   3.831   6.483   1.704
 7345SOL    HW232965   3.706   6.583   1.670
 7346SOL     OW32966   5.962   4.183   0.530
 7346SOL    HW132967   6.059   4.167   0.548
 7346SOL    HW232968   5.911   4.099   0.545
 7347SOL     OW32969   7.179   2.148   5.157
 7347SOL    HW132970   7.116   2.212   5.113
 7347SOL    HW232971   7.162   2.055   5.123
 7348SOL     OW32972   7.912   3.096   1.315
 7348SOL    HW132973   7.819   3.059   1.317
 7348SOL    HW232974   7.949   3.099   1.407
 7349SOL     OW32975   0.630   4.169   1.363
 7349SOL    HW132976   0.663   4.135   1.451
 7349SOL    HW232977   0.557   4.235   1.378
 7350SOL     OW32978   4.943   1.730   0.831
 7350SOL    HW132979   4.965   1.828   0.827
 7350SOL    HW232980   4.847   1.718   0.855
 7351SOL     OW32981   0.106   4.188   4.389
 7351SOL    HW132982   0.196   4.180   4.432
 7351SOL    HW232983   0.117   4.206   4.292
 7352SOL     OW32984   7.262   4.666   1.129
 7352SOL    HW132985   7.207   4.664   1.045
 7352SOL    HW232986   7.297   4.758   1.144
 7353SOL     OW32987   1.832   6.926   4.848
 7353SOL    HW132988   1.929   6.916   4.825
 7353SOL    HW232989   1.823   6.987   4.926
 7354SOL     OW32990   7.345   0.668   2.002
 7354SOL    HW132991   7.250   0.691   1.981
 7354SOL    HW232992   7.348   0.583   2.054
 7355SOL     OW32993   9.674   0.550   0.805
 7355SOL    HW132994   9.591   0.517   0.849
 7355SOL    HW232995   9.672   0.528   0.708
 7356SOL     OW32996   9.202   9.547   0.321
 7356SOL    HW132997   9.122   9.515   0.269
 7356SOL    HW232998   9.257   9.468   0.349
 7357SOL     OW32999   2.823   0.312   2.154
 7357SOL    HW133000   2.812   0.232   2.094
 7357SOL    HW233001   2.738   0.364   2.156
 7358SOL     OW33002   7.504   2.967   4.736
 7358SOL    HW133003   7.515   2.932   4.643
 7358SOL    HW233004   7.590   3.010   4.765
 7359SOL     OW33005   0.567   9.503   3.868
 7359SOL    HW133006   0.552   9.447   3.950
 7359SOL    HW233007   0.560   9.446   3.786
 7360SOL     OW33008   2.337   2.279   5.021
 7360SOL    HW133009   2.378   2.197   5.062
 7360SOL    HW233010   2.405   2.324   4.963
 7361SOL     OW33011   2.402   2.968   4.123
 7361SOL    HW133012   2.491   2.924   4.134
 7361SOL    HW233013   2.361   2.938   4.037
 7362SOL     OW33014   3.150   7.954   3.747
 7362SOL    HW133015   3.245   7.928   3.732
 7362SOL    HW233016   3.123   8.026   3.683
 7363SOL     OW33017   1.653   5.436   3.991
 7363SOL    HW133018   1.714   5.379   3.937
 7363SOL    HW233019   1.588   5.482   3.931
 7364SOL     OW33020   4.584   3.497   3.605
 7364SOL    HW133021   4.569   3.562   3.530
 7364SOL    HW233022   4.507   3.434   3.610
 7365SOL     OW33023   3.435   0.631   2.027
 7365SOL    HW133024   3.390   0.545   2.051
 7365SOL    HW233025   3.385   0.708   2.067
 7366SOL     OW33026   0.820   0.052   4.615
 7366SOL    HW133027   0.869   0.101   4.543
 7366SOL    HW233028   0.768   0.116   4.670
 7367SOL     OW33029   0.653   8.769   2.586
 7367SOL    HW133030   0.565   8.810   2.563
 7367SOL    HW233031   0.726   8.837   2.576
 7368SOL     OW33032   1.365   0.836   2.080
 7368SOL    HW133033   1.327   0.856   1.990
 7368SOL    HW233034   1.416   0.916   2.113
 7369SOL     OW33035   9.134   7.991   4.691
 7369SOL    HW133036   9.114   8.082   4.728
 7369SOL    HW233037   9.215   7.996   4.632
 7370SOL     OW33038   0.132   7.968   3.963
 7370SOL    HW133039   0.219   7.991   3.920
 7370SOL    HW233040   0.066   8.041   3.946
 7371SOL     OW33041   8.419   0.941   3.838
 7371SOL    HW133042   8.443   1.024   3.787
 7371SOL    HW233043   8.384   0.872   3.775
 7372SOL     OW33044   2.083   3.568   2.703
 7372SOL    HW133045   2.032   3.482   2.700
 7372SOL    HW233046   2.021   3.645   2.688
 7373SOL     OW33047   2.194   5.919   0.077
 7373SOL    HW133048   2.183   6.019   0.083
 7373SOL    HW233049   2.247   5.897   6.744
 7374SOL     OW33050   2.589   6.792   0.840
 7374SOL    HW133051   2.683   6.783   0.872
 7374SOL    HW233052   2.566   6.714   0.782
 7375SOL     OW33053   0.948   2.288   1.636
 7375SOL    HW133054   0.849   2.287   1.621
 7375SOL    HW233055   0.967   2.275   1.733
 7376SOL     OW33056   7.302   3.643   0.493
 7376SOL    HW133057   7.323   3.706   0.418
 7376SOL    HW233058   7.246   3.568   0.459
 7377SOL     OW33059   4.108   1.473   2.041
 7377SOL    HW133060   4.168   1.454   2.118
 7377SOL    HW233061   4.162   1.505   1.963
 7378SOL     OW33062   0.325   3.479   3.518
 7378SOL    HW133063   0.272   3.560   3.541
 7378SOL    HW233064   0.294   3.443   3.430
 7379SOL     OW33065   3.407   7.180   3.504
 7379SOL    HW133066   3.380   7.261   3.557
 7379SOL    HW233067   3.487   7.202   3.448
 7380SOL     OW33068   0.850   8.613   5.247
 7380SOL    HW133069   0.928   8.666   5.212
 7380SOL    HW233070   0.850   8.617   5.347
 7381SOL     OW33071   0.404   1.483   2.868
 7381SOL    HW133072   0.422   1.525   2.779
 7381SOL    HW233073   0.486   1.488   2.924
 7382SOL     OW33074   7.672   2.763   1.183
 7382SOL    HW133075   7.728   2.693   1.226
 7382SOL    HW233076   7.599   2.719   1.130
 7383SOL     OW33077   0.648   9.995   2.359
 7383SOL    HW133078   0.688   0.086   2.355
 7383SOL    HW233079   0.561   9.994   2.310
 7384SOL     OW33080   7.102   1.457   0.748
 7384SOL    HW133081   7.058   1.544   0.771
 7384SOL    HW233082   7.194   1.455   0.786
 7385SOL     OW33083   1.714   2.826   0.427
 7385SOL    HW133084   1.704   2.849   0.524
 7385SOL    HW233085   1.795   2.872   0.390
 7386SOL     OW33086   9.218   7.219   3.649
 7386SOL    HW133087   9.200   7.202   3.552
 7386SOL    HW233088   9.198   7.136   3.702
 7387SOL     OW33089   0.595   6.605   0.950
 7387SOL    HW133090   0.517   6.664   0.973
 7387SOL    HW233091   0.636   6.635   0.864
 7388SOL     OW33092   4.904   8.341   4.447
 7388SOL    HW133093   4.845   8.394   4.386
 7388SOL    HW233094   4.847   8.282   4.505
 7389SOL     OW33095   5.099   0.974   0.260
 7389SOL    HW133096   5.145   1.038   0.322
 7389SOL    HW233097   5.094   0.884   0.303
 7390SOL     OW33098   7.154   9.747   2.015
 7390SOL    HW133099   7.182   9.665   2.066
 7390SOL    HW233100   7.157   9.827   2.075
 7391SOL     OW33101   0.953   3.358   1.615
 7391SOL    HW133102   0.933   3.325   1.523
 7391SOL    HW233103   0.955   3.282   1.679
 7392SOL     OW33104   0.067   0.920   4.292
 7392SOL    HW133105   0.148   0.910   4.234
 7392SOL    HW233106   0.014   0.835   4.289
 7393SOL     OW33107   1.216   0.223   4.459
 7393SOL    HW133108   1.248   0.146   4.404
 7393SOL    HW233109   1.116   0.218   4.468
 7394SOL     OW33110   1.167   2.532   5.015
 7394SOL    HW133111   1.212   2.541   5.103
 7394SOL    HW233112   1.158   2.435   4.991
 7395SOL     OW33113   9.292   3.354   3.464
 7395SOL    HW133114   9.365   3.383   3.526
 7395SOL    HW233115   9.270   3.429   3.401
 7396SOL     OW33116   3.451   6.115   1.027
 7396SOL    HW133117   3.442   6.016   1.042
 7396SOL    HW233118   3.394   6.164   1.094
 7397SOL     OW33119   0.441   7.376   3.701
 7397SOL    HW133120   0.375   7.305   3.678
 7397SOL    HW233121   0.504   7.389   3.625
 7398SOL     OW33122   2.356   4.477   0.947
 7398SOL    HW133123   2.344   4.544   1.020
 7398SOL    HW233124   2.447   4.436   0.954
 7399SOL     OW33125   8.732   2.929   0.341
 7399SOL    HW133126   8.698   2.985   0.265
 7399SOL    HW233127   8.767   2.989   0.413
 7400SOL     OW33128   1.325   6.058   4.373
 7400SOL    HW133129   1.382   5.994   4.321
 7400SOL    HW233130   1.285   6.012   4.452
 7401SOL     OW33131   4.184   9.927   5.020
 7401SOL    HW133132   4.184   9.843   5.074
 7401SOL    HW233133   4.205   0.005   5.079
 7402SOL     OW33134   5.293   8.243   5.299
 7402SOL    HW133135   5.196   8.246   5.324
 7402SOL    HW233136   5.310   8.309   5.226
 7403SOL     OW33137   5.911   7.859   4.931
 7403SOL    HW133138   5.908   7.959   4.931
 7403SOL    HW233139   5.821   7.823   4.953
 7404SOL     OW33140   0.761   0.928   2.851
 7404SOL    HW133141   0.748   0.867   2.772
 7404SOL    HW233142   0.746   1.023   2.823
 7405SOL     OW33143   4.015   5.620   5.226
 7405SOL    HW133144   4.114   5.617   5.242
 7405SOL    HW233145   3.990   5.550   5.159
 7406SOL     OW33146   0.141   8.740   1.368
 7406SOL    HW133147   0.074   8.768   1.436
 7406SOL    HW233148   0.194   8.663   1.402
 7407SOL     OW33149   5.077   1.602   0.212
 7407SOL    HW133150   5.076   1.525   0.150
 7407SOL    HW233151   5.159   1.598   0.269
 7408SOL     OW33152   6.647   7.819   2.509
 7408SOL    HW133153   6.670   7.851   2.601
 7408SOL    HW233154   6.632   7.720   2.511
 7409SOL     OW33155   7.035   2.062   1.096
 7409SOL    HW133156   7.000   2.063   1.189
 7409SOL    HW233157   7.130   2.031   1.096
 7410SOL     OW33158   4.855   9.692   3.252
 7410SOL    HW133159   4.851   9.633   3.333
 7410SOL    HW233160   4.950   9.705   3.225
 7411SOL     OW33161   5.885   1.171   2.598
 7411SOL    HW133162   5.872   1.086   2.547
 7411SOL    HW233163   5.926   1.150   2.687
 7412SOL     OW33164   4.286   0.247   0.336
 7412SOL    HW133165   4.266   0.321   0.400
 7412SOL    HW233166   4.321   0.286   0.251
 7413SOL     OW33167   1.005   4.426   0.317
 7413SOL    HW133168   0.913   4.445   0.283
 7413SOL    HW233169   0.999   4.393   0.412
 7414SOL     OW33170   0.632   1.092   4.987
 7414SOL    HW133171   0.563   1.114   4.918
 7414SOL    HW233172   0.696   1.025   4.950
 7415SOL     OW33173   0.544   1.386   3.642
 7415SOL    HW133174   0.500   1.313   3.695
 7415SOL    HW233175   0.641   1.365   3.630
 7416SOL     OW33176   2.723   7.958   3.372
 7416SOL    HW133177   2.649   8.024   3.379
 7416SOL    HW233178   2.705   7.896   3.295
 7417SOL     OW33179   1.621   2.081   1.976
 7417SOL    HW133180   1.567   2.165   1.983
 7417SOL    HW233181   1.610   2.041   1.885
 7418SOL     OW33182   4.112   5.560   3.346
 7418SOL    HW133183   4.052   5.609   3.282
 7418SOL    HW233184   4.205   5.595   3.339
 7419SOL     OW33185   4.251   0.448   0.519
 7419SOL    HW133186   4.178   0.498   0.566
 7419SOL    HW233187   4.328   0.509   0.504
 7420SOL     OW33188   2.363   6.315   0.227
 7420SOL    HW133189   2.332   6.405   0.259
 7420SOL    HW233190   2.375   6.254   0.306
 7421SOL     OW33191   0.869   9.462   0.371
 7421SOL    HW133192   0.794   9.441   0.434
 7421SOL    HW233193   0.851   9.419   0.283
 7422SOL     OW33194   3.632   7.636   0.457
 7422SOL    HW133195   3.675   7.681   0.379
 7422SOL    HW233196   3.540   7.606   0.431
 7423SOL     OW33197   6.967   2.806   3.051
 7423SOL    HW133198   7.048   2.784   2.997
 7423SOL    HW233199   6.890   2.750   3.020
 7424SOL     OW33200   3.433   4.173   3.065
 7424SOL    HW133201   3.424   4.078   3.094
 7424SOL    HW233202   3.342   4.216   3.064
 7425SOL     OW33203   9.024   6.148   1.716
 7425SOL    HW133204   9.052   6.244   1.710
 7425SOL    HW233205   9.086   6.099   1.777
 7426SOL     OW33206   5.173   0.663   1.873
 7426SOL    HW133207   5.145   0.678   1.778
 7426SOL    HW233208   5.207   0.749   1.911
 7427SOL     OW33209   2.289   6.089   0.881
 7427SOL    HW133210   2.206   6.088   0.825
 7427SOL    HW233211   2.268   6.125   0.971
 7428SOL     OW33212   3.002   9.762   1.254
 7428SOL    HW133213   2.950   9.781   1.337
 7428SOL    HW233214   2.940   9.756   1.176
 7429SOL     OW33215   2.982   1.326   3.860
 7429SOL    HW133216   2.906   1.277   3.903
 7429SOL    HW233217   3.068   1.283   3.886
 7430SOL     OW33218   7.678   5.431   5.075
 7430SOL    HW133219   7.745   5.394   5.011
 7430SOL    HW233220   7.665   5.366   5.150
 7431SOL     OW33221   5.432   7.683   4.558
 7431SOL    HW133222   5.458   7.775   4.529
 7431SOL    HW233223   5.466   7.666   4.651
 7432SOL     OW33224   8.658   8.113   4.920
 7432SOL    HW133225   8.647   8.158   4.832
 7432SOL    HW233226   8.684   8.018   4.906
 7433SOL     OW33227   8.951   4.045   3.398
 7433SOL    HW133228   8.883   4.061   3.469
 7433SOL    HW233229   8.937   4.110   3.323
 7434SOL     OW33230   5.280   2.346   4.982
 7434SOL    HW133231   5.242   2.262   5.021
 7434SOL    HW233232   5.367   2.367   5.026
 7435SOL     OW33233   8.787   3.118   0.900
 7435SOL    HW133234   8.757   3.062   0.977
 7435SOL    HW233235   8.887   3.118   0.895
 7436SOL     OW33236   0.037   8.412   4.893
 7436SOL    HW133237   0.054   8.511   4.899
 7436SOL    HW233238   0.101   8.372   4.827
 7437SOL     OW33239   0.394   1.438   0.420
 7437SOL    HW133240   0.401   1.535   0.398
 7437SOL    HW233241   0.442   1.384   0.350
 7438SOL     OW33242   1.927   2.890   4.484
 7438SOL    HW133243   1.990   2.961   4.454
 7438SOL    HW233244   1.909   2.900   4.581
 7439SOL     OW33245   8.174   4.563   0.818
 7439SOL    HW133246   8.216   4.560   0.727
 7439SOL    HW233247   8.132   4.653   0.832
 7440SOL     OW33248   8.782   1.474   2.836
 7440SOL    HW133249   8.811   1.380   2.821
 7440SOL    HW233250   8.745   1.512   2.751
 7441SOL     OW33251   4.441   3.714   4.758
 7441SOL    HW133252   4.389   3.666   4.830
 7441SOL    HW233253   4.385   3.789   4.722
 7442SOL     OW33254   1.125   3.647   2.767
 7442SOL    HW133255   1.153   3.731   2.813
 7442SOL    HW233256   1.028   3.651   2.744
 7443SOL     OW33257   9.746   4.004   2.706
 7443SOL    HW133258   9.735   3.982   2.803
 7443SOL    HW233259   9.705   3.931   2.651
 7444SOL     OW33260   9.967   5.620   3.757
 7444SOL    HW133261   9.980   5.523   3.737
 7444SOL    HW233262   9.870   5.639   3.773
 7445SOL     OW33263   3.568   1.050   0.297
 7445SOL    HW133264   3.638   1.087   0.358
 7445SOL    HW233265   3.586   0.953   0.279
 7446SOL     OW33266   1.780   7.435   0.787
 7446SOL    HW133267   1.760   7.521   0.741
 7446SOL    HW233268   1.827   7.373   0.724
 7447SOL     OW33269   0.475   3.788   1.548
 7447SOL    HW133270   0.479   3.778   1.647
 7447SOL    HW233271   0.568   3.799   1.513
 7448SOL     OW33272   7.155   8.432   3.217
 7448SOL    HW133273   7.194   8.519   3.187
 7448SOL    HW233274   7.092   8.449   3.293
 7449SOL     OW33275   6.659   2.460   3.133
 7449SOL    HW133276   6.559   2.463   3.127
 7449SOL    HW233277   6.698   2.529   3.072
 7450SOL     OW33278   3.880   8.655   0.877
 7450SOL    HW133279   3.900   8.752   0.862
 7450SOL    HW233280   3.885   8.635   0.975
 7451SOL     OW33281   8.847   2.874   5.025
 7451SOL    HW133282   8.835   2.919   5.113
 7451SOL    HW233283   8.939   2.893   4.991
 7452SOL     OW33284   1.418   4.297   2.492
 7452SOL    HW133285   1.350   4.338   2.430
 7452SOL    HW233286   1.375   4.278   2.580
 7453SOL     OW33287   5.099   0.745   1.332
 7453SOL    HW133288   5.139   0.658   1.303
 7453SOL    HW233289   5.005   0.752   1.297
 7454SOL     OW33290   4.632   1.979   3.081
 7454SOL    HW133291   4.664   1.886   3.061
 7454SOL    HW233292   4.706   2.031   3.125
 7455SOL     OW33293   4.199   9.366   0.523
 7455SOL    HW133294   4.257   9.331   0.450
 7455SOL    HW233295   4.114   9.315   0.527
 7456SOL     OW33296   4.931   2.407   1.992
 7456SOL    HW133297   4.910   2.322   2.039
 7456SOL    HW233298   4.992   2.389   1.915
 7457SOL     OW33299   9.343   6.167   3.019
 7457SOL    HW133300   9.440   6.187   3.029
 7457SOL    HW233301   9.301   6.158   3.110
 7458SOL     OW33302   0.526   3.460   2.159
 7458SOL    HW133303   0.544   3.557   2.177
 7458SOL    HW233304   0.463   3.425   2.228
 7459SOL     OW33305   6.658   1.501   4.530
 7459SOL    HW133306   6.591   1.536   4.465
 7459SOL    HW233307   6.610   1.461   4.608
 7460SOL     OW33308   3.106   4.077   2.752
 7460SOL    HW133309   3.038   4.034   2.694
 7460SOL    HW233310   3.083   4.173   2.765
 7461SOL     OW33311   4.540   1.732   3.362
 7461SOL    HW133312   4.462   1.725   3.425
 7461SOL    HW233313   4.603   1.802   3.395
 7462SOL     OW33314   9.376   7.331   3.264
 7462SOL    HW133315   9.398   7.428   3.269
 7462SOL    HW233316   9.386   7.298   3.170
 7463SOL     OW33317   6.421   0.864   4.114
 7463SOL    HW133318   6.401   0.882   4.018
 7463SOL    HW233319   6.458   0.946   4.157
 7464SOL     OW33320   4.043   4.745   3.066
 7464SOL    HW133321   4.060   4.720   3.161
 7464SOL    HW233322   3.959   4.799   3.060
 7465SOL     OW33323   5.913   7.959   3.232
 7465SOL    HW133324   5.947   7.973   3.325
 7465SOL    HW233325   5.832   8.015   3.218
 7466SOL     OW33326   0.799   9.022   2.819
 7466SOL    HW133327   0.747   8.957   2.874
 7466SOL    HW233328   0.856   9.078   2.880
 7467SOL     OW33329   3.277   9.616   3.138
 7467SOL    HW133330   3.358   9.578   3.093
 7467SOL    HW233331   3.291   9.714   3.154
 7468SOL     OW33332   0.387   6.824   3.045
 7468SOL    HW133333   0.414   6.741   3.095
 7468SOL    HW233334   0.432   6.903   3.085
 7469SOL     OW33335   0.659   5.384   4.036
 7469SOL    HW133336   0.735   5.446   4.058
 7469SOL    HW233337   0.585   5.397   4.101
 7470SOL     OW33338   5.089   9.140   0.350
 7470SOL    HW133339   5.059   9.103   0.262
 7470SOL    HW233340   5.144   9.222   0.335
 7471SOL     OW33341   7.869   1.004   4.146
 7471SOL    HW133342   7.877   0.984   4.048
 7471SOL    HW233343   7.914   0.931   4.199
 7472SOL     OW33344   9.048   5.586   4.776
 7472SOL    HW133345   9.035   5.667   4.718
 7472SOL    HW233346   9.125   5.602   4.838
 7473SOL     OW33347   2.138   7.208   2.904
 7473SOL    HW133348   2.105   7.120   2.871
 7473SOL    HW233349   2.123   7.215   3.002
 7474SOL     OW33350   9.828   5.247   2.689
 7474SOL    HW133351   9.746   5.219   2.739
 7474SOL    HW233352   9.909   5.209   2.734
 7475SOL     OW33353   7.658   1.066   4.491
 7475SOL    HW133354   7.654   1.114   4.403
 7475SOL    HW233355   7.645   1.132   4.565
 7476SOL     OW33356   9.209   9.218   3.338
 7476SOL    HW133357   9.227   9.286   3.409
 7476SOL    HW233358   9.210   9.263   3.249
 7477SOL     OW33359   1.400   1.082   0.268
 7477SOL    HW133360   1.358   1.171   0.256
 7477SOL    HW233361   1.344   1.012   0.224
 7478SOL     OW33362   4.629   8.613   2.040
 7478SOL    HW133363   4.594   8.540   1.981
 7478SOL    HW233364   4.593   8.601   2.133
 7479SOL     OW33365   2.573   4.632   2.998
 7479SOL    HW133366   2.657   4.636   2.944
 7479SOL    HW233367   2.593   4.591   3.087
 7480SOL     OW33368   0.221   8.435   3.799
 7480SOL    HW133369   0.190   8.417   3.892
 7480SOL    HW233370   0.177   8.517   3.764
 7481SOL     OW33371   4.837   8.820   3.499
 7481SOL    HW133372   4.893   8.739   3.487
 7481SOL    HW233373   4.883   8.899   3.459
 7482SOL     OW33374   1.382   1.767   3.325
 7482SOL    HW133375   1.337   1.739   3.240
 7482SOL    HW233376   1.424   1.687   3.368
 7483SOL     OW33377   3.605   2.317   3.621
 7483SOL    HW133378   3.670   2.243   3.601
 7483SOL    HW233379   3.528   2.312   3.558
 7484SOL     OW33380   8.866   5.991   1.543
 7484SOL    HW133381   8.935   6.050   1.584
 7484SOL    HW233382   8.910   5.931   1.475
 7485SOL     OW33383   5.295   9.917   1.533
 7485SOL    HW133384   5.252   9.919   1.623
 7485SOL    HW233385   5.275   9.829   1.489
 7486SOL     OW33386   3.005   2.447   2.892
 7486SOL    HW133387   3.093   2.474   2.932
 7486SOL    HW233388   2.931   2.492   2.941
 7487SOL     OW33389   1.892   4.006   4.191
 7487SOL    HW133390   1.863   4.020   4.097
 7487SOL    HW233391   1.840   4.066   4.252
 7488SOL     OW33392   9.332   0.125   3.395
 7488SOL    HW133393   9.378   0.038   3.380
 7488SOL    HW233394   9.395   0.200   3.372
 7489SOL     OW33395   0.871   8.991   2.414
 7489SOL    HW133396   0.884   9.072   2.356
 7489SOL    HW233397   0.939   8.992   2.488
 7490SOL     OW33398   7.240   8.772   2.927
 7490SOL    HW133399   7.251   8.728   3.016
 7490SOL    HW233400   7.305   8.848   2.920
 7491SOL     OW33401   7.601   8.354   4.720
 7491SOL    HW133402   7.686   8.404   4.733
 7491SOL    HW233403   7.562   8.374   4.630
 7492SOL     OW33404   6.464   2.018   2.650
 7492SOL    HW133405   6.532   2.091   2.654
 7492SOL    HW233406   6.440   1.990   2.743
 7493SOL     OW33407   1.753   7.537   0.148
 7493SOL    HW133408   1.778   7.441   0.145
 7493SOL    HW233409   1.825   7.592   0.106
 7494SOL     OW33410   2.675   7.779   3.172
 7494SOL    HW133411   2.705   7.686   3.191
 7494SOL    HW233412   2.623   7.781   3.086
 7495SOL     OW33413   2.967   4.007   1.196
 7495SOL    HW133414   3.007   3.989   1.286
 7495SOL    HW233415   2.956   4.105   1.184
 7496SOL     OW33416   2.154   3.646   4.687
 7496SOL    HW133417   2.086   3.583   4.650
 7496SOL    HW233418   2.159   3.635   4.787
 7497SOL     OW33419   3.379   9.761   4.431
 7497SOL    HW133420   3.438   9.684   4.454
 7497SOL    HW233421   3.300   9.727   4.380
 7498SOL     OW33422   3.739   5.963   3.425
 7498SOL    HW133423   3.726   5.866   3.404
 7498SOL    HW233424   3.712   5.980   3.519
 7499SOL     OW33425   3.243   7.029   0.505
 7499SOL    HW133426   3.271   7.040   0.601
 7499SOL    HW233427   3.173   7.097   0.484
 7500SOL     OW33428   6.310   7.625   4.999
 7500SOL    HW133429   6.226   7.651   5.047
 7500SOL    HW233430   6.381   7.604   5.067
 7501SOL     OW33431   0.263   5.472   3.200
 7501SOL    HW133432   0.191   5.413   3.236
 7501SOL    HW233433   0.256   5.562   3.242
 7502SOL     OW33434   7.925   2.750   2.662
 7502SOL    HW133435   7.986   2.829   2.657
 7502SOL    HW233436   7.937   2.704   2.750
 7503SOL     OW33437   3.835   8.820   0.391
 7503SOL    HW133438   3.882   8.790   0.474
 7503SOL    HW233439   3.737   8.824   0.408
 7504SOL     OW33440   2.199   2.106   2.035
 7504SOL    HW133441   2.202   2.063   2.125
 7504SOL    HW233442   2.158   2.043   1.969
 7505SOL     OW33443   5.699   1.929   1.882
 7505SOL    HW133444   5.670   1.973   1.967
 7505SOL    HW233445   5.796   1.907   1.888
 7506SOL     OW33446   9.838   7.221   1.332
 7506SOL    HW133447   9.771   7.276   1.283
 7506SOL    HW233448   9.890   7.166   1.267
 7507SOL     OW33449   1.948   7.744   0.725
 7507SOL    HW133450   1.869   7.700   0.681
 7507SOL    HW233451   1.919   7.828   0.770
 7508SOL     OW33452   0.782   4.658   1.030
 7508SOL    HW133453   0.739   4.586   1.086
 7508SOL    HW233454   0.873   4.628   1.002
 7509SOL     OW33455   0.203   6.386   2.132
 7509SOL    HW133456   0.167   6.294   2.118
 7509SOL    HW233457   0.292   6.395   2.089
 7510SOL     OW33458   0.333   7.270   2.193
 7510SOL    HW133459   0.274   7.350   2.185
 7510SOL    HW233460   0.382   7.255   2.107
 7511SOL     OW33461   9.756   6.821   0.780
 7511SOL    HW133462   9.856   6.816   0.775
 7511SOL    HW233463   9.717   6.801   0.690
 7512SOL     OW33464   9.471   7.549   4.469
 7512SOL    HW133465   9.545   7.507   4.522
 7512SOL    HW233466   9.384   7.529   4.512
 7513SOL     OW33467   6.253   7.681   4.092
 7513SOL    HW133468   6.246   7.778   4.117
 7513SOL    HW233469   6.255   7.626   4.176
 7514SOL     OW33470   0.938   5.904   4.400
 7514SOL    HW133471   0.980   5.825   4.447
 7514SOL    HW233472   0.879   5.953   4.464
 7515SOL     OW33473   1.632   8.208   2.998
 7515SOL    HW133474   1.677   8.168   3.079
 7515SOL    HW233475   1.588   8.136   2.945
 7516SOL     OW33476   9.388   6.057   1.384
 7516SOL    HW133477   9.350   6.150   1.381
 7516SOL    HW233478   9.452   6.045   1.308
 7517SOL     OW33479   7.896   4.300   0.267
 7517SOL    HW133480   7.881   4.370   0.197
 7517SOL    HW233481   7.958   4.230   0.232
 7518SOL     OW33482   8.286   0.845   1.987
 7518SOL    HW133483   8.208   0.879   1.936
 7518SOL    HW233484   8.276   0.747   2.003
 7519SOL     OW33485   0.668   1.635   2.653
 7519SOL    HW133486   0.711   1.669   2.736
 7519SOL    HW233487   0.702   1.543   2.633
 7520SOL     OW33488   0.194   7.444   1.426
 7520SOL    HW133489   0.119   7.393   1.467
 7520SOL    HW233490   0.273   7.384   1.413
 7521SOL     OW33491   2.763   1.785   4.286
 7521SOL    HW133492   2.692   1.738   4.339
 7521SOL    HW233493   2.850   1.737   4.298
 7522SOL     OW33494   2.432   2.030   5.098
 7522SOL    HW133495   2.513   1.993   5.142
 7522SOL    HW233496   2.351   1.984   5.135
 7523SOL     OW33497   2.879   4.201   3.597
 7523SOL    HW133498   2.916   4.192   3.689
 7523SOL    HW233499   2.827   4.287   3.591
 7524SOL     OW33500   9.666   0.714   3.783
 7524SOL    HW133501   9.727   0.635   3.793
 7524SOL    HW233502   9.583   0.687   3.735
 7525SOL     OW33503   6.454   9.065   2.095
 7525SOL    HW133504   6.435   9.161   2.072
 7525SOL    HW233505   6.553   9.050   2.094
 7526SOL     OW33506   6.349   8.484   3.757
 7526SOL    HW133507   6.369   8.466   3.661
 7526SOL    HW233508   6.401   8.564   3.788
 7527SOL     OW33509   0.455   6.222   0.714
 7527SOL    HW133510   0.500   6.270   0.789
 7527SOL    HW233511   0.424   6.132   0.746
 7528SOL     OW33512   4.077   9.608   2.184
 7528SOL    HW133513   4.110   9.664   2.109
 7528SOL    HW233514   3.981   9.630   2.202
 7529SOL     OW33515   2.372   1.787   4.061
 7529SOL    HW133516   2.362   1.695   4.098
 7529SOL    HW233517   2.294   1.843   4.089
 7530SOL     OW33518   7.817   2.270   4.555
 7530SOL    HW133519   7.870   2.351   4.528
 7530SOL    HW233520   7.857   2.231   4.638
 7531SOL     OW33521   0.570   2.318   2.952
 7531SOL    HW133522   0.551   2.226   2.918
 7531SOL    HW233523   0.544   2.323   3.049
 7532SOL     OW33524   2.241   4.864   1.808
 7532SOL    HW133525   2.191   4.868   1.721
 7532SOL    HW233526   2.318   4.928   1.805
 7533SOL     OW33527   4.467   1.876   1.103
 7533SOL    HW133528   4.411   1.802   1.066
 7533SOL    HW233529   4.530   1.839   1.172
 7534SOL     OW33530   3.550   5.683   4.698
 7534SOL    HW133531   3.522   5.626   4.621
 7534SOL    HW233532   3.471   5.700   4.757
 7535SOL     OW33533   0.119   1.284   0.726
 7535SOL    HW133534   0.203   1.231   0.738
 7535SOL    HW233535   0.050   1.254   0.791
 7536SOL     OW33536   5.215   9.699   4.530
 7536SOL    HW133537   5.289   9.636   4.552
 7536SOL    HW233538   5.142   9.690   4.599
 7537SOL     OW33539   0.327   2.313   2.657
 7537SOL    HW133540   0.305   2.217   2.678
 7537SOL    HW233541   0.294   2.371   2.731
 7538SOL     OW33542   2.623   6.175   1.107
 7538SOL    HW133543   2.590   6.250   1.165
 7538SOL    HW233544   2.577   6.090   1.134
 7539SOL     OW33545   8.742   7.622   1.461
 7539SOL    HW133546   8.655   7.584   1.493
 7539SOL    HW233547   8.814   7.597   1.525
 7540SOL     OW33548   5.168   8.302   4.397
 7540SOL    HW133549   5.069   8.301   4.411
 7540SOL    HW233550   5.196   8.392   4.363
 7541SOL     OW33551   3.904   5.541   2.068
 7541SOL    HW133552   3.844   5.462   2.063
 7541SOL    HW233553   3.961   5.545   1.986
 7542SOL     OW33554   0.287   2.994   3.822
 7542SOL    HW133555   0.337   2.999   3.909
 7542SOL    HW233556   0.307   3.075   3.767
 7543SOL     OW33557   4.937   9.050   4.127
 7543SOL    HW133558   4.978   9.003   4.205
 7543SOL    HW233559   4.858   9.104   4.158
 7544SOL     OW33560   4.344   2.100   1.701
 7544SOL    HW133561   4.299   2.188   1.715
 7544SOL    HW233562   4.346   2.050   1.788
 7545SOL     OW33563   7.839   5.612   4.740
 7545SOL    HW133564   7.843   5.596   4.641
 7545SOL    HW233565   7.743   5.614   4.769
 7546SOL     OW33566   2.451   7.024   1.665
 7546SOL    HW133567   2.393   7.006   1.586
 7546SOL    HW233568   2.534   6.968   1.658
 7547SOL     OW33569   7.045   2.121   0.565
 7547SOL    HW133570   7.017   2.189   0.497
 7547SOL    HW233571   7.027   2.157   0.657
 7548SOL     OW33572   1.634   9.917   3.576
 7548SOL    HW133573   1.617   9.820   3.593
 7548SOL    HW233574   1.556   9.957   3.530
 7549SOL     OW33575   3.872   5.368   4.783
 7549SOL    HW133576   3.858   5.276   4.747
 7549SOL    HW233577   3.883   5.432   4.707
 7550SOL     OW33578   2.240   3.170   1.366
 7550SOL    HW133579   2.230   3.176   1.267
 7550SOL    HW233580   2.153   3.189   1.410
 7551SOL     OW33581   9.210   1.555   1.165
 7551SOL    HW133582   9.188   1.606   1.248
 7551SOL    HW233583   9.126   1.536   1.114
 7552SOL     OW33584   4.222   5.255   0.924
 7552SOL    HW133585   4.278   5.319   0.977
 7552SOL    HW233586   4.156   5.306   0.868
 7553SOL     OW33587   4.759   3.644   4.422
 7553SOL    HW133588   4.851   3.664   4.458
 7553SOL    HW233589   4.703   3.606   4.495
 7554SOL     OW33590   6.658   8.814   3.623
 7554SOL    HW133591   6.622   8.901   3.590
 7554SOL    HW233592   6.592   8.772   3.685
 7555SOL     OW33593   8.330   9.661   0.920
 7555SOL    HW133594   8.311   9.566   0.941
 7555SOL    HW233595   8.332   9.714   1.005
 7556SOL     OW33596   9.631   0.812   0.867
 7556SOL    HW133597   9.558   0.841   0.805
 7556SOL    HW233598   9.663   0.722   0.840
 7557SOL     OW33599   4.642   8.530   4.029
 7557SOL    HW133600   4.565   8.590   4.049
 7557SOL    HW233601   4.703   8.527   4.109
 7558SOL     OW33602   7.587   2.428   2.761
 7558SOL    HW133603   7.602   2.330   2.751
 7558SOL    HW233604   7.562   2.450   2.855
 7559SOL     OW33605   4.402   4.544   5.054
 7559SOL    HW133606   4.469   4.602   5.101
 7559SOL    HW233607   4.338   4.508   5.121
 7560SOL     OW33608   0.588   5.017   4.197
 7560SOL    HW133609   0.595   5.054   4.104
 7560SOL    HW233610   0.630   4.926   4.200
 7561SOL     OW33611   3.369   2.770   3.805
 7561SOL    HW133612   3.304   2.719   3.749
 7561SOL    HW233613   3.337   2.773   3.900
 7562SOL     OW33614   2.682   1.396   3.131
 7562SOL    HW133615   2.753   1.411   3.200
 7562SOL    HW233616   2.725   1.393   3.040
 7563SOL     OW33617   5.225   8.333   4.673
 7563SOL    HW133618   5.150   8.398   4.682
 7563SOL    HW233619   5.234   8.306   4.577
 7564SOL     OW33620   8.408   1.736   4.893
 7564SOL    HW133621   8.447   1.774   4.809
 7564SOL    HW233622   8.480   1.726   4.961
 7565SOL     OW33623   9.572   7.423   1.699
 7565SOL    HW133624   9.540   7.346   1.755
 7565SOL    HW233625   9.506   7.498   1.704
 7566SOL     OW33626   6.143   9.925   4.603
 7566SOL    HW133627   6.107   9.843   4.559
 7566SOL    HW233628   6.140   0.002   4.539
 7567SOL     OW33629   7.921   3.847   0.427
 7567SOL    HW133630   7.931   3.752   0.458
 7567SOL    HW233631   7.979   3.906   0.483
 7568SOL     OW33632   3.981   5.658   1.146
 7568SOL    HW133633   4.076   5.648   1.117
 7568SOL    HW233634   3.975   5.723   1.222
 7569SOL     OW33635   8.813   0.416   4.315
 7569SOL    HW133636   8.799   0.515   4.313
 7569SOL    HW233637   8.871   0.389   4.238
 7570SOL     OW33638   3.340   6.288   2.735
 7570SOL    HW133639   3.411   6.355   2.712
 7570SOL    HW233640   3.257   6.310   2.684
 7571SOL     OW33641   9.100   6.935   4.402
 7571SOL    HW133642   9.013   6.982   4.392
 7571SOL    HW233643   9.171   7.001   4.428
 7572SOL     OW33644   4.185   7.634   1.800
 7572SOL    HW133645   4.089   7.651   1.824
 7572SOL    HW233646   4.233   7.598   1.880
 7573SOL     OW33647   2.398   8.745   4.043
 7573SOL    HW133648   2.382   8.843   4.045
 7573SOL    HW233649   2.475   8.725   3.983
 7574SOL     OW33650   0.548   1.820   4.719
 7574SOL    HW133651   0.524   1.777   4.807
 7574SOL    HW233652   0.464   1.850   4.674
 7575SOL     OW33653   8.983   5.845   2.410
 7575SOL    HW133654   8.977   5.749   2.381
 7575SOL    HW233655   8.911   5.897   2.365
 7576SOL     OW33656   4.068   7.466   5.017
 7576SOL    HW133657   4.110   7.550   5.051
 7576SOL    HW233658   4.066   7.468   4.917
 7577SOL     OW33659   3.688   5.850   4.533
 7577SOL    HW133660   3.633   5.795   4.595
 7577SOL    HW233661   3.717   5.794   4.455
 7578SOL     OW33662   7.492   7.704   4.060
 7578SOL    HW133663   7.437   7.745   3.988
 7578SOL    HW233664   7.485   7.760   4.143
 7579SOL     OW33665   1.546   5.043   0.375
 7579SOL    HW133666   1.500   5.132   0.378
 7579SOL    HW233667   1.535   4.997   0.463
 7580SOL     OW33668   2.602   9.546   3.085
 7580SOL    HW133669   2.679   9.504   3.134
 7580SOL    HW233670   2.624   9.553   2.988
 7581SOL     OW33671   5.236   7.588   2.117
 7581SOL    HW133672   5.148   7.548   2.090
 7581SOL    HW233673   5.310   7.545   2.065
 7582SOL     OW33674   4.848   1.611   4.801
 7582SOL    HW133675   4.789   1.552   4.747
 7582SOL    HW233676   4.847   1.703   4.761
 7583SOL     OW33677   4.759   1.525   0.532
 7583SOL    HW133678   4.785   1.546   0.437
 7583SOL    HW233679   4.698   1.597   0.566
 7584SOL     OW33680   8.643   6.851   4.670
 7584SOL    HW133681   8.703   6.785   4.625
 7584SOL    HW233682   8.608   6.810   4.755
 7585SOL     OW33683   3.625   4.125   5.033
 7585SOL    HW133684   3.633   4.042   4.978
 7585SOL    HW233685   3.678   4.198   4.991
 7586SOL     OW33686   7.761   2.698   4.241
 7586SOL    HW133687   7.713   2.785   4.232
 7586SOL    HW233688   7.735   2.654   4.326
 7587SOL     OW33689   6.649   8.537   4.800
 7587SOL    HW133690   6.707   8.563   4.878
 7587SOL    HW233691   6.582   8.468   4.830
 7588SOL     OW33692   2.107   8.760   0.344
 7588SOL    HW133693   2.095   8.857   0.320
 7588SOL    HW233694   2.199   8.730   0.319
 7589SOL     OW33695   1.830   9.104   0.501
 7589SOL    HW133696   1.753   9.153   0.461
 7589SOL    HW233697   1.854   9.145   0.589
 7590SOL     OW33698   1.708   5.851   1.517
 7590SOL    HW133699   1.631   5.869   1.577
 7590SOL    HW233700   1.778   5.799   1.566
 7591SOL     OW33701   2.129   0.580   4.188
 7591SOL    HW133702   2.166   0.609   4.276
 7591SOL    HW233703   2.043   0.629   4.170
 7592SOL     OW33704   1.054   2.466   4.273
 7592SOL    HW133705   1.140   2.422   4.297
 7592SOL    HW233706   1.056   2.493   4.176
 7593SOL     OW33707   8.478   4.056   0.826
 7593SOL    HW133708   8.562   4.060   0.771
 7593SOL    HW233709   8.467   4.141   0.875
 7594SOL     OW33710   0.487   8.848   1.655
 7594SOL    HW133711   0.518   8.930   1.702
 7594SOL    HW233712   0.428   8.874   1.578
 7595SOL     OW33713   0.478   6.588   0.407
 7595SOL    HW133714   0.437   6.519   0.467
 7595SOL    HW233715   0.405   6.640   0.362
 7596SOL     OW33716   9.402   9.881   1.766
 7596SOL    HW133717   9.477   9.927   1.813
 7596SOL    HW233718   9.322   9.941   1.764
 7597SOL     OW33719   5.024   9.660   4.725
 7597SOL    HW133720   5.024   9.564   4.750
 7597SOL    HW233721   5.069   9.713   4.796
 7598SOL     OW33722   3.529   9.646   0.436
 7598SOL    HW133723   3.459   9.704   0.394
 7598SOL    HW233724   3.490   9.556   0.457
 7599SOL     OW33725   1.139   8.908   3.795
 7599SOL    HW133726   1.205   8.939   3.863
 7599SOL    HW233727   1.185   8.851   3.727
 7600SOL     OW33728   3.717   7.245   4.948
 7600SOL    HW133729   3.739   7.300   4.868
 7600SOL    HW233730   3.642   7.182   4.925
 7601SOL     OW33731   9.605   5.326   4.434
 7601SOL    HW133732   9.634   5.380   4.355
 7601SOL    HW233733   9.682   5.315   4.497
 7602SOL     OW33734   7.081   1.422   1.353
 7602SOL    HW133735   7.050   1.356   1.285
 7602SOL    HW233736   7.001   1.462   1.399
 7603SOL     OW33737   8.416   4.229   3.381
 7603SOL    HW133738   8.332   4.233   3.434
 7603SOL    HW233739   8.466   4.145   3.403
 7604SOL     OW33740   7.150   1.052   2.519
 7604SOL    HW133741   7.182   1.146   2.528
 7604SOL    HW233742   7.161   1.005   2.607
 7605SOL     OW33743   5.580   8.732   6.728
 7605SOL    HW133744   5.558   8.716   6.632
 7605SOL    HW233745   5.535   8.662   0.035
 7606SOL     OW33746   0.049   4.753   4.904
 7606SOL    HW133747   0.057   4.850   4.884
 7606SOL    HW233748   0.119   4.702   4.853
 7607SOL     OW33749   3.303   2.314   5.331
 7607SOL    HW133750   3.323   2.398   5.380
 7607SOL    HW233751   3.387   2.259   5.323
 7608SOL     OW33752   0.035   5.687   2.148
 7608SOL    HW133753   0.020   5.781   2.178
 7608SOL    HW233754   0.072   5.687   2.056
 7609SOL     OW33755   0.377   3.881   5.207
 7609SOL    HW133756   0.386   3.826   5.124
 7609SOL    HW233757   0.280   3.896   5.226
 7610SOL     OW33758   4.650   1.458   1.107
 7610SOL    HW133759   4.565   1.408   1.092
 7610SOL    HW233760   4.728   1.398   1.088
 7611SOL     OW33761   0.724   4.390   2.721
 7611SOL    HW133762   0.625   4.406   2.726
 7611SOL    HW233763   0.769   4.437   2.797
 7612SOL     OW33764   3.596   9.446   1.558
 7612SOL    HW133765   3.520   9.409   1.611
 7612SOL    HW233766   3.567   9.532   1.516
 7613SOL     OW33767   3.404   9.236   5.319
 7613SOL    HW133768   3.405   9.334   5.340
 7613SOL    HW233769   3.496   9.206   5.292
 7614SOL     OW33770   4.585   7.600   1.819
 7614SOL    HW133771   4.584   7.629   1.723
 7614SOL    HW233772   4.543   7.509   1.826
 7615SOL     OW33773   9.363   2.838   4.618
 7615SOL    HW133774   9.410   2.782   4.686
 7615SOL    HW233775   9.419   2.845   4.536
 7616SOL     OW33776   6.233   2.069   2.483
 7616SOL    HW133777   6.286   2.070   2.567
 7616SOL    HW233778   6.295   2.076   2.404
 7617SOL     OW33779   1.953   1.907   5.163
 7617SOL    HW133780   1.912   1.822   5.129
 7617SOL    HW233781   1.882   1.976   5.175
 7618SOL     OW33782   1.503   0.640   0.786
 7618SOL    HW133783   1.546   0.654   0.696
 7618SOL    HW233784   1.432   0.570   0.778
 7619SOL     OW33785   7.422   9.927   4.817
 7619SOL    HW133786   7.514   9.930   4.780
 7619SOL    HW233787   7.423   9.880   4.905
 7620SOL     OW33788   4.610   8.106   2.216
 7620SOL    HW133789   4.572   8.194   2.190
 7620SOL    HW233790   4.540   8.035   2.202
 7621SOL     OW33791   8.833   3.984   2.111
 7621SOL    HW133792   8.824   4.067   2.166
 7621SOL    HW233793   8.886   3.917   2.162
 7622SOL     OW33794   2.686   3.442   0.284
 7622SOL    HW133795   2.760   3.404   0.228
 7622SOL    HW233796   2.666   3.381   0.360
 7623SOL     OW33797   5.910   2.887   3.836
 7623SOL    HW133798   5.862   2.914   3.919
 7623SOL    HW233799   5.990   2.832   3.859
 7624SOL     OW33800   0.249   3.222   2.694
 7624SOL    HW133801   0.213   3.161   2.764
 7624SOL    HW233802   0.190   3.219   2.613
 7625SOL     OW33803   0.944   2.729   3.945
 7625SOL    HW133804   0.896   2.754   4.029
 7625SOL    HW233805   0.997   2.645   3.961
 7626SOL     OW33806   7.983   9.404   0.728
 7626SOL    HW133807   7.988   9.419   0.827
 7626SOL    HW233808   7.968   9.491   0.682
 7627SOL     OW33809   8.673   9.172   1.023
 7627SOL    HW133810   8.707   9.238   0.956
 7627SOL    HW233811   8.630   9.220   1.099
 7628SOL     OW33812   3.539   5.358   2.775
 7628SOL    HW133813   3.621   5.404   2.741
 7628SOL    HW233814   3.541   5.262   2.747
 7629SOL     OW33815   2.697   4.543   0.489
 7629SOL    HW133816   2.789   4.537   0.451
 7629SOL    HW233817   2.666   4.453   0.517
 7630SOL     OW33818   0.990   2.001   2.637
 7630SOL    HW133819   1.066   2.050   2.680
 7630SOL    HW233820   0.986   1.908   2.672
 7631SOL     OW33821   6.389   0.503   1.790
 7631SOL    HW133822   6.366   0.429   1.727
 7631SOL    HW233823   6.399   0.466   1.882
 7632SOL     OW33824   9.964   5.554   4.127
 7632SOL    HW133825   0.037   5.609   4.086
 7632SOL    HW233826   9.955   5.468   4.076
 7633SOL     OW33827   2.274   8.075   0.522
 7633SOL    HW133828   2.325   8.159   0.502
 7633SOL    HW233829   2.197   8.067   0.459
 7634SOL     OW33830   1.733   5.291   1.213
 7634SOL    HW133831   1.636   5.314   1.204
 7634SOL    HW233832   1.741   5.197   1.248
 7635SOL     OW33833   8.516   9.895   3.864
 7635SOL    HW133834   8.607   9.879   3.826
 7635SOL    HW233835   8.522   9.964   3.935
 7636SOL     OW33836   9.471   1.480   3.437
 7636SOL    HW133837   9.410   1.546   3.482
 7636SOL    HW233838   9.555   1.472   3.490
 7637SOL     OW33839   4.637   2.422   2.197
 7637SOL    HW133840   4.633   2.475   2.112
 7637SOL    HW233841   4.728   2.433   2.238
 7638SOL     OW33842   5.827   1.214   0.868
 7638SOL    HW133843   5.851   1.130   0.819
 7638SOL    HW233844   5.751   1.258   0.821
 7639SOL     OW33845   7.095   1.244   3.730
 7639SOL    HW133846   7.008   1.196   3.735
 7639SOL    HW233847   7.164   1.193   3.782
 7640SOL     OW33848   3.457   9.801   1.707
 7640SOL    HW133849   3.460   9.754   1.619
 7640SOL    HW233850   3.385   9.760   1.764
 7641SOL     OW33851   0.465   5.515   1.471
 7641SOL    HW133852   0.481   5.428   1.518
 7641SOL    HW233853   0.379   5.510   1.420
 7642SOL     OW33854   8.530   1.839   4.238
 7642SOL    HW133855   8.620   1.850   4.196
 7642SOL    HW233856   8.476   1.922   4.224
 7643SOL     OW33857   0.905   7.008   0.693
 7643SOL    HW133858   0.953   7.096   0.687
 7643SOL    HW233859   0.807   7.025   0.705
 7644SOL     OW33860   4.122   5.289   3.302
 7644SOL    HW133861   4.178   5.252   3.377
 7644SOL    HW233862   4.122   5.389   3.307
 7645SOL     OW33863   1.928   4.232   0.392
 7645SOL    HW133864   1.939   4.272   0.301
 7645SOL    HW233865   2.006   4.258   0.449
 7646SOL     OW33866   8.856   4.452   3.873
 7646SOL    HW133867   8.920   4.528   3.880
 7646SOL    HW233868   8.852   4.420   3.778
 7647SOL     OW33869   1.310   3.918   4.355
 7647SOL    HW133870   1.230   3.972   4.328
 7647SOL    HW233871   1.280   3.834   4.400
 7648SOL     OW33872   5.273   8.579   1.523
 7648SOL    HW133873   5.257   8.595   1.620
 7648SOL    HW233874   5.197   8.616   1.470
 7649SOL     OW33875   8.213   0.643   0.526
 7649SOL    HW133876   8.215   0.545   0.507
 7649SOL    HW233877   8.139   0.663   0.590
 7650SOL     OW33878   3.559   7.292   1.622
 7650SOL    HW133879   3.595   7.212   1.671
 7650SOL    HW233880   3.486   7.333   1.676
 7651SOL     OW33881   1.385   8.668   3.848
 7651SOL    HW133882   1.476   8.627   3.851
 7651SOL    HW233883   1.362   8.706   3.938
 7652SOL     OW33884   1.733   6.728   5.021
 7652SOL    HW133885   1.758   6.789   4.946
 7652SOL    HW233886   1.815   6.698   5.069
 7653SOL     OW33887   8.562   8.275   4.297
 7653SOL    HW133888   8.560   8.178   4.274
 7653SOL    HW233889   8.518   8.327   4.223
 7654SOL     OW33890   0.529   1.436   5.061
 7654SOL    HW133891   0.459   1.393   5.118
 7654SOL    HW233892   0.620   1.404   5.090
 7655SOL     OW33893   6.538   1.151   3.125
 7655SOL    HW133894   6.468   1.115   3.187
 7655SOL    HW233895   6.554   1.247   3.147
 7656SOL     OW33896   2.302   9.449   2.062
 7656SOL    HW133897   2.402   9.447   2.063
 7656SOL    HW233898   2.266   9.362   2.096
 7657SOL     OW33899   4.973   1.226   1.581
 7657SOL    HW133900   4.896   1.216   1.644
 7657SOL    HW233901   4.951   1.294   1.511
 7658SOL     OW33902   7.673   9.202   2.168
 7658SOL    HW133903   7.683   9.108   2.200
 7658SOL    HW233904   7.759   9.252   2.184
 7659SOL     OW33905   8.168   0.004   1.026
 7659SOL    HW133906   8.252   9.953   1.046
 7659SOL    HW233907   8.132   9.975   0.937
 7660SOL     OW33908   0.932   1.076   3.989
 7660SOL    HW133909   0.873   1.062   4.068
 7660SOL    HW233910   1.018   1.118   4.019
 7661SOL     OW33911   2.599   6.211   5.111
 7661SOL    HW133912   2.591   6.143   5.039
 7661SOL    HW233913   2.689   6.204   5.153
 7662SOL     OW33914   1.405   9.711   2.759
 7662SOL    HW133915   1.377   9.806   2.746
 7662SOL    HW233916   1.426   9.695   2.856
 7663SOL     OW33917   1.604   3.922   2.081
 7663SOL    HW133918   1.597   3.882   2.172
 7663SOL    HW233919   1.694   3.963   2.069
 7664SOL     OW33920   8.839   6.497   2.833
 7664SOL    HW133921   8.817   6.423   2.896
 7664SOL    HW233922   8.909   6.465   2.768
 7665SOL     OW33923   8.105   6.821   4.960
 7665SOL    HW133924   8.172   6.890   4.988
 7665SOL    HW233925   8.047   6.859   4.888
 7666SOL     OW33926   0.538   1.175   1.270
 7666SOL    HW133927   0.591   1.251   1.308
 7666SOL    HW233928   0.591   1.091   1.276
 7667SOL     OW33929   1.469   8.624   1.554
 7667SOL    HW133930   1.460   8.705   1.497
 7667SOL    HW233931   1.462   8.650   1.650
 7668SOL     OW33932   9.962   2.232   5.220
 7668SOL    HW133933   9.914   2.145   5.228
 7668SOL    HW233934   0.052   2.225   5.264
 7669SOL     OW33935   8.194   1.974   1.058
 7669SOL    HW133936   8.282   1.945   1.096
 7669SOL    HW233937   8.123   1.965   1.128
 7670SOL     OW33938   0.082   6.600   3.486
 7670SOL    HW133939   0.042   6.598   3.395
 7670SOL    HW233940   0.044   6.676   3.538
 7671SOL     OW33941   3.826   6.503   1.415
 7671SOL    HW133942   3.827   6.518   1.316
 7671SOL    HW233943   3.763   6.569   1.458
 7672SOL     OW33944   2.303   4.944   2.901
 7672SOL    HW133945   2.354   4.949   2.986
 7672SOL    HW233946   2.309   5.032   2.853
 7673SOL     OW33947   1.581   1.811   2.552
 7673SOL    HW133948   1.587   1.718   2.516
 7673SOL    HW233949   1.558   1.874   2.479
 7674SOL     OW33950   6.011   1.370   1.884
 7674SOL    HW133951   5.973   1.452   1.927
 7674SOL    HW233952   6.061   1.396   1.802
 7675SOL     OW33953   7.938   3.183   2.679
 7675SOL    HW133954   7.939   3.200   2.778
 7675SOL    HW233955   7.855   3.223   2.640
 7676SOL     OW33956   6.735   4.965   0.795
 7676SOL    HW133957   6.756   4.962   0.893
 7676SOL    HW233958   6.786   5.039   0.752
 7677SOL     OW33959   3.360   9.612   3.521
 7677SOL    HW133960   3.417   9.591   3.600
 7677SOL    HW233961   3.409   9.674   3.459
 7678SOL     OW33962   9.713   4.529   1.516
 7678SOL    HW133963   9.808   4.549   1.491
 7678SOL    HW233964   9.709   4.437   1.557
 7679SOL     OW33965   4.129   5.599   0.811
 7679SOL    HW133966   4.174   5.648   0.736
 7679SOL    HW233967   4.098   5.510   0.779
 7680SOL     OW33968   1.307   1.811   5.146
 7680SOL    HW133969   1.227   1.834   5.090
 7680SOL    HW233970   1.306   1.865   5.230
 7681SOL     OW33971   6.671   1.295   3.862
 7681SOL    HW133972   6.712   1.386   3.865
 7681SOL    HW233973   6.694   1.246   3.946
 7682SOL     OW33974   1.228   0.210   2.803
 7682SOL    HW133975   1.292   0.264   2.858
 7682SOL    HW233976   1.167   0.271   2.753
 7683SOL     OW33977   3.700   3.458   2.027
 7683SOL    HW133978   3.611   3.445   1.984
 7683SOL    HW233979   3.729   3.553   2.014
 7684SOL     OW33980   4.593   1.345   3.321
 7684SOL    HW133981   4.496   1.342   3.296
 7684SOL    HW233982   4.636   1.424   3.277
 7685SOL     OW33983   8.865   7.149   3.057
 7685SOL    HW133984   8.818   7.061   3.068
 7685SOL    HW233985   8.944   7.136   2.997
 7686SOL     OW33986   8.119   7.020   2.955
 7686SOL    HW133987   8.126   6.984   3.048
 7686SOL    HW233988   8.026   7.008   2.922
 7687SOL     OW33989   6.520   7.348   3.637
 7687SOL    HW133990   6.461   7.401   3.699
 7687SOL    HW233991   6.534   7.400   3.552
 7688SOL     OW33992   8.491   2.062   1.838
 7688SOL    HW133993   8.590   2.057   1.847
 7688SOL    HW233994   8.457   2.148   1.876
 7689SOL     OW33995   1.105   7.283   1.945
 7689SOL    HW133996   1.172   7.221   1.987
 7689SOL    HW233997   1.090   7.256   1.849
 7690SOL     OW33998   8.599   7.437   4.966
 7690SOL    HW133999   8.552   7.350   4.949
 7690SOL    HW234000   8.578   7.469   5.058
 7691SOL     OW34001   9.299   6.981   3.013
 7691SOL    HW134002   9.242   6.908   3.050
 7691SOL    HW234003   9.378   6.941   2.966
 7692SOL     OW34004   1.916   7.970   2.518
 7692SOL    HW134005   1.861   8.005   2.594
 7692SOL    HW234006   1.916   7.870   2.520
 7693SOL     OW34007   9.102   5.695   1.679
 7693SOL    HW134008   9.155   5.700   1.764
 7693SOL    HW234009   9.119   5.607   1.634
 7694SOL     OW34010   9.036   3.664   0.651
 7694SOL    HW134011   9.000   3.609   0.575
 7694SOL    HW234012   8.960   3.705   0.701
 7695SOL     OW34013   7.873   3.580   4.686
 7695SOL    HW134014   7.813   3.503   4.664
 7695SOL    HW234015   7.969   3.551   4.678
 7696SOL     OW34016   9.296   6.318   1.388
 7696SOL    HW134017   9.317   6.367   1.304
 7696SOL    HW234018   9.198   6.326   1.408
 7697SOL     OW34019   4.914   7.904   4.537
 7697SOL    HW134020   5.001   7.862   4.510
 7697SOL    HW234021   4.924   7.946   4.627
 7698SOL     OW34022   8.066   5.719   3.314
 7698SOL    HW134023   8.014   5.766   3.386
 7698SOL    HW234024   8.090   5.785   3.243
 7699SOL     OW34025   3.582   6.679   1.033
 7699SOL    HW134026   3.639   6.695   0.952
 7699SOL    HW234027   3.530   6.595   1.022
 7700SOL     OW34028   4.842   4.753   3.467
 7700SOL    HW134029   4.803   4.763   3.376
 7700SOL    HW234030   4.848   4.656   3.489
 7701SOL     OW34031   8.075   4.289   4.811
 7701SOL    HW134032   8.151   4.288   4.746
 7701SOL    HW234033   8.045   4.383   4.825
 7702SOL     OW34034   8.564   6.503   2.794
 7702SOL    HW134035   8.520   6.529   2.708
 7702SOL    HW234036   8.663   6.513   2.786
 7703SOL     OW34037   8.884   6.202   4.371
 7703SOL    HW134038   8.862   6.264   4.296
 7703SOL    HW234039   8.953   6.136   4.340
 7704SOL     OW34040   4.086   9.333   2.188
 7704SOL    HW134041   4.158   9.299   2.126
 7704SOL    HW234042   4.088   9.433   2.189
 7705SOL     OW34043   8.547   0.647   0.158
 7705SOL    HW134044   8.478   0.585   0.195
 7705SOL    HW234045   8.633   0.597   0.145
 7706SOL     OW34046   9.572   0.095   2.382
 7706SOL    HW134047   9.493   0.154   2.369
 7706SOL    HW234048   9.587   0.081   2.480
 7707SOL     OW34049   7.992   5.978   4.572
 7707SOL    HW134050   7.990   5.906   4.502
 7707SOL    HW234051   7.923   5.959   4.641
 7708SOL     OW34052   1.951   9.499   1.948
 7708SOL    HW134053   1.884   9.539   2.011
 7708SOL    HW234054   2.024   9.565   1.931
 7709SOL     OW34055   9.600   1.045   2.457
 7709SOL    HW134056   9.547   1.046   2.372
 7709SOL    HW234057   9.666   1.120   2.456
 7710SOL     OW34058   6.746   1.609   4.130
 7710SOL    HW134059   6.651   1.579   4.131
 7710SOL    HW234060   6.750   1.709   4.137
 7711SOL     OW34061   5.614   9.049   2.425
 7711SOL    HW134062   5.564   9.004   2.352
 7711SOL    HW234063   5.697   8.996   2.446
 7712SOL     OW34064   5.097   0.813   0.947
 7712SOL    HW134065   5.179   0.799   0.892
 7712SOL    HW234066   5.055   0.900   0.923
 7713SOL     OW34067   8.191   2.850   1.334
 7713SOL    HW134068   8.138   2.779   1.381
 7713SOL    HW234069   8.138   2.887   1.258
 7714SOL     OW34070   3.279   5.793   0.872
 7714SOL    HW134071   3.322   5.722   0.816
 7714SOL    HW234072   3.342   5.822   0.944
 7715SOL     OW34073   3.580   7.291   1.343
 7715SOL    HW134074   3.579   7.288   1.443
 7715SOL    HW234075   3.490   7.320   1.310
 7716SOL     OW34076   4.328   1.547   3.971
 7716SOL    HW134077   4.271   1.566   4.051
 7716SOL    HW234078   4.396   1.478   3.994
 7717SOL     OW34079   3.121   3.173   1.012
 7717SOL    HW134080   3.175   3.182   0.929
 7717SOL    HW234081   3.023   3.179   0.990
 7718SOL     OW34082   0.142   1.028   4.539
 7718SOL    HW134083   0.132   0.979   4.452
 7718SOL    HW234084   0.052   1.051   4.575
 7719SOL     OW34085   4.223   0.155   5.173
 7719SOL    HW134086   4.192   0.223   5.106
 7719SOL    HW234087   4.143   0.116   5.219
 7720SOL     OW34088   9.678   4.271   2.678
 7720SOL    HW134089   9.711   4.177   2.694
 7720SOL    HW234090   9.583   4.268   2.647
 7721SOL     OW34091   0.111   3.633   2.116
 7721SOL    HW134092   0.089   3.554   2.059
 7721SOL    HW234093   0.203   3.666   2.092
 7722SOL     OW34094   7.135   9.000   1.860
 7722SOL    HW134095   7.191   8.945   1.798
 7722SOL    HW234096   7.120   8.950   1.946
 7723SOL     OW34097   8.564   8.767   4.636
 7723SOL    HW134098   8.467   8.742   4.629
 7723SOL    HW234099   8.578   8.824   4.717
 7724SOL     OW34100   1.477   7.919   0.570
 7724SOL    HW134101   1.449   7.851   0.503
 7724SOL    HW234102   1.450   7.889   0.662
 7725SOL     OW34103   3.950   6.139   3.434
 7725SOL    HW134104   3.911   6.207   3.497
 7725SOL    HW234105   3.886   6.064   3.423
 7726SOL     OW34106   8.526   4.160   2.008
 7726SOL    HW134107   8.544   4.062   2.019
 7726SOL    HW234108   8.445   4.185   2.062
 7727SOL     OW34109   6.452   8.073   2.709
 7727SOL    HW134110   6.544   8.034   2.713
 7727SOL    HW234111   6.425   8.101   2.801
 7728SOL     OW34112   0.232   2.450   2.894
 7728SOL    HW134113   0.243   2.375   2.959
 7728SOL    HW234114   0.170   2.519   2.932
 7729SOL     OW34115   9.926   3.604   2.853
 7729SOL    HW134116   9.968   3.622   2.764
 7729SOL    HW234117   9.972   3.527   2.897
 7730SOL     OW34118   3.632   9.927   0.740
 7730SOL    HW134119   3.598   0.021   0.733
 7730SOL    HW234120   3.728   9.923   0.712
 7731SOL     OW34121   2.569   5.199   2.938
 7731SOL    HW134122   2.606   5.106   2.937
 7731SOL    HW234123   2.497   5.206   2.869
 7732SOL     OW34124   5.306   2.357   1.164
 7732SOL    HW134125   5.215   2.338   1.126
 7732SOL    HW234126   5.354   2.422   1.105
 7733SOL     OW34127   3.241   3.582   0.982
 7733SOL    HW134128   3.165   3.558   1.043
 7733SOL    HW234129   3.315   3.516   0.993
 7734SOL     OW34130   6.987   9.559   4.537
 7734SOL    HW134131   6.916   9.629   4.537
 7734SOL    HW234132   6.987   9.512   4.448
 7735SOL     OW34133   0.001   9.261   2.825
 7735SOL    HW134134   9.989   9.289   2.921
 7735SOL    HW234135   9.911   9.256   2.781
 7736SOL     OW34136   1.238   4.235   0.042
 7736SOL    HW134137   1.290   4.228   6.705
 7736SOL    HW234138   1.214   4.330   0.058
 7737SOL     OW34139   1.994   3.490   4.517
 7737SOL    HW134140   1.898   3.475   4.496
 7737SOL    HW234141   2.039   3.532   4.438
 7738SOL     OW34142   7.011   1.179   1.845
 7738SOL    HW134143   7.060   1.202   1.929
 7738SOL    HW234144   6.918   1.152   1.867
 7739SOL     OW34145   0.415   2.368   4.707
 7739SOL    HW134146   0.449   2.380   4.801
 7739SOL    HW234147   0.363   2.283   4.701
 7740SOL     OW34148   5.617   0.115   1.006
 7740SOL    HW134149   5.645   0.026   1.042
 7740SOL    HW234150   5.690   0.182   1.021
 7741SOL     OW34151   4.047   2.188   1.134
 7741SOL    HW134152   4.118   2.126   1.100
 7741SOL    HW234153   4.053   2.194   1.233
 7742SOL     OW34154   7.902   7.883   2.655
 7742SOL    HW134155   7.841   7.914   2.581
 7742SOL    HW234156   7.987   7.935   2.651
 7743SOL     OW34157   4.328   3.038   2.264
 7743SOL    HW134158   4.288   3.099   2.332
 7743SOL    HW234159   4.338   2.947   2.304
 7744SOL     OW34160   9.298   4.519   1.778
 7744SOL    HW134161   9.244   4.478   1.851
 7744SOL    HW234162   9.376   4.460   1.757
 7745SOL     OW34163   9.473   4.383   4.468
 7745SOL    HW134164   9.544   4.331   4.516
 7745SOL    HW234165   9.383   4.356   4.503
 7746SOL     OW34166   3.464   3.420   1.023
 7746SOL    HW134167   3.480   3.411   1.121
 7746SOL    HW234168   3.480   3.332   0.978
 7747SOL     OW34169   3.735   4.521   1.531
 7747SOL    HW134170   3.655   4.570   1.566
 7747SOL    HW234171   3.707   4.462   1.455
 7748SOL     OW34172   8.135   3.514   4.674
 7748SOL    HW134173   8.188   3.596   4.652
 7748SOL    HW234174   8.168   3.437   4.619
 7749SOL     OW34175   2.507   0.242   1.091
 7749SOL    HW134176   2.458   0.196   1.017
 7749SOL    HW234177   2.596   0.272   1.059
 7750SOL     OW34178   9.872   0.121   5.035
 7750SOL    HW134179   9.775   0.098   5.028
 7750SOL    HW234180   9.901   0.169   4.952
 7751SOL     OW34181   6.787   6.781   4.597
 7751SOL    HW134182   6.860   6.726   4.556
 7751SOL    HW234183   6.730   6.820   4.525
 7752SOL     OW34184   2.941   9.864   0.286
 7752SOL    HW134185   2.989   9.918   0.354
 7752SOL    HW234186   2.863   9.916   0.251
 7753SOL     OW34187   6.626   0.673   4.077
 7753SOL    HW134188   6.697   0.690   4.146
 7753SOL    HW234189   6.549   0.735   4.092
 7754SOL     OW34190   3.013   5.914   2.270
 7754SOL    HW134191   2.953   5.839   2.242
 7754SOL    HW234192   3.100   5.877   2.302
 7755SOL     OW34193   7.579   3.406   4.325
 7755SOL    HW134194   7.663   3.360   4.353
 7755SOL    HW234195   7.513   3.406   4.401
 7756SOL     OW34196   7.562   9.838   2.036
 7756SOL    HW134197   7.515   9.771   1.979
 7756SOL    HW234198   7.595   9.914   1.979
 7757SOL     OW34199   0.661   1.732   4.133
 7757SOL    HW134200   0.588   1.680   4.179
 7757SOL    HW234201   0.651   1.724   4.034
 7758SOL     OW34202   1.247   0.265   0.918
 7758SOL    HW134203   1.193   0.307   0.991
 7758SOL    HW234204   1.196   0.189   0.878
 7759SOL     OW34205   9.246   7.427   1.141
 7759SOL    HW134206   9.299   7.390   1.064
 7759SOL    HW234207   9.277   7.520   1.160
 7760SOL     OW34208   8.240   7.173   3.795
 7760SOL    HW134209   8.155   7.218   3.821
 7760SOL    HW234210   8.308   7.186   3.867
 7761SOL     OW34211   9.291   0.012   5.252
 7761SOL    HW134212   9.298   9.913   5.262
 7761SOL    HW234213   9.348   0.057   5.321
 7762SOL     OW34214   0.192   7.717   2.045
 7762SOL    HW134215   0.192   7.797   2.106
 7762SOL    HW234216   0.189   7.748   1.950
 7763SOL     OW34217   9.064   6.110   0.262
 7763SOL    HW134218   9.080   6.013   0.246
 7763SOL    HW234219   8.966   6.126   0.275
 7764SOL     OW34220   4.059   5.902   3.040
 7764SOL    HW134221   4.001   5.975   3.005
 7764SOL    HW234222   4.152   5.935   3.052
 7765SOL     OW34223   2.724   3.629   1.876
 7765SOL    HW134224   2.696   3.559   1.942
 7765SOL    HW234225   2.702   3.600   1.784
 7766SOL     OW34226   0.401   2.658   2.831
 7766SOL    HW134227   0.346   2.579   2.858
 7766SOL    HW234228   0.381   2.681   2.736
 7767SOL     OW34229   8.677   5.283   0.433
 7767SOL    HW134230   8.663   5.232   0.518
 7767SOL    HW234231   8.737   5.361   0.451
 7768SOL     OW34232   9.644   1.245   2.115
 7768SOL    HW134233   9.599   1.163   2.150
 7768SOL    HW234234   9.742   1.228   2.106
 7769SOL     OW34235   8.993   7.372   3.307
 7769SOL    HW134236   8.982   7.410   3.399
 7769SOL    HW234237   9.011   7.447   3.243
 7770SOL     OW34238   1.529   4.030   4.482
 7770SOL    HW134239   1.458   3.988   4.426
 7770SOL    HW234240   1.487   4.090   4.550
 7771SOL     OW34241   5.676   7.418   4.769
 7771SOL    HW134242   5.660   7.412   4.670
 7771SOL    HW234243   5.770   7.392   4.790
 7772SOL     OW34244   4.781   9.743   4.628
 7772SOL    HW134245   4.779   9.712   4.532
 7772SOL    HW234246   4.869   9.720   4.668
 7773SOL     OW34247   9.708   9.301   4.717
 7773SOL    HW134248   9.754   9.390   4.722
 7773SOL    HW234249   9.775   9.230   4.695
 7774SOL     OW34250   1.123   9.593   2.257
 7774SOL    HW134251   1.052   9.579   2.188
 7774SOL    HW234252   1.126   9.514   2.318
 7775SOL     OW34253   9.472   2.850   2.359
 7775SOL    HW134254   9.443   2.889   2.271
 7775SOL    HW234255   9.540   2.910   2.400
 7776SOL     OW34256   7.314   2.091   0.879
 7776SOL    HW134257   7.406   2.112   0.846
 7776SOL    HW234258   7.319   2.059   0.974
 7777SOL     OW34259   0.693   8.209   3.670
 7777SOL    HW134260   0.611   8.242   3.717
 7777SOL    HW234261   0.772   8.265   3.699
 7778SOL     OW34262   2.948   4.592   2.089
 7778SOL    HW134263   3.038   4.560   2.119
 7778SOL    HW234264   2.958   4.646   2.006
 7779SOL     OW34265   3.578   0.874   3.622
 7779SOL    HW134266   3.509   0.916   3.681
 7779SOL    HW234267   3.650   0.835   3.678
 7780SOL     OW34268   2.827   2.887   2.560
 7780SOL    HW134269   2.815   2.788   2.553
 7780SOL    HW234270   2.737   2.932   2.558
 7781SOL     OW34271   0.927   6.191   3.794
 7781SOL    HW134272   0.850   6.202   3.732
 7781SOL    HW234273   0.926   6.099   3.834
 7782SOL     OW34274   3.197   8.747   0.260
 7782SOL    HW134275   3.155   8.792   0.338
 7782SOL    HW234276   3.174   8.649   0.261
 7783SOL     OW34277   3.062   1.925   4.366
 7783SOL    HW134278   2.991   1.946   4.433
 7783SOL    HW234279   3.056   1.829   4.340
 7784SOL     OW34280   2.947   4.106   2.257
 7784SOL    HW134281   2.945   4.123   2.159
 7784SOL    HW234282   2.990   4.017   2.275
 7785SOL     OW34283   8.217   3.666   4.133
 7785SOL    HW134284   8.146   3.638   4.198
 7785SOL    HW234285   8.195   3.757   4.098
 7786SOL     OW34286   8.911   6.691   3.399
 7786SOL    HW134287   8.968   6.772   3.392
 7786SOL    HW234288   8.826   6.705   3.348
 7787SOL     OW34289   5.342   8.037   2.361
 7787SOL    HW134290   5.408   8.062   2.431
 7787SOL    HW234291   5.388   7.986   2.288
 7788SOL     OW34292   3.550   1.501   2.394
 7788SOL    HW134293   3.480   1.572   2.405
 7788SOL    HW234294   3.624   1.516   2.459
 7789SOL     OW34295   2.340   3.068   2.476
 7789SOL    HW134296   2.424   3.039   2.521
 7789SOL    HW234297   2.262   3.017   2.513
 7790SOL     OW34298   9.597   5.777   0.505
 7790SOL    HW134299   9.562   5.847   0.442
 7790SOL    HW234300   9.689   5.750   0.478
 7791SOL     OW34301   2.899   9.457   4.233
 7791SOL    HW134302   2.905   9.545   4.186
 7791SOL    HW234303   2.926   9.468   4.329
 7792SOL     OW34304   4.361   4.843   4.662
 7792SOL    HW134305   4.322   4.936   4.664
 7792SOL    HW234306   4.315   4.787   4.730
 7793SOL     OW34307   0.013   5.163   0.507
 7793SOL    HW134308   0.107   5.138   0.484
 7793SOL    HW234309   0.013   5.227   0.584
 7794SOL     OW34310   6.439   1.130   4.775
 7794SOL    HW134311   6.476   1.053   4.723
 7794SOL    HW234312   6.412   1.100   4.866
 7795SOL     OW34313   2.068   0.628   5.165
 7795SOL    HW134314   2.165   0.616   5.144
 7795SOL    HW234315   2.035   0.546   5.212
 7796SOL     OW34316   0.887   0.322   1.535
 7796SOL    HW134317   0.980   0.332   1.571
 7796SOL    HW234318   0.854   0.230   1.554
 7797SOL     OW34319   4.729   3.053   3.689
 7797SOL    HW134320   4.750   3.150   3.675
 7797SOL    HW234321   4.700   3.014   3.602
 7798SOL     OW34322   0.477   5.953   1.066
 7798SOL    HW134323   0.550   5.950   1.134
 7798SOL    HW234324   0.430   6.042   1.070
 7799SOL     OW34325   8.897   2.855   3.038
 7799SOL    HW134326   8.825   2.790   3.064
 7799SOL    HW234327   8.854   2.940   3.007
 7800SOL     OW34328   0.354   6.072   4.285
 7800SOL    HW134329   0.426   6.046   4.221
 7800SOL    HW234330   0.270   6.022   4.263
 7801SOL     OW34331   7.796   7.175   5.079
 7801SOL    HW134332   7.752   7.087   5.098
 7801SOL    HW234333   7.728   7.238   5.041
 7802SOL     OW34334   3.423   9.763   0.667
 7802SOL    HW134335   3.462   9.717   0.587
 7802SOL    HW234336   3.489   9.828   0.703
 7803SOL     OW34337   5.820   0.475   1.495
 7803SOL    HW134338   5.776   0.557   1.530
 7803SOL    HW234339   5.919   0.481   1.511
 7804SOL     OW34340   9.508   1.729   1.908
 7804SOL    HW134341   9.555   1.817   1.911
 7804SOL    HW234342   9.465   1.711   1.996
 7805SOL     OW34343   1.942   7.157   1.328
 7805SOL    HW134344   1.880   7.080   1.342
 7805SOL    HW234345   1.896   7.228   1.274
 7806SOL     OW34346   9.241   8.826   4.113
 7806SOL    HW134347   9.206   8.918   4.133
 7806SOL    HW234348   9.296   8.794   4.190
 7807SOL     OW34349   0.458   0.754   1.363
 7807SOL    HW134350   0.377   0.802   1.329
 7807SOL    HW234351   0.467   0.667   1.315
 7808SOL     OW34352   8.800   9.628   3.288
 7808SOL    HW134353   8.737   9.564   3.331
 7808SOL    HW234354   8.811   9.605   3.191
 7809SOL     OW34355   6.872   1.672   4.527
 7809SOL    HW134356   6.950   1.610   4.525
 7809SOL    HW234357   6.787   1.618   4.527
 7810SOL     OW34358   4.497   0.296   2.481
 7810SOL    HW134359   4.485   0.225   2.411
 7810SOL    HW234360   4.525   0.254   2.567
 7811SOL     OW34361   2.636   1.204   2.756
 7811SOL    HW134362   2.563   1.255   2.712
 7811SOL    HW234363   2.692   1.159   2.687
 7812SOL     OW34364   9.502   5.497   1.254
 7812SOL    HW134365   9.414   5.532   1.287
 7812SOL    HW234366   9.506   5.399   1.269
 7813SOL     OW34367   1.544   4.229   0.732
 7813SOL    HW134368   1.607   4.155   0.710
 7813SOL    HW234369   1.480   4.242   0.655
 7814SOL     OW34370   1.684   1.612   1.034
 7814SOL    HW134371   1.757   1.572   0.978
 7814SOL    HW234372   1.704   1.595   1.131
 7815SOL     OW34373   1.620   1.074   1.644
 7815SOL    HW134374   1.715   1.106   1.646
 7815SOL    HW234375   1.559   1.152   1.656
 7816SOL     OW34376   4.705   9.711   3.594
 7816SOL    HW134377   4.614   9.680   3.570
 7816SOL    HW234378   4.773   9.653   3.550
 7817SOL     OW34379   4.731   1.894   3.460
 7817SOL    HW134380   4.760   1.840   3.539
 7817SOL    HW234381   4.764   1.988   3.470
 7818SOL     OW34382   8.404   9.951   4.639
 7818SOL    HW134383   8.468   9.892   4.590
 7818SOL    HW234384   8.368   0.019   4.576
 7819SOL     OW34385   3.276   6.359   5.220
 7819SOL    HW134386   3.375   6.361   5.208
 7819SOL    HW234387   3.243   6.451   5.237
 7820SOL     OW34388   2.847   9.122   0.294
 7820SOL    HW134389   2.946   9.132   0.292
 7820SOL    HW234390   2.818   9.089   0.384
 7821SOL     OW34391   7.182   8.072   3.598
 7821SOL    HW134392   7.190   7.972   3.600
 7821SOL    HW234393   7.108   8.101   3.659
 7822SOL     OW34394   0.474   6.860   0.793
 7822SOL    HW134395   0.398   6.844   0.730
 7822SOL    HW234396   0.443   6.849   0.887
 7823SOL     OW34397   3.042   8.700   2.145
 7823SOL    HW134398   2.997   8.729   2.229
 7823SOL    HW234399   3.060   8.780   2.088
 7824SOL     OW34400   9.359   4.364   1.335
 7824SOL    HW134401   9.414   4.447   1.344
 7824SOL    HW234402   9.394   4.294   1.397
 7825SOL     OW34403   8.314   7.834   2.130
 7825SOL    HW134404   8.352   7.741   2.137
 7825SOL    HW234405   8.233   7.841   2.188
 7826SOL     OW34406   5.576   1.101   3.443
 7826SOL    HW134407   5.603   1.006   3.429
 7826SOL    HW234408   5.606   1.156   3.364
 7827SOL     OW34409   3.860   3.134   4.554
 7827SOL    HW134410   3.931   3.191   4.594
 7827SOL    HW234411   3.778   3.190   4.539
 7828SOL     OW34412   0.361   9.621   0.168
 7828SOL    HW134413   0.432   9.579   0.225
 7828SOL    HW234414   0.276   9.568   0.177
 7829SOL     OW34415   9.772   6.387   2.123
 7829SOL    HW134416   9.760   6.326   2.201
 7829SOL    HW234417   9.809   6.475   2.154
 7830SOL     OW34418   8.777   8.460   3.737
 7830SOL    HW134419   8.811   8.384   3.682
 7830SOL    HW234420   8.693   8.434   3.783
 7831SOL     OW34421   0.432   3.016   4.061
 7831SOL    HW134422   0.482   2.956   4.123
 7831SOL    HW234423   0.491   3.091   4.030
 7832SOL     OW34424   1.791   1.451   0.700
 7832SOL    HW134425   1.831   1.458   0.791
 7832SOL    HW234426   1.711   1.510   0.693
 7833SOL     OW34427   3.155   4.859   1.000
 7833SOL    HW134428   3.116   4.774   1.036
 7833SOL    HW234429   3.138   4.934   1.064
 7834SOL     OW34430   9.621   2.904   1.538
 7834SOL    HW134431   9.689   2.942   1.474
 7834SOL    HW234432   9.547   2.862   1.486
 7835SOL     OW34433   4.303   5.110   4.668
 7835SOL    HW134434   4.250   5.143   4.589
 7835SOL    HW234435   4.324   5.187   4.728
 7836SOL     OW34436   3.895   0.635   3.013
 7836SOL    HW134437   3.859   0.579   3.088
 7836SOL    HW234438   3.823   0.695   2.979
 7837SOL     OW34439   3.716   7.838   2.250
 7837SOL    HW134440   3.791   7.849   2.185
 7837SOL    HW234441   3.704   7.923   2.302
 7838SOL     OW34442   3.297   6.759   2.079
 7838SOL    HW134443   3.272   6.737   2.173
 7838SOL    HW234444   3.214   6.775   2.025
 7839SOL     OW34445   0.266   6.940   2.754
 7839SOL    HW134446   0.298   6.908   2.844
 7839SOL    HW234447   0.171   6.968   2.762
 7840SOL     OW34448   2.185   1.691   2.788
 7840SOL    HW134449   2.200   1.772   2.733
 7840SOL    HW234450   2.099   1.648   2.761
 7841SOL     OW34451   1.303   0.004   1.170
 7841SOL    HW134452   1.365   0.071   1.212
 7841SOL    HW234453   1.330   9.912   1.196
 7842SOL     OW34454   1.016   6.848   1.420
 7842SOL    HW134455   1.095   6.842   1.481
 7842SOL    HW234456   1.027   6.925   1.357
 7843SOL     OW34457   2.195   7.593   1.186
 7843SOL    HW134458   2.192   7.691   1.163
 7843SOL    HW234459   2.289   7.567   1.210
 7844SOL     OW34460   0.025   3.736   0.106
 7844SOL    HW134461   9.966   3.669   0.061
 7844SOL    HW234462   0.119   3.703   0.109
 7845SOL     OW34463   3.771   9.866   1.117
 7845SOL    HW134464   3.857   9.871   1.067
 7845SOL    HW234465   3.702   9.820   1.061
 7846SOL     OW34466   2.384   4.919   5.048
 7846SOL    HW134467   2.456   4.885   5.108
 7846SOL    HW234468   2.423   4.946   4.960
 7847SOL     OW34469   6.392   8.840   4.503
 7847SOL    HW134470   6.303   8.816   4.464
 7847SOL    HW234471   6.390   8.823   4.602
 7848SOL     OW34472   0.345   6.218   3.636
 7848SOL    HW134473   0.364   6.177   3.725
 7848SOL    HW234474   0.261   6.273   3.642
 7849SOL     OW34475   8.345   0.209   3.390
 7849SOL    HW134476   8.302   0.258   3.465
 7849SOL    HW234477   8.275   0.173   3.328
 7850SOL     OW34478   5.231   9.919   2.721
 7850SOL    HW134479   5.321   9.884   2.748
 7850SOL    HW234480   5.226   9.925   2.621
 7851SOL     OW34481   8.308   6.702   0.500
 7851SOL    HW134482   8.336   6.621   0.449
 7851SOL    HW234483   8.387   6.739   0.549
 7852SOL     OW34484   2.346   4.408   1.583
 7852SOL    HW134485   2.403   4.465   1.523
 7852SOL    HW234486   2.361   4.436   1.678
 7853SOL     OW34487   4.552   9.250   2.700
 7853SOL    HW134488   4.558   9.290   2.608
 7853SOL    HW234489   4.552   9.150   2.694
 7854SOL     OW34490   3.354   5.878   5.087
 7854SOL    HW134491   3.424   5.950   5.084
 7854SOL    HW234492   3.272   5.914   5.132
 7855SOL     OW34493   1.584   1.843   5.065
 7855SOL    HW134494   1.489   1.822   5.087
 7855SOL    HW234495   1.642   1.764   5.089
 7856SOL     OW34496   4.209   4.545   1.121
 7856SOL    HW134497   4.151   4.467   1.145
 7856SOL    HW234498   4.153   4.628   1.117
 7857SOL     OW34499   3.854   2.072   3.145
 7857SOL    HW134500   3.878   1.978   3.170
 7857SOL    HW234501   3.864   2.131   3.224
 7858SOL     OW34502   4.358   2.273   1.394
 7858SOL    HW134503   4.264   2.246   1.416
 7858SOL    HW234504   4.421   2.206   1.432
 7859SOL     OW34505   3.024   3.054   3.664
 7859SOL    HW134506   3.086   3.109   3.608
 7859SOL    HW234507   3.074   3.015   3.741
 7860SOL     OW34508   0.586   6.632   1.531
 7860SOL    HW134509   0.686   6.630   1.518
 7860SOL    HW234510   0.564   6.689   1.610
 7861SOL     OW34511   9.253   8.310   2.616
 7861SOL    HW134512   9.298   8.397   2.639
 7861SOL    HW234513   9.261   8.293   2.518
 7862SOL     OW34514   9.177   7.181   3.377
 7862SOL    HW134515   9.262   7.220   3.343
 7862SOL    HW234516   9.100   7.240   3.351
 7863SOL     OW34517   1.038   4.533   4.780
 7863SOL    HW134518   0.962   4.597   4.779
 7863SOL    HW234519   1.055   4.504   4.875
 7864SOL     OW34520   8.284   1.725   2.099
 7864SOL    HW134521   8.210   1.658   2.099
 7864SOL    HW234522   8.309   1.747   2.193
 7865SOL     OW34523   4.992   5.803   1.403
 7865SOL    HW134524   4.902   5.791   1.363
 7865SOL    HW234525   5.025   5.896   1.386
 7866SOL     OW34526   2.291   1.071   3.700
 7866SOL    HW134527   2.224   1.130   3.746
 7866SOL    HW234528   2.379   1.118   3.696
 7867SOL     OW34529   2.337   6.440   1.056
 7867SOL    HW134530   2.420   6.417   1.107
 7867SOL    HW234531   2.266   6.472   1.119
 7868SOL     OW34532   6.972   3.289   0.672
 7868SOL    HW134533   6.890   3.343   0.694
 7868SOL    HW234534   7.053   3.340   0.700
 7869SOL     OW34535   1.254   8.306   1.771
 7869SOL    HW134536   1.221   8.334   1.861
 7869SOL    HW234537   1.281   8.210   1.773
 7870SOL     OW34538   8.916   9.239   2.912
 7870SOL    HW134539   8.877   9.181   2.982
 7870SOL    HW234540   8.883   9.211   2.822
 7871SOL     OW34541   2.907   1.807   1.742
 7871SOL    HW134542   2.867   1.717   1.728
 7871SOL    HW234543   3.005   1.804   1.721
 7872SOL     OW34544   1.900   0.664   0.088
 7872SOL    HW134545   1.973   0.707   0.140
 7872SOL    HW234546   1.915   0.565   0.083
 7873SOL     OW34547   4.779   1.663   2.769
 7873SOL    HW134548   4.720   1.584   2.753
 7873SOL    HW234549   4.781   1.685   2.866
 7874SOL     OW34550   5.366   0.126   0.901
 7874SOL    HW134551   5.461   0.114   0.930
 7874SOL    HW234552   5.361   0.197   0.831
 7875SOL     OW34553   8.123   5.721   1.566
 7875SOL    HW134554   8.127   5.625   1.592
 7875SOL    HW234555   8.215   5.761   1.571
 7876SOL     OW34556   1.591   5.693   2.802
 7876SOL    HW134557   1.541   5.667   2.719
 7876SOL    HW234558   1.539   5.764   2.851
 7877SOL     OW34559   8.490   7.396   2.341
 7877SOL    HW134560   8.449   7.405   2.431
 7877SOL    HW234561   8.588   7.380   2.350
 7878SOL     OW34562   2.213   3.945   4.941
 7878SOL    HW134563   2.308   3.973   4.932
 7878SOL    HW234564   2.208   3.846   4.955
 7879SOL     OW34565   0.048   2.143   0.210
 7879SOL    HW134566   0.107   2.219   0.237
 7879SOL    HW234567   0.095   2.088   0.140
 7880SOL     OW34568   0.744   3.723   4.382
 7880SOL    HW134569   0.692   3.693   4.302
 7880SOL    HW234570   0.842   3.715   4.363
 7881SOL     OW34571   4.270   0.843   3.201
 7881SOL    HW134572   4.227   0.815   3.116
 7881SOL    HW234573   4.246   0.778   3.274
 7882SOL     OW34574   5.844   1.577   2.933
 7882SOL    HW134575   5.825   1.485   2.968
 7882SOL    HW234576   5.799   1.589   2.844
 7883SOL     OW34577   1.474   7.478   3.413
 7883SOL    HW134578   1.468   7.390   3.365
 7883SOL    HW234579   1.519   7.464   3.502
 7884SOL     OW34580   4.493   2.492   3.899
 7884SOL    HW134581   4.427   2.566   3.885
 7884SOL    HW234582   4.444   2.406   3.914
 7885SOL     OW34583   0.285   0.601   0.304
 7885SOL    HW134584   0.272   0.505   0.281
 7885SOL    HW234585   0.202   0.637   0.347
 7886SOL     OW34586   6.130   0.840   3.871
 7886SOL    HW134587   6.115   0.750   3.830
 7886SOL    HW234588   6.088   0.844   3.961
 7887SOL     OW34589   2.683   4.760   4.875
 7887SOL    HW134590   2.733   4.725   4.954
 7887SOL    HW234591   2.630   4.686   4.834
 7888SOL     OW34592   7.803   1.919   2.902
 7888SOL    HW134593   7.718   1.869   2.888
 7888SOL    HW234594   7.786   2.017   2.887
 7889SOL     OW34595   1.273   7.962   4.683
 7889SOL    HW134596   1.349   7.901   4.706
 7889SOL    HW234597   1.221   7.924   4.607
 7890SOL     OW34598   9.878   3.200   3.711
 7890SOL    HW134599   9.787   3.183   3.673
 7890SOL    HW234600   9.927   3.113   3.717
 7891SOL     OW34601   1.660   0.718   1.561
 7891SOL    HW134602   1.683   0.644   1.498
 7891SOL    HW234603   1.623   0.795   1.509
 7892SOL     OW34604   1.081   2.236   1.209
 7892SOL    HW134605   1.061   2.199   1.300
 7892SOL    HW234606   1.153   2.305   1.217
 7893SOL     OW34607   4.329   1.770   3.816
 7893SOL    HW134608   4.325   1.688   3.874
 7893SOL    HW234609   4.248   1.826   3.833
 7894SOL     OW34610   4.504   4.244   1.145
 7894SOL    HW134611   4.515   4.170   1.212
 7894SOL    HW234612   4.491   4.205   1.054
 7895SOL     OW34613   4.031   1.070   4.049
 7895SOL    HW134614   4.017   1.155   4.100
 7895SOL    HW234615   4.101   1.015   4.095
 7896SOL     OW34616   1.554   4.040   1.175
 7896SOL    HW134617   1.494   4.119   1.188
 7896SOL    HW234618   1.502   3.956   1.183
 7897SOL     OW34619   0.159   1.333   4.240
 7897SOL    HW134620   0.204   1.290   4.162
 7897SOL    HW234621   0.207   1.308   4.325
 7898SOL     OW34622   1.792   8.108   3.204
 7898SOL    HW134623   1.826   8.176   3.268
 7898SOL    HW234624   1.760   8.027   3.254
 7899SOL     OW34625   9.478   2.623   3.564
 7899SOL    HW134626   9.455   2.673   3.481
 7899SOL    HW234627   9.543   2.551   3.543
 7900SOL     OW34628   8.093   4.374   3.107
 7900SOL    HW134629   8.060   4.343   3.196
 7900SOL    HW234630   8.097   4.474   3.106
 7901SOL     OW34631   1.621   1.220   3.290
 7901SOL    HW134632   1.671   1.135   3.273
 7901SOL    HW234633   1.674   1.278   3.352
 7902SOL     OW34634   6.852   2.909   2.739
 7902SOL    HW134635   6.760   2.873   2.720
 7902SOL    HW234636   6.845   2.980   2.810
 7903SOL     OW34637   5.488   9.925   3.365
 7903SOL    HW134638   5.504   9.992   3.293
 7903SOL    HW234639   5.575   9.900   3.407
 7904SOL     OW34640   8.255   7.744   2.817
 7904SOL    HW134641   8.311   7.713   2.893
 7904SOL    HW234642   8.303   7.726   2.731
 7905SOL     OW34643   8.400   7.615   0.891
 7905SOL    HW134644   8.387   7.579   0.799
 7905SOL    HW234645   8.360   7.551   0.957
 7906SOL     OW34646   4.720   9.078   3.898
 7906SOL    HW134647   4.715   9.033   3.987
 7906SOL    HW234648   4.724   9.009   3.826
 7907SOL     OW34649   7.967   0.190   4.498
 7907SOL    HW134650   8.019   0.253   4.441
 7907SOL    HW234651   7.975   0.097   4.462
 7908SOL     OW34652   0.138   9.350   1.274
 7908SOL    HW134653   0.080   9.326   1.197
 7908SOL    HW234654   0.228   9.308   1.263
 7909SOL     OW34655   9.392   1.784   2.790
 7909SOL    HW134656   9.337   1.716   2.838
 7909SOL    HW234657   9.487   1.752   2.784
 7910SOL     OW34658   3.380   3.255   2.816
 7910SOL    HW134659   3.468   3.241   2.861
 7910SOL    HW234660   3.343   3.166   2.787
 7911SOL     OW34661   7.050   9.753   4.234
 7911SOL    HW134662   7.025   9.824   4.300
 7911SOL    HW234663   7.147   9.762   4.211
 7912SOL     OW34664   2.414   5.092   0.986
 7912SOL    HW134665   2.456   5.002   0.971
 7912SOL    HW234666   2.346   5.084   1.060
 7913SOL     OW34667   1.128   3.886   5.240
 7913SOL    HW134668   1.112   3.980   5.210
 7913SOL    HW234669   1.040   3.842   5.260
 7914SOL     OW34670   2.753   6.397   3.498
 7914SOL    HW134671   2.685   6.382   3.426
 7914SOL    HW234672   2.707   6.403   3.586
 7915SOL     OW34673   3.684   8.930   2.600
 7915SOL    HW134674   3.686   9.017   2.650
 7915SOL    HW234675   3.628   8.940   2.518
 7916SOL     OW34676   1.615   6.342   1.904
 7916SOL    HW134677   1.708   6.305   1.905
 7916SOL    HW234678   1.596   6.381   1.814
 7917SOL     OW34679   8.978   7.182   1.101
 7917SOL    HW134680   9.065   7.138   1.120
 7917SOL    HW234681   8.971   7.267   1.153
 7918SOL     OW34682   3.411   8.163   2.331
 7918SOL    HW134683   3.406   8.076   2.378
 7918SOL    HW234684   3.474   8.224   2.379
 7919SOL     OW34685   7.737   3.068   4.830
 7919SOL    HW134686   7.719   3.155   4.876
 7919SOL    HW234687   7.781   3.006   4.894
 7920SOL     OW34688   4.328   2.784   4.733
 7920SOL    HW134689   4.366   2.867   4.691
 7920SOL    HW234690   4.364   2.704   4.685
 7921SOL     OW34691   9.126   5.491   5.114
 7921SOL    HW134692   9.186   5.469   5.191
 7921SOL    HW234693   9.174   5.551   5.050
 7922SOL     OW34694   0.140   9.010   0.748
 7922SOL    HW134695   0.159   8.914   0.772
 7922SOL    HW234696   0.206   9.069   0.792
 7923SOL     OW34697   4.442   3.801   2.107
 7923SOL    HW134698   4.378   3.855   2.051
 7923SOL    HW234699   4.512   3.761   2.048
 7924SOL     OW34700   4.506   2.211   2.304
 7924SOL    HW134701   4.544   2.291   2.259
 7924SOL    HW234702   4.444   2.240   2.377
 7925SOL     OW34703   1.271   7.491   3.201
 7925SOL    HW134704   1.311   7.504   3.292
 7925SOL    HW234705   1.229   7.576   3.171
 7926SOL     OW34706   9.261   8.941   1.482
 7926SOL    HW134707   9.285   8.990   1.566
 7926SOL    HW234708   9.166   8.912   1.487
 7927SOL     OW34709   1.315   4.563   3.860
 7927SOL    HW134710   1.397   4.508   3.876
 7927SOL    HW234711   1.329   4.655   3.898
 7928SOL     OW34712   1.800   0.064   4.086
 7928SOL    HW134713   1.751   9.994   4.035
 7928SOL    HW234714   1.735   0.119   4.138
 7929SOL     OW34715   9.962   4.738   1.797
 7929SOL    HW134716   9.941   4.761   1.702
 7929SOL    HW234717   9.898   4.784   1.858
 7930SOL     OW34718   2.782   6.672   2.252
 7930SOL    HW134719   2.685   6.653   2.236
 7930SOL    HW234720   2.836   6.636   2.176
 7931SOL     OW34721   0.454   6.119   3.396
 7931SOL    HW134722   0.509   6.045   3.434
 7931SOL    HW234723   0.399   6.161   3.469
 7932SOL     OW34724   9.162   9.514   0.801
 7932SOL    HW134725   9.215   9.598   0.794
 7932SOL    HW234726   9.183   9.467   0.887
 7933SOL     OW34727   3.471   9.418   2.634
 7933SOL    HW134728   3.449   9.342   2.695
 7933SOL    HW234729   3.460   9.389   2.539
 7934SOL     OW34730   0.892   0.644   4.956
 7934SOL    HW134731   0.862   0.739   4.951
 7934SOL    HW234732   0.987   0.641   4.987
 7935SOL     OW34733   3.111   7.456   0.093
 7935SOL    HW134734   3.095   7.499   0.182
 7935SOL    HW234735   3.119   7.357   0.105
 7936SOL     OW34736   5.128   9.898   4.132
 7936SOL    HW134737   5.172   9.959   4.066
 7936SOL    HW234738   5.161   9.919   4.224
 7937SOL     OW34739   1.821   2.679   3.767
 7937SOL    HW134740   1.781   2.595   3.803
 7937SOL    HW234741   1.843   2.666   3.670
 7938SOL     OW34742   3.402   8.722   1.931
 7938SOL    HW134743   3.399   8.623   1.931
 7938SOL    HW234744   3.475   8.754   1.871
 7939SOL     OW34745   9.107   8.319   0.195
 7939SOL    HW134746   9.139   8.293   0.286
 7939SOL    HW234747   9.180   8.367   0.146
 7940SOL     OW34748   2.882   4.340   0.726
 7940SOL    HW134749   2.936   4.416   0.690
 7940SOL    HW234750   2.808   4.319   0.663
 7941SOL     OW34751   9.096   4.371   1.408
 7941SOL    HW134752   9.187   4.371   1.367
 7941SOL    HW234753   9.087   4.447   1.472
 7942SOL     OW34754   0.102   2.487   1.159
 7942SOL    HW134755   0.016   2.527   1.189
 7942SOL    HW234756   0.089   2.444   1.070
 7943SOL     OW34757   9.922   7.554   0.784
 7943SOL    HW134758   9.823   7.563   0.793
 7943SOL    HW234759   9.955   7.479   0.840
 7944SOL     OW34760   3.284   6.466   4.414
 7944SOL    HW134761   3.383   6.474   4.404
 7944SOL    HW234762   3.240   6.474   4.324
 7945SOL     OW34763   9.802   6.778   3.634
 7945SOL    HW134764   9.834   6.743   3.722
 7945SOL    HW234765   9.744   6.710   3.589
 7946SOL     OW34766   9.482   5.820   4.867
 7946SOL    HW134767   9.572   5.801   4.829
 7946SOL    HW234768   9.438   5.893   4.813
 7947SOL     OW34769   7.822   1.046   1.511
 7947SOL    HW134770   7.908   1.096   1.496
 7947SOL    HW234771   7.777   1.030   1.423
 7948SOL     OW34772   0.404   9.714   2.112
 7948SOL    HW134773   0.440   9.656   2.185
 7948SOL    HW234774   0.326   9.669   2.069
 7949SOL     OW34775   0.325   5.009   0.693
 7949SOL    HW134776   0.243   5.021   0.749
 7949SOL    HW234777   0.300   5.021   0.596
 7950SOL     OW34778   3.423   3.598   5.287
 7950SOL    HW134779   3.517   3.610   5.256
 7950SOL    HW234780   3.407   3.653   5.368
 7951SOL     OW34781   2.581   8.547   2.304
 7951SOL    HW134782   2.600   8.466   2.248
 7951SOL    HW234783   2.650   8.556   2.375
 7952SOL     OW34784   9.281   7.739   5.136
 7952SOL    HW134785   9.193   7.692   5.146
 7952SOL    HW234786   9.265   7.836   5.117
 7953SOL     OW34787   8.883   8.808   3.046
 7953SOL    HW134788   8.862   8.905   3.055
 7953SOL    HW234789   8.940   8.779   3.123
 7954SOL     OW34790   6.608   2.267   3.887
 7954SOL    HW134791   6.681   2.299   3.947
 7954SOL    HW234792   6.548   2.205   3.937
 7955SOL     OW34793   9.969   0.913   0.946
 7955SOL    HW134794   9.979   0.926   0.847
 7955SOL    HW234795   9.877   0.941   0.974
 7956SOL     OW34796   3.901   7.926   4.914
 7956SOL    HW134797   3.855   8.002   4.868
 7956SOL    HW234798   3.996   7.920   4.883
 7957SOL     OW34799   6.273   1.196   1.701
 7957SOL    HW134800   6.194   1.136   1.689
 7957SOL    HW234801   6.242   1.291   1.703
 7958SOL     OW34802   3.051   8.863   3.354
 7958SOL    HW134803   3.029   8.876   3.451
 7958SOL    HW234804   3.108   8.782   3.343
 7959SOL     OW34805   9.853   9.021   2.324
 7959SOL    HW134806   9.785   8.949   2.336
 7959SOL    HW234807   9.908   9.028   2.407
 7960SOL     OW34808   8.621   3.799   5.148
 7960SOL    HW134809   8.531   3.759   5.161
 7960SOL    HW234810   8.655   3.835   5.235
 7961SOL     OW34811   1.661   4.271   0.445
 7961SOL    HW134812   1.624   4.363   0.433
 7961SOL    HW234813   1.760   4.272   0.431
 7962SOL     OW34814   8.414   2.034   3.938
 7962SOL    HW134815   8.379   1.965   3.875
 7962SOL    HW234816   8.504   2.064   3.907
 7963SOL     OW34817   1.802   6.391   5.117
 7963SOL    HW134818   1.792   6.355   5.024
 7963SOL    HW234819   1.714   6.430   5.146
 7964SOL     OW34820   6.387   9.853   4.697
 7964SOL    HW134821   6.299   9.877   4.657
 7964SOL    HW234822   6.381   9.762   4.739
 7965SOL     OW34823   1.874   5.175   3.056
 7965SOL    HW134824   1.835   5.117   2.985
 7965SOL    HW234825   1.845   5.142   3.146
 7966SOL     OW34826   3.935   0.754   3.387
 7966SOL    HW134827   4.034   0.746   3.395
 7966SOL    HW234828   3.891   0.720   3.470
 7967SOL     OW34829   8.318   1.267   1.159
 7967SOL    HW134830   8.341   1.334   1.088
 7967SOL    HW234831   8.220   1.272   1.180
 7968SOL     OW34832   7.215   7.976   4.368
 7968SOL    HW134833   7.249   7.901   4.425
 7968SOL    HW234834   7.115   7.982   4.377
 7969SOL     OW34835   8.310   8.481   3.060
 7969SOL    HW134836   8.236   8.500   3.124
 7969SOL    HW234837   8.342   8.567   3.020
 7970SOL     OW34838   9.968   2.752   1.676
 7970SOL    HW134839   9.925   2.664   1.697
 7970SOL    HW234840   9.990   2.757   1.579
 7971SOL     OW34841   4.416   8.386   5.225
 7971SOL    HW134842   4.379   8.479   5.220
 7971SOL    HW234843   4.355   8.324   5.175
 7972SOL     OW34844   9.201   4.341   2.736
 7972SOL    HW134845   9.125   4.278   2.714
 7972SOL    HW234846   9.165   4.433   2.747
 7973SOL     OW34847   9.120   4.812   1.109
 7973SOL    HW134848   9.190   4.797   1.179
 7973SOL    HW234849   9.153   4.879   1.043
 7974SOL     OW34850   4.651   9.511   1.457
 7974SOL    HW134851   4.723   9.468   1.513
 7974SOL    HW234852   4.605   9.441   1.403
 7975SOL     OW34853   2.607   2.070   3.725
 7975SOL    HW134854   2.586   1.978   3.759
 7975SOL    HW234855   2.618   2.066   3.625
 7976SOL     OW34856   1.850   2.402   2.258
 7976SOL    HW134857   1.871   2.483   2.313
 7976SOL    HW234858   1.925   2.384   2.195
 7977SOL     OW34859   9.746   1.005   1.282
 7977SOL    HW134860   9.787   0.916   1.300
 7977SOL    HW234861   9.733   1.016   1.183
 7978SOL     OW34862   7.955   2.635   5.190
 7978SOL    HW134863   7.961   2.693   5.271
 7978SOL    HW234864   7.862   2.637   5.154
 7979SOL     OW34865   9.267   4.220   4.828
 7979SOL    HW134866   9.174   4.257   4.836
 7979SOL    HW234867   9.287   4.163   4.907
 7980SOL     OW34868   3.466   7.940   0.315
 7980SOL    HW134869   3.545   7.881   0.299
 7980SOL    HW234870   3.400   7.894   0.375
 7981SOL     OW34871   7.261   2.793   1.714
 7981SOL    HW134872   7.250   2.856   1.637
 7981SOL    HW234873   7.258   2.844   1.800
 7982SOL     OW34874   3.627   5.877   0.681
 7982SOL    HW134875   3.548   5.871   0.621
 7982SOL    HW234876   3.625   5.964   0.731
 7983SOL     OW34877   1.587   2.688   2.389
 7983SOL    HW134878   1.603   2.693   2.291
 7983SOL    HW234879   1.515   2.753   2.415
 7984SOL     OW34880   2.371   3.248   5.000
 7984SOL    HW134881   2.292   3.213   4.950
 7984SOL    HW234882   2.361   3.346   5.013
 7985SOL     OW34883   3.267   4.542   1.229
 7985SOL    HW134884   3.182   4.583   1.195
 7985SOL    HW234885   3.336   4.543   1.157
 7986SOL     OW34886   4.885   4.493   3.529
 7986SOL    HW134887   4.869   4.416   3.467
 7986SOL    HW234888   4.970   4.478   3.579
 7987SOL     OW34889   1.930   2.214   4.231
 7987SOL    HW134890   1.916   2.116   4.215
 7987SOL    HW234891   1.943   2.231   4.328
 7988SOL     OW34892   2.546   9.814   0.709
 7988SOL    HW134893   2.471   9.848   0.652
 7988SOL    HW234894   2.632   9.856   0.678
 7989SOL     OW34895   8.700   6.169   4.070
 7989SOL    HW134896   8.723   6.257   4.112
 7989SOL    HW234897   8.782   6.130   4.028
 7990SOL     OW34898   1.606   5.859   1.260
 7990SOL    HW134899   1.646   5.845   1.350
 7990SOL    HW234900   1.508   5.837   1.263
 7991SOL     OW34901   1.588   2.256   0.930
 7991SOL    HW134902   1.643   2.280   1.011
 7991SOL    HW234903   1.622   2.171   0.891
 7992SOL     OW34904   6.749   4.703   0.724
 7992SOL    HW134905   6.655   4.669   0.726
 7992SOL    HW234906   6.748   4.802   0.738
 7993SOL     OW34907   4.461   4.297   4.943
 7993SOL    HW134908   4.444   4.391   4.971
 7993SOL    HW234909   4.516   4.296   4.860
 7994SOL     OW34910   9.119   8.131   3.476
 7994SOL    HW134911   9.174   8.125   3.559
 7994SOL    HW234912   9.134   8.049   3.420
 7995SOL     OW34913   9.048   5.456   0.276
 7995SOL    HW134914   9.076   5.361   0.260
 7995SOL    HW234915   8.975   5.480   0.212
 7996SOL     OW34916   2.716   4.424   2.550
 7996SOL    HW134917   2.624   4.464   2.540
 7996SOL    HW234918   2.717   4.333   2.509
 7997SOL     OW34919   1.150   3.887   0.575
 7997SOL    HW134920   1.136   3.979   0.538
 7997SOL    HW234921   1.131   3.819   0.503
 7998SOL     OW34922   1.991   5.771   3.629
 7998SOL    HW134923   1.938   5.854   3.609
 7998SOL    HW234924   2.087   5.795   3.641
 7999SOL     OW34925   0.466   4.647   4.425
 7999SOL    HW134926   0.425   4.728   4.468
 7999SOL    HW234927   0.565   4.651   4.433
 8000SOL     OW34928   4.932   3.888   1.015
 8000SOL    HW134929   4.881   3.970   0.992
 8000SOL    HW234930   5.030   3.904   1.002
 8001SOL     OW34931   1.800   7.077   0.692
 8001SOL    HW134932   1.832   7.157   0.641
 8001SOL    HW234933   1.705   7.090   0.720
 8002SOL     OW34934   2.106   3.966   1.853
 8002SOL    HW134935   2.142   4.044   1.800
 8002SOL    HW234936   2.154   3.961   1.941
 8003SOL     OW34937   0.449   4.671   0.571
 8003SOL    HW134938   0.390   4.670   0.490
 8003SOL    HW234939   0.496   4.759   0.575
 8004SOL     OW34940   0.811   2.756   4.187
 8004SOL    HW134941   0.793   2.660   4.211
 8004SOL    HW234942   0.728   2.810   4.201
 8005SOL     OW34943   7.057   4.115   1.075
 8005SOL    HW134944   7.140   4.170   1.061
 8005SOL    HW234945   6.992   4.167   1.130
 8006SOL     OW34946   7.363   1.729   3.176
 8006SOL    HW134947   7.420   1.810   3.190
 8006SOL    HW234948   7.270   1.747   3.209
 8007SOL     OW34949   1.468   1.823   0.800
 8007SOL    HW134950   1.454   1.786   0.892
 8007SOL    HW234951   1.516   1.756   0.744
 8008SOL     OW34952   6.107   1.853   4.818
 8008SOL    HW134953   6.136   1.767   4.777
 8008SOL    HW234954   6.047   1.902   4.755
 8009SOL     OW34955   2.138   0.781   1.735
 8009SOL    HW134956   2.168   0.686   1.728
 8009SOL    HW234957   2.038   0.784   1.728
 8010SOL     OW34958   6.591   9.478   2.530
 8010SOL    HW134959   6.591   9.547   2.457
 8010SOL    HW234960   6.551   9.393   2.495
 8011SOL     OW34961   2.244   4.035   0.098
 8011SOL    HW134962   2.154   3.995   0.080
 8011SOL    HW234963   2.306   3.965   0.133
 8012SOL     OW34964   8.840   5.514   0.469
 8012SOL    HW134965   8.849   5.536   0.566
 8012SOL    HW234966   8.928   5.484   0.433
 8013SOL     OW34967   5.706   9.318   4.478
 8013SOL    HW134968   5.801   9.287   4.484
 8013SOL    HW234969   5.697   9.407   4.524
 8014SOL     OW34970   0.994   6.691   1.077
 8014SOL    HW134971   0.902   6.716   1.109
 8014SOL    HW234972   1.041   6.640   1.149
 8015SOL     OW34973   9.250   0.588   1.749
 8015SOL    HW134974   9.198   0.673   1.750
 8015SOL    HW234975   9.327   0.597   1.686
 8016SOL     OW34976   9.917   4.284   0.960
 8016SOL    HW134977   9.822   4.303   0.937
 8016SOL    HW234978   9.978   4.325   0.892
 8017SOL     OW34979   8.055   9.133   1.452
 8017SOL    HW134980   7.971   9.110   1.403
 8017SOL    HW234981   8.061   9.233   1.462
 8018SOL     OW34982   1.534   9.564   0.804
 8018SOL    HW134983   1.576   9.495   0.745
 8018SOL    HW234984   1.509   9.523   0.892
 8019SOL     OW34985   9.082   0.222   2.359
 8019SOL    HW134986   9.025   0.279   2.417
 8019SOL    HW234987   9.072   0.126   2.386
 8020SOL     OW34988   3.411   4.010   4.475
 8020SOL    HW134989   3.318   3.975   4.485
 8020SOL    HW234990   3.409   4.095   4.422
 8021SOL     OW34991   1.375   5.549   4.121
 8021SOL    HW134992   1.454   5.518   4.174
 8021SOL    HW234993   1.403   5.567   4.026
 8022SOL     OW34994   2.167   7.868   1.145
 8022SOL    HW134995   2.174   7.898   1.240
 8022SOL    HW234996   2.085   7.907   1.104
 8023SOL     OW34997   1.049   3.283   1.972
 8023SOL    HW134998   0.971   3.338   2.003
 8023SOL    HW234999   1.020   3.222   1.898
 8024SOL     OW35000   2.255   9.755   2.716
 8024SOL    HW135001   2.204   9.738   2.632
 8024SOL    HW235002   2.194   9.745   2.794
 8025SOL     OW35003   2.301   4.040   0.873
 8025SOL    HW135004   2.349   3.956   0.898
 8025SOL    HW235005   2.231   4.059   0.941
 8026SOL     OW35006   2.109   4.933   1.562
 8026SOL    HW135007   2.157   5.020   1.571
 8026SOL    HW235008   2.087   4.916   1.465
 8027SOL     OW35009   4.420   4.507   2.777
 8027SOL    HW135010   4.400   4.412   2.753
 8027SOL    HW235011   4.515   4.528   2.752
 8028SOL     OW35012   8.848   2.884   4.070
 8028SOL    HW135013   8.946   2.899   4.081
 8028SOL    HW235014   8.818   2.812   4.133
 8029SOL     OW35015   0.180   8.737   0.786
 8029SOL    HW135016   0.233   8.707   0.707
 8029SOL    HW235017   0.207   8.685   0.867
 8030SOL     OW35018   1.433   9.728   1.944
 8030SOL    HW135019   1.403   9.778   1.863
 8030SOL    HW235020   1.432   9.630   1.924
 8031SOL     OW35021   8.299   1.791   2.376
 8031SOL    HW135022   8.306   1.699   2.416
 8031SOL    HW235023   8.248   1.851   2.438
 8032SOL     OW35024   0.785   6.473   2.652
 8032SOL    HW135025   0.771   6.486   2.750
 8032SOL    HW235026   0.865   6.525   2.622
 8033SOL     OW35027   4.110   5.241   2.135
 8033SOL    HW135028   4.097   5.152   2.091
 8033SOL    HW235029   4.029   5.261   2.192
 8034SOL     OW35030   2.409   5.177   1.347
 8034SOL    HW135031   2.345   5.131   1.285
 8034SOL    HW235032   2.370   5.179   1.439
 8035SOL     OW35033   7.291   0.316   3.909
 8035SOL    HW135034   7.247   0.234   3.946
 8035SOL    HW235035   7.224   0.370   3.858
 8036SOL     OW35036   3.575   8.844   3.106
 8036SOL    HW135037   3.653   8.869   3.048
 8036SOL    HW235038   3.502   8.912   3.093
 8037SOL     OW35039   7.895   9.360   2.229
 8037SOL    HW135040   7.993   9.342   2.238
 8037SOL    HW235041   7.882   9.442   2.174
 8038SOL     OW35042   3.600   1.357   1.432
 8038SOL    HW135043   3.693   1.337   1.463
 8038SOL    HW235044   3.573   1.293   1.360
 8039SOL     OW35045   1.810   7.953   0.354
 8039SOL    HW135046   1.822   7.854   0.366
 8039SOL    HW235047   1.723   7.971   0.308
 8040SOL     OW35048   7.733   9.730   0.649
 8040SOL    HW135049   7.826   9.705   0.621
 8040SOL    HW235050   7.706   9.674   0.727
 8041SOL     OW35051   2.496   1.330   2.306
 8041SOL    HW135052   2.491   1.244   2.356
 8041SOL    HW235053   2.561   1.321   2.230
 8042SOL     OW35054   0.901   4.064   0.294
 8042SOL    HW135055   0.877   3.970   0.320
 8042SOL    HW235056   0.818   4.119   0.291
 8043SOL     OW35057   0.972   9.692   0.269
 8043SOL    HW135058   0.939   9.607   0.309
 8043SOL    HW235059   0.917   9.714   0.188
 8044SOL     OW35060   8.730   2.648   2.373
 8044SOL    HW135061   8.665   2.623   2.445
 8044SOL    HW235062   8.764   2.565   2.328
 8045SOL     OW35063   2.817   2.299   0.836
 8045SOL    HW135064   2.880   2.307   0.914
 8045SOL    HW235065   2.810   2.203   0.809
 8046SOL     OW35066   4.273   2.239   2.009
 8046SOL    HW135067   4.280   2.139   2.004
 8046SOL    HW235068   4.359   2.280   1.980
 8047SOL     OW35069   2.321   2.617   3.415
 8047SOL    HW135070   2.379   2.558   3.470
 8047SOL    HW235071   2.251   2.660   3.473
 8048SOL     OW35072   6.298   7.794   2.194
 8048SOL    HW135073   6.311   7.699   2.225
 8048SOL    HW235074   6.354   7.855   2.249
 8049SOL     OW35075   1.923   7.864   3.516
 8049SOL    HW135076   2.009   7.914   3.528
 8049SOL    HW235077   1.941   7.765   3.517
 8050SOL     OW35078   1.108   3.074   1.318
 8050SOL    HW135079   1.102   2.996   1.381
 8050SOL    HW235080   1.204   3.097   1.303
 8051SOL     OW35081   0.324   7.112   3.336
 8051SOL    HW135082   0.244   7.061   3.305
 8051SOL    HW235083   0.404   7.082   3.284
 8052SOL     OW35084   3.111   7.411   0.944
 8052SOL    HW135085   3.205   7.383   0.962
 8052SOL    HW235086   3.107   7.462   0.858
 8053SOL     OW35087   9.553   5.979   5.086
 8053SOL    HW135088   9.519   5.910   5.022
 8053SOL    HW235089   9.480   6.004   5.150
 8054SOL     OW35090   0.146   2.203   4.375
 8054SOL    HW135091   0.215   2.132   4.366
 8054SOL    HW235092   0.189   2.293   4.373
 8055SOL     OW35093   3.092   8.333   2.890
 8055SOL    HW135094   2.993   8.341   2.901
 8055SOL    HW235095   3.113   8.267   2.818
 8056SOL     OW35096   8.763   4.143   4.549
 8056SOL    HW135097   8.843   4.092   4.580
 8056SOL    HW235098   8.736   4.210   4.620
 8057SOL     OW35099   8.183   8.621   3.716
 8057SOL    HW135100   8.228   8.531   3.720
 8057SOL    HW235101   8.243   8.686   3.669
 8058SOL     OW35102   3.031   1.728   3.327
 8058SOL    HW135103   2.953   1.731   3.389
 8058SOL    HW235104   3.000   1.699   3.236
 8059SOL     OW35105   3.169   3.447   4.592
 8059SOL    HW135106   3.247   3.410   4.541
 8059SOL    HW235107   3.133   3.376   4.653
 8060SOL     OW35108   3.389   0.291   2.550
 8060SOL    HW135109   3.458   0.240   2.498
 8060SOL    HW235110   3.343   0.229   2.613
 8061SOL     OW35111   2.652   0.060   4.177
 8061SOL    HW135112   2.561   0.067   4.135
 8061SOL    HW235113   2.720   0.103   4.117
 8062SOL     OW35114   9.163   8.574   1.069
 8062SOL    HW135115   9.103   8.571   0.989
 8062SOL    HW235116   9.133   8.507   1.136
 8063SOL     OW35117   6.563   9.005   2.947
 8063SOL    HW135118   6.579   9.082   3.009
 8063SOL    HW235119   6.643   8.991   2.888
 8064SOL     OW35120   9.618   7.823   2.153
 8064SOL    HW135121   9.613   7.786   2.060
 8064SOL    HW235122   9.528   7.816   2.196
 8065SOL     OW35123   4.791   3.151   0.624
 8065SOL    HW135124   4.705   3.202   0.626
 8065SOL    HW235125   4.771   3.053   0.611
 8066SOL     OW35126   8.804   3.721   0.782
 8066SOL    HW135127   8.790   3.684   0.874
 8066SOL    HW235128   8.737   3.681   0.719
 8067SOL     OW35129   4.979   8.979   0.536
 8067SOL    HW135130   5.018   9.040   0.467
 8067SOL    HW235131   4.902   8.928   0.496
 8068SOL     OW35132   0.276   3.231   0.407
 8068SOL    HW135133   0.333   3.173   0.349
 8068SOL    HW235134   0.333   3.280   0.473
 8069SOL     OW35135   3.827   8.332   1.827
 8069SOL    HW135136   3.922   8.335   1.797
 8069SOL    HW235137   3.766   8.343   1.748
 8070SOL     OW35138   2.832   0.115   1.948
 8070SOL    HW135139   2.888   0.161   1.879
 8070SOL    HW235140   2.868   0.023   1.964
 8071SOL     OW35141   2.120   7.192   4.809
 8071SOL    HW135142   2.099   7.273   4.754
 8071SOL    HW235143   2.218   7.190   4.830
 8072SOL     OW35144   8.304   8.898   3.813
 8072SOL    HW135145   8.328   8.863   3.723
 8072SOL    HW235146   8.206   8.887   3.828
 8073SOL     OW35147   3.462   2.197   0.693
 8073SOL    HW135148   3.414   2.284   0.688
 8073SOL    HW235149   3.454   2.160   0.785
 8074SOL     OW35150   8.597   2.423   3.162
 8074SOL    HW135151   8.673   2.359   3.171
 8074SOL    HW235152   8.519   2.377   3.121
 8075SOL     OW35153   3.397   7.381   4.527
 8075SOL    HW135154   3.427   7.378   4.622
 8075SOL    HW235155   3.308   7.337   4.519
 8076SOL     OW35156   0.227   8.853   2.273
 8076SOL    HW135157   0.305   8.803   2.234
 8076SOL    HW235158   0.169   8.790   2.325
 8077SOL     OW35159   9.809   9.692   3.147
 8077SOL    HW135160   9.759   9.611   3.118
 8077SOL    HW235161   9.803   9.701   3.246
 8078SOL     OW35162   9.521   6.288   3.913
 8078SOL    HW135163   9.586   6.352   3.871
 8078SOL    HW235164   9.447   6.269   3.849
 8079SOL     OW35165   2.674   3.840   2.807
 8079SOL    HW135166   2.669   3.936   2.836
 8079SOL    HW235167   2.745   3.793   2.860
 8080SOL     OW35168   4.351   0.989   2.593
 8080SOL    HW135169   4.291   0.923   2.637
 8080SOL    HW235170   4.393   0.948   2.512
 8081SOL     OW35171   2.753   4.612   0.082
 8081SOL    HW135172   2.725   4.673   0.156
 8081SOL    HW235173   2.698   4.529   0.086
 8082SOL     OW35174   0.944   7.997   4.382
 8082SOL    HW135175   0.970   8.040   4.296
 8082SOL    HW235176   1.021   7.942   4.416
 8083SOL     OW35177   1.019   2.139   3.098
 8083SOL    HW135178   1.115   2.112   3.090
 8083SOL    HW235179   0.987   2.177   3.011
 8084SOL     OW35180   2.958   3.928   2.574
 8084SOL    HW135181   3.001   3.918   2.484
 8084SOL    HW235182   2.859   3.916   2.565
 8085SOL     OW35183   1.386   0.398   2.975
 8085SOL    HW135184   1.418   0.313   3.017
 8085SOL    HW235185   1.442   0.475   3.007
 8086SOL     OW35186   9.523   2.456   2.934
 8086SOL    HW135187   9.622   2.442   2.935
 8086SOL    HW235188   9.499   2.513   2.855
 8087SOL     OW35189   5.852   9.468   1.304
 8087SOL    HW135190   5.770   9.496   1.254
 8087SOL    HW235191   5.857   9.520   1.390
 8088SOL     OW35192   8.186   0.984   2.212
 8088SOL    HW135193   8.241   0.937   2.142
 8088SOL    HW235194   8.089   0.980   2.186
 8089SOL     OW35195   7.125   8.753   3.393
 8089SOL    HW135196   7.121   8.717   3.487
 8089SOL    HW235197   7.062   8.830   3.385
 8090SOL     OW35198   9.362   9.978   0.266
 8090SOL    HW135199   9.294   9.924   0.315
 8090SOL    HW235200   9.441   9.919   0.245
 8091SOL     OW35201   4.923   4.975   0.336
 8091SOL    HW135202   4.851   5.042   0.318
 8091SOL    HW235203   4.999   4.989   0.273
 8092SOL     OW35204   5.372   0.246   3.286
 8092SOL    HW135205   5.291   0.223   3.231
 8092SOL    HW235206   5.359   0.213   3.379
 8093SOL     OW35207   0.267   1.795   2.350
 8093SOL    HW135208   0.261   1.895   2.352
 8093SOL    HW235209   0.256   1.763   2.256
 8094SOL     OW35210   6.038   0.458   1.113
 8094SOL    HW135211   6.129   0.435   1.149
 8094SOL    HW235212   6.013   0.550   1.141
 8095SOL     OW35213   3.219   6.158   1.918
 8095SOL    HW135214   3.194   6.241   1.968
 8095SOL    HW235215   3.253   6.183   1.827
 8096SOL     OW35216   7.600   4.716   0.281
 8096SOL    HW135217   7.511   4.677   0.255
 8096SOL    HW235218   7.607   4.809   0.245
 8097SOL     OW35219   2.502   1.265   3.289
 8097SOL    HW135220   2.554   1.308   3.215
 8097SOL    HW235221   2.433   1.203   3.249
 8098SOL     OW35222   0.604   9.832   2.579
 8098SOL    HW135223   0.624   9.901   2.509
 8098SOL    HW235224   0.589   9.878   2.667
 8099SOL     OW35225   5.914   2.059   3.133
 8099SOL    HW135226   5.934   1.976   3.080
 8099SOL    HW235227   5.885   2.132   3.070
 8100SOL     OW35228   0.247   1.122   3.440
 8100SOL    HW135229   0.220   1.118   3.344
 8100SOL    HW235230   0.180   1.071   3.495
 8101SOL     OW35231   5.225   3.558   3.125
 8101SOL    HW135232   5.251   3.582   3.031
 8101SOL    HW235233   5.251   3.463   3.143
 8102SOL     OW35234   2.357   2.083   0.397
 8102SOL    HW135235   2.455   2.075   0.378
 8102SOL    HW235236   2.307   2.085   0.310
 8103SOL     OW35237   7.769   3.882   2.739
 8103SOL    HW135238   7.851   3.927   2.775
 8103SOL    HW235239   7.760   3.792   2.780
 8104SOL     OW35240   0.186   7.061   5.181
 8104SOL    HW135241   0.093   7.027   5.168
 8104SOL    HW235242   0.186   7.161   5.175
 8105SOL     OW35243   0.667   7.177   2.687
 8105SOL    HW135244   0.717   7.115   2.626
 8105SOL    HW235245   0.695   7.271   2.669
 8106SOL     OW35246   7.418   8.260   2.596
 8106SOL    HW135247   7.395   8.166   2.620
 8106SOL    HW235248   7.338   8.318   2.609
 8107SOL     OW35249   7.483   1.529   1.119
 8107SOL    HW135250   7.439   1.557   1.205
 8107SOL    HW235251   7.537   1.447   1.134
 8108SOL     OW35252   7.124   9.447   5.178
 8108SOL    HW135253   7.129   9.352   5.210
 8108SOL    HW235254   7.151   9.452   5.082
 8109SOL     OW35255   7.432   9.788   2.503
 8109SOL    HW135256   7.430   9.837   2.416
 8109SOL    HW235257   7.356   9.723   2.506
 8110SOL     OW35258   8.262   1.350   4.684
 8110SOL    HW135259   8.329   1.395   4.625
 8110SOL    HW235260   8.241   1.409   4.762
 8111SOL     OW35261   0.046   6.654   1.494
 8111SOL    HW135262   9.955   6.654   1.534
 8111SOL    HW235263   0.110   6.609   1.557
 8112SOL     OW35264   8.976   1.124   1.864
 8112SOL    HW135265   9.063   1.167   1.840
 8112SOL    HW235266   8.923   1.108   1.780
 8113SOL     OW35267   7.278   0.069   1.332
 8113SOL    HW135268   7.268   0.008   1.411
 8113SOL    HW235269   7.366   0.052   1.287
 8114SOL     OW35270   3.704   9.605   5.190
 8114SOL    HW135271   3.605   9.620   5.182
 8114SOL    HW235272   3.728   9.518   5.146
 8115SOL     OW35273   3.232   1.974   1.877
 8115SOL    HW135274   3.325   1.970   1.915
 8115SOL    HW235275   3.192   2.064   1.897
 8116SOL     OW35276   7.468   8.697   2.332
 8116SOL    HW135277   7.440   8.758   2.406
 8116SOL    HW235278   7.526   8.624   2.369
 8117SOL     OW35279   2.513   5.322   5.123
 8117SOL    HW135280   2.542   5.417   5.137
 8117SOL    HW235281   2.438   5.301   5.185
 8118SOL     OW35282   8.175   5.757   2.653
 8118SOL    HW135283   8.154   5.672   2.702
 8118SOL    HW235284   8.228   5.735   2.571
 8119SOL     OW35285   1.651   0.940   0.352
 8119SOL    HW135286   1.654   0.949   0.452
 8119SOL    HW235287   1.570   0.988   0.317
 8120SOL     OW35288   9.559   0.218   1.673
 8120SOL    HW135289   9.622   0.294   1.660
 8120SOL    HW235290   9.577   0.148   1.603
 8121SOL     OW35291   4.471   8.856   2.930
 8121SOL    HW135292   4.520   8.781   2.974
 8121SOL    HW235293   4.391   8.820   2.881
 8122SOL     OW35294   1.009   6.623   0.426
 8122SOL    HW135295   1.066   6.584   0.498
 8122SOL    HW235296   0.920   6.576   0.425
 8123SOL     OW35297   3.804   3.194   0.055
 8123SOL    HW135298   3.762   3.118   0.105
 8123SOL    HW235299   3.899   3.172   0.034
 8124SOL     OW35300   3.433   2.911   3.419
 8124SOL    HW135301   3.405   2.952   3.506
 8124SOL    HW235302   3.438   2.812   3.429
 8125SOL     OW35303   3.641   4.371   3.539
 8125SOL    HW135304   3.632   4.470   3.538
 8125SOL    HW235305   3.608   4.333   3.453
 8126SOL     OW35306   9.432   0.935   1.500
 8126SOL    HW135307   9.475   0.905   1.585
 8126SOL    HW235308   9.481   1.015   1.465
 8127SOL     OW35309   1.937   2.782   3.040
 8127SOL    HW135310   1.942   2.770   2.941
 8127SOL    HW235311   1.859   2.730   3.076
 8128SOL     OW35312   0.756   9.054   0.241
 8128SOL    HW135313   0.783   9.085   0.332
 8128SOL    HW235314   0.831   9.070   0.176
 8129SOL     OW35315   9.957   9.836   2.170
 8129SOL    HW135316   9.866   9.796   2.182
 8129SOL    HW235317   0.004   9.839   2.258
 8130SOL     OW35318   0.146   3.926   4.107
 8130SOL    HW135319   0.182   3.881   4.190
 8130SOL    HW235320   0.204   4.003   4.083
 8131SOL     OW35321   4.389   0.830   1.093
 8131SOL    HW135322   4.327   0.800   1.020
 8131SOL    HW235323   4.367   0.781   1.177
 8132SOL     OW35324   8.672   2.183   2.917
 8132SOL    HW135325   8.715   2.211   3.003
 8132SOL    HW235326   8.626   2.095   2.930
 8133SOL     OW35327   4.966   9.207   5.220
 8133SOL    HW135328   5.027   9.278   5.187
 8133SOL    HW235329   4.871   9.234   5.205
 8134SOL     OW35330   9.998   9.483   1.732
 8134SOL    HW135331   9.990   9.571   1.779
 8134SOL    HW235332   0.006   9.499   1.634
 8135SOL     OW35333   3.612   1.452   0.531
 8135SOL    HW135334   3.653   1.542   0.540
 8135SOL    HW235335   3.554   1.434   0.611
 8136SOL     OW35336   1.633   9.735   2.591
 8136SOL    HW135337   1.604   9.724   2.496
 8136SOL    HW235338   1.555   9.721   2.651
 8137SOL     OW35339   0.498   5.462   1.114
 8137SOL    HW135340   0.446   5.544   1.138
 8137SOL    HW235341   0.563   5.484   1.041
 8138SOL     OW35342   8.235   3.295   4.549
 8138SOL    HW135343   8.181   3.238   4.611
 8138SOL    HW235344   8.316   3.245   4.520
 8139SOL     OW35345   5.208   6.052   2.193
 8139SOL    HW135346   5.305   6.075   2.181
 8139SOL    HW235347   5.169   6.024   2.106
 8140SOL     OW35348   5.961   0.200   3.841
 8140SOL    HW135349   5.970   0.116   3.895
 8140SOL    HW235350   6.035   0.263   3.866
 8141SOL     OW35351   0.856   4.161   0.702
 8141SOL    HW135352   0.819   4.074   0.667
 8141SOL    HW235353   0.843   4.165   0.801
 8142SOL     OW35354   3.538   3.623   4.723
 8142SOL    HW135355   3.540   3.610   4.822
 8142SOL    HW235356   3.602   3.561   4.678
 8143SOL     OW35357   4.205   8.682   0.460
 8143SOL    HW135358   4.119   8.697   0.509
 8143SOL    HW235359   4.279   8.667   0.527
 8144SOL     OW35360   8.841   0.760   1.694
 8144SOL    HW135361   8.763   0.823   1.698
 8144SOL    HW235362   8.853   0.729   1.600
 8145SOL     OW35363   5.041   1.503   4.108
 8145SOL    HW135364   5.109   1.548   4.167
 8145SOL    HW235365   5.040   1.405   4.128
 8146SOL     OW35366   1.654   8.470   0.670
 8146SOL    HW135367   1.688   8.538   0.606
 8146SOL    HW235368   1.557   8.452   0.651
 8147SOL     OW35369   5.564   9.213   4.268
 8147SOL    HW135370   5.472   9.250   4.278
 8147SOL    HW235371   5.622   9.247   4.342
 8148SOL     OW35372   9.209   7.416   5.211
 8148SOL    HW135373   9.233   7.407   5.308
 8148SOL    HW235374   9.138   7.486   5.201
 8149SOL     OW35375   6.888   2.616   2.732
 8149SOL    HW135376   6.919   2.711   2.725
 8149SOL    HW235377   6.873   2.579   2.641
 8150SOL     OW35378   9.503   0.452   2.368
 8150SOL    HW135379   9.548   0.490   2.287
 8150SOL    HW235380   9.441   0.378   2.340
 8151SOL     OW35381   5.004   3.394   4.680
 8151SOL    HW135382   4.974   3.481   4.720
 8151SOL    HW235383   4.997   3.399   4.580
 8152SOL     OW35384   7.628   2.958   2.924
 8152SOL    HW135385   7.614   3.052   2.954
 8152SOL    HW235386   7.711   2.921   2.967
 8153SOL     OW35387   2.135   8.904   5.146
 8153SOL    HW135388   2.112   8.847   5.068
 8153SOL    HW235389   2.231   8.891   5.170
 8154SOL     OW35390   9.642   1.233   3.849
 8154SOL    HW135391   9.562   1.190   3.891
 8154SOL    HW235392   9.624   1.331   3.837
 8155SOL     OW35393   8.465   9.180   3.050
 8155SOL    HW135394   8.492   9.125   2.970
 8155SOL    HW235395   8.381   9.230   3.029
 8156SOL     OW35396   9.456   1.199   3.115
 8156SOL    HW135397   9.550   1.227   3.133
 8156SOL    HW235398   9.401   1.210   3.198
 8157SOL     OW35399   7.090   7.776   5.115
 8157SOL    HW135400   6.996   7.765   5.082
 8157SOL    HW235401   7.121   7.691   5.157
 8158SOL     OW35402   8.741   3.940   2.934
 8158SOL    HW135403   8.667   3.976   2.991
 8158SOL    HW235404   8.716   3.948   2.838
 8159SOL     OW35405   2.252   0.593   1.419
 8159SOL    HW135406   2.211   0.581   1.510
 8159SOL    HW235407   2.344   0.554   1.418
 8160SOL     OW35408   8.977   3.686   1.512
 8160SOL    HW135409   8.917   3.637   1.449
 8160SOL    HW235410   8.929   3.698   1.600
 8161SOL     OW35411   3.560   7.647   2.120
 8161SOL    HW135412   3.465   7.648   2.149
 8161SOL    HW235413   3.609   7.722   2.165
 8162SOL     OW35414   7.873   1.686   1.160
 8162SOL    HW135415   7.794   1.689   1.221
 8162SOL    HW235416   7.842   1.676   1.066
 8163SOL     OW35417   4.766   8.977   1.447
 8163SOL    HW135418   4.818   8.900   1.483
 8163SOL    HW235419   4.823   9.059   1.446
 8164SOL     OW35420   0.820   3.063   2.496
 8164SOL    HW135421   0.868   3.146   2.522
 8164SOL    HW235422   0.729   3.085   2.463
 8165SOL     OW35423   1.683   5.937   3.295
 8165SOL    HW135424   1.593   5.956   3.335
 8165SOL    HW235425   1.737   6.021   3.294
 8166SOL     OW35426   4.047   5.347   0.731
 8166SOL    HW135427   4.059   5.268   0.671
 8166SOL    HW235428   3.959   5.390   0.713
 8167SOL     OW35429   4.968   5.185   3.649
 8167SOL    HW135430   4.914   5.266   3.670
 8167SOL    HW235431   4.907   5.107   3.633
 8168SOL     OW35432   0.346   0.164   3.462
 8168SOL    HW135433   0.270   0.148   3.399
 8168SOL    HW235434   0.373   0.260   3.459
 8169SOL     OW35435   0.169   4.777   4.059
 8169SOL    HW135436   0.166   4.865   4.106
 8169SOL    HW235437   0.203   4.707   4.121
 8170SOL     OW35438   9.077   0.994   0.802
 8170SOL    HW135439   9.133   0.947   0.870
 8170SOL    HW235440   9.061   0.933   0.724
 8171SOL     OW35441   2.769   8.470   3.469
 8171SOL    HW135442   2.855   8.462   3.419
 8171SOL    HW235443   2.752   8.566   3.491
 8172SOL     OW35444   8.580   4.677   2.245
 8172SOL    HW135445   8.572   4.650   2.150
 8172SOL    HW235446   8.674   4.706   2.265
 8173SOL     OW35447   4.538   7.655   2.749
 8173SOL    HW135448   4.451   7.626   2.708
 8173SOL    HW235449   4.551   7.607   2.836
 8174SOL     OW35450   7.588   8.724   2.811
 8174SOL    HW135451   7.513   8.790   2.803
 8174SOL    HW235452   7.564   8.640   2.763
 8175SOL     OW35453   5.037   3.784   0.093
 8175SOL    HW135454   5.067   3.879   0.082
 8175SOL    HW235455   4.938   3.782   0.106
 8176SOL     OW35456   2.240   6.363   3.718
 8176SOL    HW135457   2.308   6.398   3.653
 8176SOL    HW235458   2.284   6.336   3.803
 8177SOL     OW35459   8.688   3.102   4.340
 8177SOL    HW135460   8.756   3.089   4.412
 8177SOL    HW235461   8.648   3.014   4.314
 8178SOL     OW35462   2.875   8.405   0.353
 8178SOL    HW135463   2.934   8.326   0.369
 8178SOL    HW235464   2.791   8.394   0.406
 8179SOL     OW35465   4.299   9.637   3.750
 8179SOL    HW135466   4.284   9.735   3.763
 8179SOL    HW235467   4.364   9.604   3.819
 8180SOL     OW35468   9.233   8.002   5.063
 8180SOL    HW135469   9.304   8.021   4.995
 8180SOL    HW235470   9.230   8.077   5.129
 8181SOL     OW35471   9.955   7.119   0.343
 8181SOL    HW135472   9.919   7.209   0.366
 8181SOL    HW235473   0.052   7.127   0.319
 8182SOL     OW35474   9.329   8.770   3.320
 8182SOL    HW135475   9.234   8.783   3.291
 8182SOL    HW235476   9.336   8.687   3.376
 8183SOL     OW35477   3.273   4.136   1.939
 8183SOL    HW135478   3.355   4.105   1.987
 8183SOL    HW235479   3.264   4.087   1.852
 8184SOL     OW35480   1.845   1.787   3.753
 8184SOL    HW135481   1.816   1.858   3.818
 8184SOL    HW235482   1.884   1.710   3.804
 8185SOL     OW35483   8.115   4.497   1.280
 8185SOL    HW135484   8.040   4.556   1.311
 8185SOL    HW235485   8.201   4.548   1.283
 8186SOL     OW35486   4.376   3.319   3.637
 8186SOL    HW135487   4.350   3.280   3.726
 8186SOL    HW235488   4.397   3.245   3.573
 8187SOL     OW35489   6.566   2.064   4.180
 8187SOL    HW135490   6.531   1.993   4.242
 8187SOL    HW235491   6.505   2.071   4.101
 8188SOL     OW35492   9.162   0.324   2.689
 8188SOL    HW135493   9.090   0.352   2.626
 8188SOL    HW235494   9.169   0.224   2.690
 8189SOL     OW35495   4.122   8.999   2.573
 8189SOL    HW135496   4.209   8.958   2.544
 8189SOL    HW235497   4.107   9.085   2.524
 8190SOL     OW35498   8.379   5.022   0.449
 8190SOL    HW135499   8.463   5.016   0.395
 8190SOL    HW235500   8.369   4.939   0.505
 8191SOL     OW35501   4.104   6.256   0.772
 8191SOL    HW135502   4.116   6.166   0.730
 8191SOL    HW235503   4.191   6.288   0.809
 8192SOL     OW35504   2.114   1.261   3.793
 8192SOL    HW135505   2.031   1.230   3.747
 8192SOL    HW235506   2.152   1.339   3.744
 8193SOL     OW35507   2.466   0.865   1.384
 8193SOL    HW135508   2.385   0.866   1.325
 8193SOL    HW235509   2.438   0.883   1.478
 8194SOL     OW35510   2.950   6.538   3.637
 8194SOL    HW135511   2.946   6.636   3.619
 8194SOL    HW235512   2.883   6.491   3.579
 8195SOL     OW35513   2.154   0.028   0.556
 8195SOL    HW135514   2.084   0.069   0.499
 8195SOL    HW235515   2.140   0.054   0.651
 8196SOL     OW35516   1.374   5.168   0.729
 8196SOL    HW135517   1.390   5.164   0.827
 8196SOL    HW235518   1.451   5.215   0.685
 8197SOL     OW35519   4.604   4.281   4.710
 8197SOL    HW135520   4.643   4.366   4.674
 8197SOL    HW235521   4.539   4.244   4.645
 8198SOL     OW35522   3.365   6.689   3.195
 8198SOL    HW135523   3.296   6.683   3.122
 8198SOL    HW235524   3.355   6.611   3.257
 8199SOL     OW35525   2.361   9.864   0.503
 8199SOL    HW135526   2.283   9.922   0.526
 8199SOL    HW235527   2.330   9.769   0.492
 8200SOL     OW35528   7.261   4.205   1.428
 8200SOL    HW135529   7.255   4.278   1.360
 8200SOL    HW235530   7.305   4.241   1.511
 8201SOL     OW35531   6.525   9.687   3.051
 8201SOL    HW135532   6.597   9.658   2.989
 8201SOL    HW235533   6.551   9.772   3.096
 8202SOL     OW35534   0.501   8.732   0.760
 8202SOL    HW135535   0.561   8.664   0.802
 8202SOL    HW235536   0.444   8.688   0.691
 8203SOL     OW35537   2.747   5.094   0.064
 8203SOL    HW135538   2.786   5.002   0.071
 8203SOL    HW235539   2.685   5.097   6.734
 8204SOL     OW35540   7.900   6.325   2.942
 8204SOL    HW135541   7.972   6.350   2.877
 8204SOL    HW235542   7.846   6.406   2.966
 8205SOL     OW35543   3.567   9.549   4.453
 8205SOL    HW135544   3.621   9.626   4.420
 8205SOL    HW235545   3.599   9.464   4.410
 8206SOL     OW35546   4.635   9.042   5.106
 8206SOL    HW135547   4.550   9.061   5.057
 8206SOL    HW235548   4.669   9.126   5.147
 8207SOL     OW35549   2.052   8.916   3.241
 8207SOL    HW135550   2.053   8.996   3.181
 8207SOL    HW235551   2.073   8.834   3.189
 8208SOL     OW35552   1.939   1.300   3.077
 8208SOL    HW135553   1.865   1.248   3.034
 8208SOL    HW235554   1.907   1.393   3.096
 8209SOL     OW35555   4.991   7.278   1.908
 8209SOL    HW135556   4.976   7.314   1.816
 8209SOL    HW235557   4.989   7.353   1.974
 8210SOL     OW35558   2.612   4.307   4.121
 8210SOL    HW135559   2.634   4.279   4.028
 8210SOL    HW235560   2.679   4.375   4.152
 8211SOL     OW35561   1.682   9.387   2.276
 8211SOL    HW135562   1.591   9.398   2.315
 8211SOL    HW235563   1.684   9.305   2.219
 8212SOL     OW35564   8.367   9.837   1.128
 8212SOL    HW135565   8.328   9.848   1.219
 8212SOL    HW235566   8.467   9.846   1.134
 8213SOL     OW35567   1.329   7.556   2.569
 8213SOL    HW135568   1.369   7.617   2.500
 8213SOL    HW235569   1.241   7.521   2.536
 8214SOL     OW35570   4.902   5.803   2.404
 8214SOL    HW135571   4.839   5.802   2.482
 8214SOL    HW235572   4.872   5.872   2.337
 8215SOL     OW35573   3.868   9.483   3.964
 8215SOL    HW135574   3.939   9.500   3.895
 8215SOL    HW235575   3.892   9.529   4.049
 8216SOL     OW35576   0.954   3.154   4.031
 8216SOL    HW135577   0.864   3.166   4.073
 8216SOL    HW235578   0.964   3.217   3.954
 8217SOL     OW35579   0.971   7.556   1.786
 8217SOL    HW135580   0.978   7.542   1.687
 8217SOL    HW235581   1.051   7.515   1.831
 8218SOL     OW35582   2.534   4.171   0.799
 8218SOL    HW135583   2.447   4.129   0.824
 8218SOL    HW235584   2.561   4.236   0.870
 8219SOL     OW35585   3.259   9.687   1.917
 8219SOL    HW135586   3.340   9.639   1.953
 8219SOL    HW235587   3.179   9.661   1.972
 8220SOL     OW35588   5.140   7.690   3.317
 8220SOL    HW135589   5.200   7.733   3.384
 8220SOL    HW235590   5.065   7.643   3.365
 8221SOL     OW35591   3.477   0.242   1.157
 8221SOL    HW135592   3.447   0.201   1.071
 8221SOL    HW235593   3.552   0.188   1.195
 8222SOL     OW35594   2.649   4.286   0.577
 8222SOL    HW135595   2.618   4.227   0.502
 8222SOL    HW235596   2.606   4.256   0.662
 8223SOL     OW35597   4.520   0.691   3.526
 8223SOL    HW135598   4.618   0.711   3.527
 8223SOL    HW235599   4.498   0.642   3.441
 8224SOL     OW35600   8.066   1.914   2.185
 8224SOL    HW135601   8.072   2.014   2.187
 8224SOL    HW235602   8.148   1.877   2.141
 8225SOL     OW35603   5.140   1.829   0.391
 8225SOL    HW135604   5.090   1.805   0.308
 8225SOL    HW235605   5.206   1.757   0.412
 8226SOL     OW35606   5.234   8.613   1.791
 8226SOL    HW135607   5.167   8.561   1.844
 8226SOL    HW235608   5.326   8.589   1.821
 8227SOL     OW35609   3.730   1.279   3.773
 8227SOL    HW135610   3.675   1.229   3.840
 8227SOL    HW235611   3.780   1.215   3.716
 8228SOL     OW35612   2.649   4.596   4.382
 8228SOL    HW135613   2.568   4.636   4.424
 8228SOL    HW235614   2.699   4.542   4.450
 8229SOL     OW35615   1.092   4.007   1.820
 8229SOL    HW135616   1.054   4.068   1.751
 8229SOL    HW235617   1.177   3.967   1.786
 8230SOL     OW35618   0.255   6.800   0.635
 8230SOL    HW135619   0.276   6.831   0.542
 8230SOL    HW235620   0.210   6.711   0.631
 8231SOL     OW35621   6.755   1.128   4.065
 8231SOL    HW135622   6.785   1.051   4.008
 8231SOL    HW235623   6.824   1.145   4.136
 8232SOL     OW35624   8.149   2.526   4.665
 8232SOL    HW135625   8.072   2.507   4.604
 8232SOL    HW235626   8.234   2.522   4.612
 8233SOL     OW35627   0.884   6.052   0.186
 8233SOL    HW135628   0.942   6.114   0.239
 8233SOL    HW235629   0.866   5.969   0.238
 8234SOL     OW35630   9.430   9.292   1.877
 8234SOL    HW135631   9.369   9.331   1.946
 8234SOL    HW235632   9.504   9.242   1.921
 8235SOL     OW35633   9.692   8.829   1.368
 8235SOL    HW135634   9.735   8.839   1.279
 8235SOL    HW235635   9.691   8.917   1.415
 8236SOL     OW35636   1.581   0.486   4.401
 8236SOL    HW135637   1.545   0.431   4.476
 8236SOL    HW235638   1.610   0.575   4.436
 8237SOL     OW35639   2.011   9.696   5.113
 8237SOL    HW135640   2.042   9.676   5.020
 8237SOL    HW235641   2.020   9.794   5.130
 8238SOL     OW35642   4.150   2.126   4.270
 8238SOL    HW135643   4.153   2.226   4.263
 8238SOL    HW235644   4.212   2.086   4.203
 8239SOL     OW35645   6.530   0.180   3.094
 8239SOL    HW135646   6.628   0.163   3.088
 8239SOL    HW235647   6.480   0.094   3.078
 8240SOL     OW35648   3.676   1.796   2.693
 8240SOL    HW135649   3.608   1.798   2.766
 8240SOL    HW235650   3.751   1.858   2.715
 8241SOL     OW35651   3.033   2.253   4.654
 8241SOL    HW135652   3.034   2.172   4.713
 8241SOL    HW235653   3.057   2.227   4.560
 8242SOL     OW35654   5.434   0.532   3.888
 8242SOL    HW135655   5.455   0.590   3.809
 8242SOL    HW235656   5.382   0.452   3.856
 8243SOL     OW35657   3.587   4.723   0.911
 8243SOL    HW135658   3.655   4.684   0.849
 8243SOL    HW235659   3.532   4.648   0.950
 8244SOL     OW35660   0.860   1.509   1.943
 8244SOL    HW135661   0.866   1.554   2.032
 8244SOL    HW235662   0.945   1.525   1.892
 8245SOL     OW35663   5.136   5.228   1.428
 8245SOL    HW135664   5.199   5.152   1.444
 8245SOL    HW235665   5.187   5.314   1.435
 8246SOL     OW35666   4.863   5.809   1.015
 8246SOL    HW135667   4.770   5.775   1.020
 8246SOL    HW235668   4.864   5.908   1.030
 8247SOL     OW35669   8.475   5.472   0.848
 8247SOL    HW135670   8.553   5.412   0.829
 8247SOL    HW235671   8.427   5.492   0.762
 8248SOL     OW35672   3.795   7.432   4.751
 8248SOL    HW135673   3.745   7.431   4.664
 8248SOL    HW235674   3.794   7.524   4.789
 8249SOL     OW35675   7.780   9.605   4.091
 8249SOL    HW135676   7.864   9.568   4.050
 8249SOL    HW235677   7.703   9.590   4.029
 8250SOL     OW35678   0.750   2.104   3.476
 8250SOL    HW135679   0.663   2.121   3.522
 8250SOL    HW235680   0.816   2.067   3.542
 8251SOL     OW35681   8.771   7.534   0.163
 8251SOL    HW135682   8.860   7.553   0.121
 8251SOL    HW235683   8.771   7.441   0.200
 8252SOL     OW35684   3.280   8.842   4.265
 8252SOL    HW135685   3.318   8.752   4.243
 8252SOL    HW235686   3.233   8.879   4.185
 8253SOL     OW35687   4.310   3.760   3.972
 8253SOL    HW135688   4.377   3.704   3.923
 8253SOL    HW235689   4.231   3.704   3.996
 8254SOL     OW35690   6.695   8.765   2.120
 8254SOL    HW135691   6.613   8.735   2.071
 8254SOL    HW235692   6.708   8.863   2.105
 8255SOL     OW35693   2.926   0.588   4.365
 8255SOL    HW135694   2.954   0.510   4.309
 8255SOL    HW235695   2.932   0.672   4.311
 8256SOL     OW35696   3.811   2.700   4.415
 8256SOL    HW135697   3.851   2.791   4.404
 8256SOL    HW235698   3.713   2.708   4.428
 8257SOL     OW35699   0.236   8.993   1.118
 8257SOL    HW135700   0.172   8.941   1.175
 8257SOL    HW235701   0.294   8.930   1.067
 8258SOL     OW35702   4.095   8.329   1.786
 8258SOL    HW135703   4.149   8.250   1.756
 8258SOL    HW235704   4.153   8.411   1.786
 8259SOL     OW35705   6.219   9.666   3.864
 8259SOL    HW135706   6.216   9.732   3.938
 8259SOL    HW235707   6.176   9.705   3.782
 8260SOL     OW35708   9.187   8.505   0.548
 8260SOL    HW135709   9.250   8.531   0.622
 8260SOL    HW235710   9.099   8.551   0.561
 8261SOL     OW35711   3.741   1.890   4.288
 8261SOL    HW135712   3.673   1.938   4.343
 8261SOL    HW235713   3.709   1.798   4.268
 8262SOL     OW35714   0.520   1.438   1.632
 8262SOL    HW135715   0.424   1.412   1.641
 8262SOL    HW235716   0.556   1.465   1.721
 8263SOL     OW35717   5.241   0.233   2.022
 8263SOL    HW135718   5.178   0.299   1.982
 8263SOL    HW235719   5.251   0.252   2.120
 8264SOL     OW35720   1.158   4.375   5.255
 8264SOL    HW135721   1.257   4.373   5.241
 8264SOL    HW235722   1.137   4.371   5.352
 8265SOL     OW35723   0.969   5.515   0.728
 8265SOL    HW135724   1.026   5.596   0.713
 8265SOL    HW235725   0.957   5.501   0.826
 8266SOL     OW35726   9.851   5.776   3.385
 8266SOL    HW135727   9.861   5.678   3.367
 8266SOL    HW235728   9.758   5.795   3.417
 8267SOL     OW35729   8.056   9.514   0.342
 8267SOL    HW135730   7.970   9.528   0.293
 8267SOL    HW235731   8.133   9.527   0.280
 8268SOL     OW35732   8.041   9.225   4.240
 8268SOL    HW135733   8.032   9.143   4.184
 8268SOL    HW235734   7.953   9.248   4.280
 8269SOL     OW35735   6.799   9.515   4.977
 8269SOL    HW135736   6.848   9.554   5.055
 8269SOL    HW235737   6.864   9.490   4.906
 8270SOL     OW35738   5.588   1.595   0.856
 8270SOL    HW135739   5.560   1.689   0.838
 8270SOL    HW235740   5.656   1.593   0.929
 8271SOL     OW35741   1.290   6.994   2.319
 8271SOL    HW135742   1.357   7.050   2.368
 8271SOL    HW235743   1.268   7.037   2.231
 8272SOL     OW35744   7.216   9.159   2.913
 8272SOL    HW135745   7.162   9.182   2.994
 8272SOL    HW235746   7.156   9.124   2.841
 8273SOL     OW35747   7.582   0.400   1.043
 8273SOL    HW135748   7.594   0.433   1.137
 8273SOL    HW235749   7.664   0.351   1.014
 8274SOL     OW35750   8.759   7.329   2.286
 8274SOL    HW135751   8.735   7.316   2.190
 8274SOL    HW235752   8.838   7.390   2.293
 8275SOL     OW35753   0.828   4.834   0.706
 8275SOL    HW135754   0.830   4.734   0.704
 8275SOL    HW235755   0.773   4.864   0.784
 8276SOL     OW35756   2.479   0.935   0.714
 8276SOL    HW135757   2.490   0.835   0.717
 8276SOL    HW235758   2.438   0.961   0.627
 8277SOL     OW35759   5.006   8.124   4.095
 8277SOL    HW135760   5.105   8.138   4.106
 8277SOL    HW235761   4.985   8.027   4.101
 8278SOL     OW35762   8.445   7.730   4.579
 8278SOL    HW135763   8.470   7.709   4.674
 8278SOL    HW235764   8.514   7.789   4.539
 8279SOL     OW35765   8.360   5.469   2.332
 8279SOL    HW135766   8.357   5.369   2.339
 8279SOL    HW235767   8.412   5.495   2.251
 8280SOL     OW35768   8.027   3.371   1.496
 8280SOL    HW135769   8.104   3.413   1.544
 8280SOL    HW235770   8.011   3.279   1.532
 8281SOL     OW35771   6.358   4.501   0.933
 8281SOL    HW135772   6.410   4.557   0.868
 8281SOL    HW235773   6.387   4.406   0.925
 8282SOL     OW35774   3.176   2.483   0.329
 8282SOL    HW135775   3.256   2.532   0.363
 8282SOL    HW235776   3.092   2.527   0.362
 8283SOL     OW35777   0.190   1.962   0.989
 8283SOL    HW135778   0.121   2.020   0.946
 8283SOL    HW235779   0.207   1.882   0.932
 8284SOL     OW35780   8.186   6.715   4.166
 8284SOL    HW135781   8.156   6.804   4.130
 8284SOL    HW235782   8.116   6.678   4.227
 8285SOL     OW35783   5.174   2.779   4.212
 8285SOL    HW135784   5.113   2.858   4.220
 8285SOL    HW235785   5.129   2.698   4.249
 8286SOL     OW35786   6.752   1.252   0.558
 8286SOL    HW135787   6.796   1.162   0.559
 8286SOL    HW235788   6.780   1.302   0.640
 8287SOL     OW35789   2.126   5.493   4.870
 8287SOL    HW135790   2.189   5.418   4.852
 8287SOL    HW235791   2.139   5.526   4.963
 8288SOL     OW35792   3.045   1.610   2.230
 8288SOL    HW135793   3.078   1.525   2.188
 8288SOL    HW235794   3.082   1.688   2.180
 8289SOL     OW35795   2.772   9.904   0.583
 8289SOL    HW135796   2.723   9.882   0.499
 8289SOL    HW235797   2.803  10.000   0.579
 8290SOL     OW35798   9.643   1.311   1.225
 8290SOL    HW135799   9.556   1.337   1.183
 8290SOL    HW235800   9.625   1.253   1.305
 8291SOL     OW35801   7.827   0.748   4.743
 8291SOL    HW135802   7.844   0.842   4.772
 8291SOL    HW235803   7.885   0.726   4.665
 8292SOL     OW35804   3.936   8.851   3.759
 8292SOL    HW135805   3.854   8.902   3.787
 8292SOL    HW235806   3.958   8.784   3.830
 8293SOL     OW35807   9.171   9.818   0.377
 8293SOL    HW135808   9.182   9.719   0.381
 8293SOL    HW235809   9.095   9.845   0.436
 8294SOL     OW35810   4.811   1.638   0.286
 8294SOL    HW135811   4.796   1.736   0.299
 8294SOL    HW235812   4.905   1.623   0.253
 8295SOL     OW35813   3.350   6.890   1.401
 8295SOL    HW135814   3.413   6.902   1.478
 8295SOL    HW235815   3.272   6.952   1.412
 8296SOL     OW35816   4.720   5.803   2.604
 8296SOL    HW135817   4.680   5.855   2.679
 8296SOL    HW235818   4.677   5.712   2.600
 8297SOL     OW35819   2.227   3.381   4.137
 8297SOL    HW135820   2.151   3.317   4.151
 8297SOL    HW235821   2.304   3.334   4.094
 8298SOL     OW35822   6.240   0.481   3.160
 8298SOL    HW135823   6.264   0.530   3.076
 8298SOL    HW235824   6.148   0.442   3.151
 8299SOL     OW35825   1.506   6.903   0.546
 8299SOL    HW135826   1.564   6.913   0.465
 8299SOL    HW235827   1.497   6.806   0.569
 8300SOL     OW35828   4.580   2.436   4.803
 8300SOL    HW135829   4.541   2.433   4.895
 8300SOL    HW235830   4.630   2.351   4.785
 8301SOL     OW35831   2.100   0.585   2.778
 8301SOL    HW135832   2.138   0.672   2.811
 8301SOL    HW235833   2.154   0.509   2.814
 8302SOL     OW35834   0.343   6.628   4.983
 8302SOL    HW135835   0.395   6.710   4.959
 8302SOL    HW235836   0.372   6.595   5.073
 8303SOL     OW35837   1.961   9.708   1.272
 8303SOL    HW135838   1.885   9.691   1.335
 8303SOL    HW235839   1.936   9.677   1.180
 8304SOL     OW35840   2.549   3.920   3.188
 8304SOL    HW135841   2.515   3.867   3.110
 8304SOL    HW235842   2.634   3.966   3.164
 8305SOL     OW35843   6.100   0.450   1.545
 8305SOL    HW135844   6.181   0.399   1.571
 8305SOL    HW235845   6.122   0.547   1.538
 8306SOL     OW35846   8.901   0.531   3.206
 8306SOL    HW135847   8.826   0.596   3.218
 8306SOL    HW235848   8.958   0.560   3.130
 8307SOL     OW35849   3.432   5.828   0.481
 8307SOL    HW135850   3.357   5.767   0.506
 8307SOL    HW235851   3.401   5.893   0.411
 8308SOL     OW35852   0.554   5.304   5.148
 8308SOL    HW135853   0.465   5.270   5.117
 8308SOL    HW235854   0.590   5.243   5.219
 8309SOL     OW35855   0.549   3.731   2.980
 8309SOL    HW135856   0.514   3.695   2.894
 8309SOL    HW235857   0.645   3.704   2.991
 8310SOL     OW35858   5.965   9.967   3.996
 8310SOL    HW135859   6.055   9.935   4.026
 8310SOL    HW235860   5.906   9.889   3.978
 8311SOL     OW35861   4.121   6.859   1.324
 8311SOL    HW135862   4.203   6.819   1.283
 8311SOL    HW235863   4.115   6.956   1.300
 8312SOL     OW35864   9.039   7.748   2.791
 8312SOL    HW135865   8.989   7.663   2.799
 8312SOL    HW235866   9.118   7.746   2.853
 8313SOL     OW35867   3.714   7.455   3.501
 8313SOL    HW135868   3.630   7.481   3.455
 8313SOL    HW235869   3.788   7.446   3.434
 8314SOL     OW35870   2.799   6.041   3.342
 8314SOL    HW135871   2.865   6.098   3.391
 8314SOL    HW235872   2.835   5.948   3.334
 8315SOL     OW35873   4.884   0.128   2.194
 8315SOL    HW135874   4.800   0.174   2.163
 8315SOL    HW235875   4.932   0.186   2.259
 8316SOL     OW35876   9.866   2.084   3.200
 8316SOL    HW135877   9.899   2.080   3.294
 8316SOL    HW235878   9.773   2.048   3.196
 8317SOL     OW35879   9.269   3.679   3.582
 8317SOL    HW135880   9.205   3.724   3.644
 8317SOL    HW235881   9.221   3.654   3.498
 8318SOL     OW35882   8.208   5.825   1.900
 8318SOL    HW135883   8.139   5.796   1.966
 8318SOL    HW235884   8.236   5.746   1.845
 8319SOL     OW35885   0.070   5.656   0.243
 8319SOL    HW135886   0.165   5.685   0.259
 8319SOL    HW235887   0.062   5.558   0.259
 8320SOL     OW35888   8.245   7.992   3.446
 8320SOL    HW135889   8.146   8.002   3.459
 8320SOL    HW235890   8.284   8.080   3.419
 8321SOL     OW35891   7.887   3.090   4.206
 8321SOL    HW135892   7.868   3.115   4.111
 8321SOL    HW235893   7.965   3.029   4.210
 8322SOL     OW35894   8.288   0.588   1.213
 8322SOL    HW135895   8.217   0.654   1.235
 8322SOL    HW235896   8.334   0.615   1.129
 8323SOL     OW35897   6.014   1.377   2.457
 8323SOL    HW135898   5.965   1.302   2.502
 8323SOL    HW235899   6.061   1.432   2.526
 8324SOL     OW35900   5.804   1.223   4.488
 8324SOL    HW135901   5.802   1.314   4.530
 8324SOL    HW235902   5.729   1.168   4.524
 8325SOL     OW35903   5.932   4.983   1.225
 8325SOL    HW135904   6.010   4.964   1.166
 8325SOL    HW235905   5.963   5.031   1.307
 8326SOL     OW35906   1.016   1.179   5.016
 8326SOL    HW135907   1.100   1.131   4.990
 8326SOL    HW235908   0.965   1.123   5.082
 8327SOL     OW35909   7.482   7.659   4.714
 8327SOL    HW135910   7.429   7.633   4.795
 8327SOL    HW235911   7.524   7.578   4.674
 8328SOL     OW35912   0.771   4.964   2.866
 8328SOL    HW135913   0.851   4.906   2.858
 8328SOL    HW235914   0.704   4.921   2.926
 8329SOL     OW35915   9.431   3.856   4.425
 8329SOL    HW135916   9.333   3.866   4.440
 8329SOL    HW235917   9.447   3.792   4.350
 8330SOL     OW35918   6.220   0.779   2.364
 8330SOL    HW135919   6.242   0.793   2.461
 8330SOL    HW235920   6.177   0.690   2.353
 8331SOL     OW35921   9.509   4.333   1.747
 8331SOL    HW135922   9.464   4.245   1.762
 8331SOL    HW235923   9.597   4.318   1.701
 8332SOL     OW35924   8.153   1.967   1.697
 8332SOL    HW135925   8.137   1.921   1.609
 8332SOL    HW235926   8.229   1.923   1.744
 8333SOL     OW35927   6.819   1.010   4.685
 8333SOL    HW135928   6.814   1.106   4.660
 8333SOL    HW235929   6.772   0.996   4.772
 8334SOL     OW35930   3.441   2.076   0.939
 8334SOL    HW135931   3.406   1.986   0.914
 8334SOL    HW235932   3.523   2.066   0.995
 8335SOL     OW35933   0.774   4.382   1.245
 8335SOL    HW135934   0.753   4.458   1.306
 8335SOL    HW235935   0.723   4.301   1.273
 8336SOL     OW35936   9.467   9.887   3.375
 8336SOL    HW135937   9.539   9.893   3.306
 8336SOL    HW235938   9.509   9.876   3.465
 8337SOL     OW35939   1.022   4.563   0.935
 8337SOL    HW135940   1.077   4.540   1.016
 8337SOL    HW235941   1.082   4.574   0.856
 8338SOL     OW35942   9.047   4.343   0.607
 8338SOL    HW135943   8.984   4.336   0.684
 8338SOL    HW235944   9.019   4.280   0.535
 8339SOL     OW35945   2.371   6.314   2.579
 8339SOL    HW135946   2.348   6.379   2.651
 8339SOL    HW235947   2.461   6.337   2.541
 8340SOL     OW35948   1.758   2.142   2.217
 8340SOL    HW135949   1.786   2.237   2.222
 8340SOL    HW235950   1.714   2.125   2.128
 8341SOL     OW35951   4.898   7.790   3.837
 8341SOL    HW135952   4.993   7.763   3.823
 8341SOL    HW235953   4.884   7.880   3.796
 8342SOL     OW35954   4.044   3.319   4.654
 8342SOL    HW135955   3.991   3.337   4.737
 8342SOL    HW235956   4.045   3.400   4.597
 8343SOL     OW35957   7.123   9.274   3.808
 8343SOL    HW135958   7.078   9.194   3.848
 8343SOL    HW235959   7.071   9.305   3.729
 8344SOL     OW35960   2.023   2.485   3.277
 8344SOL    HW135961   2.091   2.533   3.222
 8344SOL    HW235962   1.979   2.549   3.340
 8345SOL     OW35963   6.452   0.341   3.696
 8345SOL    HW135964   6.456   0.371   3.791
 8345SOL    HW235965   6.388   0.400   3.645
 8346SOL     OW35966   2.894   2.521   4.339
 8346SOL    HW135967   2.894   2.446   4.273
 8346SOL    HW235968   2.872   2.486   4.430
 8347SOL     OW35969   0.895   5.187   1.599
 8347SOL    HW135970   0.949   5.202   1.682
 8347SOL    HW235971   0.956   5.177   1.520
 8348SOL     OW35972   6.333   0.676   3.335
 8348SOL    HW135973   6.317   0.596   3.277
 8348SOL    HW235974   6.260   0.743   3.322
 8349SOL     OW35975   0.593   0.191   1.727
 8349SOL    HW135976   0.677   0.154   1.687
 8349SOL    HW235977   0.584   0.288   1.702
 8350SOL     OW35978   4.218   7.939   2.836
 8350SOL    HW135979   4.316   7.940   2.817
 8350SOL    HW235980   4.168   7.972   2.756
 8351SOL     OW35981   0.382   8.055   3.587
 8351SOL    HW135982   0.354   7.966   3.550
 8351SOL    HW235983   0.444   8.100   3.523
 8352SOL     OW35984   1.777   6.403   3.579
 8352SOL    HW135985   1.722   6.451   3.512
 8352SOL    HW235986   1.872   6.436   3.575
 8353SOL     OW35987   8.788   6.084   3.669
 8353SOL    HW135988   8.844   6.009   3.704
 8353SOL    HW235989   8.693   6.072   3.698
 8354SOL     OW35990   5.510   0.057   4.076
 8354SOL    HW135991   5.462   0.138   4.110
 8354SOL    HW235992   5.606   0.062   4.103
 8355SOL     OW35993   8.596   9.015   3.222
 8355SOL    HW135994   8.540   9.075   3.166
 8355SOL    HW235995   8.597   9.048   3.316
 8356SOL     OW35996   1.809   0.433   4.106
 8356SOL    HW135997   1.866   0.383   4.171
 8356SOL    HW235998   1.826   0.531   4.115
 8357SOL     OW35999   7.630   5.162   0.720
 8357SOL    HW136000   7.729   5.157   0.711
 8357SOL    HW236001   7.595   5.074   0.750
 8358SOL     OW36002   4.721   0.677   0.487
 8358SOL    HW136003   4.716   0.701   0.390
 8358SOL    HW236004   4.796   0.613   0.502
 8359SOL     OW36005   5.858   8.993   4.265
 8359SOL    HW136006   5.791   9.001   4.191
 8359SOL    HW236007   5.813   9.010   4.353
 8360SOL     OW36008   3.522   1.034   0.898
 8360SOL    HW136009   3.499   1.128   0.876
 8360SOL    HW236010   3.483   1.009   0.986
 8361SOL     OW36011   1.765   6.321   4.853
 8361SOL    HW136012   1.722   6.392   4.797
 8361SOL    HW236013   1.791   6.244   4.795
 8362SOL     OW36014   7.726   9.099   4.559
 8362SOL    HW136015   7.741   9.012   4.607
 8362SOL    HW236016   7.766   9.174   4.612
 8363SOL     OW36017   5.727   9.483   5.049
 8363SOL    HW136018   5.633   9.514   5.059
 8363SOL    HW236019   5.767   9.523   4.967
 8364SOL     OW36020   1.228   5.252   3.664
 8364SOL    HW136021   1.263   5.345   3.674
 8364SOL    HW236022   1.130   5.256   3.645
 8365SOL     OW36023   1.286   0.012   4.300
 8365SOL    HW136024   1.326   9.930   4.340
 8365SOL    HW236025   1.337   0.037   4.217
 8366SOL     OW36026   6.521   1.095   4.209
 8366SOL    HW136027   6.603   1.113   4.154
 8366SOL    HW236028   6.540   1.118   4.305
 8367SOL     OW36029   6.348   1.309   4.439
 8367SOL    HW136030   6.436   1.263   4.452
 8367SOL    HW236031   6.330   1.319   4.341
 8368SOL     OW36032   8.684   7.675   2.508
 8368SOL    HW136033   8.745   7.737   2.557
 8368SOL    HW236034   8.710   7.671   2.412
 8369SOL     OW36035   1.337   1.797   2.276
 8369SOL    HW136036   1.417   1.829   2.225
 8369SOL    HW236037   1.353   1.703   2.308
 8370SOL     OW36038   0.278   1.237   2.922
 8370SOL    HW136039   0.323   1.324   2.903
 8370SOL    HW236040   0.346   1.165   2.927
 8371SOL     OW36041   9.840   9.547   2.404
 8371SOL    HW136042   9.809   9.614   2.338
 8371SOL    HW236043   9.825   9.455   2.368
 8372SOL     OW36044   1.740   4.636   1.455
 8372SOL    HW136045   1.785   4.696   1.521
 8372SOL    HW236046   1.705   4.691   1.378
 8373SOL     OW36047   5.277   8.153   4.089
 8373SOL    HW136048   5.326   8.172   4.004
 8373SOL    HW236049   5.312   8.214   4.161
 8374SOL     OW36050   8.868   4.929   3.581
 8374SOL    HW136051   8.927   4.857   3.617
 8374SOL    HW236052   8.908   4.967   3.497
 8375SOL     OW36053   2.274   6.063   2.200
 8375SOL    HW136054   2.339   6.112   2.143
 8375SOL    HW236055   2.304   6.068   2.296
 8376SOL     OW36056   4.081   6.753   2.825
 8376SOL    HW136057   4.166   6.701   2.811
 8376SOL    HW236058   4.080   6.833   2.765
 8377SOL     OW36059   0.579   5.828   6.725
 8377SOL    HW136060   0.579   5.797   0.071
 8377SOL    HW236061   0.615   5.921   6.721
 8378SOL     OW36062   9.215   2.255   4.959
 8378SOL    HW136063   9.168   2.243   5.047
 8378SOL    HW236064   9.174   2.194   4.891
 8379SOL     OW36065   1.818   2.907   2.092
 8379SOL    HW136066   1.862   2.960   2.020
 8379SOL    HW236067   1.887   2.863   2.149
 8380SOL     OW36068   9.611   3.032   1.778
 8380SOL    HW136069   9.538   2.981   1.822
 8380SOL    HW236070   9.626   2.998   1.686
 8381SOL     OW36071   9.784   1.422   4.772
 8381SOL    HW136072   9.843   1.417   4.852
 8381SOL    HW236073   9.710   1.356   4.780
 8382SOL     OW36074   8.197   0.111   0.136
 8382SOL    HW136075   8.142   0.031   0.112
 8382SOL    HW236076   8.255   0.136   0.059
 8383SOL     OW36077   3.211   6.491   4.895
 8383SOL    HW136078   3.132   6.446   4.938
 8383SOL    HW236079   3.189   6.514   4.800
 8384SOL     OW36080   8.395   0.427   0.232
 8384SOL    HW136081   8.434   0.373   0.157
 8384SOL    HW236082   8.410   0.379   0.319
 8385SOL     OW36083   4.772   3.175   4.200
 8385SOL    HW136084   4.691   3.120   4.181
 8385SOL    HW236085   4.746   3.271   4.214
 8386SOL     OW36086   3.551   9.013   2.365
 8386SOL    HW136087   3.624   9.076   2.338
 8386SOL    HW236088   3.509   8.974   2.283
 8387SOL     OW36089   0.474   0.725   2.088
 8387SOL    HW136090   0.559   0.682   2.120
 8387SOL    HW236091   0.427   0.768   2.165
 8388SOL     OW36092   2.467   7.414   4.825
 8388SOL    HW136093   2.546   7.405   4.765
 8388SOL    HW236094   2.438   7.323   4.856
 8389SOL     OW36095   0.186   2.517   1.556
 8389SOL    HW136096   0.156   2.435   1.605
 8389SOL    HW236097   0.265   2.557   1.602
 8390SOL     OW36098   4.374   8.275   4.376
 8390SOL    HW136099   4.344   8.221   4.454
 8390SOL    HW236100   4.375   8.217   4.294
 8391SOL     OW36101   1.496   1.071   2.141
 8391SOL    HW136102   1.548   1.074   2.056
 8391SOL    HW236103   1.560   1.068   2.219
 8392SOL     OW36104   0.654   7.196   1.332
 8392SOL    HW136105   0.682   7.140   1.253
 8392SOL    HW236106   0.648   7.292   1.304
 8393SOL     OW36107   9.152   3.873   4.425
 8393SOL    HW136108   9.108   3.930   4.356
 8393SOL    HW236109   9.117   3.897   4.516
 8394SOL     OW36110   2.754   6.735   3.304
 8394SOL    HW136111   2.836   6.717   3.249
 8394SOL    HW236112   2.776   6.724   3.401
 8395SOL     OW36113   8.462   6.808   2.703
 8395SOL    HW136114   8.457   6.719   2.657
 8395SOL    HW236115   8.371   6.848   2.706
 8396SOL     OW36116   8.599   0.885   0.636
 8396SOL    HW136117   8.685   0.888   0.584
 8396SOL    HW236118   8.527   0.928   0.583
 8397SOL     OW36119   1.396   7.697   3.624
 8397SOL    HW136120   1.340   7.659   3.697
 8397SOL    HW236121   1.413   7.627   3.555
 8398SOL     OW36122   9.996   8.218   2.941
 8398SOL    HW136123   9.964   8.133   2.898
 8398SOL    HW236124   0.084   8.244   2.900
 8399SOL     OW36125   0.809   0.224   2.339
 8399SOL    HW136126   0.892   0.173   2.315
 8399SOL    HW236127   0.815   0.254   2.434
 8400SOL     OW36128   1.025   9.630   4.568
 8400SOL    HW136129   0.942   9.628   4.623
 8400SOL    HW236130   1.098   9.677   4.619
 8401SOL     OW36131   2.084   6.949   3.511
 8401SOL    HW136132   2.048   7.041   3.529
 8401SOL    HW236133   2.018   6.897   3.459
 8402SOL     OW36134   6.232   0.727   2.639
 8402SOL    HW136135   6.273   0.787   2.707
 8402SOL    HW236136   6.267   0.634   2.650
 8403SOL     OW36137   0.034   9.937   4.101
 8403SOL    HW136138   0.102   9.865   4.093
 8403SOL    HW236139   9.943   9.897   4.110
 8404SOL     OW36140   1.809   5.103   2.214
 8404SOL    HW136141   1.806   5.186   2.271
 8404SOL    HW236142   1.890   5.049   2.240
 8405SOL     OW36143   6.163   0.014   1.730
 8405SOL    HW136144   6.256   9.983   1.750
 8405SOL    HW236145   6.116   0.036   1.816
 8406SOL     OW36146   8.710   2.454   4.375
 8406SOL    HW136147   8.729   2.415   4.466
 8406SOL    HW236148   8.650   2.392   4.325
 8407SOL     OW36149   1.018   6.599   5.035
 8407SOL    HW136150   1.110   6.638   5.034
 8407SOL    HW236151   0.958   6.656   5.092
 8408SOL     OW36152   1.759   5.388   4.796
 8408SOL    HW136153   1.676   5.342   4.766
 8408SOL    HW236154   1.736   5.481   4.825
 8409SOL     OW36155   9.670   5.157   1.782
 8409SOL    HW136156   9.655   5.147   1.684
 8409SOL    HW236157   9.735   5.231   1.799
 8410SOL     OW36158   3.301   6.460   3.338
 8410SOL    HW136159   3.222   6.410   3.302
 8410SOL    HW236160   3.289   6.475   3.436
 8411SOL     OW36161   9.925   7.223   1.965
 8411SOL    HW136162   9.971   7.190   1.883
 8411SOL    HW236163   9.830   7.192   1.965
 8412SOL     OW36164   8.844   1.500   3.365
 8412SOL    HW136165   8.770   1.544   3.314
 8412SOL    HW236166   8.820   1.498   3.462
 8413SOL     OW36167   7.734   3.138   0.573
 8413SOL    HW136168   7.644   3.168   0.541
 8413SOL    HW236169   7.750   3.175   0.665
 8414SOL     OW36170   3.046   9.606   2.082
 8414SOL    HW136171   2.952   9.586   2.107
 8414SOL    HW236172   3.107   9.539   2.125
 8415SOL     OW36173   8.918   8.189   0.994
 8415SOL    HW136174   8.973   8.119   1.039
 8415SOL    HW236175   8.839   8.211   1.052
 8416SOL     OW36176   6.891   7.664   4.270
 8416SOL    HW136177   6.984   7.649   4.302
 8416SOL    HW236178   6.893   7.701   4.177
 8417SOL     OW36179   3.599   9.413   3.312
 8417SOL    HW136180   3.656   9.349   3.261
 8417SOL    HW236181   3.531   9.454   3.251
 8418SOL     OW36182   4.637   9.749   2.123
 8418SOL    HW136183   4.551   9.800   2.118
 8418SOL    HW236184   4.710   9.802   2.082
 8419SOL     OW36185   9.589   5.900   3.733
 8419SOL    HW136186   9.489   5.897   3.731
 8419SOL    HW236187   9.620   5.949   3.814
 8420SOL     OW36188   7.686   9.517   4.648
 8420SOL    HW136189   7.717   9.588   4.711
 8420SOL    HW236190   7.742   9.435   4.659
 8421SOL     OW36191   1.123   5.314   0.356
 8421SOL    HW136192   1.097   5.397   0.307
 8421SOL    HW236193   1.063   5.302   0.436
 8422SOL     OW36194   1.926   0.641   3.213
 8422SOL    HW136195   1.846   0.657   3.270
 8422SOL    HW236196   1.938   0.717   3.149
 8423SOL     OW36197   0.548   4.237   2.203
 8423SOL    HW136198   0.543   4.158   2.264
 8423SOL    HW236199   0.485   4.225   2.127
 8424SOL     OW36200   4.273   3.620   3.393
 8424SOL    HW136201   4.243   3.582   3.480
 8424SOL    HW236202   4.198   3.671   3.351
 8425SOL     OW36203   8.896   6.283   2.025
 8425SOL    HW136204   8.872   6.268   2.120
 8425SOL    HW236205   8.844   6.220   1.967
 8426SOL     OW36206   5.266   2.767   3.521
 8426SOL    HW136207   5.302   2.726   3.605
 8426SOL    HW236208   5.321   2.737   3.443
 8427SOL     OW36209   8.468   1.496   1.989
 8427SOL    HW136210   8.419   1.570   2.036
 8427SOL    HW236211   8.566   1.503   2.008
 8428SOL     OW36212   5.382   8.732   2.392
 8428SOL    HW136213   5.441   8.652   2.400
 8428SOL    HW236214   5.340   8.752   2.481
 8429SOL     OW36215   1.297   1.694   1.695
 8429SOL    HW136216   1.341   1.706   1.784
 8429SOL    HW236217   1.275   1.784   1.657
 8430SOL     OW36218   1.218   5.635   1.093
 8430SOL    HW136219   1.297   5.603   1.042
 8430SOL    HW236220   1.136   5.587   1.061
 8431SOL     OW36221   4.874   4.672   1.452
 8431SOL    HW136222   4.817   4.656   1.372
 8431SOL    HW236223   4.846   4.612   1.527
 8432SOL     OW36224   6.865   0.687   0.099
 8432SOL    HW136225   6.961   0.668   0.115
 8432SOL    HW236226   6.822   0.608   0.055
 8433SOL     OW36227   3.546   4.274   4.740
 8433SOL    HW136228   3.514   4.181   4.757
 8433SOL    HW236229   3.467   4.335   4.734
 8434SOL     OW36230   6.509   1.794   4.824
 8434SOL    HW136231   6.478   1.702   4.849
 8434SOL    HW236232   6.602   1.807   4.859
 8435SOL     OW36233   8.223   6.939   2.710
 8435SOL    HW136234   8.185   6.965   2.799
 8435SOL    HW236235   8.246   7.022   2.658
 8436SOL     OW36236   1.553   0.613   3.070
 8436SOL    HW136237   1.488   0.671   3.119
 8436SOL    HW236238   1.609   0.669   3.010
 8437SOL     OW36239   2.666   0.051   2.424
 8437SOL    HW136240   2.587   9.989   2.418
 8437SOL    HW236241   2.656   0.110   2.505
 8438SOL     OW36242   6.696   0.461   2.072
 8438SOL    HW136243   6.596   0.454   2.064
 8438SOL    HW236244   6.728   0.397   2.142
 8439SOL     OW36245   3.005   1.429   1.353
 8439SOL    HW136246   3.052   1.468   1.432
 8439SOL    HW236247   3.031   1.479   1.271
 8440SOL     OW36248   3.657   0.838   1.178
 8440SOL    HW136249   3.729   0.891   1.224
 8440SOL    HW236250   3.699   0.771   1.117
 8441SOL     OW36251   4.510   4.113   0.884
 8441SOL    HW136252   4.516   4.017   0.856
 8441SOL    HW236253   4.599   4.157   0.871
 8442SOL     OW36254   8.694   4.326   4.746
 8442SOL    HW136255   8.741   4.377   4.818
 8442SOL    HW236256   8.604   4.299   4.778
 8443SOL     OW36257   6.077   8.563   3.127
 8443SOL    HW136258   6.104   8.651   3.090
 8443SOL    HW236259   6.088   8.564   3.226
 8444SOL     OW36260   6.647   0.926   1.493
 8444SOL    HW136261   6.701   0.876   1.561
 8444SOL    HW236262   6.653   1.024   1.511
 8445SOL     OW36263   2.047   9.990   3.001
 8445SOL    HW136264   2.109   0.064   3.026
 8445SOL    HW236265   1.977   0.024   2.937
 8446SOL     OW36266   9.074   8.393   1.262
 8446SOL    HW136267   9.083   8.294   1.274
 8446SOL    HW236268   8.977   8.418   1.260
 8447SOL     OW36269   3.960   7.012   4.368
 8447SOL    HW136270   3.968   6.945   4.294
 8447SOL    HW236271   3.964   6.964   4.456
 8448SOL     OW36272   4.670   7.402   2.504
 8448SOL    HW136273   4.639   7.356   2.587
 8448SOL    HW236274   4.762   7.439   2.518
 8449SOL     OW36275   3.062   9.208   4.348
 8449SOL    HW136276   3.036   9.250   4.261
 8449SOL    HW236277   3.001   9.132   4.368
 8450SOL     OW36278   0.175   6.630   1.014
 8450SOL    HW136279   0.143   6.606   1.106
 8450SOL    HW236280   0.180   6.547   0.958
 8451SOL     OW36281   8.023   9.971   3.635
 8451SOL    HW136282   8.038   9.943   3.540
 8451SOL    HW236283   8.111   9.980   3.682
 8452SOL     OW36284   1.014   9.093   1.997
 8452SOL    HW136285   0.971   9.130   2.079
 8452SOL    HW236286   0.945   9.044   1.942
 8453SOL     OW36287   0.463   9.425   4.319
 8453SOL    HW136288   0.454   9.355   4.390
 8453SOL    HW236289   0.511   9.505   4.357
 8454SOL     OW36290   3.626   2.512   0.709
 8454SOL    HW136291   3.666   2.540   0.622
 8454SOL    HW236292   3.529   2.493   0.697
 8455SOL     OW36293   9.472   8.317   3.252
 8455SOL    HW136294   9.373   8.314   3.269
 8455SOL    HW236295   9.514   8.233   3.285
 8456SOL     OW36296   9.285   0.324   4.885
 8456SOL    HW136297   9.294   0.231   4.920
 8456SOL    HW236298   9.279   0.322   4.785
 8457SOL     OW36299   0.548   1.984   0.756
 8457SOL    HW136300   0.517   1.968   0.849
 8457SOL    HW236301   0.469   1.994   0.696
 8458SOL     OW36302   3.315   5.657   1.783
 8458SOL    HW136303   3.274   5.748   1.791
 8458SOL    HW236304   3.248   5.587   1.807
 8459SOL     OW36305   0.999   2.096   1.443
 8459SOL    HW136306   0.922   2.039   1.471
 8459SOL    HW236307   1.005   2.176   1.503
 8460SOL     OW36308   2.686   1.168   5.198
 8460SOL    HW136309   2.644   1.258   5.212
 8460SOL    HW236310   2.783   1.173   5.222
 8461SOL     OW36311   1.129   2.860   1.491
 8461SOL    HW136312   1.050   2.818   1.537
 8461SOL    HW236313   1.191   2.789   1.460
 8462SOL     OW36314   1.086   7.836   3.803
 8462SOL    HW136315   1.145   7.756   3.810
 8462SOL    HW236316   1.049   7.843   3.710
 8463SOL     OW36317   7.916   1.621   4.687
 8463SOL    HW136318   7.962   1.662   4.609
 8463SOL    HW236319   7.902   1.524   4.670
 8464SOL     OW36320   9.712   8.082   0.226
 8464SOL    HW136321   9.660   7.999   0.206
 8464SOL    HW236322   9.810   8.062   0.217
 8465SOL     OW36323   1.124   9.549   0.619
 8465SOL    HW136324   1.029   9.570   0.643
 8465SOL    HW236325   1.142   9.452   0.635
 8466SOL     OW36326   2.806   0.668   2.595
 8466SOL    HW136327   2.762   0.654   2.507
 8466SOL    HW236328   2.862   0.752   2.591
 8467SOL     OW36329   1.823   3.949   5.175
 8467SOL    HW136330   1.823   4.029   5.235
 8467SOL    HW236331   1.731   3.910   5.172
 8468SOL     OW36332   1.866   8.312   2.710
 8468SOL    HW136333   1.849   8.354   2.799
 8468SOL    HW236334   1.835   8.217   2.711
 8469SOL     OW36335   2.370   0.186   2.539
 8469SOL    HW136336   2.304   0.112   2.546
 8469SOL    HW236337   2.450   0.165   2.596
 8470SOL     OW36338   0.613   3.636   1.248
 8470SOL    HW136339   0.532   3.605   1.297
 8470SOL    HW236340   0.618   3.736   1.251
 8471SOL     OW36341   7.335   1.543   2.969
 8471SOL    HW136342   7.349   1.608   3.044
 8471SOL    HW236343   7.267   1.578   2.906
 8472SOL     OW36344   1.627   6.530   3.371
 8472SOL    HW136345   1.650   6.602   3.306
 8472SOL    HW236346   1.606   6.445   3.322
 8473SOL     OW36347   1.441   8.696   1.825
 8473SOL    HW136348   1.370   8.765   1.838
 8473SOL    HW236349   1.427   8.621   1.890
 8474SOL     OW36350   7.531   1.135   2.281
 8474SOL    HW136351   7.491   1.076   2.210
 8474SOL    HW236352   7.599   1.083   2.333
 8475SOL     OW36353   9.442   2.141   2.425
 8475SOL    HW136354   9.499   2.127   2.505
 8475SOL    HW236355   9.489   2.203   2.361
 8476SOL     OW36356   1.526   8.319   0.136
 8476SOL    HW136357   1.623   8.304   0.156
 8476SOL    HW236358   1.509   8.418   0.130
 8477SOL     OW36359   6.323   1.829   4.084
 8477SOL    HW136360   6.238   1.775   4.086
 8477SOL    HW236361   6.355   1.844   4.178
 8478SOL     OW36362   9.960   9.718   1.914
 8478SOL    HW136363   9.863   9.728   1.895
 8478SOL    HW236364   9.982   9.760   2.002
 8479SOL     OW36365   2.536   9.557   0.609
 8479SOL    HW136366   2.454   9.562   0.551
 8479SOL    HW236367   2.545   9.641   0.662
 8480SOL     OW36368   7.322   8.873   3.621
 8480SOL    HW136369   7.293   8.933   3.547
 8480SOL    HW236370   7.249   8.807   3.641
 8481SOL     OW36371   5.728   0.675   3.854
 8481SOL    HW136372   5.791   0.644   3.783
 8481SOL    HW236373   5.639   0.697   3.813
 8482SOL     OW36374   1.494   2.664   1.064
 8482SOL    HW136375   1.456   2.585   1.016
 8482SOL    HW236376   1.567   2.634   1.125
 8483SOL     OW36377   8.131   9.719   3.800
 8483SOL    HW136378   8.120   9.686   3.706
 8483SOL    HW236379   8.167   9.812   3.799
 8484SOL     OW36380   9.580   3.644   0.112
 8484SOL    HW136381   9.515   3.615   0.041
 8484SOL    HW236382   9.616   3.735   0.088
 8485SOL     OW36383   1.285   1.797   4.189
 8485SOL    HW136384   1.309   1.772   4.283
 8485SOL    HW236385   1.368   1.820   4.139
 8486SOL     OW36386   7.842   9.053   5.218
 8486SOL    HW136387   7.888   8.965   5.225
 8486SOL    HW236388   7.910   9.126   5.208
 8487SOL     OW36389   0.582   6.554   3.910
 8487SOL    HW136390   0.578   6.462   3.950
 8487SOL    HW236391   0.614   6.619   3.980
 8488SOL     OW36392   3.997   6.450   1.896
 8488SOL    HW136393   4.008   6.455   1.796
 8488SOL    HW236394   3.971   6.540   1.931
 8489SOL     OW36395   2.676   9.867   3.696
 8489SOL    HW136396   2.734   9.807   3.751
 8489SOL    HW236397   2.646   9.819   3.614
 8490SOL     OW36398   0.517   5.957   4.665
 8490SOL    HW136399   0.537   5.866   4.627
 8490SOL    HW236400   0.487   5.948   4.759
 8491SOL     OW36401   9.162   3.650   3.992
 8491SOL    HW136402   9.134   3.646   4.088
 8491SOL    HW236403   9.105   3.588   3.939
 8492SOL     OW36404   8.862   3.720   1.763
 8492SOL    HW136405   8.790   3.669   1.810
 8492SOL    HW236406   8.851   3.818   1.782
 8493SOL     OW36407   4.891   3.492   3.038
 8493SOL    HW136408   4.872   3.585   3.008
 8493SOL    HW236409   4.928   3.493   3.131
 8494SOL     OW36410   0.678   2.460   2.348
 8494SOL    HW136411   0.707   2.555   2.363
 8494SOL    HW236412   0.655   2.418   2.436
 8495SOL     OW36413   0.258   3.073   2.333
 8495SOL    HW136414   0.220   2.981   2.340
 8495SOL    HW236415   0.196   3.138   2.376
 8496SOL     OW36416   6.882   4.657   0.956
 8496SOL    HW136417   6.832   4.667   0.870
 8496SOL    HW236418   6.980   4.669   0.939
 8497SOL     OW36419   9.316   3.642   4.879
 8497SOL    HW136420   9.242   3.627   4.813
 8497SOL    HW236421   9.396   3.588   4.853
 8498SOL     OW36422   7.708   8.315   4.278
 8498SOL    HW136423   7.671   8.254   4.208
 8498SOL    HW236424   7.775   8.377   4.236
 8499SOL     OW36425   4.318   9.549   1.054
 8499SOL    HW136426   4.354   9.472   1.002
 8499SOL    HW236427   4.335   9.634   1.004
 8500SOL     OW36428   5.453   1.593   1.253
 8500SOL    HW136429   5.467   1.636   1.342
 8500SOL    HW236430   5.490   1.499   1.255
 8501SOL     OW36431   1.998   5.920   1.858
 8501SOL    HW136432   2.073   5.858   1.881
 8501SOL    HW236433   1.935   5.926   1.936
 8502SOL     OW36434   2.375   9.531   2.830
 8502SOL    HW136435   2.328   9.603   2.780
 8502SOL    HW236436   2.474   9.543   2.820
 8503SOL     OW36437   9.879   4.771   3.440
 8503SOL    HW136438   9.813   4.769   3.365
 8503SOL    HW236439   9.918   4.680   3.452
 8504SOL     OW36440   4.865   3.946   1.503
 8504SOL    HW136441   4.826   4.034   1.478
 8504SOL    HW236442   4.860   3.883   1.425
 8505SOL     OW36443   2.145   2.346   2.382
 8505SOL    HW136444   2.146   2.429   2.437
 8505SOL    HW236445   2.146   2.266   2.442
 8506SOL     OW36446   2.707   0.414   4.723
 8506SOL    HW136447   2.733   0.317   4.727
 8506SOL    HW236448   2.775   0.469   4.770
 8507SOL     OW36449   2.184   4.840   4.555
 8507SOL    HW136450   2.170   4.929   4.597
 8507SOL    HW236451   2.175   4.848   4.456
 8508SOL     OW36452   3.133   4.109   0.058
 8508SOL    HW136453   3.144   4.054   0.141
 8508SOL    HW236454   3.038   4.101   0.026
 8509SOL     OW36455   8.224   6.075   1.484
 8509SOL    HW136456   8.154   6.024   1.434
 8509SOL    HW236457   8.201   6.077   1.581
 8510SOL     OW36458   5.985   4.314   0.289
 8510SOL    HW136459   5.979   4.258   0.372
 8510SOL    HW236460   5.964   4.409   0.312
 8511SOL     OW36461   4.817   6.824   2.798
 8511SOL    HW136462   4.769   6.911   2.791
 8511SOL    HW236463   4.793   6.766   2.721
 8512SOL     OW36464   3.085   0.458   0.923
 8512SOL    HW136465   3.176   0.433   0.892
 8512SOL    HW236466   3.065   0.413   1.010
 8513SOL     OW36467   0.700   7.262   0.300
 8513SOL    HW136468   0.795   7.274   0.271
 8513SOL    HW236469   0.643   7.332   0.257
 8514SOL     OW36470   5.078   8.528   5.153
 8514SOL    HW136471   5.025   8.523   5.068
 8514SOL    HW236472   5.169   8.490   5.137
 8515SOL     OW36473   9.628   5.492   2.081
 8515SOL    HW136474   9.580   5.415   2.039
 8515SOL    HW236475   9.727   5.475   2.078
 8516SOL     OW36476   3.028   4.640   1.129
 8516SOL    HW136477   2.962   4.681   1.192
 8516SOL    HW236478   2.981   4.579   1.066
 8517SOL     OW36479   7.774   4.172   2.495
 8517SOL    HW136480   7.823   4.176   2.408
 8517SOL    HW236481   7.725   4.085   2.503
 8518SOL     OW36482   7.138   2.732   1.339
 8518SOL    HW136483   7.172   2.812   1.389
 8518SOL    HW236484   7.122   2.658   1.403
 8519SOL     OW36485   2.534   1.193   4.016
 8519SOL    HW136486   2.471   1.133   4.066
 8519SOL    HW236487   2.492   1.283   4.004
 8520SOL     OW36488   1.384   7.573   1.762
 8520SOL    HW136489   1.482   7.590   1.750
 8520SOL    HW236490   1.354   7.611   1.850
 8521SOL     OW36491   1.211   7.641   4.098
 8521SOL    HW136492   1.123   7.681   4.123
 8521SOL    HW236493   1.283   7.711   4.104
 8522SOL     OW36494   3.011   9.904   3.862
 8522SOL    HW136495   2.936   9.837   3.855
 8522SOL    HW236496   3.014   9.941   3.954
 8523SOL     OW36497   5.663   8.642   3.728
 8523SOL    HW136498   5.661   8.552   3.685
 8523SOL    HW236499   5.722   8.703   3.674
 8524SOL     OW36500   9.543   2.369   0.309
 8524SOL    HW136501   9.526   2.453   0.360
 8524SOL    HW236502   9.583   2.391   0.220
 8525SOL     OW36503   7.970   1.937   1.227
 8525SOL    HW136504   7.938   1.849   1.192
 8525SOL    HW236505   7.895   2.003   1.222
 8526SOL     OW36506   9.124   3.227   1.157
 8526SOL    HW136507   9.222   3.238   1.174
 8526SOL    HW236508   9.086   3.162   1.222
 8527SOL     OW36509   0.105   5.991   0.781
 8527SOL    HW136510   0.079   6.054   0.708
 8527SOL    HW236511   0.203   5.997   0.798
 8528SOL     OW36512   0.892   1.023   5.202
 8528SOL    HW136513   0.917   0.927   5.218
 8528SOL    HW236514   0.798   1.038   5.231
 8529SOL     OW36515   7.324   0.469   0.979
 8529SOL    HW136516   7.415   0.440   1.005
 8529SOL    HW236517   7.316   0.469   0.879
 8530SOL     OW36518   2.696   5.115   1.867
 8530SOL    HW136519   2.720   5.020   1.848
 8530SOL    HW236520   2.737   5.143   1.954
 8531SOL     OW36521   8.448   0.824   2.516
 8531SOL    HW136522   8.522   0.791   2.458
 8531SOL    HW236523   8.458   0.785   2.608
 8532SOL     OW36524   4.572   9.561   2.900
 8532SOL    HW136525   4.511   9.482   2.910
 8532SOL    HW236526   4.661   9.538   2.940
 8533SOL     OW36527   7.853   1.026   3.438
 8533SOL    HW136528   7.834   0.991   3.530
 8533SOL    HW236529   7.941   0.990   3.407
 8534SOL     OW36530   2.312   9.944   0.155
 8534SOL    HW136531   2.391   9.991   0.116
 8534SOL    HW236532   2.333   9.847   0.167
 8535SOL     OW36533   0.599   0.100   0.829
 8535SOL    HW136534   0.571   0.029   0.894
 8535SOL    HW236535   0.567   0.189   0.860
 8536SOL     OW36536   0.856   5.167   4.640
 8536SOL    HW136537   0.861   5.069   4.619
 8536SOL    HW236538   0.762   5.199   4.628
 8537SOL     OW36539   5.419   2.400   4.175
 8537SOL    HW136540   5.424   2.437   4.082
 8537SOL    HW236541   5.474   2.316   4.181
 8538SOL     OW36542   2.432   2.156   4.222
 8538SOL    HW136543   2.481   2.146   4.135
 8538SOL    HW236544   2.374   2.237   4.218
 8539SOL     OW36545   3.387   7.830   1.672
 8539SOL    HW136546   3.429   7.903   1.727
 8539SOL    HW236547   3.336   7.769   1.732
 8540SOL     OW36548   0.716   2.721   5.014
 8540SOL    HW136549   0.692   2.652   5.082
 8540SOL    HW236550   0.812   2.745   5.024
 8541SOL     OW36551   8.753   7.139   4.172
 8541SOL    HW136552   8.814   7.196   4.117
 8541SOL    HW236553   8.794   7.123   4.262
 8542SOL     OW36554   8.190   9.955   4.808
 8542SOL    HW136555   8.213   0.002   4.893
 8542SOL    HW236556   8.270   9.955   4.747
 8543SOL     OW36557   0.464   1.017   0.536
 8543SOL    HW136558   0.558   1.049   0.543
 8543SOL    HW236559   0.409   1.061   0.608
 8544SOL     OW36560   0.122   6.758   3.036
 8544SOL    HW136561   0.217   6.789   3.046
 8544SOL    HW236562   0.119   6.683   2.970
 8545SOL     OW36563   5.110   2.246   3.317
 8545SOL    HW136564   5.031   2.196   3.283
 8545SOL    HW236565   5.094   2.275   3.412
 8546SOL     OW36566   4.105   1.416   3.105
 8546SOL    HW136567   4.050   1.437   3.024
 8546SOL    HW236568   4.044   1.398   3.183
 8547SOL     OW36569   2.696   0.374   5.233
 8547SOL    HW136570   2.762   0.374   5.158
 8547SOL    HW236571   2.739   0.409   5.316
 8548SOL     OW36572   1.717   7.267   3.463
 8548SOL    HW136573   1.683   7.324   3.538
 8548SOL    HW236574   1.640   7.229   3.413
 8549SOL     OW36575   9.938   1.533   3.028
 8549SOL    HW136576   9.858   1.579   3.069
 8549SOL    HW236577   9.984   1.479   3.098
 8550SOL     OW36578   7.568   9.966   2.888
 8550SOL    HW136579   7.528   9.892   2.833
 8550SOL    HW236580   7.631   0.019   2.832
 8551SOL     OW36581   2.118   1.032   3.487
 8551SOL    HW136582   2.190   1.048   3.554
 8551SOL    HW236583   2.110   0.934   3.468
 8552SOL     OW36584   1.468   4.039   2.421
 8552SOL    HW136585   1.469   4.136   2.442
 8552SOL    HW236586   1.380   4.013   2.382
 8553SOL     OW36587   2.027   5.535   1.835
 8553SOL    HW136588   1.943   5.502   1.877
 8553SOL    HW236589   2.070   5.603   1.894
 8554SOL     OW36590   6.986   9.445   4.789
 8554SOL    HW136591   7.073   9.463   4.834
 8554SOL    HW236592   6.985   9.489   4.699
 8555SOL     OW36593   0.804   2.060   0.867
 8555SOL    HW136594   0.718   2.059   0.816
 8555SOL    HW236595   0.837   1.966   0.879
 8556SOL     OW36596   3.178   9.073   2.867
 8556SOL    HW136597   3.116   9.147   2.842
 8556SOL    HW236598   3.137   9.017   2.939
 8557SOL     OW36599   9.904   0.532   4.471
 8557SOL    HW136600   9.897   0.598   4.396
 8557SOL    HW236601   9.846   0.453   4.451
 8558SOL     OW36602   7.807   2.641   0.145
 8558SOL    HW136603   7.859   2.687   0.217
 8558SOL    HW236604   7.841   2.670   0.055
 8559SOL     OW36605   8.815   3.348   1.770
 8559SOL    HW136606   8.790   3.347   1.673
 8559SOL    HW236607   8.907   3.386   1.781
 8560SOL     OW36608   9.948   4.497   3.515
 8560SOL    HW136609   9.849   4.501   3.528
 8560SOL    HW236610   9.975   4.403   3.493
 8561SOL     OW36611   8.995   7.491   2.334
 8561SOL    HW136612   9.023   7.409   2.384
 8561SOL    HW236613   9.040   7.571   2.373
 8562SOL     OW36614   5.046   8.185   3.815
 8562SOL    HW136615   4.971   8.133   3.774
 8562SOL    HW236616   5.041   8.177   3.915
 8563SOL     OW36617   1.507   6.080   5.103
 8563SOL    HW136618   1.467   6.151   5.161
 8563SOL    HW236619   1.477   6.094   5.008
 8564SOL     OW36620   1.874   8.001   4.997
 8564SOL    HW136621   1.841   8.084   5.040
 8564SOL    HW236622   1.936   7.953   5.060
 8565SOL     OW36623   1.598   8.636   2.160
 8565SOL    HW136624   1.524   8.589   2.113
 8565SOL    HW236625   1.585   8.735   2.154
 8566SOL     OW36626   0.097   8.618   4.125
 8566SOL    HW136627   0.162   8.638   4.199
 8566SOL    HW236628   0.061   8.704   4.088
 8567SOL     OW36629   9.954   5.231   1.152
 8567SOL    HW136630   0.005   5.292   1.092
 8567SOL    HW236631   0.013   5.155   1.180
 8568SOL     OW36632   4.281   5.243   2.383
 8568SOL    HW136633   4.218   5.167   2.369
 8568SOL    HW236634   4.251   5.322   2.330
 8569SOL     OW36635   8.991   0.950   2.432
 8569SOL    HW136636   9.033   0.876   2.379
 8569SOL    HW236637   8.924   0.998   2.375
 8570SOL     OW36638   4.112   3.802   4.986
 8570SOL    HW136639   4.161   3.883   5.017
 8570SOL    HW236640   4.167   3.720   5.003
 8571SOL     OW36641   1.793   5.688   2.982
 8571SOL    HW136642   1.880   5.688   2.933
 8571SOL    HW236643   1.718   5.693   2.916
 8572SOL     OW36644   0.549   8.478   0.412
 8572SOL    HW136645   0.574   8.575   0.406
 8572SOL    HW236646   0.562   8.446   0.505
 8573SOL     OW36647   8.813   4.343   3.628
 8573SOL    HW136648   8.792   4.246   3.617
 8573SOL    HW236649   8.793   4.391   3.543
 8574SOL     OW36650   2.657   9.364   4.904
 8574SOL    HW136651   2.727   9.395   4.968
 8574SOL    HW236652   2.576   9.421   4.913
 8575SOL     OW36653   8.748   4.073   3.584
 8575SOL    HW136654   8.785   4.011   3.654
 8575SOL    HW236655   8.657   4.043   3.558
 8576SOL     OW36656   4.702   8.002   2.942
 8576SOL    HW136657   4.684   8.061   3.021
 8576SOL    HW236658   4.749   7.919   2.972
 8577SOL     OW36659   4.183   3.517   3.634
 8577SOL    HW136660   4.139   3.506   3.723
 8577SOL    HW236661   4.253   3.447   3.622
 8578SOL     OW36662   1.206   8.041   3.548
 8578SOL    HW136663   1.294   8.008   3.515
 8578SOL    HW236664   1.138   7.969   3.538
 8579SOL     OW36665   5.055   7.820   4.941
 8579SOL    HW136666   5.149   7.814   4.906
 8579SOL    HW236667   5.055   7.804   5.040
 8580SOL     OW36668   7.658   0.481   2.996
 8580SOL    HW136669   7.699   0.561   3.041
 8580SOL    HW236670   7.661   0.403   3.059
 8581SOL     OW36671   1.447   4.853   2.820
 8581SOL    HW136672   1.529   4.809   2.857
 8581SOL    HW236673   1.465   4.950   2.804
 8582SOL     OW36674   7.998   8.442   5.159
 8582SOL    HW136675   8.095   8.428   5.179
 8582SOL    HW236676   7.954   8.354   5.140
 8583SOL     OW36677   1.732   6.295   0.764
 8583SOL    HW136678   1.704   6.357   0.691
 8583SOL    HW236679   1.701   6.331   0.852
 8584SOL     OW36680   0.041   1.269   0.116
 8584SOL    HW136681   0.070   1.175   0.100
 8584SOL    HW236682   0.089   1.306   0.195
 8585SOL     OW36683   8.365   3.537   0.571
 8585SOL    HW136684   8.302   3.550   0.495
 8585SOL    HW236685   8.320   3.567   0.656
 8586SOL     OW36686   6.676   9.946   5.061
 8586SOL    HW136687   6.616   0.004   5.116
 8586SOL    HW236688   6.763   9.934   5.108
 8587SOL     OW36689   7.352   9.562   4.001
 8587SOL    HW136690   7.445   9.552   3.968
 8587SOL    HW236691   7.348   9.633   4.071
 8588SOL     OW36692   9.778   3.316   3.931
 8588SOL    HW136693   9.795   3.414   3.924
 8588SOL    HW236694   9.823   3.269   3.855
 8589SOL     OW36695   6.901   8.228   3.336
 8589SOL    HW136696   6.982   8.171   3.320
 8589SOL    HW236697   6.930   8.315   3.376
 8590SOL     OW36698   3.887   6.921   1.708
 8590SOL    HW136699   3.983   6.909   1.733
 8590SOL    HW236700   3.878   6.914   1.608
 8591SOL     OW36701   9.659   7.271   0.632
 8591SOL    HW136702   9.676   7.209   0.708
 8591SOL    HW236703   9.568   7.310   0.641
 8592SOL     OW36704   0.761   8.354   1.052
 8592SOL    HW136705   0.695   8.286   1.082
 8592SOL    HW236706   0.834   8.308   1.001
 8593SOL     OW36707   8.502   9.130   4.222
 8593SOL    HW136708   8.481   9.209   4.279
 8593SOL    HW236709   8.530   9.161   4.131
 8594SOL     OW36710   2.926   5.506   4.996
 8594SOL    HW136711   2.966   5.471   5.081
 8594SOL    HW236712   2.872   5.588   5.017
 8595SOL     OW36713   3.695   3.640   5.220
 8595SOL    HW136714   3.733   3.645   5.312
 8595SOL    HW236715   3.744   3.702   5.159
 8596SOL     OW36716   0.752   7.402   1.857
 8596SOL    HW136717   0.837   7.450   1.836
 8596SOL    HW236718   0.680   7.433   1.795
 8597SOL     OW36719   1.760   3.329   3.631
 8597SOL    HW136720   1.849   3.358   3.667
 8597SOL    HW236721   1.688   3.366   3.690
 8598SOL     OW36722   9.144   3.542   0.870
 8598SOL    HW136723   9.210   3.599   0.920
 8598SOL    HW236724   9.108   3.593   0.792
 8599SOL     OW36725   0.622   8.150   4.842
 8599SOL    HW136726   0.705   8.199   4.870
 8599SOL    HW236727   0.575   8.115   4.923
 8600SOL     OW36728   5.389   0.332   0.726
 8600SOL    HW136729   5.479   0.376   0.722
 8600SOL    HW236730   5.321   0.389   0.680
 8601SOL     OW36731   0.236   3.544   4.701
 8601SOL    HW136732   0.272   3.482   4.631
 8601SOL    HW236733   0.280   3.633   4.692
 8602SOL     OW36734   3.959   5.608   2.329
 8602SOL    HW136735   3.937   5.574   2.237
 8602SOL    HW236736   3.911   5.695   2.344
 8603SOL     OW36737   1.132   0.700   1.695
 8603SOL    HW136738   1.098   0.624   1.749
 8603SOL    HW236739   1.180   0.665   1.614
 8604SOL     OW36740   3.931   4.062   2.148
 8604SOL    HW136741   4.025   4.039   2.174
 8604SOL    HW236742   3.870   4.041   2.224
 8605SOL     OW36743   7.800   9.275   4.344
 8605SOL    HW136744   7.760   9.216   4.414
 8605SOL    HW236745   7.738   9.277   4.265
 8606SOL     OW36746   5.139   2.071   2.409
 8606SOL    HW136747   5.144   2.042   2.313
 8606SOL    HW236748   5.112   1.994   2.466
 8607SOL     OW36749   2.629   6.000   4.544
 8607SOL    HW136750   2.684   6.034   4.467
 8607SOL    HW236751   2.584   6.076   4.589
 8608SOL     OW36752   2.981   4.668   3.074
 8608SOL    HW136753   2.935   4.588   3.036
 8608SOL    HW236754   3.078   4.647   3.090
 8609SOL     OW36755   6.349   1.044   3.286
 8609SOL    HW136756   6.269   1.045   3.346
 8609SOL    HW236757   6.353   0.958   3.236
 8610SOL     OW36758   2.444   8.489   4.387
 8610SOL    HW136759   2.393   8.452   4.465
 8610SOL    HW236760   2.382   8.501   4.309
 8611SOL     OW36761   2.915   1.905   1.438
 8611SOL    HW136762   2.961   1.937   1.521
 8611SOL    HW236763   2.970   1.834   1.394
 8612SOL     OW36764   3.796   7.449   4.295
 8612SOL    HW136765   3.776   7.474   4.200
 8612SOL    HW236766   3.869   7.507   4.330
 8613SOL     OW36767   5.562   1.507   4.235
 8613SOL    HW136768   5.493   1.562   4.187
 8613SOL    HW236769   5.587   1.553   4.320
 8614SOL     OW36770   8.419   4.783   0.896
 8614SOL    HW136771   8.474   4.769   0.978
 8614SOL    HW236772   8.346   4.849   0.915
 8615SOL     OW36773   8.246   3.968   3.636
 8615SOL    HW136774   8.147   3.961   3.650
 8615SOL    HW236775   8.293   3.957   3.724
 8616SOL     OW36776   0.114   4.420   5.283
 8616SOL    HW136777   0.048   4.359   5.240
 8616SOL    HW236778   0.101   4.513   5.247
 8617SOL     OW36779   9.322   0.074   4.987
 8617SOL    HW136780   9.316   0.061   5.086
 8617SOL    HW236781   9.245   0.029   4.942
 8618SOL     OW36782   2.425   8.649   3.074
 8618SOL    HW136783   2.372   8.583   3.021
 8618SOL    HW236784   2.406   8.637   3.171
 8619SOL     OW36785   5.454   8.202   2.786
 8619SOL    HW136786   5.444   8.109   2.820
 8619SOL    HW236787   5.397   8.264   2.841
 8620SOL     OW36788   1.591   9.908   5.189
 8620SOL    HW136789   1.656   9.837   5.161
 8620SOL    HW236790   1.501   9.867   5.203
 8621SOL     OW36791   2.781   5.565   1.115
 8621SOL    HW136792   2.684   5.545   1.102
 8621SOL    HW236793   2.826   5.575   1.026
 8622SOL     OW36794   5.792   0.686   5.217
 8622SOL    HW136795   5.881   0.732   5.215
 8622SOL    HW236796   5.768   0.662   5.311
 8623SOL     OW36797   9.984   7.318   1.534
 8623SOL    HW136798   9.931   7.280   1.458
 8623SOL    HW236799   9.929   7.385   1.583
 8624SOL     OW36800   4.687   0.245   1.135
 8624SOL    HW136801   4.676   0.152   1.169
 8624SOL    HW236802   4.693   0.245   1.035
 8625SOL     OW36803   1.893   5.730   1.682
 8625SOL    HW136804   1.949   5.652   1.713
 8625SOL    HW236805   1.922   5.813   1.729
 8626SOL     OW36806   6.454   0.708   5.298
 8626SOL    HW136807   6.499   0.662   5.375
 8626SOL    HW236808   6.366   0.664   5.281
 8627SOL     OW36809   7.905   1.389   0.863
 8627SOL    HW136810   7.867   1.340   0.942
 8627SOL    HW236811   7.915   1.327   0.786
 8628SOL     OW36812   4.273   7.282   5.051
 8628SOL    HW136813   4.225   7.195   5.067
 8628SOL    HW236814   4.206   7.356   5.043
 8629SOL     OW36815   4.603   7.110   1.778
 8629SOL    HW136816   4.675   7.048   1.811
 8629SOL    HW236817   4.615   7.126   1.680
 8630SOL     OW36818   1.791   8.737   3.740
 8630SOL    HW136819   1.877   8.712   3.697
 8630SOL    HW236820   1.806   8.813   3.803
 8631SOL     OW36821   9.572   3.788   2.551
 8631SOL    HW136822   9.514   3.858   2.594
 8631SOL    HW236823   9.518   3.705   2.537
 8632SOL     OW36824   7.850   2.870   3.069
 8632SOL    HW136825   7.946   2.877   3.045
 8632SOL    HW236826   7.827   2.776   3.093
 8633SOL     OW36827   8.699   0.649   0.976
 8633SOL    HW136828   8.704   0.746   0.950
 8633SOL    HW236829   8.733   0.638   1.069
 8634SOL     OW36830   4.142   9.899   3.485
 8634SOL    HW136831   4.149   9.901   3.585
 8634SOL    HW236832   4.233   9.889   3.445
 8635SOL     OW36833   3.102   9.061   2.465
 8635SOL    HW136834   3.073   9.139   2.409
 8635SOL    HW236835   3.024   9.029   2.519
 8636SOL     OW36836   4.793   3.229   1.729
 8636SOL    HW136837   4.816   3.268   1.818
 8636SOL    HW236838   4.819   3.133   1.727
 8637SOL     OW36839   0.468   9.758   3.934
 8637SOL    HW136840   0.503   9.827   3.870
 8637SOL    HW236841   0.490   9.667   3.899
 8638SOL     OW36842   1.970   9.172   3.956
 8638SOL    HW136843   2.023   9.255   3.936
 8638SOL    HW236844   1.895   9.194   4.018
 8639SOL     OW36845   2.913   2.398   5.017
 8639SOL    HW136846   3.003   2.366   5.045
 8639SOL    HW236847   2.842   2.350   5.069
 8640SOL     OW36848   2.215   2.083   0.162
 8640SOL    HW136849   2.210   2.177   0.128
 8640SOL    HW236850   2.233   2.021   0.085
 8641SOL     OW36851   4.644   2.323   4.506
 8641SOL    HW136852   4.560   2.290   4.462
 8641SOL    HW236853   4.659   2.272   4.591
 8642SOL     OW36854   1.816   2.219   0.601
 8642SOL    HW136855   1.894   2.159   0.581
 8642SOL    HW236856   1.736   2.164   0.624
 8643SOL     OW36857   5.608   1.464   2.287
 8643SOL    HW136858   5.580   1.370   2.269
 8643SOL    HW236859   5.562   1.499   2.369
 8644SOL     OW36860   3.014   7.984   3.341
 8644SOL    HW136861   2.914   7.979   3.352
 8644SOL    HW236862   3.053   7.892   3.348
 8645SOL     OW36863   9.468   8.592   2.053
 8645SOL    HW136864   9.388   8.546   2.093
 8645SOL    HW236865   9.543   8.526   2.043
 8646SOL     OW36866   3.768   3.185   5.021
 8646SOL    HW136867   3.683   3.237   5.029
 8646SOL    HW236868   3.747   3.087   5.016
 8647SOL     OW36869   9.614   5.048   0.793
 8647SOL    HW136870   9.623   4.952   0.818
 8647SOL    HW236871   9.656   5.105   0.864
 8648SOL     OW36872   0.316   9.615   1.749
 8648SOL    HW136873   0.250   9.681   1.715
 8648SOL    HW236874   0.290   9.586   1.841
 8649SOL     OW36875   6.388   9.923   1.862
 8649SOL    HW136876   6.443   9.987   1.915
 8649SOL    HW236877   6.329   9.871   1.924
 8650SOL     OW36878   1.254   8.486   4.888
 8650SOL    HW136879   1.342   8.447   4.916
 8650SOL    HW236880   1.182   8.419   4.901
 8651SOL     OW36881   9.872   4.037   1.607
 8651SOL    HW136882   9.804   3.966   1.591
 8651SOL    HW236883   9.947   4.000   1.661
 8652SOL     OW36884   3.384   0.098   3.053
 8652SOL    HW136885   3.447   0.092   2.975
 8652SOL    HW236886   3.305   0.155   3.028
 8653SOL     OW36887   8.190   1.493   3.733
 8653SOL    HW136888   8.134   1.500   3.650
 8653SOL    HW236889   8.285   1.513   3.711
 8654SOL     OW36890   3.513   3.283   5.020
 8654SOL    HW136891   3.480   3.209   4.962
 8654SOL    HW236892   3.439   3.315   5.079
 8655SOL     OW36893   0.277   8.792   0.352
 8655SOL    HW136894   0.259   8.751   0.262
 8655SOL    HW236895   0.308   8.886   0.340
 8656SOL     OW36896   2.064   1.765   3.204
 8656SOL    HW136897   2.092   1.778   3.299
 8656SOL    HW236898   2.145   1.759   3.146
 8657SOL     OW36899   2.306   2.819   0.634
 8657SOL    HW136900   2.374   2.887   0.662
 8657SOL    HW236901   2.229   2.866   0.591
 8658SOL     OW36902   9.310   6.290   2.288
 8658SOL    HW136903   9.381   6.276   2.357
 8658SOL    HW236904   9.305   6.210   2.228
 8659SOL     OW36905   3.808   8.578   2.433
 8659SOL    HW136906   3.802   8.514   2.510
 8659SOL    HW236907   3.859   8.659   2.461
 8660SOL     OW36908   8.376   2.520   4.231
 8660SOL    HW136909   8.352   2.615   4.252
 8660SOL    HW236910   8.330   2.491   4.147
 8661SOL     OW36911   3.969   9.221   0.519
 8661SOL    HW136912   3.876   9.258   0.523
 8661SOL    HW236913   3.975   9.155   0.444
 8662SOL     OW36914   8.738   2.602   3.768
 8662SOL    HW136915   8.837   2.605   3.760
 8662SOL    HW236916   8.703   2.692   3.792
 8663SOL     OW36917   3.059   1.165   2.216
 8663SOL    HW136918   2.997   1.220   2.273
 8663SOL    HW236919   3.010   1.085   2.182
 8664SOL     OW36920   6.400   0.921   3.844
 8664SOL    HW136921   6.467   0.854   3.814
 8664SOL    HW236922   6.308   0.883   3.834
 8665SOL     OW36923   9.404   9.073   2.105
 8665SOL    HW136924   9.403   8.998   2.171
 8665SOL    HW236925   9.491   9.071   2.054
 8666SOL     OW36926   8.272   9.030   4.881
 8666SOL    HW136927   8.182   8.984   4.883
 8666SOL    HW236928   8.286   9.071   4.791
 8667SOL     OW36929   0.178   8.904   5.149
 8667SOL    HW136930   0.084   8.881   5.125
 8667SOL    HW236931   0.236   8.823   5.139
 8668SOL     OW36932   9.768   9.815   4.148
 8668SOL    HW136933   9.764   9.751   4.071
 8668SOL    HW236934   9.681   9.813   4.197
 8669SOL     OW36935   3.760   0.662   0.988
 8669SOL    HW136936   3.731   0.593   0.922
 8669SOL    HW236937   3.805   0.616   1.065
 8670SOL     OW36938   6.375   8.191   2.947
 8670SOL    HW136939   6.352   8.165   3.041
 8670SOL    HW236940   6.298   8.239   2.906
 8671SOL     OW36941   3.845   0.040   4.557
 8671SOL    HW136942   3.927   9.984   4.556
 8671SOL    HW236943   3.812   0.053   4.463
 8672SOL     OW36944   4.001   9.185   0.085
 8672SOL    HW136945   4.001   9.134   0.170
 8672SOL    HW236946   4.010   9.283   0.104
 8673SOL     OW36947   8.568   3.053   5.119
 8673SOL    HW136948   8.645   3.044   5.183
 8673SOL    HW236949   8.562   2.971   5.062
 8674SOL     OW36950   7.230   1.126   4.821
 8674SOL    HW136951   7.226   1.027   4.808
 8674SOL    HW236952   7.195   1.149   4.912
 8675SOL     OW36953   1.275   8.123   2.930
 8675SOL    HW136954   1.270   8.136   3.029
 8675SOL    HW236955   1.183   8.128   2.891
 8676SOL     OW36956   1.131   4.999   3.742
 8676SOL    HW136957   1.183   5.081   3.716
 8676SOL    HW236958   1.043   5.026   3.780
 8677SOL     OW36959   5.655   9.623   2.677
 8677SOL    HW136960   5.741   9.636   2.727
 8677SOL    HW236961   5.674   9.613   2.580
 8678SOL     OW36962   8.326   1.470   2.958
 8678SOL    HW136963   8.360   1.463   2.864
 8678SOL    HW236964   8.294   1.564   2.974
 8679SOL     OW36965   0.164   9.510   0.862
 8679SOL    HW136966   0.087   9.449   0.841
 8679SOL    HW236967   0.249   9.456   0.864
 8680SOL     OW36968   8.593   2.273   2.664
 8680SOL    HW136969   8.540   2.199   2.623
 8680SOL    HW236970   8.625   2.246   2.754
 8681SOL     OW36971   3.379   9.338   1.686
 8681SOL    HW136972   3.356   9.270   1.616
 8681SOL    HW236973   3.416   9.292   1.766
 8682SOL     OW36974   3.666   8.102   3.440
 8682SOL    HW136975   3.670   8.022   3.500
 8682SOL    HW236976   3.610   8.173   3.482
 8683SOL     OW36977   2.701   0.640   2.336
 8683SOL    HW136978   2.792   0.662   2.302
 8683SOL    HW236979   2.661   0.568   2.279
 8684SOL     OW36980   9.493   2.974   3.668
 8684SOL    HW136981   9.539   3.060   3.650
 8684SOL    HW236982   9.524   2.905   3.602
 8685SOL     OW36983   3.348   3.815   1.085
 8685SOL    HW136984   3.330   3.904   1.044
 8685SOL    HW236985   3.303   3.743   1.031
 8686SOL     OW36986   4.720   9.967   2.841
 8686SOL    HW136987   4.763   9.909   2.772
 8686SOL    HW236988   4.650   9.915   2.890
 8687SOL     OW36989   3.842   4.754   5.215
 8687SOL    HW136990   3.806   4.784   5.303
 8687SOL    HW236991   3.939   4.730   5.225
 8688SOL     OW36992   0.883   2.077   4.981
 8688SOL    HW136993   0.832   2.037   5.057
 8688SOL    HW236994   0.831   2.065   4.896
 8689SOL     OW36995   4.538   9.316   2.422
 8689SOL    HW136996   4.483   9.236   2.396
 8689SOL    HW236997   4.625   9.313   2.374
 8690SOL     OW36998   1.204   6.023   1.404
 8690SOL    HW136999   1.215   6.119   1.427
 8690SOL    HW237000   1.173   5.973   1.485
 8691SOL     OW37001   6.968   9.524   3.209
 8691SOL    HW137002   7.031   9.588   3.254
 8691SOL    HW237003   7.018   9.443   3.179
 8692SOL     OW37004   4.247   5.368   1.818
 8692SOL    HW137005   4.286   5.362   1.910
 8692SOL    HW237006   4.158   5.414   1.822
 8693SOL     OW37007   4.265   1.488   0.504
 8693SOL    HW137008   4.320   1.570   0.515
 8693SOL    HW237009   4.227   1.461   0.592
 8694SOL     OW37010   9.869   7.004   5.076
 8694SOL    HW137011   9.774   7.034   5.084
 8694SOL    HW237012   9.872   6.910   5.041
 8695SOL     OW37013   3.232   5.184   2.413
 8695SOL    HW137014   3.193   5.271   2.444
 8695SOL    HW237015   3.261   5.131   2.493
 8696SOL     OW37016   2.347   5.036   3.757
 8696SOL    HW137017   2.390   5.100   3.693
 8696SOL    HW237018   2.416   5.000   3.819
 8697SOL     OW37019   2.533   9.661   4.437
 8697SOL    HW137020   2.533   9.561   4.439
 8697SOL    HW237021   2.580   9.693   4.354
 8698SOL     OW37022   8.017   5.406   1.679
 8698SOL    HW137023   8.040   5.332   1.742
 8698SOL    HW237024   8.024   5.374   1.585
 8699SOL     OW37025   3.369   4.647   1.881
 8699SOL    HW137026   3.327   4.700   1.955
 8699SOL    HW237027   3.326   4.557   1.876
 8700SOL     OW37028   0.840   9.785   2.005
 8700SOL    HW137029   0.748   9.806   1.974
 8700SOL    HW237030   0.905   9.796   1.929
 8701SOL     OW37031   2.569   8.380   3.304
 8701SOL    HW137032   2.502   8.454   3.301
 8701SOL    HW237033   2.645   8.407   3.364
 8702SOL     OW37034   3.309   0.401   2.110
 8702SOL    HW137035   3.354   0.317   2.082
 8702SOL    HW237036   3.214   0.401   2.079
 8703SOL     OW37037   6.132   8.833   3.063
 8703SOL    HW137038   6.155   8.841   3.160
 8703SOL    HW237039   6.042   8.872   3.047
 8704SOL     OW37040   9.021   0.934   4.700
 8704SOL    HW137041   9.086   0.865   4.667
 8704SOL    HW237042   9.030   0.945   4.798
 8705SOL     OW37043   2.659   7.339   0.577
 8705SOL    HW137044   2.671   7.402   0.654
 8705SOL    HW237045   2.563   7.337   0.550
 8706SOL     OW37046   4.180   9.092   1.861
 8706SOL    HW137047   4.268   9.115   1.903
 8706SOL    HW237048   4.138   9.015   1.909
 8707SOL     OW37049   8.279   5.545   3.265
 8707SOL    HW137050   8.206   5.609   3.290
 8707SOL    HW237051   8.286   5.474   3.335
 8708SOL     OW37052   6.224   0.847   1.182
 8708SOL    HW137053   6.267   0.838   1.092
 8708SOL    HW237054   6.289   0.819   1.253
 8709SOL     OW37055   2.014   3.539   1.947
 8709SOL    HW137056   2.110   3.523   1.926
 8709SOL    HW237057   1.997   3.637   1.956
 8710SOL     OW37058   5.394   3.691   0.226
 8710SOL    HW137059   5.309   3.641   0.209
 8710SOL    HW237060   5.408   3.759   0.154
 8711SOL     OW37061   3.152   6.009   0.458
 8711SOL    HW137062   3.134   5.978   0.551
 8711SOL    HW237063   3.125   5.939   0.392
 8712SOL     OW37064   3.687   8.103   1.102
 8712SOL    HW137065   3.591   8.132   1.091
 8712SOL    HW237066   3.745   8.183   1.114
 8713SOL     OW37067   0.079   3.394   2.948
 8713SOL    HW137068   0.146   3.435   2.887
 8713SOL    HW237069   0.123   3.324   3.004
 8714SOL     OW37070   9.083   8.156   2.295
 8714SOL    HW137071   9.017   8.201   2.355
 8714SOL    HW237072   9.175   8.191   2.314
 8715SOL     OW37073   8.422   1.219   3.072
 8715SOL    HW137074   8.494   1.183   3.014
 8715SOL    HW237075   8.387   1.304   3.032
 8716SOL     OW37076   8.019   6.512   4.686
 8716SOL    HW137077   7.949   6.446   4.660
 8716SOL    HW237078   8.094   6.510   4.620
 8717SOL     OW37079   1.646   4.703   3.819
 8717SOL    HW137080   1.598   4.618   3.839
 8717SOL    HW237081   1.703   4.728   3.897
 8718SOL     OW37082   4.385   1.085   4.039
 8718SOL    HW137083   4.322   1.026   4.089
 8718SOL    HW237084   4.477   1.047   4.045
 8719SOL     OW37085   4.601   9.192   0.327
 8719SOL    HW137086   4.682   9.210   0.270
 8719SOL    HW237087   4.611   9.240   0.414
 8720SOL     OW37088   4.870   6.677   2.346
 8720SOL    HW137089   4.785   6.705   2.301
 8720SOL    HW237090   4.885   6.579   2.330
 8721SOL     OW37091   1.980   1.025   1.399
 8721SOL    HW137092   1.953   0.947   1.343
 8721SOL    HW237093   1.911   1.097   1.391
 8722SOL     OW37094   3.857   1.892   0.424
 8722SOL    HW137095   3.932   1.863   0.366
 8722SOL    HW237096   3.838   1.989   0.409
 8723SOL     OW37097   0.678   1.912   5.095
 8723SOL    HW137098   0.617   1.989   5.075
 8723SOL    HW237099   0.637   1.827   5.061
 8724SOL     OW37100   9.333   2.107   1.076
 8724SOL    HW137101   9.385   2.124   1.160
 8724SOL    HW237102   9.243   2.150   1.084
 8725SOL     OW37103   1.809   8.395   4.532
 8725SOL    HW137104   1.828   8.352   4.444
 8725SOL    HW237105   1.866   8.354   4.603
 8726SOL     OW37106   0.104   8.048   4.731
 8726SOL    HW137107   0.179   7.989   4.702
 8726SOL    HW237108   0.135   8.143   4.738
 8727SOL     OW37109   4.560   8.223   4.984
 8727SOL    HW137110   4.539   8.312   4.942
 8727SOL    HW237111   4.634   8.234   5.050
 8728SOL     OW37112   8.547   7.335   4.620
 8728SOL    HW137113   8.458   7.314   4.660
 8728SOL    HW237114   8.604   7.253   4.618
 8729SOL     OW37115   6.805   1.481   2.574
 8729SOL    HW137116   6.774   1.563   2.622
 8729SOL    HW237117   6.865   1.428   2.635
 8730SOL     OW37118   4.019   7.851   3.382
 8730SOL    HW137119   4.076   7.832   3.462
 8730SOL    HW237120   3.992   7.765   3.338
 8731SOL     OW37121   3.320   4.950   4.203
 8731SOL    HW137122   3.266   4.931   4.285
 8731SOL    HW237123   3.334   4.865   4.152
 8732SOL     OW37124   0.348   6.999   4.782
 8732SOL    HW137125   0.278   6.942   4.740
 8732SOL    HW237126   0.405   6.944   4.842
 8733SOL     OW37127   2.867   4.853   5.253
 8733SOL    HW137128   2.932   4.905   5.198
 8733SOL    HW237129   2.851   4.901   5.339
 8734SOL     OW37130   7.657   8.852   3.925
 8734SOL    HW137131   7.653   8.772   3.985
 8734SOL    HW237132   7.701   8.827   3.839
 8735SOL     OW37133   1.387   3.335   2.524
 8735SOL    HW137134   1.474   3.375   2.553
 8735SOL    HW237135   1.401   3.239   2.500
 8736SOL     OW37136   3.237   8.683   0.728
 8736SOL    HW137137   3.205   8.608   0.670
 8736SOL    HW237138   3.282   8.752   0.671
 8737SOL     OW37139   3.144   8.451   2.050
 8737SOL    HW137140   3.112   8.541   2.078
 8737SOL    HW237141   3.074   8.406   1.994
 8738SOL     OW37142   4.399   7.433   2.469
 8738SOL    HW137143   4.499   7.430   2.475
 8738SOL    HW237144   4.368   7.362   2.405
 8739SOL     OW37145   3.325   9.195   2.095
 8739SOL    HW137146   3.334   9.097   2.115
 8739SOL    HW237147   3.384   9.219   2.018
 8740SOL     OW37148   6.016   8.886   3.957
 8740SOL    HW137149   5.943   8.821   3.978
 8740SOL    HW237150   6.051   8.925   4.042
 8741SOL     OW37151   0.123   9.951   1.079
 8741SOL    HW137152   0.162   0.017   1.014
 8741SOL    HW237153   0.178   9.949   1.162
 8742SOL     OW37154   9.119   0.292   0.255
 8742SOL    HW137155   9.136   0.218   0.191
 8742SOL    HW237156   9.205   0.319   0.299
 8743SOL     OW37157   3.965   3.669   1.805
 8743SOL    HW137158   3.918   3.600   1.750
 8743SOL    HW237159   3.913   3.687   1.889
 8744SOL     OW37160   8.617   6.836   3.758
 8744SOL    HW137161   8.668   6.750   3.750
 8744SOL    HW237162   8.571   6.839   3.846
 8745SOL     OW37163   3.525   0.659   1.512
 8745SOL    HW137164   3.480   0.673   1.600
 8745SOL    HW237165   3.617   0.697   1.515
 8746SOL     OW37166   2.597   1.495   4.860
 8746SOL    HW137167   2.583   1.569   4.926
 8746SOL    HW237168   2.635   1.532   4.775
 8747SOL     OW37169   0.543   4.443   3.048
 8747SOL    HW137170   0.634   4.481   3.029
 8747SOL    HW237171   0.552   4.366   3.110
 8748SOL     OW37172   0.655   5.965   1.277
 8748SOL    HW137173   0.650   5.876   1.323
 8748SOL    HW237174   0.626   6.037   1.340
 8749SOL     OW37175   1.622   2.697   3.422
 8749SOL    HW137176   1.556   2.634   3.462
 8749SOL    HW237177   1.590   2.791   3.435
 8750SOL     OW37178   1.173   7.613   1.358
 8750SOL    HW137179   1.211   7.658   1.439
 8750SOL    HW237180   1.149   7.681   1.289
 8751SOL     OW37181   6.675   1.199   1.538
 8751SOL    HW137182   6.580   1.213   1.508
 8751SOL    HW237183   6.685   1.235   1.631
 8752SOL     OW37184   9.066   4.893   2.128
 8752SOL    HW137185   9.160   4.860   2.133
 8752SOL    HW237186   9.040   4.904   2.032
 8753SOL     OW37187   3.593   9.677   4.893
 8753SOL    HW137188   3.691   9.690   4.910
 8753SOL    HW237189   3.576   9.580   4.876
 8754SOL     OW37190   2.650   5.685   0.782
 8754SOL    HW137191   2.735   5.643   0.813
 8754SOL    HW237192   2.605   5.625   0.716
 8755SOL     OW37193   0.387   5.524   4.584
 8755SOL    HW137194   0.378   5.447   4.647
 8755SOL    HW237195   0.296   5.559   4.561
 8756SOL     OW37196   8.109   4.003   0.557
 8756SOL    HW137197   8.164   4.043   0.484
 8756SOL    HW237198   8.170   3.954   0.621
 8757SOL     OW37199   1.793   7.585   3.727
 8757SOL    HW137200   1.857   7.591   3.649
 8757SOL    HW237201   1.834   7.630   3.806
 8758SOL     OW37202   7.565   1.788   2.848
 8758SOL    HW137203   7.571   1.692   2.875
 8758SOL    HW237204   7.587   1.797   2.751
 8759SOL     OW37205   9.104   4.614   0.557
 8759SOL    HW137206   9.155   4.659   0.631
 8759SOL    HW237207   9.083   4.520   0.584
 8760SOL     OW37208   2.631   8.817   2.265
 8760SOL    HW137209   2.727   8.811   2.291
 8760SOL    HW237210   2.593   8.725   2.255
 8761SOL     OW37211   1.831   8.022   1.619
 8761SOL    HW137212   1.893   7.974   1.682
 8761SOL    HW237213   1.855   8.119   1.616
 8762SOL     OW37214   4.003   6.476   1.616
 8762SOL    HW137215   3.937   6.474   1.542
 8762SOL    HW237216   4.072   6.546   1.598
 8763SOL     OW37217   6.481   9.804   2.649
 8763SOL    HW137218   6.579   9.790   2.631
 8763SOL    HW237219   6.434   9.716   2.647
 8764SOL     OW37220   3.047   3.071   1.835
 8764SOL    HW137221   2.948   3.076   1.850
 8764SOL    HW237222   3.088   3.160   1.855
 8765SOL     OW37223   4.680   8.448   5.227
 8765SOL    HW137224   4.730   8.362   5.214
 8765SOL    HW237225   4.583   8.427   5.238
 8766SOL     OW37226   0.515   7.696   0.746
 8766SOL    HW137227   0.555   7.605   0.759
 8766SOL    HW237228   0.442   7.710   0.812
 8767SOL     OW37229   8.175   1.914   3.526
 8767SOL    HW137230   8.218   1.890   3.613
 8767SOL    HW237231   8.124   1.999   3.536
 8768SOL     OW37232   0.896   6.172   3.403
 8768SOL    HW137233   0.987   6.136   3.422
 8768SOL    HW237234   0.843   6.177   3.488
 8769SOL     OW37235   1.908   3.902   3.788
 8769SOL    HW137236   1.998   3.858   3.791
 8769SOL    HW237237   1.897   3.951   3.701
 8770SOL     OW37238   4.548   8.794   4.721
 8770SOL    HW137239   4.505   8.754   4.803
 8770SOL    HW237240   4.644   8.768   4.719
 8771SOL     OW37241   9.691   2.804   0.848
 8771SOL    HW137242   9.680   2.767   0.940
 8771SOL    HW237243   9.682   2.904   0.850
 8772SOL     OW37244   4.267   8.089   4.553
 8772SOL    HW137245   4.175   8.063   4.523
 8772SOL    HW237246   4.331   8.015   4.532
 8773SOL     OW37247   8.733   8.724   3.824
 8773SOL    HW137248   8.814   8.751   3.876
 8773SOL    HW237249   8.741   8.628   3.798
 8774SOL     OW37250   0.140   1.014   0.140
 8774SOL    HW137251   0.079   0.961   0.198
 8774SOL    HW237252   0.232   1.012   0.178
 8775SOL     OW37253   9.914   4.803   1.531
 8775SOL    HW137254   9.836   4.826   1.474
 8775SOL    HW237255   9.947   4.712   1.506
 8776SOL     OW37256   3.001   5.065   3.448
 8776SOL    HW137257   3.077   5.020   3.401
 8776SOL    HW237258   2.977   5.149   3.400
 8777SOL     OW37259   2.983   7.756   3.837
 8777SOL    HW137260   2.993   7.748   3.936
 8777SOL    HW237261   3.052   7.818   3.801
 8778SOL     OW37262   9.260   0.784   4.227
 8778SOL    HW137263   9.266   0.770   4.128
 8778SOL    HW237264   9.210   0.708   4.269
 8779SOL     OW37265   0.322   8.931   1.453
 8779SOL    HW137266   0.268   8.857   1.413
 8779SOL    HW237267   0.265   9.012   1.464
 8780SOL     OW37268   0.779   1.554   4.851
 8780SOL    HW137269   0.744   1.565   4.757
 8780SOL    HW237270   0.710   1.586   4.916
 8781SOL     OW37271   0.797   7.592   3.909
 8781SOL    HW137272   0.753   7.677   3.880
 8781SOL    HW237273   0.728   7.520   3.918
 8782SOL     OW37274   9.610   8.756   0.921
 8782SOL    HW137275   9.675   8.786   0.991
 8782SOL    HW237276   9.548   8.688   0.961
 8783SOL     OW37277   5.989   9.788   5.091
 8783SOL    HW137278   6.051   9.717   5.058
 8783SOL    HW237279   5.904   9.786   5.039
 8784SOL     OW37280   6.580   1.158   4.472
 8784SOL    HW137281   6.664   1.199   4.507
 8784SOL    HW237282   6.561   1.074   4.522
 8785SOL     OW37283   0.852   1.248   1.043
 8785SOL    HW137284   0.842   1.276   1.139
 8785SOL    HW237285   0.921   1.176   1.036
 8786SOL     OW37286   3.875   7.895   1.055
 8786SOL    HW137287   3.949   7.929   0.998
 8786SOL    HW237288   3.805   7.966   1.066
 8787SOL     OW37289   5.380   0.722   2.615
 8787SOL    HW137290   5.404   0.721   2.518
 8787SOL    HW237291   5.340   0.635   2.641
 8788SOL     OW37292   4.070   9.166   4.813
 8788SOL    HW137293   4.132   9.238   4.845
 8788SOL    HW237294   3.999   9.150   4.881
 8789SOL     OW37295   9.014   9.427   4.182
 8789SOL    HW137296   9.005   9.420   4.083
 8789SOL    HW237297   8.985   9.341   4.225
 8790SOL     OW37298   1.234   4.852   1.009
 8790SOL    HW137299   1.240   4.949   1.033
 8790SOL    HW237300   1.187   4.843   0.921
 8791SOL     OW37301   7.384   1.787   0.367
 8791SOL    HW137302   7.378   1.862   0.302
 8791SOL    HW237303   7.298   1.779   0.417
 8792SOL     OW37304   1.338   8.256   3.989
 8792SOL    HW137305   1.268   8.196   3.951
 8792SOL    HW237306   1.297   8.345   4.010
 8793SOL     OW37307   1.740   1.719   2.944
 8793SOL    HW137308   1.784   1.796   2.990
 8793SOL    HW237309   1.656   1.750   2.900
 8794SOL     OW37310   4.777   1.663   1.945
 8794SOL    HW137311   4.836   1.585   1.968
 8794SOL    HW237312   4.778   1.729   2.021
 8795SOL     OW37313   7.869   8.908   3.090
 8795SOL    HW137314   7.820   8.989   3.057
 8795SOL    HW237315   7.812   8.827   3.079
 8796SOL     OW37316   2.036   1.711   4.401
 8796SOL    HW137317   2.014   1.808   4.415
 8796SOL    HW237318   2.131   1.693   4.427
 8797SOL     OW37319   3.866   4.732   2.216
 8797SOL    HW137320   3.856   4.726   2.117
 8797SOL    HW237321   3.868   4.828   2.243
 8798SOL     OW37322   5.770   0.078   4.156
 8798SOL    HW137323   5.791   0.169   4.192
 8798SOL    HW237324   5.846   0.045   4.100
 8799SOL     OW37325   7.207   6.714   4.587
 8799SOL    HW137326   7.224   6.758   4.675
 8799SOL    HW237327   7.287   6.661   4.560
 8800SOL     OW37328   8.907   0.795   3.588
 8800SOL    HW137329   8.814   0.798   3.552
 8800SOL    HW237330   8.971   0.818   3.515
 8801SOL     OW37331   3.227   6.111   3.123
 8801SOL    HW137332   3.211   6.035   3.060
 8801SOL    HW237333   3.321   6.144   3.113
 8802SOL     OW37334   9.603   2.124   2.657
 8802SOL    HW137335   9.632   2.081   2.742
 8802SOL    HW237336   9.672   2.189   2.627
 8803SOL     OW37337   8.066   0.939   0.752
 8803SOL    HW137338   8.161   0.972   0.752
 8803SOL    HW237339   8.004   1.016   0.739
 8804SOL     OW37340   1.449   8.880   4.816
 8804SOL    HW137341   1.502   8.838   4.743
 8804SOL    HW237342   1.452   8.980   4.806
 8805SOL     OW37343   1.165   1.355   3.361
 8805SOL    HW137344   1.115   1.373   3.276
 8805SOL    HW237345   1.233   1.283   3.345
 8806SOL     OW37346   4.661   0.288   2.114
 8806SOL    HW137347   4.692   0.378   2.145
 8806SOL    HW237348   4.568   0.272   2.149
 8807SOL     OW37349   9.297   9.714   4.136
 8807SOL    HW137350   9.266   9.754   4.222
 8807SOL    HW237351   9.257   9.763   4.059
 8808SOL     OW37352   3.640   0.329   1.734
 8808SOL    HW137353   3.644   0.427   1.751
 8808SOL    HW237354   3.548   0.305   1.702
 8809SOL     OW37355   1.066   2.234   4.005
 8809SOL    HW137356   0.973   2.223   3.970
 8809SOL    HW237357   1.090   2.157   4.064
 8810SOL     OW37358   4.527   3.247   1.632
 8810SOL    HW137359   4.499   3.165   1.583
 8810SOL    HW237360   4.622   3.236   1.662
 8811SOL     OW37361   5.829   2.444   3.380
 8811SOL    HW137362   5.757   2.415   3.443
 8811SOL    HW237363   5.891   2.507   3.426
 8812SOL     OW37364   3.280   7.132   4.263
 8812SOL    HW137365   3.375   7.151   4.240
 8812SOL    HW237366   3.268   7.034   4.277
 8813SOL     OW37367   3.440   0.182   2.045
 8813SOL    HW137368   3.535   0.177   2.014
 8813SOL    HW237369   3.395   0.095   2.027
 8814SOL     OW37370   3.969   6.860   3.400
 8814SOL    HW137371   4.037   6.791   3.379
 8814SOL    HW237372   3.878   6.825   3.379
 8815SOL     OW37373   8.868   2.024   5.225
 8815SOL    HW137374   8.816   2.072   5.155
 8815SOL    HW237375   8.806   1.971   5.282
 8816SOL     OW37376   0.560   3.723   2.239
 8816SOL    HW137377   0.526   3.741   2.331
 8816SOL    HW237378   0.657   3.747   2.233
 8817SOL     OW37379   0.689   5.080   5.267
 8817SOL    HW137380   0.722   5.097   5.174
 8817SOL    HW237381   0.716   4.987   5.295
 8818SOL     OW37382   8.790   5.995   2.293
 8818SOL    HW137383   8.814   6.092   2.292
 8818SOL    HW237384   8.777   5.963   2.199
 8819SOL     OW37385   4.294   6.575   2.797
 8819SOL    HW137386   4.363   6.621   2.741
 8819SOL    HW237387   4.275   6.484   2.758
 8820SOL     OW37388   3.693   9.159   2.753
 8820SOL    HW137389   3.742   9.142   2.839
 8820SOL    HW237390   3.596   9.174   2.773
 8821SOL     OW37391   1.161   8.329   4.275
 8821SOL    HW137392   1.259   8.349   4.271
 8821SOL    HW237393   1.110   8.415   4.285
 8822SOL     OW37394   1.189   9.536   3.057
 8822SOL    HW137395   1.128   9.563   2.982
 8822SOL    HW237396   1.162   9.585   3.140
 8823SOL     OW37397   2.636   2.565   3.784
 8823SOL    HW137398   2.669   2.504   3.856
 8823SOL    HW237399   2.713   2.596   3.728
 8824SOL     OW37400   0.362   7.385   3.345
 8824SOL    HW137401   0.355   7.285   3.337
 8824SOL    HW237402   0.273   7.426   3.328
 8825SOL     OW37403   9.407   8.528   2.674
 8825SOL    HW137404   9.497   8.488   2.695
 8825SOL    HW237405   9.377   8.584   2.751
 8826SOL     OW37406   3.353   0.149   3.877
 8826SOL    HW137407   3.335   0.072   3.816
 8826SOL    HW237408   3.372   0.231   3.823
 8827SOL     OW37409   2.683   8.137   5.226
 8827SOL    HW137410   2.685   8.060   5.163
 8827SOL    HW237411   2.776   8.156   5.260
 8828SOL     OW37412   4.216   3.313   2.712
 8828SOL    HW137413   4.240   3.279   2.621
 8828SOL    HW237414   4.124   3.351   2.710
 8829SOL     OW37415   9.981   7.462   0.125
 8829SOL    HW137416   0.009   7.534   0.188
 8829SOL    HW237417   0.054   7.394   0.119
 8830SOL     OW37418   3.225   0.430   2.372
 8830SOL    HW137419   3.264   0.422   2.281
 8830SOL    HW237420   3.285   0.386   2.439
 8831SOL     OW37421   2.419   5.341   3.136
 8831SOL    HW137422   2.482   5.292   3.075
 8831SOL    HW237423   2.343   5.280   3.160
 8832SOL     OW37424   7.949   9.566   1.241
 8832SOL    HW137425   7.988   9.658   1.234
 8832SOL    HW237426   7.850   9.572   1.241
 8833SOL     OW37427   9.626   6.598   0.884
 8833SOL    HW137428   9.669   6.681   0.849
 8833SOL    HW237429   9.559   6.623   0.955
 8834SOL     OW37430   4.141   4.936   0.728
 8834SOL    HW137431   4.110   4.967   0.818
 8834SOL    HW237432   4.123   5.006   0.660
 8835SOL     OW37433   1.669   1.926   4.603
 8835SOL    HW137434   1.699   1.948   4.696
 8835SOL    HW237435   1.711   1.840   4.574
 8836SOL     OW37436   5.055   2.301   1.057
 8836SOL    HW137437   4.994   2.345   1.123
 8836SOL    HW237438   5.012   2.301   0.967
 8837SOL     OW37439   3.442   8.525   3.420
 8837SOL    HW137440   3.489   8.607   3.391
 8837SOL    HW237441   3.443   8.457   3.347
 8838SOL     OW37442   0.841   3.997   4.152
 8838SOL    HW137443   0.889   4.005   4.065
 8838SOL    HW237444   0.751   3.956   4.138
 8839SOL     OW37445   9.255   5.670   4.948
 8839SOL    HW137446   9.344   5.701   4.916
 8839SOL    HW237447   9.206   5.747   4.989
 8840SOL     OW37448   2.154   3.977   1.326
 8840SOL    HW137449   2.082   3.933   1.380
 8840SOL    HW237450   2.198   4.049   1.381
 8841SOL     OW37451   3.361   5.855   3.822
 8841SOL    HW137452   3.461   5.847   3.824
 8841SOL    HW237453   3.321   5.767   3.798
 8842SOL     OW37454   9.740   4.565   4.147
 8842SOL    HW137455   9.822   4.579   4.202
 8842SOL    HW237456   9.692   4.484   4.177
 8843SOL     OW37457   3.734   3.168   0.416
 8843SOL    HW137458   3.727   3.109   0.336
 8843SOL    HW237459   3.768   3.258   0.389
 8844SOL     OW37460   5.984   0.722   1.163
 8844SOL    HW137461   6.070   0.772   1.179
 8844SOL    HW237462   5.914   0.756   1.226
 8845SOL     OW37463   2.995   8.458   3.327
 8845SOL    HW137464   3.032   8.382   3.273
 8845SOL    HW237465   3.067   8.523   3.347
 8846SOL     OW37466   2.177   0.563   3.290
 8846SOL    HW137467   2.086   0.584   3.254
 8846SOL    HW237468   2.183   0.465   3.310
 8847SOL     OW37469   1.215   8.755   4.928
 8847SOL    HW137470   1.232   8.658   4.916
 8847SOL    HW237471   1.291   8.808   4.890
 8848SOL     OW37472   2.668   1.749   3.067
 8848SOL    HW137473   2.680   1.782   2.973
 8848SOL    HW237474   2.593   1.684   3.070
 8849SOL     OW37475   3.683   6.770   0.423
 8849SOL    HW137476   3.673   6.821   0.338
 8849SOL    HW237477   3.761   6.708   0.415
 8850SOL     OW37478   6.032   7.761   3.548
 8850SOL    HW137479   6.048   7.709   3.464
 8850SOL    HW237480   6.028   7.859   3.526
 8851SOL     OW37481   1.730   2.321   2.498
 8851SOL    HW137482   1.763   2.345   2.406
 8851SOL    HW237483   1.809   2.313   2.560
 8852SOL     OW37484   5.725   1.340   1.870
 8852SOL    HW137485   5.680   1.251   1.859
 8852SOL    HW237486   5.824   1.326   1.879
 8853SOL     OW37487   8.540   0.439   0.681
 8853SOL    HW137488   8.558   0.400   0.771
 8853SOL    HW237489   8.491   0.526   0.692
 8854SOL     OW37490   9.757   1.947   0.780
 8854SOL    HW137491   9.753   1.926   0.682
 8854SOL    HW237492   9.667   1.977   0.811
 8855SOL     OW37493   2.069   6.131   3.374
 8855SOL    HW137494   2.076   6.137   3.474
 8855SOL    HW237495   1.977   6.156   3.345
 8856SOL     OW37496   2.582   5.987   0.363
 8856SOL    HW137497   2.676   5.987   0.327
 8856SOL    HW237498   2.565   5.901   0.412
 8857SOL     OW37499   5.980   0.680   2.879
 8857SOL    HW137500   5.962   0.706   2.783
 8857SOL    HW237501   6.020   0.589   2.882
 8858SOL     OW37502   1.367   5.986   2.561
 8858SOL    HW137503   1.318   5.984   2.648
 8858SOL    HW237504   1.302   5.976   2.486
 8859SOL     OW37505   5.340   7.416   4.066
 8859SOL    HW137506   5.423   7.449   4.111
 8859SOL    HW237507   5.362   7.386   3.973
 8860SOL     OW37508   0.761   2.635   1.386
 8860SOL    HW137509   0.755   2.590   1.298
 8860SOL    HW237510   0.670   2.669   1.412
 8861SOL     OW37511   4.598   0.619   5.079
 8861SOL    HW137512   4.527   0.564   5.124
 8861SOL    HW237513   4.555   0.696   5.033
 8862SOL     OW37514   0.225   1.762   0.807
 8862SOL    HW137515   0.187   1.768   0.714
 8862SOL    HW237516   0.242   1.666   0.830
 8863SOL     OW37517   9.827   0.099   2.281
 8863SOL    HW137518   9.855   0.006   2.256
 8863SOL    HW237519   9.734   0.097   2.315
 8864SOL     OW37520   4.262   2.293   3.086
 8864SOL    HW137521   4.166   2.281   3.061
 8864SOL    HW237522   4.300   2.206   3.117
 8865SOL     OW37523   1.676   4.367   1.354
 8865SOL    HW137524   1.689   4.357   1.255
 8865SOL    HW237525   1.695   4.462   1.381
 8866SOL     OW37526   9.486   6.613   3.905
 8866SOL    HW137527   9.494   6.573   3.996
 8866SOL    HW237528   9.552   6.571   3.843
 8867SOL     OW37529   0.264   9.228   3.225
 8867SOL    HW137530   0.302   9.259   3.312
 8867SOL    HW237531   0.338   9.208   3.161
 8868SOL     OW37532   3.068   2.089   0.701
 8868SOL    HW137533   3.081   2.184   0.673
 8868SOL    HW237534   2.971   2.071   0.719
 8869SOL     OW37535   1.399   0.783   3.221
 8869SOL    HW137536   1.323   0.843   3.197
 8869SOL    HW237537   1.389   0.751   3.315
 8870SOL     OW37538   4.815   1.925   2.705
 8870SOL    HW137539   4.900   1.950   2.751
 8870SOL    HW237540   4.796   1.828   2.720
 8871SOL     OW37541   1.459   6.639   0.578
 8871SOL    HW137542   1.371   6.594   0.568
 8871SOL    HW237543   1.533   6.572   0.567
 8872SOL     OW37544   4.641   2.901   3.904
 8872SOL    HW137545   4.595   2.825   3.860
 8872SOL    HW237546   4.669   2.968   3.835
 8873SOL     OW37547   8.280   3.660   1.952
 8873SOL    HW137548   8.277   3.750   1.910
 8873SOL    HW237549   8.326   3.666   2.041
 8874SOL     OW37550   1.925   8.298   4.019
 8874SOL    HW137551   2.007   8.243   4.001
 8874SOL    HW237552   1.931   8.384   3.968
 8875SOL     OW37553   4.363   5.157   0.433
 8875SOL    HW137554   4.411   5.074   0.461
 8875SOL    HW237555   4.335   5.207   0.515
 8876SOL     OW37556   8.700   8.057   1.784
 8876SOL    HW137557   8.629   8.020   1.724
 8876SOL    HW237558   8.751   8.128   1.736
 8877SOL     OW37559   1.679   1.307   2.642
 8877SOL    HW137560   1.712   1.214   2.659
 8877SOL    HW237561   1.693   1.362   2.724
 8878SOL     OW37562   2.965   5.539   0.509
 8878SOL    HW137563   2.885   5.479   0.511
 8878SOL    HW237564   2.942   5.627   0.551
 8879SOL     OW37565   2.677   6.681   5.144
 8879SOL    HW137566   2.727   6.735   5.212
 8879SOL    HW237567   2.632   6.742   5.079
 8880SOL     OW37568   9.543   7.150   3.488
 8880SOL    HW137569   9.505   7.129   3.398
 8880SOL    HW237570   9.514   7.241   3.516
 8881SOL     OW37571   4.145   0.741   2.970
 8881SOL    HW137572   4.213   0.667   2.964
 8881SOL    HW237573   4.055   0.702   2.987
 8882SOL     OW37574   9.947   4.014   0.989
 8882SOL    HW137575   0.043   3.988   0.995
 8882SOL    HW237576   9.939   4.112   0.971
 8883SOL     OW37577   1.855   7.633   2.815
 8883SOL    HW137578   1.928   7.662   2.877
 8883SOL    HW237579   1.800   7.562   2.859
 8884SOL     OW37580   2.377   1.747   3.448
 8884SOL    HW137581   2.461   1.783   3.406
 8884SOL    HW237582   2.381   1.647   3.448
 8885SOL     OW37583   7.667   9.237   4.100
 8885SOL    HW137584   7.702   9.144   4.107
 8885SOL    HW237585   7.567   9.236   4.102
 8886SOL     OW37586   7.505   2.089   2.209
 8886SOL    HW137587   7.453   2.077   2.124
 8886SOL    HW237588   7.538   2.183   2.214
 8887SOL     OW37589   8.010   7.119   2.165
 8887SOL    HW137590   8.078   7.055   2.128
 8887SOL    HW237591   7.918   7.081   2.153
 8888SOL     OW37592   0.757   7.937   5.041
 8888SOL    HW137593   0.786   7.949   4.946
 8888SOL    HW237594   0.680   7.873   5.044
 8889SOL     OW37595   9.767   9.818   4.676
 8889SOL    HW137596   9.784   9.803   4.578
 8889SOL    HW237597   9.825   9.892   4.709
 8890SOL     OW37598   8.043   1.318   1.202
 8890SOL    HW137599   7.962   1.274   1.164
 8890SOL    HW237600   8.065   1.399   1.148
 8891SOL     OW37601   1.400   9.559   3.419
 8891SOL    HW137602   1.472   9.566   3.351
 8891SOL    HW237603   1.371   9.463   3.427
 8892SOL     OW37604   1.189   9.810   3.643
 8892SOL    HW137605   1.126   9.786   3.569
 8892SOL    HW237606   1.219   9.726   3.689
 8893SOL     OW37607   0.729   6.086   2.750
 8893SOL    HW137608   0.709   6.151   2.823
 8893SOL    HW237609   0.772   6.134   2.673
 8894SOL     OW37610   9.715   1.668   0.091
 8894SOL    HW137611   9.767   1.587   0.120
 8894SOL    HW237612   9.777   1.746   0.081
 8895SOL     OW37613   8.232   2.468   3.032
 8895SOL    HW137614   8.138   2.435   3.032
 8895SOL    HW237615   8.295   2.391   3.038
 8896SOL     OW37616   4.027   6.717   3.093
 8896SOL    HW137617   4.044   6.743   2.998
 8896SOL    HW237618   3.934   6.679   3.101
 8897SOL     OW37619   4.809   0.778   5.174
 8897SOL    HW137620   4.739   0.720   5.131
 8897SOL    HW237621   4.808   0.763   5.273
 8898SOL     OW37622   9.029   6.745   4.014
 8898SOL    HW137623   9.007   6.842   4.004
 8898SOL    HW237624   9.083   6.731   4.096
 8899SOL     OW37625   4.525   9.048   1.279
 8899SOL    HW137626   4.526   9.047   1.179
 8899SOL    HW237627   4.612   9.011   1.313
 8900SOL     OW37628   3.175   1.794   2.081
 8900SOL    HW137629   3.174   1.857   2.003
 8900SOL    HW237630   3.269   1.765   2.099
 8901SOL     OW37631   7.193   0.034   1.772
 8901SOL    HW137632   7.287   0.052   1.744
 8901SOL    HW237633   7.130   0.074   1.706
 8902SOL     OW37634   8.518   5.139   3.251
 8902SOL    HW137635   8.585   5.214   3.249
 8902SOL    HW237636   8.537   5.081   3.331
 8903SOL     OW37637   8.428   0.735   4.343
 8903SOL    HW137638   8.476   0.809   4.389
 8903SOL    HW237639   8.473   0.714   4.256
 8904SOL     OW37640   2.130   8.080   4.003
 8904SOL    HW137641   2.159   8.084   4.099
 8904SOL    HW237642   2.179   8.150   3.951
 8905SOL     OW37643   0.081   8.388   0.142
 8905SOL    HW137644   0.053   8.340   0.059
 8905SOL    HW237645   0.044   8.481   0.142
 8906SOL     OW37646   0.504   7.990   0.183
 8906SOL    HW137647   0.538   8.083   0.188
 8906SOL    HW237648   0.405   7.992   0.166
 8907SOL     OW37649   3.913   3.866   2.550
 8907SOL    HW137650   3.993   3.924   2.556
 8907SOL    HW237651   3.845   3.907   2.489
 8908SOL     OW37652   9.800   9.289   2.614
 8908SOL    HW137653   9.786   9.286   2.515
 8908SOL    HW237654   9.817   9.383   2.642
 8909SOL     OW37655   1.862   9.956   0.784
 8909SOL    HW137656   1.775   9.998   0.759
 8909SOL    HW237657   1.846   9.882   0.849
 8910SOL     OW37658   0.920   7.176   4.673
 8910SOL    HW137659   0.839   7.181   4.614
 8910SOL    HW237660   0.895   7.132   4.759
 8911SOL     OW37661   0.034   2.359   0.925
 8911SOL    HW137662   0.044   2.263   0.901
 8911SOL    HW237663   9.941   2.375   0.960
 8912SOL     OW37664   8.604   8.253   2.837
 8912SOL    HW137665   8.566   8.250   2.929
 8912SOL    HW237666   8.530   8.256   2.770
 8913SOL     OW37667   4.987   1.084   0.599
 8913SOL    HW137668   4.911   1.147   0.612
 8913SOL    HW237669   5.054   1.125   0.537
 8914SOL     OW37670   1.159   5.126   1.082
 8914SOL    HW137671   1.137   5.133   1.179
 8914SOL    HW237672   1.089   5.173   1.028
 8915SOL     OW37673   3.152   3.223   2.162
 8915SOL    HW137674   3.135   3.126   2.181
 8915SOL    HW237675   3.232   3.253   2.215
 8916SOL     OW37676   9.613   4.723   1.703
 8916SOL    HW137677   9.651   4.658   1.636
 8916SOL    HW237678   9.518   4.697   1.723
 8917SOL     OW37679   4.466   3.851   1.104
 8917SOL    HW137680   4.375   3.892   1.107
 8917SOL    HW237681   4.524   3.896   1.172
 8918SOL     OW37682   4.246   5.204   3.539
 8918SOL    HW137683   4.208   5.284   3.586
 8918SOL    HW237684   4.328   5.172   3.587
 8919SOL     OW37685   8.096   0.496   0.878
 8919SOL    HW137686   8.135   0.413   0.838
 8919SOL    HW237687   8.087   0.565   0.807
 8920SOL     OW37688   4.286   8.514   0.252
 8920SOL    HW137689   4.242   8.557   0.173
 8920SOL    HW237690   4.254   8.558   0.336
 8921SOL     OW37691   4.457   9.599   3.524
 8921SOL    HW137692   4.442   9.518   3.467
 8921SOL    HW237693   4.393   9.598   3.601
 8922SOL     OW37694   1.611   8.764   4.624
 8922SOL    HW137695   1.587   8.667   4.626
 8922SOL    HW237696   1.705   8.775   4.590
 8923SOL     OW37697   7.868   9.304   4.707
 8923SOL    HW137698   7.850   9.293   4.805
 8923SOL    HW237699   7.966   9.319   4.693
 8924SOL     OW37700   8.292   7.913   2.477
 8924SOL    HW137701   8.231   7.886   2.403
 8924SOL    HW237702   8.240   7.958   2.549
 8925SOL     OW37703   9.078   1.918   1.300
 8925SOL    HW137704   9.133   1.994   1.335
 8925SOL    HW237705   9.108   1.832   1.342
 8926SOL     OW37706   0.373   2.050   4.340
 8926SOL    HW137707   0.421   2.138   4.336
 8926SOL    HW237708   0.395   1.997   4.259
 8927SOL     OW37709   9.902   1.193   3.949
 8927SOL    HW137710   9.902   1.185   4.049
 8927SOL    HW237711   9.808   1.205   3.916
 8928SOL     OW37712   8.264   6.581   1.551
 8928SOL    HW137713   8.297   6.487   1.559
 8928SOL    HW237714   8.263   6.609   1.455
 8929SOL     OW37715   9.983   6.213   3.800
 8929SOL    HW137716   0.031   6.285   3.750
 8929SOL    HW237717   9.915   6.170   3.741
 8930SOL     OW37718   5.752   9.459   3.100
 8930SOL    HW137719   5.695   9.397   3.047
 8930SOL    HW237720   5.848   9.434   3.089
 8931SOL     OW37721   1.512   5.936   1.690
 8931SOL    HW137722   1.423   5.903   1.718
 8931SOL    HW237723   1.565   5.963   1.771
 8932SOL     OW37724   4.907   4.879   0.592
 8932SOL    HW137725   4.889   4.949   0.662
 8932SOL    HW237726   4.914   4.922   0.503
 8933SOL     OW37727   0.404   4.860   2.349
 8933SOL    HW137728   0.358   4.866   2.437
 8933SOL    HW237729   0.489   4.809   2.358
 8934SOL     OW37730   4.605   2.098   0.229
 8934SOL    HW137731   4.593   2.163   0.154
 8934SOL    HW237732   4.558   2.012   0.206
 8935SOL     OW37733   7.917   2.321   1.243
 8935SOL    HW137734   8.006   2.317   1.289
 8935SOL    HW237735   7.872   2.232   1.250
 8936SOL     OW37736   0.352   9.534   1.353
 8936SOL    HW137737   0.268   9.487   1.326
 8936SOL    HW237738   0.388   9.491   1.436
 8937SOL     OW37739   9.073   7.269   4.464
 8937SOL    HW137740   9.164   7.228   4.457
 8937SOL    HW237741   9.074   7.360   4.423
 8938SOL     OW37742   0.836   9.616   3.124
 8938SOL    HW137743   0.797   9.664   3.047
 8938SOL    HW237744   0.830   9.673   3.206
 8939SOL     OW37745   3.978   0.820   2.435
 8939SOL    HW137746   3.892   0.824   2.383
 8939SOL    HW237747   3.971   0.750   2.506
 8940SOL     OW37748   4.457   1.068   3.047
 8940SOL    HW137749   4.464   0.982   2.997
 8940SOL    HW237750   4.367   1.109   3.031
 8941SOL     OW37751   1.408   2.336   3.332
 8941SOL    HW137752   1.479   2.266   3.318
 8941SOL    HW237753   1.320   2.292   3.347
 8942SOL     OW37754   0.087   3.492   4.075
 8942SOL    HW137755   0.097   3.569   4.012
 8942SOL    HW237756   0.001   3.500   4.125
 8943SOL     OW37757   1.882   3.189   4.926
 8943SOL    HW137758   1.791   3.151   4.942
 8943SOL    HW237759   1.885   3.284   4.958
 8944SOL     OW37760   8.815   4.947   3.116
 8944SOL    HW137761   8.738   4.890   3.146
 8944SOL    HW237762   8.852   4.911   3.031
 8945SOL     OW37763   3.196   9.527   4.046
 8945SOL    HW137764   3.210   9.601   3.981
 8945SOL    HW237765   3.282   9.477   4.059
 8946SOL     OW37766   8.075   2.322   2.667
 8946SOL    HW137767   8.080   2.258   2.744
 8946SOL    HW237768   8.134   2.400   2.685
 8947SOL     OW37769   1.063   5.779   2.786
 8947SOL    HW137770   1.041   5.723   2.706
 8947SOL    HW237771   1.135   5.733   2.839
 8948SOL     OW37772   4.571   2.724   2.686
 8948SOL    HW137773   4.611   2.670   2.612
 8948SOL    HW237774   4.486   2.767   2.654
 8949SOL     OW37775   1.342   3.451   4.372
 8949SOL    HW137776   1.258   3.399   4.358
 8949SOL    HW237777   1.393   3.456   4.286
 8950SOL     OW37778   8.006   1.792   0.750
 8950SOL    HW137779   8.015   1.760   0.656
 8950SOL    HW237780   7.944   1.732   0.800
 8951SOL     OW37781   1.483   2.434   2.438
 8951SOL    HW137782   1.510   2.529   2.427
 8951SOL    HW237783   1.564   2.379   2.461
 8952SOL     OW37784   2.728   8.752   3.479
 8952SOL    HW137785   2.707   8.757   3.381
 8952SOL    HW237786   2.649   8.784   3.531
 8953SOL     OW37787   1.462   5.599   2.580
 8953SOL    HW137788   1.379   5.625   2.532
 8953SOL    HW237789   1.447   5.511   2.627
 8954SOL     OW37790   1.569   1.867   2.150
 8954SOL    HW137791   1.655   1.818   2.160
 8954SOL    HW237792   1.583   1.946   2.089
 8955SOL     OW37793   3.898   3.349   1.006
 8955SOL    HW137794   3.924   3.253   1.000
 8955SOL    HW237795   3.853   3.377   0.921
 8956SOL     OW37796   6.926   9.894   5.165
 8956SOL    HW137797   6.986   9.926   5.091
 8956SOL    HW237798   6.926   9.794   5.167
 8957SOL     OW37799   5.462   7.990   1.834
 8957SOL    HW137800   5.391   8.061   1.840
 8957SOL    HW237801   5.444   7.932   1.754
 8958SOL     OW37802   8.699   6.279   4.733
 8958SOL    HW137803   8.607   6.309   4.707
 8958SOL    HW237804   8.704   6.272   4.833
 8959SOL     OW37805   8.762   9.245   0.276
 8959SOL    HW137806   8.737   9.325   0.222
 8959SOL    HW237807   8.854   9.215   0.251
 8960SOL     OW37808   9.315   8.466   3.756
 8960SOL    HW137809   9.322   8.550   3.811
 8960SOL    HW237810   9.225   8.424   3.772
 8961SOL     OW37811   2.998   5.690   3.769
 8961SOL    HW137812   2.990   5.770   3.709
 8961SOL    HW237813   2.963   5.713   3.860
 8962SOL     OW37814   2.815   7.526   4.852
 8962SOL    HW137815   2.783   7.604   4.907
 8962SOL    HW237816   2.755   7.514   4.773
 8963SOL     OW37817   1.225   3.597   4.918
 8963SOL    HW137818   1.296   3.572   4.984
 8963SOL    HW237819   1.135   3.590   4.963
 8964SOL     OW37820   7.885   3.941   4.965
 8964SOL    HW137821   7.937   4.009   5.017
 8964SOL    HW237822   7.885   3.965   4.868
 8965SOL     OW37823   9.775   7.373   2.775
 8965SOL    HW137824   9.711   7.389   2.850
 8965SOL    HW237825   9.804   7.461   2.737
 8966SOL     OW37826   2.307   6.875   4.949
 8966SOL    HW137827   2.405   6.862   4.959
 8966SOL    HW237828   2.259   6.797   4.989
 8967SOL     OW37829   0.902   3.251   1.370
 8967SOL    HW137830   0.989   3.207   1.348
 8967SOL    HW237831   0.830   3.181   1.375
 8968SOL     OW37832   3.401   5.039   3.436
 8968SOL    HW137833   3.361   5.106   3.498
 8968SOL    HW237834   3.329   4.986   3.392
 8969SOL     OW37835   0.168   1.968   1.270
 8969SOL    HW137836   0.175   1.958   1.171
 8969SOL    HW237837   0.202   2.059   1.297
 8970SOL     OW37838   6.130   9.274   3.469
 8970SOL    HW137839   6.097   9.363   3.500
 8970SOL    HW237840   6.179   9.284   3.383
 8971SOL     OW37841   2.462   1.907   0.730
 8971SOL    HW137842   2.505   1.993   0.701
 8971SOL    HW237843   2.383   1.927   0.788
 8972SOL     OW37844   3.143   9.416   4.505
 8972SOL    HW137845   3.119   9.333   4.455
 8972SOL    HW237846   3.079   9.429   4.581
 8973SOL     OW37847   1.650   0.364   3.893
 8973SOL    HW137848   1.671   0.274   3.855
 8973SOL    HW237849   1.709   0.383   3.971
 8974SOL     OW37850   0.621   6.626   1.924
 8974SOL    HW137851   0.603   6.544   1.870
 8974SOL    HW237852   0.549   6.693   1.908
 8975SOL     OW37853   8.730   5.835   0.704
 8975SOL    HW137854   8.723   5.875   0.795
 8975SOL    HW237855   8.765   5.742   0.711
 8976SOL     OW37856   0.959   4.942   3.128
 8976SOL    HW137857   1.057   4.939   3.145
 8976SOL    HW237858   0.921   4.850   3.138
 8977SOL     OW37859   7.015   1.906   2.324
 8977SOL    HW137860   7.009   1.872   2.418
 8977SOL    HW237861   6.935   1.962   2.304
 8978SOL     OW37862   7.977   9.921   4.431
 8978SOL    HW137863   8.002   9.873   4.515
 8978SOL    HW237864   7.989   9.859   4.353
 8979SOL     OW37865   7.602   9.571   3.877
 8979SOL    HW137866   7.617   9.506   3.803
 8979SOL    HW237867   7.594   9.663   3.839
 8980SOL     OW37868   8.017   4.136   3.805
 8980SOL    HW137869   7.988   4.049   3.846
 8980SOL    HW237870   8.100   4.168   3.850
 8981SOL     OW37871   8.574   5.006   1.150
 8981SOL    HW137872   8.662   5.054   1.156
 8981SOL    HW237873   8.591   4.907   1.144
 8982SOL     OW37874   1.169   6.051   1.959
 8982SOL    HW137875   1.147   6.148   1.948
 8982SOL    HW237876   1.244   6.040   2.024
 8983SOL     OW37877   3.783   2.059   0.712
 8983SOL    HW137878   3.711   2.000   0.675
 8983SOL    HW237879   3.872   2.017   0.697
 8984SOL     OW37880   8.020   4.310   3.361
 8984SOL    HW137881   7.931   4.296   3.405
 8984SOL    HW237882   8.093   4.286   3.425
 8985SOL     OW37883   1.108   3.120   2.731
 8985SOL    HW137884   1.088   3.029   2.694
 8985SOL    HW237885   1.048   3.187   2.689
 8986SOL     OW37886   9.066   8.667   1.618
 8986SOL    HW137887   9.120   8.694   1.697
 8986SOL    HW237888   9.028   8.748   1.574
 8987SOL     OW37889   3.901   6.363   2.967
 8987SOL    HW137890   3.899   6.424   2.888
 8987SOL    HW237891   3.993   6.362   3.007
 8988SOL     OW37892   1.582   0.016   4.725
 8988SOL    HW137893   1.618   9.930   4.761
 8988SOL    HW237894   1.600   0.021   4.627
 8989SOL     OW37895   0.983   3.073   3.358
 8989SOL    HW137896   1.041   3.086   3.278
 8989SOL    HW237897   0.916   3.002   3.339
 8990SOL     OW37898   9.853   6.353   4.903
 8990SOL    HW137899   9.775   6.291   4.904
 8990SOL    HW237900   9.898   6.352   4.993
 8991SOL     OW37901   6.392   7.408   4.525
 8991SOL    HW137902   6.337   7.326   4.511
 8991SOL    HW237903   6.362   7.455   4.607
 8992SOL     OW37904   4.435   0.645   1.746
 8992SOL    HW137905   4.493   0.606   1.817
 8992SOL    HW237906   4.488   0.706   1.688
 8993SOL     OW37907   4.977   8.406   4.115
 8993SOL    HW137908   4.977   8.306   4.120
 8993SOL    HW237909   4.907   8.442   4.177
 8994SOL     OW37910   6.448   0.587   4.493
 8994SOL    HW137911   6.404   0.670   4.457
 8994SOL    HW237912   6.529   0.612   4.545
 8995SOL     OW37913   4.247   4.758   3.837
 8995SOL    HW137914   4.158   4.771   3.879
 8995SOL    HW237915   4.237   4.757   3.737
 8996SOL     OW37916   0.856   3.666   2.729
 8996SOL    HW137917   0.795   3.595   2.692
 8996SOL    HW237918   0.837   3.678   2.827
 8997SOL     OW37919   0.647   2.037   1.217
 8997SOL    HW137920   0.742   2.015   1.196
 8997SOL    HW237921   0.639   2.133   1.241
 8998SOL     OW37922   7.927   1.630   0.261
 8998SOL    HW137923   7.915   1.706   0.198
 8998SOL    HW237924   7.855   1.562   0.245
 8999SOL     OW37925   8.980   3.207   2.838
 8999SOL    HW137926   8.956   3.293   2.882
 8999SOL    HW237927   8.900   3.147   2.835
 9000SOL     OW37928   2.470   7.511   3.312
 9000SOL    HW137929   2.478   7.474   3.404
 9000SOL    HW237930   2.561   7.520   3.272
 9001SOL     OW37931   1.869   4.089   3.208
 9001SOL    HW137932   1.945   4.027   3.187
 9001SOL    HW237933   1.893   4.182   3.179
 9002SOL     OW37934   7.670   1.788   0.700
 9002SOL    HW137935   7.711   1.879   0.707
 9002SOL    HW237936   7.665   1.761   0.604
 9003SOL     OW37937   9.900   0.809   1.955
 9003SOL    HW137938   9.909   0.858   2.041
 9003SOL    HW237939   9.970   0.738   1.948
 9004SOL     OW37940   3.596   6.306   1.574
 9004SOL    HW137941   3.652   6.374   1.621
 9004SOL    HW237942   3.535   6.262   1.639
 9005SOL     OW37943   9.249   9.674   3.728
 9005SOL    HW137944   9.227   9.734   3.805
 9005SOL    HW237945   9.226   9.721   3.643
 9006SOL     OW37946   3.814   8.623   3.292
 9006SOL    HW137947   3.854   8.704   3.249
 9006SOL    HW237948   3.740   8.588   3.234
 9007SOL     OW37949   7.283   3.850   1.597
 9007SOL    HW137950   7.290   3.751   1.588
 9007SOL    HW237951   7.318   3.894   1.515
 9008SOL     OW37952   8.285   8.992   1.654
 9008SOL    HW137953   8.318   8.904   1.620
 9008SOL    HW237954   8.221   9.031   1.588
 9009SOL     OW37955   2.117   4.068   1.070
 9009SOL    HW137956   2.020   4.070   1.045
 9009SOL    HW237957   2.126   4.031   1.162
 9010SOL     OW37958   9.658   0.858   4.251
 9010SOL    HW137959   9.595   0.807   4.309
 9010SOL    HW237960   9.624   0.859   4.157
 9011SOL     OW37961   0.225   7.223   4.875
 9011SOL    HW137962   0.276   7.141   4.848
 9011SOL    HW237963   0.215   7.284   4.796
 9012SOL     OW37964   3.397   7.506   2.959
 9012SOL    HW137965   3.489   7.468   2.963
 9012SOL    HW237966   3.375   7.530   2.864
 9013SOL     OW37967   8.770   9.813   3.735
 9013SOL    HW137968   8.793   9.716   3.726
 9013SOL    HW237969   8.822   9.866   3.667
 9014SOL     OW37970   4.571   0.278   4.302
 9014SOL    HW137971   4.523   0.211   4.246
 9014SOL    HW237972   4.668   0.254   4.306
 9015SOL     OW37973   2.344   0.903   2.539
 9015SOL    HW137974   2.285   0.951   2.604
 9015SOL    HW237975   2.410   0.968   2.501
 9016SOL     OW37976   0.274   8.182   5.216
 9016SOL    HW137977   0.312   8.272   5.191
 9016SOL    HW237978   0.241   8.185   5.310
 9017SOL     OW37979   2.004   4.346   4.639
 9017SOL    HW137980   2.010   4.307   4.548
 9017SOL    HW237981   2.011   4.446   4.633
 9018SOL     OW37982   8.672   0.956   1.180
 9018SOL    HW137983   8.692   0.939   1.083
 9018SOL    HW237984   8.574   0.969   1.192
 9019SOL     OW37985   9.572   8.459   0.198
 9019SOL    HW137986   9.546   8.372   0.241
 9019SOL    HW237987   9.662   8.487   0.231
 9020SOL     OW37988   3.915   4.348   0.362
 9020SOL    HW137989   3.828   4.371   0.316
 9020SOL    HW237990   3.950   4.429   0.408
 9021SOL     OW37991   1.812   7.260   0.193
 9021SOL    HW137992   1.841   7.167   0.170
 9021SOL    HW237993   1.883   7.305   0.248
 9022SOL     OW37994   4.928   0.751   2.761
 9022SOL    HW137995   4.906   0.654   2.772
 9022SOL    HW237996   4.858   0.794   2.704
 9023SOL     OW37997   9.652   9.710   1.297
 9023SOL    HW137998   9.570   9.767   1.303
 9023SOL    HW237999   9.656   9.649   1.376
 9024SOL     OW38000   1.276   3.255   0.883
 9024SOL    HW138001   1.271   3.156   0.892
 9024SOL    HW238002   1.298   3.279   0.788
 9025SOL     OW38003   3.872   4.022   4.565
 9025SOL    HW138004   3.812   3.944   4.582
 9025SOL    HW238005   3.912   4.053   4.652
 9026SOL     OW38006   0.337   9.178   0.840
 9026SOL    HW138007   0.398   9.220   0.907
 9026SOL    HW238008   0.379   9.182   0.749
 9027SOL     OW38009   8.554   6.702   4.889
 9027SOL    HW138010   8.459   6.680   4.865
 9027SOL    HW238011   8.595   6.625   4.938
 9028SOL     OW38012   3.940   0.454   4.485
 9028SOL    HW138013   3.901   0.546   4.479
 9028SOL    HW238014   4.039   0.460   4.493
 9029SOL     OW38015   0.508   3.754   1.826
 9029SOL    HW138016   0.596   3.716   1.856
 9029SOL    HW238017   0.444   3.680   1.808
 9030SOL     OW38018   2.637   0.790   4.536
 9030SOL    HW138019   2.624   0.777   4.438
 9030SOL    HW238020   2.590   0.717   4.586
 9031SOL     OW38021   5.763   4.612   0.180
 9031SOL    HW138022   5.686   4.548   0.172
 9031SOL    HW238023   5.815   4.592   0.263
 9032SOL     OW38024   5.726   9.866   4.326
 9032SOL    HW138025   5.741   9.947   4.269
 9032SOL    HW238026   5.628   9.853   4.339
 9033SOL     OW38027   8.457   6.956   4.473
 9033SOL    HW138028   8.501   6.949   4.384
 9033SOL    HW238029   8.523   6.939   4.545
 9034SOL     OW38030   1.482   5.837   0.909
 9034SOL    HW138031   1.552   5.886   0.962
 9034SOL    HW238032   1.393   5.879   0.925
 9035SOL     OW38033   2.876   9.832   3.174
 9035SOL    HW138034   2.876   9.902   3.103
 9035SOL    HW238035   2.927   9.752   3.142
 9036SOL     OW38036   8.703   7.502   1.867
 9036SOL    HW138037   8.684   7.418   1.918
 9036SOL    HW238038   8.680   7.581   1.925
 9037SOL     OW38039   9.847   0.194   1.955
 9037SOL    HW138040   9.807   0.254   2.025
 9037SOL    HW238041   9.891   0.250   1.885
 9038SOL     OW38042   4.228   9.637   1.492
 9038SOL    HW138043   4.310   9.690   1.513
 9038SOL    HW238044   4.209   9.573   1.567
 9039SOL     OW38045   5.600   9.720   1.458
 9039SOL    HW138046   5.597   9.685   1.364
 9039SOL    HW238047   5.586   9.819   1.457
 9040SOL     OW38048   8.859   5.809   1.749
 9040SOL    HW138049   8.946   5.765   1.725
 9040SOL    HW238050   8.840   5.884   1.685
 9041SOL     OW38051   1.809   4.682   3.605
 9041SOL    HW138052   1.751   4.689   3.686
 9041SOL    HW238053   1.760   4.633   3.533
 9042SOL     OW38054   0.538   1.350   0.632
 9042SOL    HW138055   0.543   1.422   0.701
 9042SOL    HW238056   0.480   1.380   0.556
 9043SOL     OW38057   0.119   1.258   1.218
 9043SOL    HW138058   0.123   1.344   1.165
 9043SOL    HW238059   0.139   1.181   1.157
 9044SOL     OW38060   2.888   9.807   2.782
 9044SOL    HW138061   2.874   9.872   2.857
 9044SOL    HW238062   2.804   9.798   2.729
 9045SOL     OW38063   3.624   8.336   2.023
 9045SOL    HW138064   3.696   8.325   1.954
 9045SOL    HW238065   3.656   8.398   2.094
 9046SOL     OW38066   3.569   7.763   4.527
 9046SOL    HW138067   3.608   7.673   4.548
 9046SOL    HW238068   3.542   7.766   4.431
 9047SOL     OW38069   9.552   6.743   1.969
 9047SOL    HW138070   9.454   6.754   1.953
 9047SOL    HW238071   9.576   6.646   1.964
 9048SOL     OW38072   2.501   9.389   4.463
 9048SOL    HW138073   2.543   9.315   4.411
 9048SOL    HW238074   2.402   9.378   4.463
 9049SOL     OW38075   9.922   9.073   1.607
 9049SOL    HW138076   9.945   8.977   1.595
 9049SOL    HW238077   9.827   9.089   1.579
 9050SOL     OW38078   7.868   4.530   4.546
 9050SOL    HW138079   7.792   4.573   4.596
 9050SOL    HW238080   7.920   4.600   4.498
 9051SOL     OW38081   0.482   6.425   2.304
 9051SOL    HW138082   0.418   6.501   2.307
 9051SOL    HW238083   0.432   6.340   2.286
 9052SOL     OW38084   1.198   4.484   1.887
 9052SOL    HW138085   1.151   4.549   1.947
 9052SOL    HW238086   1.209   4.397   1.934
 9053SOL     OW38087   9.489   9.548   3.792
 9053SOL    HW138088   9.412   9.605   3.762
 9053SOL    HW238089   9.528   9.501   3.712
 9054SOL     OW38090   8.857   2.029   4.823
 9054SOL    HW138091   8.948   2.067   4.804
 9054SOL    HW238092   8.807   2.017   4.738
 9055SOL     OW38093   8.752   3.669   3.520
 9055SOL    HW138094   8.745   3.571   3.500
 9055SOL    HW238095   8.767   3.682   3.617
 9056SOL     OW38096   3.444   4.014   4.759
 9056SOL    HW138097   3.443   4.000   4.660
 9056SOL    HW238098   3.521   3.964   4.798
 9057SOL     OW38099   7.677   9.083   2.963
 9057SOL    HW138100   7.695   9.179   2.980
 9057SOL    HW238101   7.719   9.056   2.876
 9058SOL     OW38102   2.010   2.602   5.103
 9058SOL    HW138103   2.075   2.674   5.130
 9058SOL    HW238104   2.047   2.513   5.128
 9059SOL     OW38105   7.614   0.946   3.945
 9059SOL    HW138106   7.558   0.938   4.027
 9059SOL    HW238107   7.597   0.868   3.885
 9060SOL     OW38108   4.743   6.642   2.595
 9060SOL    HW138109   4.742   6.543   2.606
 9060SOL    HW238110   4.793   6.667   2.512
 9061SOL     OW38111   9.282   0.874   1.267
 9061SOL    HW138112   9.326   0.799   1.217
 9061SOL    HW238113   9.338   0.898   1.346
 9062SOL     OW38114   9.185   3.888   1.255
 9062SOL    HW138115   9.280   3.921   1.256
 9062SOL    HW238116   9.180   3.803   1.308
 9063SOL     OW38117   2.632   9.962   1.448
 9063SOL    HW138118   2.626   0.061   1.463
 9063SOL    HW238119   2.728   9.935   1.441
 9064SOL     OW38120   0.556   2.832   2.467
 9064SOL    HW138121   0.646   2.807   2.432
 9064SOL    HW238122   0.538   2.929   2.445
 9065SOL     OW38123   1.215   5.196   3.287
 9065SOL    HW138124   1.212   5.100   3.259
 9065SOL    HW238125   1.305   5.217   3.325
 9066SOL     OW38126   9.191   6.006   3.528
 9066SOL    HW138127   9.249   5.972   3.602
 9066SOL    HW238128   9.138   6.084   3.561
 9067SOL     OW38129   9.093   0.036   1.512
 9067SOL    HW138130   9.050   0.125   1.502
 9067SOL    HW238131   9.143   0.033   1.599
 9068SOL     OW38132   4.233   3.960   3.346
 9068SOL    HW138133   4.168   3.885   3.339
 9068SOL    HW238134   4.292   3.947   3.426
 9069SOL     OW38135   5.139   5.954   2.441
 9069SOL    HW138136   5.056   5.899   2.434
 9069SOL    HW238137   5.165   5.986   2.350
 9070SOL     OW38138   5.299   8.939   4.122
 9070SOL    HW138139   5.309   8.974   4.215
 9070SOL    HW238140   5.219   8.879   4.117
 9071SOL     OW38141   5.150   8.442   3.767
 9071SOL    HW138142   5.115   8.350   3.786
 9071SOL    HW238143   5.179   8.448   3.672
 9072SOL     OW38144   5.539   7.652   4.804
 9072SOL    HW138145   5.590   7.702   4.873
 9072SOL    HW238146   5.581   7.563   4.789
 9073SOL     OW38147   4.509   4.173   2.058
 9073SOL    HW138148   4.565   4.119   1.994
 9073SOL    HW238149   4.419   4.190   2.017
 9074SOL     OW38150   7.852   3.892   1.892
 9074SOL    HW138151   7.852   3.992   1.893
 9074SOL    HW238152   7.899   3.859   1.810
 9075SOL     OW38153   7.812   3.279   4.394
 9075SOL    HW138154   7.842   3.224   4.316
 9075SOL    HW238155   7.833   3.230   4.479
 9076SOL     OW38156   4.855   3.551   5.209
 9076SOL    HW138157   4.880   3.490   5.134
 9076SOL    HW238158   4.791   3.621   5.176
 9077SOL     OW38159   9.795   9.331   5.103
 9077SOL    HW138160   9.871   9.366   5.048
 9077SOL    HW238161   9.746   9.261   5.051
 9078SOL     OW38162   9.798   2.429   2.946
 9078SOL    HW138163   9.865   2.357   2.958
 9078SOL    HW238164   9.804   2.466   2.853
 9079SOL     OW38165   7.897   0.881   1.119
 9079SOL    HW138166   7.904   0.928   1.031
 9079SOL    HW238167   7.831   0.929   1.177
 9080SOL     OW38168   1.800   1.307   1.905
 9080SOL    HW138169   1.810   1.392   1.853
 9080SOL    HW238170   1.886   1.284   1.950
 9081SOL     OW38171   9.273   5.298   4.240
 9081SOL    HW138172   9.321   5.238   4.304
 9081SOL    HW238173   9.306   5.281   4.147
 9082SOL     OW38174   3.413   0.021   4.521
 9082SOL    HW138175   3.399   9.938   4.468
 9082SOL    HW238176   3.442   9.997   4.614
 9083SOL     OW38177   8.246   9.132   1.889
 9083SOL    HW138178   8.332   9.130   1.940
 9083SOL    HW238179   8.258   9.085   1.801
 9084SOL     OW38180   2.430   6.200   4.315
 9084SOL    HW138181   2.498   6.156   4.256
 9084SOL    HW238182   2.469   6.281   4.357
 9085SOL     OW38183   0.815   5.024   3.578
 9085SOL    HW138184   0.838   5.051   3.671
 9085SOL    HW238185   0.820   5.104   3.518
 9086SOL     OW38186   2.417   7.044   2.323
 9086SOL    HW138187   2.475   7.082   2.250
 9086SOL    HW238188   2.444   7.084   2.410
 9087SOL     OW38189   3.408   2.683   4.851
 9087SOL    HW138190   3.368   2.644   4.768
 9087SOL    HW238191   3.496   2.724   4.829
 9088SOL     OW38192   0.786   4.665   3.743
 9088SOL    HW138193   0.688   4.684   3.751
 9088SOL    HW238194   0.801   4.567   3.756
 9089SOL     OW38195   4.912   8.731   2.788
 9089SOL    HW138196   4.888   8.691   2.877
 9089SOL    HW238197   4.981   8.675   2.743
 9090SOL     OW38198   3.871   0.256   1.134
 9090SOL    HW138199   3.853   0.261   1.036
 9090SOL    HW238200   3.802   0.199   1.177
 9091SOL     OW38201   6.829   0.936   3.877
 9091SOL    HW138202   6.757   0.871   3.850
 9091SOL    HW238203   6.840   1.004   3.805
 9092SOL     OW38204   6.886   4.641   0.221
 9092SOL    HW138205   6.794   4.607   0.206
 9092SOL    HW238206   6.882   4.738   0.247
 9093SOL     OW38207   1.488   8.120   4.297
 9093SOL    HW138208   1.506   8.103   4.201
 9093SOL    HW238209   1.430   8.047   4.334
 9094SOL     OW38210   7.834   0.332   0.951
 9094SOL    HW138211   7.841   0.432   0.955
 9094SOL    HW238212   7.910   0.291   1.001
 9095SOL     OW38213   3.117   4.956   1.778
 9095SOL    HW138214   3.067   5.019   1.718
 9095SOL    HW238215   3.205   4.935   1.737
 9096SOL     OW38216   0.479   6.403   4.494
 9096SOL    HW138217   0.441   6.314   4.518
 9096SOL    HW238218   0.425   6.475   4.536
 9097SOL     OW38219   4.775   2.182   2.607
 9097SOL    HW138220   4.684   2.209   2.641
 9097SOL    HW238221   4.796   2.090   2.641
 9098SOL     OW38222   2.764   2.935   5.053
 9098SOL    HW138223   2.859   2.950   5.080
 9098SOL    HW238224   2.710   3.016   5.074
 9099SOL     OW38225   7.049   2.846   0.652
 9099SOL    HW138226   7.085   2.888   0.568
 9099SOL    HW238227   7.071   2.749   0.652
 9100SOL     OW38228   3.047   4.341   2.826
 9100SOL    HW138229   2.969   4.359   2.886
 9100SOL    HW238230   3.067   4.423   2.772
 9101SOL     OW38231   3.849   2.802   0.350
 9101SOL    HW138232   3.904   2.864   0.406
 9101SOL    HW238233   3.804   2.735   0.409
 9102SOL     OW38234   3.790   5.811   4.838
 9102SOL    HW138235   3.715   5.779   4.780
 9102SOL    HW238236   3.754   5.832   4.929
 9103SOL     OW38237   0.303   7.812   3.501
 9103SOL    HW138238   0.326   7.748   3.575
 9103SOL    HW238239   0.358   7.790   3.420
 9104SOL     OW38240   1.536   2.539   0.594
 9104SOL    HW138241   1.635   2.547   0.581
 9104SOL    HW238242   1.515   2.445   0.623
 9105SOL     OW38243   2.919   5.769   0.653
 9105SOL    HW138244   3.000   5.826   0.668
 9105SOL    HW238245   2.838   5.827   0.650
 9106SOL     OW38246   9.442   9.875   1.392
 9106SOL    HW138247   9.412   9.807   1.459
 9106SOL    HW238248   9.502   9.941   1.436
 9107SOL     OW38249   0.315   8.651   1.745
 9107SOL    HW138250   0.227   8.689   1.775
 9107SOL    HW238251   0.378   8.725   1.723
 9108SOL     OW38252   5.449   7.457   3.063
 9108SOL    HW138253   5.349   7.467   3.067
 9108SOL    HW238254   5.471   7.384   2.997
 9109SOL     OW38255   2.451   7.151   3.694
 9109SOL    HW138256   2.362   7.161   3.739
 9109SOL    HW238257   2.474   7.237   3.647
 9110SOL     OW38258   4.476   6.648   3.021
 9110SOL    HW138259   4.397   6.628   2.963
 9110SOL    HW238260   4.445   6.660   3.116
 9111SOL     OW38261   3.178   1.500   4.116
 9111SOL    HW138262   3.130   1.541   4.039
 9111SOL    HW238263   3.269   1.470   4.087
 9112SOL     OW38264   0.017   1.522   0.603
 9112SOL    HW138265   9.927   1.533   0.646
 9112SOL    HW238266   0.060   1.438   0.636
 9113SOL     OW38267   2.104   2.760   4.283
 9113SOL    HW138268   2.069   2.806   4.201
 9113SOL    HW238269   2.049   2.785   4.362
 9114SOL     OW38270   8.501   5.188   4.092
 9114SOL    HW138271   8.464   5.176   4.000
 9114SOL    HW238272   8.502   5.286   4.114
 9115SOL     OW38273   3.581   1.746   3.166
 9115SOL    HW138274   3.538   1.676   3.222
 9115SOL    HW238275   3.673   1.716   3.139
 9116SOL     OW38276   6.032   8.035   3.474
 9116SOL    HW138277   6.004   8.057   3.567
 9116SOL    HW238278   6.094   8.106   3.440
 9117SOL     OW38279   2.210   1.994   2.280
 9117SOL    HW138280   2.272   2.057   2.326
 9117SOL    HW238281   2.119   2.001   2.321
 9118SOL     OW38282   9.570   2.331   3.285
 9118SOL    HW138283   9.607   2.297   3.371
 9118SOL    HW238284   9.550   2.254   3.225
 9119SOL     OW38285   8.622   8.263   4.698
 9119SOL    HW138286   8.628   8.360   4.721
 9119SOL    HW238287   8.547   8.250   4.633
 9120SOL     OW38288   8.256   5.121   0.225
 9120SOL    HW138289   8.284   5.088   0.315
 9120SOL    HW238290   8.300   5.065   0.155
 9121SOL     OW38291   0.861   6.637   1.516
 9121SOL    HW138292   0.876   6.641   1.615
 9121SOL    HW238293   0.910   6.713   1.472
 9122SOL     OW38294   9.516   3.262   3.976
 9122SOL    HW138295   9.470   3.349   3.963
 9122SOL    HW238296   9.614   3.273   3.958
 9123SOL     OW38297   1.280   2.636   1.411
 9123SOL    HW138298   1.371   2.620   1.449
 9123SOL    HW238299   1.213   2.586   1.464
 9124SOL     OW38300   5.345   9.021   1.546
 9124SOL    HW138301   5.363   9.111   1.506
 9124SOL    HW238302   5.249   9.015   1.572
 9125SOL     OW38303   3.800   2.270   1.042
 9125SOL    HW138304   3.814   2.281   0.943
 9125SOL    HW238305   3.887   2.244   1.085
 9126SOL     OW38306   2.890   2.963   1.388
 9126SOL    HW138307   2.964   2.986   1.324
 9126SOL    HW238308   2.805   3.004   1.355
 9127SOL     OW38309   2.444   3.944   1.589
 9127SOL    HW138310   2.481   3.900   1.507
 9127SOL    HW238311   2.478   3.896   1.670
 9128SOL     OW38312   4.352   2.305   2.530
 9128SOL    HW138313   4.281   2.357   2.578
 9128SOL    HW238314   4.427   2.287   2.593
 9129SOL     OW38315   4.012   9.027   0.320
 9129SOL    HW138316   4.102   8.988   0.301
 9129SOL    HW238317   3.946   8.954   0.335
 9130SOL     OW38318   2.624   4.898   3.607
 9130SOL    HW138319   2.592   4.982   3.564
 9130SOL    HW238320   2.545   4.841   3.631
 9131SOL     OW38321   7.725   2.773   2.482
 9131SOL    HW138322   7.795   2.775   2.553
 9131SOL    HW238323   7.643   2.728   2.517
 9132SOL     OW38324   6.626   0.202   4.482
 9132SOL    HW138325   6.624   0.106   4.510
 9132SOL    HW238326   6.716   0.224   4.444
 9133SOL     OW38327   1.824   7.679   0.376
 9133SOL    HW138328   1.923   7.665   0.385
 9133SOL    HW238329   1.791   7.631   0.295
 9134SOL     OW38330   1.694   9.632   1.373
 9134SOL    HW138331   1.659   9.701   1.309
 9134SOL    HW238332   1.712   9.547   1.324
 9135SOL     OW38333   1.256   7.206   4.046
 9135SOL    HW138334   1.203   7.168   3.970
 9135SOL    HW238335   1.289   7.132   4.105
 9136SOL     OW38336   4.445   1.886   4.924
 9136SOL    HW138337   4.521   1.891   4.989
 9136SOL    HW238338   4.468   1.821   4.851
 9137SOL     OW38339   8.764   9.429   0.923
 9137SOL    HW138340   8.796   9.437   1.017
 9137SOL    HW238341   8.814   9.493   0.865
 9138SOL     OW38342   4.619   0.899   0.623
 9138SOL    HW138343   4.637   0.964   0.550
 9138SOL    HW238344   4.658   0.810   0.599
 9139SOL     OW38345   9.921   9.086   5.188
 9139SOL    HW138346   0.015   9.093   5.220
 9139SOL    HW238347   9.880   9.177   5.181
 9140SOL     OW38348   8.251   0.041   0.402
 9140SOL    HW138349   8.246   0.065   0.305
 9140SOL    HW238350   8.164   0.063   0.446
 9141SOL     OW38351   1.904   7.614   3.245
 9141SOL    HW138352   1.811   7.648   3.231
 9141SOL    HW238353   1.961   7.641   3.168
 9142SOL     OW38354   2.487   3.579   0.140
 9142SOL    HW138355   2.410   3.516   0.134
 9142SOL    HW238356   2.566   3.532   0.179
 9143SOL     OW38357   0.130   2.537   0.734
 9143SOL    HW138358   0.061   2.610   0.739
 9143SOL    HW238359   0.108   2.466   0.800
 9144SOL     OW38360   9.025   9.754   4.490
 9144SOL    HW138361   8.937   9.707   4.498
 9144SOL    HW238362   9.013   9.841   4.443
 9145SOL     OW38363   0.671   3.813   4.883
 9145SOL    HW138364   0.673   3.783   4.787
 9145SOL    HW238365   0.765   3.823   4.916
 9146SOL     OW38366   0.230   5.332   0.146
 9146SOL    HW138367   0.230   5.382   0.059
 9146SOL    HW238368   0.273   5.243   0.133
 9147SOL     OW38369   3.723   9.908   2.333
 9147SOL    HW138370   3.672   9.994   2.332
 9147SOL    HW238371   3.821   9.927   2.340
 9148SOL     OW38372   5.079   3.048   3.980
 9148SOL    HW138373   5.042   3.031   4.072
 9148SOL    HW238374   5.108   3.143   3.973
 9149SOL     OW38375   0.336   2.001   3.698
 9149SOL    HW138376   0.377   1.959   3.618
 9149SOL    HW238377   0.251   2.047   3.672
 9150SOL     OW38378   9.372   1.323   0.096
 9150SOL    HW138379   9.414   1.412   0.117
 9150SOL    HW238380   9.442   1.252   0.099
 9151SOL     OW38381   9.075   2.282   0.377
 9151SOL    HW138382   9.110   2.327   0.459
 9151SOL    HW238383   9.152   2.250   0.321
 9152SOL     OW38384   1.914   9.567   3.049
 9152SOL    HW138385   1.878   9.519   2.969
 9152SOL    HW238386   1.970   9.505   3.103
 9153SOL     OW38387   5.085   1.560   5.114
 9153SOL    HW138388   5.098   1.559   5.015
 9153SOL    HW238389   5.088   1.466   5.149
 9154SOL     OW38390   2.264   1.120   5.237
 9154SOL    HW138391   2.342   1.111   5.299
 9154SOL    HW238392   2.217   1.207   5.255
 9155SOL     OW38393   1.800   2.395   3.810
 9155SOL    HW138394   1.833   2.326   3.875
 9155SOL    HW238395   1.862   2.400   3.733
 9156SOL     OW38396   8.355   1.825   1.844
 9156SOL    HW138397   8.411   1.908   1.846
 9156SOL    HW238398   8.339   1.793   1.938
 9157SOL     OW38399   2.383   1.779   2.272
 9157SOL    HW138400   2.347   1.687   2.263
 9157SOL    HW238401   2.307   1.845   2.270
 9158SOL     OW38402   4.786   2.890   3.209
 9158SOL    HW138403   4.844   2.951   3.155
 9158SOL    HW238404   4.828   2.800   3.215
 9159SOL     OW38405   1.039   1.613   4.912
 9159SOL    HW138406   1.051   1.709   4.937
 9159SOL    HW238407   0.944   1.597   4.885
 9160SOL     OW38408   3.820   5.850   2.347
 9160SOL    HW138409   3.795   5.832   2.252
 9160SOL    HW238410   3.774   5.933   2.378
 9161SOL     OW38411   7.998   0.123   0.485
 9161SOL    HW138412   8.001   0.202   0.424
 9161SOL    HW238413   7.950   0.148   0.569
 9162SOL     OW38414   7.605   9.834   3.797
 9162SOL    HW138415   7.700   9.845   3.825
 9162SOL    HW238416   7.581   9.906   3.731
 9163SOL     OW38417   5.255   9.468   2.080
 9163SOL    HW138418   5.268   9.377   2.041
 9163SOL    HW238419   5.329   9.528   2.050
 9164SOL     OW38420   0.321   5.205   5.044
 9164SOL    HW138421   0.222   5.220   5.045
 9164SOL    HW238422   0.340   5.108   5.025
 9165SOL     OW38423   5.256   1.474   1.492
 9165SOL    HW138424   5.213   1.527   1.419
 9165SOL    HW238425   5.279   1.535   1.568
 9166SOL     OW38426   7.091   1.591   2.198
 9166SOL    HW138427   7.161   1.528   2.232
 9166SOL    HW238428   7.131   1.682   2.187
 9167SOL     OW38429   4.837   4.280   3.356
 9167SOL    HW138430   4.903   4.207   3.342
 9167SOL    HW238431   4.748   4.240   3.379
 9168SOL     OW38432   8.595   4.540   3.809
 9168SOL    HW138433   8.682   4.502   3.841
 9168SOL    HW238434   8.575   4.504   3.718
 9169SOL     OW38435   5.354   0.957   1.489
 9169SOL    HW138436   5.254   0.955   1.492
 9169SOL    HW238437   5.386   1.051   1.479
 9170SOL     OW38438   9.557   7.105   4.760
 9170SOL    HW138439   9.544   7.026   4.699
 9170SOL    HW238440   9.489   7.175   4.740
 9171SOL     OW38441   3.527   1.007   2.998
 9171SOL    HW138442   3.576   1.094   2.998
 9171SOL    HW238443   3.471   1.001   3.081
 9172SOL     OW38444   5.691   2.375   2.511
 9172SOL    HW138445   5.754   2.395   2.586
 9172SOL    HW238446   5.597   2.389   2.542
 9173SOL     OW38447   9.174   0.542   0.556
 9173SOL    HW138448   9.231   0.489   0.494
 9173SOL    HW238449   9.099   0.485   0.590
 9174SOL     OW38450   6.130   0.523   2.353
 9174SOL    HW138451   6.093   0.465   2.426
 9174SOL    HW238452   6.130   0.473   2.267
 9175SOL     OW38453   0.675   1.191   4.653
 9175SOL    HW138454   0.718   1.131   4.585
 9175SOL    HW238455   0.746   1.231   4.711
 9176SOL     OW38456   8.355   6.803   3.049
 9176SOL    HW138457   8.403   6.874   2.998
 9176SOL    HW238458   8.416   6.724   3.060
 9177SOL     OW38459   4.019   1.996   4.871
 9177SOL    HW138460   4.117   2.013   4.862
 9177SOL    HW238461   3.991   2.016   4.965
 9178SOL     OW38462   8.447   2.493   1.504
 9178SOL    HW138463   8.420   2.559   1.434
 9178SOL    HW238464   8.455   2.402   1.464
 9179SOL     OW38465   8.861   1.136   0.874
 9179SOL    HW138466   8.945   1.089   0.849
 9179SOL    HW238467   8.829   1.192   0.797
 9180SOL     OW38468   5.223   2.250   3.784
 9180SOL    HW138469   5.286   2.237   3.861
 9180SOL    HW238470   5.144   2.301   3.815
 9181SOL     OW38471   6.903   1.056   2.392
 9181SOL    HW138472   6.995   1.061   2.431
 9181SOL    HW238473   6.841   1.013   2.457
 9182SOL     OW38474   8.367   4.026   4.923
 9182SOL    HW138475   8.302   3.982   4.861
 9182SOL    HW238476   8.336   4.014   5.017
 9183SOL     OW38477   6.323   0.473   2.718
 9183SOL    HW138478   6.233   0.438   2.742
 9183SOL    HW238479   6.388   0.397   2.713
 9184SOL     OW38480   1.658   0.107   3.781
 9184SOL    HW138481   1.668   0.054   3.697
 9184SOL    HW238482   1.650   0.045   3.859
 9185SOL     OW38483   3.583   3.546   4.979
 9185SOL    HW138484   3.622   3.578   5.065
 9185SOL    HW238485   3.558   3.450   4.988
 9186SOL     OW38486   8.776   5.899   2.037
 9186SOL    HW138487   8.784   5.804   2.068
 9186SOL    HW238488   8.813   5.906   1.944
 9187SOL     OW38489   9.239   1.649   3.177
 9187SOL    HW138490   9.201   1.739   3.198
 9187SOL    HW238491   9.336   1.648   3.197
 9188SOL     OW38492   3.180   5.906   2.925
 9188SOL    HW138493   3.106   5.864   2.978
 9188SOL    HW238494   3.149   5.920   2.831
 9189SOL     OW38495   9.923   1.217   2.099
 9189SOL    HW138496   9.930   1.231   2.000
 9189SOL    HW238497   0.003   1.257   2.144
 9190SOL     OW38498   5.609   2.694   3.115
 9190SOL    HW138499   5.553   2.710   3.034
 9190SOL    HW238500   5.659   2.608   3.104
 9191SOL     OW38501   4.223   6.523   1.048
 9191SOL    HW138502   4.255   6.458   0.980
 9191SOL    HW238503   4.301   6.552   1.104
 9192SOL     OW38504   3.692   7.893   3.626
 9192SOL    HW138505   3.707   7.795   3.638
 9192SOL    HW238506   3.777   7.943   3.644
 9193SOL     OW38507   8.620   1.128   2.885
 9193SOL    HW138508   8.554   1.133   2.810
 9193SOL    HW238509   8.709   1.159   2.854
 9194SOL     OW38510   4.124   4.063   1.586
 9194SOL    HW138511   4.144   3.973   1.626
 9194SOL    HW238512   4.117   4.054   1.487
 9195SOL     OW38513   0.498   2.872   3.552
 9195SOL    HW138514   0.508   2.942   3.623
 9195SOL    HW238515   0.582   2.818   3.547
 9196SOL     OW38516   3.976   2.540   0.865
 9196SOL    HW138517   3.910   2.475   0.826
 9196SOL    HW238518   4.058   2.490   0.894
 9197SOL     OW38519   4.809   7.712   2.658
 9197SOL    HW138520   4.847   7.626   2.626
 9197SOL    HW238521   4.716   7.697   2.691
 9198SOL     OW38522   3.384   3.782   2.725
 9198SOL    HW138523   3.430   3.832   2.798
 9198SOL    HW238524   3.335   3.846   2.666
 9199SOL     OW38525   1.414   0.195   3.683
 9199SOL    HW138526   1.388   0.291   3.679
 9199SOL    HW238527   1.507   0.186   3.719
 9200SOL     OW38528   8.339   8.427   2.255
 9200SOL    HW138529   8.307   8.344   2.210
 9200SOL    HW238530   8.439   8.433   2.247
 9201SOL     OW38531   3.747   1.546   2.582
 9201SOL    HW138532   3.742   1.472   2.650
 9201SOL    HW238533   3.727   1.633   2.626
 9202SOL     OW38534   7.929   2.506   2.512
 9202SOL    HW138535   7.965   2.434   2.572
 9202SOL    HW238536   7.907   2.587   2.566
 9203SOL     OW38537   5.633   0.663   1.595
 9203SOL    HW138538   5.604   0.695   1.505
 9203SOL    HW238539   5.591   0.720   1.666
 9204SOL     OW38540   3.908   0.452   4.916
 9204SOL    HW138541   3.883   0.393   4.840
 9204SOL    HW238542   3.885   0.547   4.893
 9205SOL     OW38543   4.966   2.986   4.233
 9205SOL    HW138544   4.902   3.062   4.222
 9205SOL    HW238545   4.982   2.969   4.330
 9206SOL     OW38546   7.117   1.254   2.093
 9206SOL    HW138547   7.179   1.307   2.151
 9206SOL    HW238548   7.026   1.253   2.135
 9207SOL     OW38549   9.066   9.032   0.757
 9207SOL    HW138550   9.112   8.945   0.739
 9207SOL    HW238551   9.056   9.044   0.856
 9208SOL     OW38552   6.935   1.842   4.732
 9208SOL    HW138553   6.897   1.788   4.657
 9208SOL    HW238554   7.030   1.814   4.747
 9209SOL     OW38555   2.531   8.847   3.662
 9209SOL    HW138556   2.557   8.783   3.734
 9209SOL    HW238557   2.570   8.937   3.682
 9210SOL     OW38558   1.697   7.901   3.360
 9210SOL    HW138559   1.674   7.814   3.316
 9210SOL    HW238560   1.777   7.890   3.418
 9211SOL     OW38561   8.278   9.027   1.328
 9211SOL    HW138562   8.199   9.074   1.367
 9211SOL    HW238563   8.263   8.928   1.333
 9212SOL     OW38564   9.959   5.352   3.692
 9212SOL    HW138565   0.008   5.281   3.641
 9212SOL    HW238566   9.872   5.371   3.647
 9213SOL     OW38567   3.269   6.015   1.413
 9213SOL    HW138568   3.255   6.085   1.343
 9213SOL    HW238569   3.359   5.973   1.401
 9214SOL     OW38570   3.171   6.025   4.191
 9214SOL    HW138571   3.110   6.024   4.271
 9214SOL    HW238572   3.214   6.114   4.182
 9215SOL     OW38573   3.434   2.350   0.068
 9215SOL    HW138574   3.474   2.282   0.006
 9215SOL    HW238575   3.395   2.304   0.148
 9216SOL     OW38576   9.190   3.451   5.044
 9216SOL    HW138577   9.240   3.523   4.996
 9216SOL    HW238578   9.093   3.455   5.018
 9217SOL     OW38579   9.713   6.063   2.478
 9217SOL    HW138580   9.692   5.990   2.544
 9217SOL    HW238581   9.811   6.082   2.479
 9218SOL     OW38582   9.354   1.670   0.865
 9218SOL    HW138583   9.274   1.610   0.856
 9218SOL    HW238584   9.323   1.765   0.872
 9219SOL     OW38585   9.434   5.481   0.982
 9219SOL    HW138586   9.334   5.480   0.989
 9219SOL    HW238587   9.474   5.476   1.073
 9220SOL     OW38588   8.974   5.260   4.522
 9220SOL    HW138589   8.977   5.160   4.528
 9220SOL    HW238590   8.941   5.297   4.608
 9221SOL     OW38591   8.818   9.855   4.793
 9221SOL    HW138592   8.866   9.927   4.744
 9221SOL    HW238593   8.855   9.845   4.885
 9222SOL     OW38594   0.807   0.251   4.025
 9222SOL    HW138595   0.837   0.293   3.940
 9222SOL    HW238596   0.815   0.318   4.100
 9223SOL     OW38597   3.477   2.589   2.896
 9223SOL    HW138598   3.540   2.552   2.826
 9223SOL    HW238599   3.473   2.688   2.888
 9224SOL     OW38600   2.187   8.546   0.683
 9224SOL    HW138601   2.125   8.486   0.633
 9224SOL    HW238602   2.270   8.559   0.630
 9225SOL     OW38603   4.096   5.226   0.064
 9225SOL    HW138604   4.101   5.220   6.713
 9225SOL    HW238605   4.041   5.305   0.090
 9226SOL     OW38606   3.498   3.727   1.877
 9226SOL    HW138607   3.533   3.647   1.828
 9226SOL    HW238608   3.501   3.709   1.975
 9227SOL     OW38609   0.247   4.614   0.746
 9227SOL    HW138610   0.268   4.643   0.840
 9227SOL    HW238611   0.326   4.635   0.687
 9228SOL     OW38612   8.431   5.082   3.841
 9228SOL    HW138613   8.384   5.123   3.763
 9228SOL    HW238614   8.525   5.061   3.816
 9229SOL     OW38615   5.593   2.189   4.183
 9229SOL    HW138616   5.599   2.134   4.265
 9229SOL    HW238617   5.681   2.234   4.166
 9230SOL     OW38618   7.009   2.431   4.409
 9230SOL    HW138619   6.923   2.386   4.386
 9230SOL    HW238620   7.086   2.370   4.387
 9231SOL     OW38621   0.160   6.402   4.138
 9231SOL    HW138622   0.138   6.481   4.080
 9231SOL    HW238623   0.253   6.413   4.173
 9232SOL     OW38624   1.577   7.961   2.266
 9232SOL    HW138625   1.607   8.047   2.308
 9232SOL    HW238626   1.649   7.893   2.278
 9233SOL     OW38627   8.505   6.830   5.130
 9233SOL    HW138628   8.532   6.795   5.040
 9233SOL    HW238629   8.557   6.783   5.201
 9234SOL     OW38630   2.740   4.962   0.676
 9234SOL    HW138631   2.668   4.893   0.664
 9234SOL    HW238632   2.698   5.053   0.682
 9235SOL     OW38633   1.770   6.935   3.023
 9235SOL    HW138634   1.778   6.970   2.929
 9235SOL    HW238635   1.858   6.945   3.069
 9236SOL     OW38636   1.234   2.345   0.733
 9236SOL    HW138637   1.323   2.316   0.697
 9236SOL    HW238638   1.175   2.265   0.743
 9237SOL     OW38639   2.072   4.352   5.085
 9237SOL    HW138640   2.033   4.263   5.062
 9237SOL    HW238641   2.168   4.341   5.112
 9238SOL     OW38642   8.122   4.201   0.846
 9238SOL    HW138643   8.157   4.271   0.908
 9238SOL    HW238644   8.023   4.194   0.855
 9239SOL     OW38645   8.540   6.540   0.726
 9239SOL    HW138646   8.548   6.635   0.694
 9239SOL    HW238647   8.617   6.486   0.691
 9240SOL     OW38648   5.285   1.651   3.138
 9240SOL    HW138649   5.218   1.579   3.119
 9240SOL    HW238650   5.296   1.708   3.057
 9241SOL     OW38651   2.154   4.241   2.760
 9241SOL    HW138652   2.231   4.304   2.760
 9241SOL    HW238653   2.170   4.168   2.827
 9242SOL     OW38654   1.734   4.583   2.177
 9242SOL    HW138655   1.779   4.638   2.107
 9242SOL    HW238656   1.803   4.534   2.231
 9243SOL     OW38657   0.998   3.317   3.803
 9243SOL    HW138658   0.938   3.393   3.777
 9243SOL    HW238659   0.986   3.241   3.740
 9244SOL     OW38660   7.910   7.542   4.648
 9244SOL    HW138661   7.884   7.450   4.617
 9244SOL    HW238662   7.854   7.567   4.727
 9245SOL     OW38663   5.853   7.994   4.564
 9245SOL    HW138664   5.776   8.016   4.624
 9245SOL    HW238665   5.910   7.924   4.608
 9246SOL     OW38666   8.943   9.204   4.330
 9246SOL    HW138667   8.944   9.260   4.413
 9246SOL    HW238668   8.866   9.141   4.332
 9247SOL     OW38669   2.484   8.138   3.404
 9247SOL    HW138670   2.519   8.223   3.366
 9247SOL    HW238671   2.425   8.157   3.482
 9248SOL     OW38672   6.060   1.051   3.705
 9248SOL    HW138673   6.085   0.974   3.764
 9248SOL    HW238674   5.961   1.065   3.709
 9249SOL     OW38675   2.044   0.032   4.724
 9249SOL    HW138676   1.978   0.098   4.761
 9249SOL    HW238677   2.115   0.014   4.793
 9250SOL     OW38678   0.336   3.373   0.174
 9250SOL    HW138679   0.292   3.338   0.256
 9250SOL    HW238680   0.405   3.308   0.142
 9251SOL     OW38681   9.187   2.254   1.730
 9251SOL    HW138682   9.193   2.158   1.701
 9251SOL    HW238683   9.268   2.303   1.697
 9252SOL     OW38684   5.033   5.603   2.555
 9252SOL    HW138685   4.997   5.674   2.493
 9252SOL    HW238686   4.967   5.529   2.562
 9253SOL     OW38687   8.974   8.226   0.590
 9253SOL    HW138688   9.023   8.272   0.664
 9253SOL    HW238689   8.920   8.150   0.628
 9254SOL     OW38690   8.993   9.054   3.353
 9254SOL    HW138691   8.960   9.045   3.447
 9254SOL    HW238692   9.069   9.118   3.350
 9255SOL     OW38693   6.774   7.541   3.863
 9255SOL    HW138694   6.775   7.445   3.836
 9255SOL    HW238695   6.686   7.565   3.902
 9256SOL     OW38696   3.742   6.938   2.804
 9256SOL    HW138697   3.801   6.961   2.881
 9256SOL    HW238698   3.646   6.942   2.832
 9257SOL     OW38699   1.228   0.583   4.699
 9257SOL    HW138700   1.195   0.506   4.755
 9257SOL    HW238701   1.152   0.645   4.680
 9258SOL     OW38702   9.531   2.201   4.359
 9258SOL    HW138703   9.623   2.196   4.319
 9258SOL    HW238704   9.528   2.146   4.443
 9259SOL     OW38705   5.152   8.846   0.191
 9259SOL    HW138706   5.183   8.758   0.155
 9259SOL    HW238707   5.161   8.847   0.290
 9260SOL     OW38708   4.505   5.172   2.716
 9260SOL    HW138709   4.433   5.236   2.688
 9260SOL    HW238710   4.561   5.214   2.786
 9261SOL     OW38711   9.598   1.943   4.042
 9261SOL    HW138712   9.685   1.949   3.994
 9261SOL    HW238713   9.611   1.894   4.128
 9262SOL     OW38714   3.041   2.867   2.728
 9262SOL    HW138715   2.968   2.872   2.660
 9262SOL    HW238716   3.006   2.897   2.817
 9263SOL     OW38717   5.081   8.963   2.813
 9263SOL    HW138718   5.022   8.883   2.823
 9263SOL    HW238719   5.096   8.982   2.716
 9264SOL     OW38720   0.874   1.797   0.872
 9264SOL    HW138721   0.943   1.735   0.908
 9264SOL    HW238722   0.820   1.750   0.802
 9265SOL     OW38723   7.985   9.640   0.579
 9265SOL    HW138724   8.006   9.599   0.490
 9265SOL    HW238725   8.067   9.685   0.616
 9266SOL     OW38726   7.864   4.946   1.334
 9266SOL    HW138727   7.878   4.982   1.426
 9266SOL    HW238728   7.915   5.001   1.268
 9267SOL     OW38729   5.646   7.506   2.467
 9267SOL    HW138730   5.686   7.567   2.535
 9267SOL    HW238731   5.719   7.462   2.415
 9268SOL     OW38732   9.220   0.815   0.952
 9268SOL    HW138733   9.269   0.776   0.874
 9268SOL    HW238734   9.179   0.741   1.005
 9269SOL     OW38735   0.463   5.491   2.039
 9269SOL    HW138736   0.450   5.504   2.137
 9269SOL    HW238737   0.383   5.444   2.001
 9270SOL     OW38738   3.794   9.622   0.516
 9270SOL    HW138739   3.841   9.624   0.428
 9270SOL    HW238740   3.696   9.639   0.503
 9271SOL     OW38741   6.027   1.080   1.664
 9271SOL    HW138742   5.972   1.157   1.632
 9271SOL    HW238743   6.006   1.062   1.760
 9272SOL     OW38744   6.139   4.668   0.949
 9272SOL    HW138745   6.056   4.616   0.969
 9272SOL    HW238746   6.218   4.606   0.953
 9273SOL     OW38747   1.079   9.943   0.331
 9273SOL    HW138748   1.043   9.854   0.301
 9273SOL    HW238749   1.099   9.940   0.429
 9274SOL     OW38750   6.460   7.558   2.942
 9274SOL    HW138751   6.401   7.488   2.984
 9274SOL    HW238752   6.439   7.566   2.845
 9275SOL     OW38753   2.139   1.339   4.506
 9275SOL    HW138754   2.167   1.402   4.578
 9275SOL    HW238755   2.196   1.257   4.509
 9276SOL     OW38756   3.118   1.357   3.011
 9276SOL    HW138757   3.042   1.294   2.996
 9276SOL    HW238758   3.175   1.323   3.087
 9277SOL     OW38759   0.770   7.334   2.278
 9277SOL    HW138760   0.688   7.307   2.329
 9277SOL    HW238761   0.747   7.411   2.218
 9278SOL     OW38762   3.307   4.077   0.989
 9278SOL    HW138763   3.253   4.136   1.049
 9278SOL    HW238764   3.395   4.121   0.969
 9279SOL     OW38765   4.189   7.377   1.193
 9279SOL    HW138766   4.166   7.468   1.227
 9279SOL    HW238767   4.151   7.365   1.101
 9280SOL     OW38768   9.372   9.858   2.601
 9280SOL    HW138769   9.321   9.773   2.594
 9280SOL    HW238770   9.317   9.927   2.648
 9281SOL     OW38771   5.454   0.825   1.734
 9281SOL    HW138772   5.416   0.874   1.656
 9281SOL    HW238773   5.404   0.849   1.817
 9282SOL     OW38774   8.499   1.149   3.682
 9282SOL    HW138775   8.435   1.181   3.613
 9282SOL    HW238776   8.592   1.171   3.654
 9283SOL     OW38777   8.850   0.342   3.671
 9283SOL    HW138778   8.782   0.293   3.617
 9283SOL    HW238779   8.804   0.412   3.727
 9284SOL     OW38780   9.296   4.827   3.057
 9284SOL    HW138781   9.355   4.812   3.137
 9284SOL    HW238782   9.319   4.760   2.987
 9285SOL     OW38783   1.037   2.589   4.710
 9285SOL    HW138784   1.074   2.612   4.620
 9285SOL    HW238785   1.065   2.659   4.776
 9286SOL     OW38786   0.585   2.684   0.657
 9286SOL    HW138787   0.655   2.669   0.587
 9286SOL    HW238788   0.629   2.723   0.738
 9287SOL     OW38789   1.957   7.187   3.579
 9287SOL    HW138790   1.936   7.157   3.673
 9287SOL    HW238791   1.872   7.213   3.533
 9288SOL     OW38792   3.724   1.373   4.611
 9288SOL    HW138793   3.651   1.312   4.639
 9288SOL    HW238794   3.737   1.444   4.680
 9289SOL     OW38795   4.667   8.608   2.720
 9289SOL    HW138796   4.744   8.671   2.729
 9289SOL    HW238797   4.620   8.600   2.808
 9290SOL     OW38798   5.059   1.256   2.142
 9290SOL    HW138799   5.152   1.289   2.129
 9290SOL    HW238800   5.046   1.171   2.090
 9291SOL     OW38801   3.810   2.319   0.773
 9291SOL    HW138802   3.788   2.223   0.752
 9291SOL    HW238803   3.736   2.378   0.739
 9292SOL     OW38804   0.063   9.420   4.308
 9292SOL    HW138805   9.990   9.383   4.250
 9292SOL    HW238806   0.137   9.454   4.250
 9293SOL     OW38807   2.552   4.932   3.916
 9293SOL    HW138808   2.558   4.913   4.014
 9293SOL    HW238809   2.598   4.859   3.865
 9294SOL     OW38810   6.078   8.113   2.161
 9294SOL    HW138811   6.063   8.020   2.193
 9294SOL    HW238812   6.014   8.134   2.087
 9295SOL     OW38813   2.121   3.265   4.607
 9295SOL    HW138814   2.109   3.194   4.537
 9295SOL    HW238815   2.067   3.346   4.581
 9296SOL     OW38816   4.172   6.387   3.290
 9296SOL    HW138817   4.171   6.382   3.191
 9296SOL    HW238818   4.172   6.295   3.329
 9297SOL     OW38819   9.986   9.767   2.784
 9297SOL    HW138820   0.055   9.738   2.717
 9297SOL    HW238821   0.011   9.731   2.874
 9298SOL     OW38822   4.608   3.532   4.615
 9298SOL    HW138823   4.543   3.585   4.669
 9298SOL    HW238824   4.576   3.437   4.608
 9299SOL     OW38825   4.227   1.874   3.312
 9299SOL    HW138826   4.257   1.820   3.391
 9299SOL    HW238827   4.221   1.816   3.231
 9300SOL     OW38828   6.560   9.648   2.307
 9300SOL    HW138829   6.466   9.678   2.295
 9300SOL    HW238830   6.622   9.726   2.295
 9301SOL     OW38831   3.459   6.310   3.159
 9301SOL    HW138832   3.416   6.363   3.232
 9301SOL    HW238833   3.532   6.253   3.198
 9302SOL     OW38834   8.902   9.375   4.557
 9302SOL    HW138835   8.880   9.470   4.579
 9302SOL    HW238836   8.953   9.334   4.633
 9303SOL     OW38837   0.625   1.481   3.033
 9303SOL    HW138838   0.621   1.381   3.041
 9303SOL    HW238839   0.641   1.521   3.123
 9304SOL     OW38840   4.200   3.318   1.271
 9304SOL    HW138841   4.174   3.379   1.196
 9304SOL    HW238842   4.182   3.363   1.359
 9305SOL     OW38843   0.250   6.727   0.335
 9305SOL    HW138844   0.154   6.705   0.352
 9305SOL    HW238845   0.256   6.791   0.258
 9306SOL     OW38846   9.865   6.411   2.420
 9306SOL    HW138847   9.960   6.381   2.420
 9306SOL    HW238848   9.855   6.492   2.363
 9307SOL     OW38849   4.873   5.056   0.031
 9307SOL    HW138850   4.875   5.077   6.682
 9307SOL    HW238851   4.966   5.031   0.061
 9308SOL     OW38852   3.614   6.370   2.923
 9308SOL    HW138853   3.710   6.350   2.943
 9308SOL    HW238854   3.559   6.352   3.005
 9309SOL     OW38855   4.702   6.251   2.368
 9309SOL    HW138856   4.781   6.300   2.332
 9309SOL    HW238857   4.685   6.279   2.463
 9310SOL     OW38858   0.116   4.466   3.896
 9310SOL    HW138859   0.038   4.528   3.905
 9310SOL    HW238860   0.156   4.477   3.805
 9311SOL     OW38861   3.849   1.794   1.969
 9311SOL    HW138862   3.790   1.763   2.044
 9311SOL    HW238863   3.813   1.761   1.882
 9312SOL     OW38864   5.114   7.084   2.263
 9312SOL    HW138865   5.202   7.047   2.235
 9312SOL    HW238866   5.127   7.170   2.312
 9313SOL     OW38867   6.281   8.888   1.978
 9313SOL    HW138868   6.207   8.940   1.934
 9313SOL    HW238869   6.348   8.951   2.017
 9314SOL     OW38870   3.077   1.465   4.502
 9314SOL    HW138871   3.044   1.511   4.584
 9314SOL    HW238872   3.018   1.386   4.483
 9315SOL     OW38873   9.227   8.503   1.464
 9315SOL    HW138874   9.172   8.462   1.390
 9315SOL    HW238875   9.170   8.565   1.517
 9316SOL     OW38876   3.195   5.593   3.102
 9316SOL    HW138877   3.279   5.643   3.079
 9316SOL    HW238878   3.164   5.542   3.022
 9317SOL     OW38879   2.971   4.266   4.344
 9317SOL    HW138880   3.053   4.291   4.396
 9317SOL    HW238881   2.902   4.228   4.406
 9318SOL     OW38882   4.871   9.116   0.751
 9318SOL    HW138883   4.918   9.103   0.839
 9318SOL    HW238884   4.919   9.064   0.680
 9319SOL     OW38885   0.884   5.231   0.143
 9319SOL    HW138886   0.871   5.319   0.097
 9319SOL    HW238887   0.969   5.189   0.111
 9320SOL     OW38888   0.718   3.274   3.612
 9320SOL    HW138889   0.800   3.217   3.611
 9320SOL    HW238890   0.740   3.364   3.648
 9321SOL     OW38891   2.385   7.633   4.683
 9321SOL    HW138892   2.288   7.653   4.697
 9321SOL    HW238893   2.409   7.550   4.734
 9322SOL     OW38894   8.642   9.297   4.787
 9322SOL    HW138895   8.627   9.223   4.722
 9322SOL    HW238896   8.602   9.382   4.752
 9323SOL     OW38897   1.382   1.698   1.958
 9323SOL    HW138898   1.334   1.614   1.984
 9323SOL    HW238899   1.467   1.706   2.009
 9324SOL     OW38900   1.337   9.292   3.387
 9324SOL    HW138901   1.254   9.279   3.441
 9324SOL    HW238902   1.316   9.286   3.290
 9325SOL     OW38903   6.148   8.052   3.127
 9325SOL    HW138904   6.066   8.006   3.163
 9325SOL    HW238905   6.126   8.147   3.106
 9326SOL     OW38906   7.695   2.645   5.082
 9326SOL    HW138907   7.664   2.556   5.115
 9326SOL    HW238908   7.632   2.679   5.013
 9327SOL     OW38909   0.765   4.543   4.069
 9327SOL    HW138910   0.856   4.515   4.037
 9327SOL    HW238911   0.773   4.626   4.124
 9328SOL     OW38912   2.883   8.579   3.107
 9328SOL    HW138913   2.910   8.534   3.192
 9328SOL    HW238914   2.857   8.509   3.040
 9329SOL     OW38915   5.850   0.037   1.789
 9329SOL    HW138916   5.889   0.088   1.713
 9329SOL    HW238917   5.750   0.033   1.779
 9330SOL     OW38918   7.512   7.976   3.381
 9330SOL    HW138919   7.481   7.898   3.327
 9330SOL    HW238920   7.487   8.061   3.335
 9331SOL     OW38921   4.243   3.355   0.671
 9331SOL    HW138922   4.304   3.402   0.607
 9331SOL    HW238923   4.245   3.257   0.654
 9332SOL     OW38924   0.270   5.634   4.265
 9332SOL    HW138925   0.235   5.629   4.358
 9332SOL    HW238926   0.245   5.722   4.224
 9333SOL     OW38927   9.977   7.029   1.193
 9333SOL    HW138928   9.976   7.047   1.095
 9333SOL    HW238929   9.917   6.952   1.214
 9334SOL     OW38930   6.225   1.262   3.760
 9334SOL    HW138931   6.320   1.231   3.753
 9334SOL    HW238932   6.163   1.187   3.738
 9335SOL     OW38933   5.252   7.770   3.578
 9335SOL    HW138934   5.233   7.869   3.577
 9335SOL    HW238935   5.216   7.731   3.663
 9336SOL     OW38936   7.015   4.249   0.102
 9336SOL    HW138937   6.916   4.233   0.109
 9336SOL    HW238938   7.060   4.166   0.070
 9337SOL     OW38939   0.323   6.592   4.643
 9337SOL    HW138940   0.281   6.525   4.704
 9337SOL    HW238941   0.273   6.678   4.649
 9338SOL     OW38942   4.560   8.262   1.212
 9338SOL    HW138943   4.569   8.362   1.210
 9338SOL    HW238944   4.645   8.221   1.243
 9339SOL     OW38945   1.822   9.440   0.116
 9339SOL    HW138946   1.890   9.386   0.166
 9339SOL    HW238947   1.732   9.423   0.155
 9340SOL     OW38948   8.807   6.352   1.111
 9340SOL    HW138949   8.728   6.389   1.062
 9340SOL    HW238950   8.782   6.334   1.206
 9341SOL     OW38951   9.959   1.420   1.600
 9341SOL    HW138952   0.040   1.474   1.574
 9341SOL    HW238953   9.933   1.361   1.524
 9342SOL     OW38954   0.629   0.077   1.384
 9342SOL    HW138955   0.665   0.041   1.299
 9342SOL    HW238956   0.540   0.034   1.403
 9343SOL     OW38957   2.145   7.960   1.405
 9343SOL    HW138958   2.222   7.958   1.469
 9343SOL    HW238959   2.106   8.052   1.403
 9344SOL     OW38960   0.822   2.429   4.708
 9344SOL    HW138961   0.906   2.483   4.707
 9344SOL    HW238962   0.841   2.339   4.668
 9345SOL     OW38963   4.777   0.446   0.047
 9345SOL    HW138964   4.794   0.378   0.119
 9345SOL    HW238965   4.842   0.521   0.055
 9346SOL     OW38966   8.943   0.184   5.024
 9346SOL    HW138967   8.968   0.276   4.996
 9346SOL    HW238968   8.984   0.118   4.962
 9347SOL     OW38969   7.853   1.695   3.541
 9347SOL    HW138970   7.922   1.623   3.530
 9347SOL    HW238971   7.767   1.655   3.573
 9348SOL     OW38972   7.780   9.824   2.215
 9348SOL    HW138973   7.694   9.827   2.163
 9348SOL    HW238974   7.761   9.796   2.309
 9349SOL     OW38975   3.610   1.447   0.253
 9349SOL    HW138976   3.531   1.400   0.215
 9349SOL    HW238977   3.604   1.446   0.353
 9350SOL     OW38978   6.510   8.226   5.114
 9350SOL    HW138979   6.503   8.306   5.175
 9350SOL    HW238980   6.588   8.170   5.142
 9351SOL     OW38981   4.292   4.770   2.118
 9351SOL    HW138982   4.371   4.828   2.098
 9351SOL    HW238983   4.282   4.760   2.217
 9352SOL     OW38984   3.641   9.161   5.200
 9352SOL    HW138985   3.731   9.136   5.166
 9352SOL    HW238986   3.576   9.164   5.123
 9353SOL     OW38987   8.293   9.314   3.649
 9353SOL    HW138988   8.218   9.365   3.607
 9353SOL    HW238989   8.356   9.378   3.693
 9354SOL     OW38990   8.416   2.266   3.028
 9354SOL    HW138991   8.488   2.224   2.973
 9354SOL    HW238992   8.353   2.195   3.060
 9355SOL     OW38993   5.584   5.174   0.696
 9355SOL    HW138994   5.636   5.139   0.774
 9355SOL    HW238995   5.531   5.099   0.656
 9356SOL     OW38996   5.470   2.051   4.963
 9356SOL    HW138997   5.468   1.951   4.968
 9356SOL    HW238998   5.436   2.081   4.874
 9357SOL     OW38999   8.794   0.278   3.249
 9357SOL    HW139000   8.853   0.203   3.218
 9357SOL    HW239001   8.839   0.365   3.231
 9358SOL     OW39002   3.929   4.823   3.602
 9358SOL    HW139003   3.907   4.865   3.515
 9358SOL    HW239004   4.025   4.795   3.603
 9359SOL     OW39005   2.280   8.234   3.586
 9359SOL    HW139006   2.270   8.251   3.684
 9359SOL    HW239007   2.249   8.314   3.535
 9360SOL     OW39008   3.808   4.725   1.082
 9360SOL    HW139009   3.733   4.734   1.017
 9360SOL    HW239010   3.800   4.796   1.152
 9361SOL     OW39011   9.566   1.256   4.759
 9361SOL    HW139012   9.553   1.161   4.789
 9361SOL    HW239013   9.492   1.313   4.797
 9362SOL     OW39014   3.425   8.348   0.752
 9362SOL    HW139015   3.501   8.409   0.772
 9362SOL    HW239016   3.351   8.364   0.816
 9363SOL     OW39017   9.007   3.482   3.833
 9363SOL    HW139018   8.998   3.430   3.917
 9363SOL    HW239019   9.038   3.422   3.759
 9364SOL     OW39020   6.012   1.722   5.045
 9364SOL    HW139021   5.919   1.758   5.053
 9364SOL    HW239022   6.060   1.769   4.971
 9365SOL     OW39023   8.361   7.819   1.075
 9365SOL    HW139024   8.297   7.773   1.136
 9365SOL    HW239025   8.376   7.762   0.994
 9366SOL     OW39026   8.539   4.508   2.463
 9366SOL    HW139027   8.453   4.458   2.463
 9366SOL    HW239028   8.544   4.566   2.381
 9367SOL     OW39029   9.970   3.520   4.654
 9367SOL    HW139030   9.923   3.525   4.742
 9367SOL    HW239031   0.069   3.531   4.668
 9368SOL     OW39032   9.330   0.912   1.891
 9368SOL    HW139033   9.239   0.889   1.856
 9368SOL    HW239034   9.335   0.892   1.988
 9369SOL     OW39035   9.462   3.771   3.007
 9369SOL    HW139036   9.556   3.736   3.002
 9369SOL    HW239037   9.429   3.762   3.101
 9370SOL     OW39038   4.062   4.491   0.132
 9370SOL    HW139039   4.020   4.455   0.215
 9370SOL    HW239040   4.101   4.416   0.079
 9371SOL     OW39041   1.313   0.452   0.733
 9371SOL    HW139042   1.280   0.393   0.806
 9371SOL    HW239043   1.340   0.395   0.655
 9372SOL     OW39044   1.868   9.140   4.974
 9372SOL    HW139045   1.812   9.060   4.991
 9372SOL    HW239046   1.883   9.190   5.059
 9373SOL     OW39047   0.423   0.707   1.016
 9373SOL    HW139048   0.505   0.764   1.011
 9373SOL    HW239049   0.431   0.644   1.093
 9374SOL     OW39050   7.617   2.151   2.736
 9374SOL    HW139051   7.523   2.135   2.705
 9374SOL    HW239052   7.679   2.142   2.658
 9375SOL     OW39053   1.891   0.701   4.134
 9375SOL    HW139054   1.871   0.750   4.219
 9375SOL    HW239055   1.922   0.766   4.064
 9376SOL     OW39056   4.097   9.656   2.778
 9376SOL    HW139057   4.008   9.702   2.784
 9376SOL    HW239058   4.166   9.710   2.825
 9377SOL     OW39059   8.753   5.011   2.477
 9377SOL    HW139060   8.774   4.918   2.507
 9377SOL    HW239061   8.712   5.008   2.386
 9378SOL     OW39062   2.918   8.281   1.420
 9378SOL    HW139063   2.860   8.261   1.341
 9378SOL    HW239064   3.009   8.241   1.406
 9379SOL     OW39065   8.314   9.483   1.484
 9379SOL    HW139066   8.406   9.449   1.504
 9379SOL    HW239067   8.304   9.576   1.520
 9380SOL     OW39068   4.144   8.952   1.611
 9380SOL    HW139069   4.160   9.006   1.694
 9380SOL    HW239070   4.061   8.898   1.623
 9381SOL     OW39071   3.169   1.162   1.316
 9381SOL    HW139072   3.195   1.257   1.298
 9381SOL    HW239073   3.076   1.160   1.354
 9382SOL     OW39074   1.459   0.666   4.817
 9382SOL    HW139075   1.379   0.632   4.768
 9382SOL    HW239076   1.515   0.589   4.847
 9383SOL     OW39077   1.212   9.589   0.366
 9383SOL    HW139078   1.139   9.628   0.310
 9383SOL    HW239079   1.181   9.580   0.460
 9384SOL     OW39080   5.054   1.869   1.290
 9384SOL    HW139081   5.105   1.932   1.232
 9384SOL    HW239082   5.096   1.778   1.287
 9385SOL     OW39083   0.951   3.770   1.805
 9385SOL    HW139084   0.989   3.860   1.826
 9385SOL    HW239085   0.991   3.736   1.720
 9386SOL     OW39086   2.497   2.926   0.107
 9386SOL    HW139087   2.448   2.983   0.040
 9386SOL    HW239088   2.545   2.986   0.172
 9387SOL     OW39089   1.354   1.001   3.568
 9387SOL    HW139090   1.420   0.985   3.641
 9387SOL    HW239091   1.286   1.067   3.599
 9388SOL     OW39092   9.716   5.091   0.544
 9388SOL    HW139093   9.812   5.118   0.537
 9388SOL    HW239094   9.691   5.082   0.640
 9389SOL     OW39095   2.169   4.584   5.225
 9389SOL    HW139096   2.122   4.671   5.245
 9389SOL    HW239097   2.100   4.515   5.202
 9390SOL     OW39098   3.122   8.183   1.706
 9390SOL    HW139099   3.062   8.225   1.773
 9390SOL    HW239100   3.084   8.095   1.678
 9391SOL     OW39101   8.733   3.528   4.700
 9391SOL    HW139102   8.650   3.579   4.723
 9391SOL    HW239103   8.708   3.434   4.676
 9392SOL     OW39104   2.974   4.147   3.345
 9392SOL    HW139105   3.055   4.090   3.338
 9392SOL    HW239106   2.949   4.159   3.441
 9393SOL     OW39107   8.479   3.410   0.151
 9393SOL    HW139108   8.494   3.391   0.248
 9393SOL    HW239109   8.382   3.394   0.128
 9394SOL     OW39110   3.532   6.477   2.301
 9394SOL    HW139111   3.536   6.406   2.371
 9394SOL    HW239112   3.606   6.464   2.235
 9395SOL     OW39113   0.507   0.510   3.671
 9395SOL    HW139114   0.582   0.478   3.728
 9395SOL    HW239115   0.438   0.554   3.729
 9396SOL     OW39116   1.567   9.660   3.622
 9396SOL    HW139117   1.542   9.627   3.713
 9396SOL    HW239118   1.502   9.624   3.555
 9397SOL     OW39119   6.340   5.210   0.554
 9397SOL    HW139120   6.249   5.173   0.574
 9397SOL    HW239121   6.406   5.135   0.553
 9398SOL     OW39122   6.874   9.048   3.544
 9398SOL    HW139123   6.892   8.991   3.624
 9398SOL    HW239124   6.775   9.061   3.534
 9399SOL     OW39125   1.292   3.852   1.676
 9399SOL    HW139126   1.213   3.810   1.631
 9399SOL    HW239127   1.330   3.787   1.742
 9400SOL     OW39128   9.214   4.456   3.096
 9400SOL    HW139129   9.272   4.385   3.056
 9400SOL    HW239130   9.187   4.429   3.188
 9401SOL     OW39131   3.600   2.499   0.242
 9401SOL    HW139132   3.531   2.465   0.177
 9401SOL    HW239133   3.686   2.450   0.227
 9402SOL     OW39134   2.051   1.283   3.354
 9402SOL    HW139135   2.035   1.292   3.256
 9402SOL    HW239136   2.086   1.191   3.374
 9403SOL     OW39137   8.610   5.102   0.655
 9403SOL    HW139138   8.599   5.002   0.661
 9403SOL    HW239139   8.520   5.145   0.653
 9404SOL     OW39140   2.111   6.327   2.480
 9404SOL    HW139141   2.115   6.383   2.398
 9404SOL    HW239142   2.203   6.317   2.518
 9405SOL     OW39143   3.321   2.036   4.921
 9405SOL    HW139144   3.333   2.135   4.912
 9405SOL    HW239145   3.403   1.990   4.888
 9406SOL     OW39146   9.820   2.575   0.332
 9406SOL    HW139147   9.850   2.496   0.277
 9406SOL    HW239148   9.890   2.646   0.328
 9407SOL     OW39149   3.314   6.854   4.262
 9407SOL    HW139150   3.365   6.871   4.178
 9407SOL    HW239151   3.237   6.793   4.243
 9408SOL     OW39152   0.515   4.804   0.289
 9408SOL    HW139153   0.430   4.755   0.307
 9408SOL    HW239154   0.566   4.758   0.216
 9409SOL     OW39155   8.474   5.183   3.568
 9409SOL    HW139156   8.547   5.246   3.593
 9409SOL    HW239157   8.513   5.097   3.535
 9410SOL     OW39158   9.420   4.244   2.593
 9410SOL    HW139159   9.339   4.285   2.636
 9410SOL    HW239160   9.416   4.144   2.604
 9411SOL     OW39161   1.755   0.271   2.181
 9411SOL    HW139162   1.768   0.229   2.091
 9411SOL    HW239163   1.816   0.227   2.247
 9412SOL     OW39164   1.202   7.747   0.966
 9412SOL    HW139165   1.160   7.782   1.050
 9412SOL    HW239166   1.130   7.714   0.905
 9413SOL     OW39167   4.201   9.919   2.624
 9413SOL    HW139168   4.178   9.853   2.552
 9413SOL    HW239169   4.118   9.962   2.657
 9414SOL     OW39170   6.236   1.090   2.519
 9414SOL    HW139171   6.161   1.069   2.456
 9414SOL    HW239172   6.317   1.115   2.467
 9415SOL     OW39173   1.102   9.750   1.304
 9415SOL    HW139174   1.201   9.748   1.289
 9415SOL    HW239175   1.062   9.825   1.252
 9416SOL     OW39176   6.231   8.563   2.443
 9416SOL    HW139177   6.256   8.640   2.502
 9416SOL    HW239178   6.148   8.520   2.479
 9417SOL     OW39179   3.315   8.233   3.738
 9417SOL    HW139180   3.339   8.177   3.817
 9417SOL    HW239181   3.264   8.314   3.769
 9418SOL     OW39182   5.428   6.070   1.545
 9418SOL    HW139183   5.483   6.050   1.625
 9418SOL    HW239184   5.382   6.158   1.557
 9419SOL     OW39185   9.546   1.460   2.256
 9419SOL    HW139186   9.447   1.461   2.240
 9419SOL    HW239187   9.587   1.383   2.207
 9420SOL     OW39188   8.307   1.611   0.510
 9420SOL    HW139189   8.338   1.655   0.425
 9420SOL    HW239190   8.342   1.518   0.514
 9421SOL     OW39191   3.124   7.037   5.087
 9421SOL    HW139192   3.147   7.026   4.990
 9421SOL    HW239193   3.205   7.066   5.137
 9422SOL     OW39194   2.949   4.282   4.834
 9422SOL    HW139195   2.864   4.234   4.857
 9422SOL    HW239196   3.014   4.218   4.795
 9423SOL     OW39197   3.982   7.113   3.283
 9423SOL    HW139198   4.081   7.127   3.285
 9423SOL    HW239199   3.961   7.023   3.323
 9424SOL     OW39200   9.936   2.732   0.738
 9424SOL    HW139201   9.847   2.760   0.775
 9424SOL    HW239202   0.002   2.805   0.752
 9425SOL     OW39203   2.066   1.566   4.160
 9425SOL    HW139204   2.041   1.624   4.238
 9425SOL    HW239205   2.165   1.556   4.156
 9426SOL     OW39206   9.193   0.570   4.396
 9426SOL    HW139207   9.116   0.516   4.432
 9426SOL    HW239208   9.266   0.509   4.368
 9427SOL     OW39209   0.952   7.865   4.050
 9427SOL    HW139210   0.992   7.854   3.959
 9427SOL    HW239211   0.987   7.948   4.093
 9428SOL     OW39212   5.936   7.885   2.805
 9428SOL    HW139213   5.863   7.929   2.859
 9428SOL    HW239214   5.895   7.830   2.732
 9429SOL     OW39215   8.558   5.557   3.212
 9429SOL    HW139216   8.610   5.614   3.276
 9429SOL    HW239217   8.461   5.559   3.237
 9430SOL     OW39218   4.713   8.607   5.004
 9430SOL    HW139219   4.696   8.550   5.084
 9430SOL    HW239220   4.672   8.697   5.017
 9431SOL     OW39221   9.249   4.991   0.943
 9431SOL    HW139222   9.308   5.007   1.022
 9431SOL    HW239223   9.276   5.053   0.869
 9432SOL     OW39224   9.725   8.445   3.118
 9432SOL    HW139225   9.685   8.484   3.201
 9432SOL    HW239226   9.809   8.395   3.142
 9433SOL     OW39227   9.672   4.202   4.547
 9433SOL    HW139228   9.616   4.167   4.622
 9433SOL    HW239229   9.663   4.141   4.468
 9434SOL     OW39230   8.833   4.789   4.279
 9434SOL    HW139231   8.915   4.819   4.231
 9434SOL    HW239232   8.858   4.750   4.368
 9435SOL     OW39233   1.041   3.643   1.121
 9435SOL    HW139234   0.972   3.580   1.157
 9435SOL    HW239235   1.096   3.596   1.052
 9436SOL     OW39236   2.237   1.224   2.471
 9436SOL    HW139237   2.262   1.179   2.385
 9436SOL    HW239238   2.171   1.296   2.453
 9437SOL     OW39239   4.933   3.611   0.966
 9437SOL    HW139240   5.002   3.590   1.034
 9437SOL    HW239241   4.919   3.710   0.961
 9438SOL     OW39242   0.600   2.359   2.596
 9438SOL    HW139243   0.626   2.424   2.666
 9438SOL    HW239244   0.503   2.334   2.607
 9439SOL     OW39245   2.134   5.871   3.918
 9439SOL    HW139246   2.056   5.934   3.911
 9439SOL    HW239247   2.171   5.854   3.827
 9440SOL     OW39248   3.070   8.174   5.051
 9440SOL    HW139249   2.989   8.151   4.996
 9440SOL    HW239250   3.043   8.182   5.148
 9441SOL     OW39251   8.330   1.690   3.461
 9441SOL    HW139252   8.417   1.705   3.508
 9441SOL    HW239253   8.267   1.765   3.482
 9442SOL     OW39254   8.645   9.722   1.553
 9442SOL    HW139255   8.721   9.759   1.606
 9442SOL    HW239256   8.563   9.776   1.570
 9443SOL     OW39257   3.015   7.946   1.611
 9443SOL    HW139258   3.069   7.902   1.539
 9443SOL    HW239259   2.958   7.877   1.657
 9444SOL     OW39260   4.987   2.649   2.109
 9444SOL    HW139261   5.082   2.640   2.138
 9444SOL    HW239262   4.962   2.570   2.052
 9445SOL     OW39263   7.966   3.776   1.655
 9445SOL    HW139264   7.977   3.708   1.728
 9445SOL    HW239265   8.029   3.756   1.581
 9446SOL     OW39266   6.831   3.702   0.263
 9446SOL    HW139267   6.745   3.679   0.217
 9446SOL    HW239268   6.819   3.693   0.362
 9447SOL     OW39269   1.467   0.713   4.078
 9447SOL    HW139270   1.469   0.782   4.151
 9447SOL    HW239271   1.438   0.625   4.115
 9448SOL     OW39272   4.755   3.301   4.808
 9448SOL    HW139273   4.812   3.307   4.726
 9448SOL    HW239274   4.712   3.390   4.825
 9449SOL     OW39275   6.906   9.971   3.289
 9449SOL    HW139276   7.005   9.976   3.276
 9449SOL    HW239277   6.880   9.876   3.305
 9450SOL     OW39278   3.779   6.680   4.704
 9450SOL    HW139279   3.850   6.641   4.762
 9450SOL    HW239280   3.713   6.608   4.679
 9451SOL     OW39281   8.911   8.568   2.071
 9451SOL    HW139282   8.948   8.542   2.160
 9451SOL    HW239283   8.909   8.488   2.011
 9452SOL     OW39284   8.779   9.637   4.625
 9452SOL    HW139285   8.803   9.708   4.691
 9452SOL    HW239286   8.699   9.588   4.657
 9453SOL     OW39287   3.715   6.313   1.099
 9453SOL    HW139288   3.780   6.265   1.041
 9453SOL    HW239289   3.751   6.405   1.120
 9454SOL     OW39290   9.236   3.244   4.187
 9454SOL    HW139291   9.257   3.185   4.265
 9454SOL    HW239292   9.264   3.198   4.102
 9455SOL     OW39293   2.563   6.572   0.673
 9455SOL    HW139294   2.525   6.479   0.678
 9455SOL    HW239295   2.558   6.605   0.579
 9456SOL     OW39296   9.559   8.279   2.952
 9456SOL    HW139297   9.592   8.317   2.866
 9456SOL    HW239298   9.602   8.327   3.029
 9457SOL     OW39299   2.722   3.315   1.782
 9457SOL    HW139300   2.703   3.346   1.875
 9457SOL    HW239301   2.685   3.382   1.717
 9458SOL     OW39302   0.585   7.709   5.036
 9458SOL    HW139303   0.516   7.657   5.086
 9458SOL    HW239304   0.669   7.654   5.029
 9459SOL     OW39305   3.727   2.430   4.345
 9459SOL    HW139306   3.756   2.525   4.352
 9459SOL    HW239307   3.738   2.385   4.434
 9460SOL     OW39308   9.169   5.523   1.068
 9460SOL    HW139309   9.187   5.529   1.166
 9460SOL    HW239310   9.071   5.536   1.051
 9461SOL     OW39311   0.377   6.177   2.279
 9461SOL    HW139312   0.359   6.143   2.371
 9461SOL    HW239313   0.309   6.141   2.216
 9462SOL     OW39314   9.364   8.065   1.989
 9462SOL    HW139315   9.446   8.100   2.034
 9462SOL    HW239316   9.304   8.025   2.058
 9463SOL     OW39317   3.226   1.169   4.887
 9463SOL    HW139318   3.132   1.155   4.917
 9463SOL    HW239319   3.236   1.262   4.851
 9464SOL     OW39320   1.731   5.925   1.033
 9464SOL    HW139321   1.813   5.868   1.026
 9464SOL    HW239322   1.681   5.901   1.116
 9465SOL     OW39323   4.728   0.937   2.012
 9465SOL    HW139324   4.689   0.978   1.929
 9465SOL    HW239325   4.663   0.949   2.088
 9466SOL     OW39326   6.296   9.948   5.195
 9466SOL    HW139327   6.293   9.856   5.157
 9466SOL    HW239328   6.213   9.998   5.168
 9467SOL     OW39329   7.843   4.551   5.135
 9467SOL    HW139330   7.864   4.468   5.186
 9467SOL    HW239331   7.927   4.601   5.115
 9468SOL     OW39332   2.960   9.649   0.486
 9468SOL    HW139333   2.969   9.687   0.578
 9468SOL    HW239334   2.952   9.723   0.420
 9469SOL     OW39335   4.437   0.082   4.140
 9469SOL    HW139336   4.427   9.983   4.150
 9469SOL    HW239337   4.391   0.111   4.056
 9470SOL     OW39338   9.849   4.575   3.897
 9470SOL    HW139339   9.847   4.480   3.865
 9470SOL    HW239340   9.808   4.580   3.988
 9471SOL     OW39341   0.276   6.855   2.487
 9471SOL    HW139342   0.261   6.882   2.582
 9471SOL    HW239343   0.251   6.930   2.426
 9472SOL     OW39344   2.906   0.558   4.836
 9472SOL    HW139345   2.974   0.578   4.766
 9472SOL    HW239346   2.869   0.644   4.871
 9473SOL     OW39347   0.942   6.419   3.293
 9473SOL    HW139348   0.981   6.479   3.363
 9473SOL    HW239349   0.918   6.331   3.335
 9474SOL     OW39350   7.022   0.342   4.470
 9474SOL    HW139351   7.002   0.270   4.537
 9474SOL    HW239352   7.054   0.300   4.385
 9475SOL     OW39353   3.222   5.542   1.155
 9475SOL    HW139354   3.188   5.630   1.121
 9475SOL    HW239355   3.145   5.486   1.185
 9476SOL     OW39356   2.092   2.986   2.616
 9476SOL    HW139357   2.124   3.046   2.690
 9476SOL    HW239358   2.051   2.904   2.656
 9477SOL     OW39359   4.550   7.651   4.086
 9477SOL    HW139360   4.477   7.586   4.108
 9477SOL    HW239361   4.616   7.607   4.026
 9478SOL     OW39362   0.192   9.134   2.251
 9478SOL    HW139363   0.220   9.188   2.330
 9478SOL    HW239364   0.201   9.036   2.273
 9479SOL     OW39365   4.501   3.846   1.487
 9479SOL    HW139366   4.550   3.759   1.478
 9479SOL    HW239367   4.480   3.861   1.584
 9480SOL     OW39368   0.930   7.599   3.425
 9480SOL    HW139369   0.922   7.500   3.430
 9480SOL    HW239370   0.932   7.628   3.329
 9481SOL     OW39371   9.485   2.191   2.008
 9481SOL    HW139372   9.387   2.168   2.008
 9481SOL    HW239373   9.498   2.280   1.964
 9482SOL     OW39374   5.139   3.002   3.550
 9482SOL    HW139375   5.194   2.920   3.536
 9482SOL    HW239376   5.069   2.984   3.619
 9483SOL     OW39377   9.204   9.402   3.762
 9483SOL    HW139378   9.240   9.355   3.681
 9483SOL    HW239379   9.219   9.501   3.751
 9484SOL     OW39380   9.898   1.914   2.561
 9484SOL    HW139381   9.938   1.980   2.624
 9484SOL    HW239382   9.808   1.887   2.594
 9485SOL     OW39383   2.764   5.845   4.812
 9485SOL    HW139384   2.844   5.871   4.758
 9485SOL    HW239385   2.695   5.804   4.752
 9486SOL     OW39386   3.785   5.035   3.727
 9486SOL    HW139387   3.807   5.126   3.694
 9486SOL    HW239388   3.852   4.970   3.691
 9487SOL     OW39389   3.246   0.347   1.253
 9487SOL    HW139390   3.262   0.435   1.299
 9487SOL    HW239391   3.330   0.317   1.209
 9488SOL     OW39392   0.176   4.060   2.615
 9488SOL    HW139393   0.121   4.062   2.699
 9488SOL    HW239394   0.257   4.118   2.627
 9489SOL     OW39395   3.273   3.961   2.548
 9489SOL    HW139396   3.227   4.018   2.616
 9489SOL    HW239397   3.209   3.939   2.474
 9490SOL     OW39398   4.684   1.933   0.757
 9490SOL    HW139399   4.774   1.971   0.774
 9490SOL    HW239400   4.667   1.856   0.819
 9491SOL     OW39401   1.012   5.564   3.842
 9491SOL    HW139402   0.940   5.565   3.911
 9491SOL    HW239403   1.057   5.653   3.839
 9492SOL     OW39404   0.472   3.167   0.736
 9492SOL    HW139405   0.440   3.198   0.825
 9492SOL    HW239406   0.467   3.242   0.671
 9493SOL     OW39407   2.713   7.186   3.414
 9493SOL    HW139408   2.774   7.224   3.345
 9493SOL    HW239409   2.661   7.110   3.375
 9494SOL     OW39410   6.890   7.666   4.748
 9494SOL    HW139411   6.983   7.631   4.736
 9494SOL    HW239412   6.852   7.689   4.658
 9495SOL     OW39413   3.817   1.105   2.290
 9495SOL    HW139414   3.733   1.152   2.316
 9495SOL    HW239415   3.803   1.006   2.294
 9496SOL     OW39416   8.380   9.917   1.765
 9496SOL    HW139417   8.407   9.906   1.861
 9496SOL    HW239418   8.349   0.010   1.749
 9497SOL     OW39419   0.693   0.246   4.759
 9497SOL    HW139420   0.595   0.266   4.759
 9497SOL    HW239421   0.745   0.331   4.756
 9498SOL     OW39422   2.828   9.450   3.217
 9498SOL    HW139423   2.828   9.449   3.317
 9498SOL    HW239424   2.897   9.515   3.185
 9499SOL     OW39425   5.433   9.950   2.309
 9499SOL    HW139426   5.457   9.853   2.309
 9499SOL    HW239427   5.448   9.989   2.219
 9500SOL     OW39428   2.427   2.425   2.498
 9500SOL    HW139429   2.486   2.491   2.451
 9500SOL    HW239430   2.335   2.464   2.508
 9501SOL     OW39431   2.686   3.407   2.038
 9501SOL    HW139432   2.617   3.377   2.104
 9501SOL    HW239433   2.777   3.394   2.076
 9502SOL     OW39434   8.519   5.063   1.537
 9502SOL    HW139435   8.603   5.038   1.584
 9502SOL    HW239436   8.515   5.162   1.523
 9503SOL     OW39437   5.856   0.940   2.442
 9503SOL    HW139438   5.777   0.912   2.388
 9503SOL    HW239439   5.930   0.968   2.381
 9504SOL     OW39440   9.550   0.987   4.818
 9504SOL    HW139441   9.522   0.947   4.905
 9504SOL    HW239442   9.643   0.959   4.797
 9505SOL     OW39443   9.086   3.724   2.982
 9505SOL    HW139444   8.996   3.708   3.025
 9505SOL    HW239445   9.129   3.804   3.023
 9506SOL     OW39446   2.211   6.760   2.868
 9506SOL    HW139447   2.150   6.836   2.847
 9506SOL    HW239448   2.300   6.795   2.898
 9507SOL     OW39449   6.376   0.392   2.396
 9507SOL    HW139450   6.301   0.453   2.373
 9507SOL    HW239451   6.452   0.445   2.435
 9508SOL     OW39452   9.291   6.620   1.699
 9508SOL    HW139453   9.385   6.615   1.667
 9508SOL    HW239454   9.290   6.646   1.796
 9509SOL     OW39455   9.237   5.707   1.916
 9509SOL    HW139456   9.214   5.704   2.013
 9509SOL    HW239457   9.336   5.691   1.905
 9510SOL     OW39458   0.014   1.778   5.186
 9510SOL    HW139459   9.973   1.842   5.251
 9510SOL    HW239460   0.014   1.820   5.095
 9511SOL     OW39461   4.612   3.662   1.934
 9511SOL    HW139462   4.588   3.565   1.946
 9511SOL    HW239463   4.711   3.672   1.936
 9512SOL     OW39464   9.167   5.137   3.875
 9512SOL    HW139465   9.093   5.104   3.932
 9512SOL    HW239466   9.198   5.064   3.814
 9513SOL     OW39467   7.711   0.709   4.237
 9513SOL    HW139468   7.646   0.759   4.294
 9513SOL    HW239469   7.803   0.745   4.253
 9514SOL     OW39470   8.207   3.351   0.171
 9514SOL    HW139471   8.212   3.418   0.245
 9514SOL    HW239472   8.112   3.337   0.145
 9515SOL     OW39473   4.647   2.577   4.410
 9515SOL    HW139474   4.652   2.485   4.450
 9515SOL    HW239475   4.706   2.581   4.329
 9516SOL     OW39476   4.151   3.962   3.651
 9516SOL    HW139477   4.157   4.051   3.697
 9516SOL    HW239478   4.242   3.932   3.624
 9517SOL     OW39479   5.021   6.925   1.656
 9517SOL    HW139480   4.986   6.930   1.562
 9517SOL    HW239481   5.084   7.001   1.672
 9518SOL     OW39482   3.041   9.208   1.359
 9518SOL    HW139483   3.064   9.133   1.420
 9518SOL    HW239484   3.091   9.290   1.386
 9519SOL     OW39485   2.828   6.371   4.262
 9519SOL    HW139486   2.919   6.390   4.225
 9519SOL    HW239487   2.802   6.444   4.325
 9520SOL     OW39488   0.216   0.237   2.180
 9520SOL    HW139489   0.173   0.165   2.126
 9520SOL    HW239490   0.211   0.324   2.130
 9521SOL     OW39491   8.598   0.507   5.218
 9521SOL    HW139492   8.604   0.497   5.317
 9521SOL    HW239493   8.628   0.423   5.173
 9522SOL     OW39494   2.223   0.590   0.963
 9522SOL    HW139495   2.298   0.551   1.017
 9522SOL    HW239496   2.233   0.690   0.959
 9523SOL     OW39497   3.248   8.200   4.223
 9523SOL    HW139498   3.183   8.152   4.282
 9523SOL    HW239499   3.199   8.251   4.152
 9524SOL     OW39500   3.441   3.055   4.889
 9524SOL    HW139501   3.464   3.048   4.792
 9524SOL    HW239502   3.511   3.009   4.944
 9525SOL     OW39503   2.393   1.242   1.998
 9525SOL    HW139504   2.486   1.250   2.034
 9525SOL    HW239505   2.376   1.317   1.934
 9526SOL     OW39506   2.158   7.028   1.210
 9526SOL    HW139507   2.081   7.082   1.242
 9526SOL    HW239508   2.186   7.061   1.120
 9527SOL     OW39509   3.706   9.538   2.725
 9527SOL    HW139510   3.628   9.482   2.696
 9527SOL    HW239511   3.724   9.523   2.822
 9528SOL     OW39512   7.422   2.346   1.305
 9528SOL    HW139513   7.466   2.417   1.361
 9528SOL    HW239514   7.471   2.336   1.219
 9529SOL     OW39515   3.174   3.339   0.149
 9529SOL    HW139516   3.186   3.288   0.235
 9529SOL    HW239517   3.077   3.343   0.127
 9530SOL     OW39518   8.717   7.299   5.239
 9530SOL    HW139519   8.790   7.337   5.183
 9530SOL    HW239520   8.646   7.368   5.254
 9531SOL     OW39521   1.297   9.065   2.116
 9531SOL    HW139522   1.216   9.058   2.058
 9531SOL    HW239523   1.272   9.045   2.211
 9532SOL     OW39524   0.470   9.331   2.140
 9532SOL    HW139525   0.469   9.404   2.209
 9532SOL    HW239526   0.379   9.323   2.099
 9533SOL     OW39527   9.129   1.520   2.643
 9533SOL    HW139528   9.183   1.583   2.586
 9533SOL    HW239529   9.157   1.530   2.738
 9534SOL     OW39530   0.259   2.572   4.610
 9534SOL    HW139531   0.301   2.656   4.643
 9534SOL    HW239532   0.306   2.493   4.650
 9535SOL     OW39533   0.740   0.509   1.877
 9535SOL    HW139534   0.839   0.517   1.864
 9535SOL    HW239535   0.722   0.458   1.961
 9536SOL     OW39536   9.067   0.754   2.249
 9536SOL    HW139537   9.121   0.681   2.207
 9536SOL    HW239538   9.066   0.834   2.188
 9537SOL     OW39539   7.796   9.036   2.720
 9537SOL    HW139540   7.730   9.035   2.645
 9537SOL    HW239541   7.871   9.098   2.698
 9538SOL     OW39542   4.404   3.035   1.492
 9538SOL    HW139543   4.344   3.020   1.571
 9538SOL    HW239544   4.395   2.959   1.428
 9539SOL     OW39545   5.842   0.604   3.604
 9539SOL    HW139546   5.757   0.562   3.575
 9539SOL    HW239547   5.904   0.613   3.525
 9540SOL     OW39548   6.553   4.962   1.173
 9540SOL    HW139549   6.491   4.995   1.102
 9540SOL    HW239550   6.641   4.938   1.131
 9541SOL     OW39551   7.028   2.144   3.496
 9541SOL    HW139552   7.056   2.236   3.469
 9541SOL    HW239553   7.014   2.141   3.595
 9542SOL     OW39554   2.586   4.756   1.148
 9542SOL    HW139555   2.577   4.788   1.054
 9542SOL    HW239556   2.499   4.718   1.179
 9543SOL     OW39557   1.425   1.547   2.350
 9543SOL    HW139558   1.362   1.484   2.396
 9543SOL    HW239559   1.514   1.544   2.397
 9544SOL     OW39560   5.480   8.561   1.889
 9544SOL    HW139561   5.530   8.498   1.947
 9544SOL    HW239562   5.495   8.655   1.920
 9545SOL     OW39563   3.594   0.542   4.414
 9545SOL    HW139564   3.573   0.448   4.439
 9545SOL    HW239565   3.582   0.554   4.315
 9546SOL     OW39566   7.542   6.844   4.119
 9546SOL    HW139567   7.469   6.889   4.067
 9546SOL    HW239568   7.594   6.784   4.058
 9547SOL     OW39569   8.327   0.122   4.443
 9547SOL    HW139570   8.287   0.100   4.353
 9547SOL    HW239571   8.402   0.186   4.431
 9548SOL     OW39572   4.554   5.816   1.507
 9548SOL    HW139573   4.474   5.863   1.469
 9548SOL    HW239574   4.525   5.754   1.580
 9549SOL     OW39575   2.634   9.786   4.209
 9549SOL    HW139576   2.556   9.757   4.153
 9549SOL    HW239577   2.642   9.886   4.206
 9550SOL     OW39578   1.100   8.197   0.252
 9550SOL    HW139579   1.193   8.164   0.268
 9550SOL    HW239580   1.101   8.296   0.240
 9551SOL     OW39581   4.828   0.938   4.670
 9551SOL    HW139582   4.774   0.918   4.588
 9551SOL    HW239583   4.839   0.855   4.724
 9552SOL     OW39584   3.837   9.948   1.943
 9552SOL    HW139585   3.932   9.972   1.925
 9552SOL    HW239586   3.832   9.882   2.018
 9553SOL     OW39587   3.161   7.843   1.402
 9553SOL    HW139588   3.138   7.825   1.307
 9553SOL    HW239589   3.234   7.912   1.407
 9554SOL     OW39590   2.111   9.943   1.260
 9554SOL    HW139591   2.204   9.927   1.294
 9554SOL    HW239592   2.058   9.858   1.266
 9555SOL     OW39593   2.648   5.420   4.134
 9555SOL    HW139594   2.708   5.484   4.182
 9555SOL    HW239595   2.702   5.342   4.101
 9556SOL     OW39596   0.757   5.151   5.012
 9556SOL    HW139597   0.709   5.237   5.029
 9556SOL    HW239598   0.854   5.170   4.997
 9557SOL     OW39599   2.820   2.040   2.793
 9557SOL    HW139600   2.794   1.943   2.790
 9557SOL    HW239601   2.897   2.052   2.855
 9558SOL     OW39602   2.123   2.613   2.031
 9558SOL    HW139603   2.096   2.637   1.938
 9558SOL    HW239604   2.093   2.519   2.052
 9559SOL     OW39605   1.077   4.133   5.136
 9559SOL    HW139606   1.069   4.154   5.039
 9559SOL    HW239607   1.097   4.217   5.187
 9560SOL     OW39608   3.699   4.431   0.214
 9560SOL    HW139609   3.724   4.457   0.121
 9560SOL    HW239610   3.675   4.513   0.266
 9561SOL     OW39611   6.415   9.444   1.799
 9561SOL    HW139612   6.360   9.504   1.742
 9561SOL    HW239613   6.506   9.432   1.758
 9562SOL     OW39614   1.444   5.104   3.040
 9562SOL    HW139615   1.476   5.108   2.945
 9562SOL    HW239616   1.492   5.031   3.088
 9563SOL     OW39617   1.650   6.641   1.633
 9563SOL    HW139618   1.608   6.551   1.625
 9563SOL    HW239619   1.736   6.643   1.583
 9564SOL     OW39620   0.328   0.219   1.389
 9564SOL    HW139621   0.261   0.233   1.462
 9564SOL    HW239622   0.408   0.276   1.407
 9565SOL     OW39623   3.832   8.459   3.993
 9565SOL    HW139624   3.808   8.368   4.027
 9565SOL    HW239625   3.757   8.495   3.939
 9566SOL     OW39626   4.205   2.760   2.049
 9566SOL    HW139627   4.193   2.859   2.038
 9566SOL    HW239628   4.285   2.731   1.997
 9567SOL     OW39629   0.058   4.398   4.942
 9567SOL    HW139630   0.007   4.358   5.018
 9567SOL    HW239631   9.999   4.463   4.894
 9568SOL     OW39632   6.718   0.025   2.490
 9568SOL    HW139633   6.768   0.003   2.574
 9568SOL    HW239634   6.687   0.120   2.494
 9569SOL     OW39635   3.900   1.481   3.389
 9569SOL    HW139636   3.959   1.406   3.418
 9569SOL    HW239637   3.834   1.447   3.322
 9570SOL     OW39638   6.541   9.178   4.667
 9570SOL    HW139639   6.450   9.135   4.662
 9570SOL    HW239640   6.589   9.144   4.747
 9571SOL     OW39641   4.484   0.809   4.680
 9571SOL    HW139642   4.547   0.835   4.607
 9571SOL    HW239643   4.490   0.710   4.695
 9572SOL     OW39644   5.474   8.027   4.944
 9572SOL    HW139645   5.417   7.946   4.929
 9572SOL    HW239646   5.531   8.012   5.025
 9573SOL     OW39647   8.758   9.503   4.939
 9573SOL    HW139648   8.856   9.517   4.923
 9573SOL    HW239649   8.729   9.417   4.895
 9574SOL     OW39650   8.043   0.336   2.715
 9574SOL    HW139651   8.054   0.383   2.628
 9574SOL    HW239652   7.946   0.329   2.737
 9575SOL     OW39653   3.362   7.407   3.662
 9575SOL    HW139654   3.304   7.399   3.743
 9575SOL    HW239655   3.349   7.497   3.620
 9576SOL     OW39656   9.366   7.768   2.262
 9576SOL    HW139657   9.360   7.772   2.361
 9576SOL    HW239658   9.292   7.823   2.222
 9577SOL     OW39659   2.383   9.261   2.871
 9577SOL    HW139660   2.371   9.360   2.866
 9577SOL    HW239661   2.481   9.240   2.882
 9578SOL     OW39662   8.879   9.477   2.503
 9578SOL    HW139663   8.910   9.558   2.553
 9578SOL    HW239664   8.796   9.442   2.546
 9579SOL     OW39665   4.706   0.551   2.206
 9579SOL    HW139666   4.620   0.582   2.165
 9579SOL    HW239667   4.780   0.613   2.179
 9580SOL     OW39668   7.986   8.688   3.540
 9580SOL    HW139669   8.048   8.656   3.611
 9580SOL    HW239670   8.024   8.770   3.496
 9581SOL     OW39671   0.363   1.433   4.839
 9581SOL    HW139672   0.285   1.495   4.852
 9581SOL    HW239673   0.421   1.436   4.921
 9582SOL     OW39674   9.324   3.123   0.663
 9582SOL    HW139675   9.244   3.178   0.685
 9582SOL    HW239676   9.407   3.170   0.693
 9583SOL     OW39677   1.514   6.746   4.300
 9583SOL    HW139678   1.467   6.679   4.242
 9583SOL    HW239679   1.449   6.784   4.366
 9584SOL     OW39680   8.567   3.284   4.058
 9584SOL    HW139681   8.549   3.382   4.054
 9584SOL    HW239682   8.665   3.267   4.049
 9585SOL     OW39683   7.243   2.325   1.932
 9585SOL    HW139684   7.202   2.407   1.892
 9585SOL    HW239685   7.341   2.339   1.942
 9586SOL     OW39686   7.682   3.670   4.319
 9586SOL    HW139687   7.637   3.581   4.327
 9586SOL    HW239688   7.679   3.700   4.224
 9587SOL     OW39689   4.626   5.925   2.838
 9587SOL    HW139690   4.533   5.947   2.807
 9587SOL    HW239691   4.628   5.920   2.937
 9588SOL     OW39692   3.227   3.185   3.504
 9588SOL    HW139693   3.280   3.111   3.545
 9588SOL    HW239694   3.260   3.273   3.539
 9589SOL     OW39695   1.920   8.016   4.360
 9589SOL    HW139696   1.867   7.987   4.440
 9589SOL    HW239697   1.896   7.960   4.282
 9590SOL     OW39698   1.083   1.880   4.987
 9590SOL    HW139699   1.010   1.949   4.989
 9590SOL    HW239700   1.152   1.907   4.920
 9591SOL     OW39701   2.767   8.247   1.192
 9591SOL    HW139702   2.704   8.277   1.120
 9591SOL    HW239703   2.785   8.149   1.182
 9592SOL     OW39704   2.305   7.605   0.553
 9592SOL    HW139705   2.352   7.693   0.551
 9592SOL    HW239706   2.256   7.595   0.640
 9593SOL     OW39707   2.417   3.818   0.988
 9593SOL    HW139708   2.358   3.783   1.061
 9593SOL    HW239709   2.490   3.873   1.029
 9594SOL     OW39710   9.439   7.603   0.263
 9594SOL    HW139711   9.524   7.577   0.309
 9594SOL    HW239712   9.459   7.632   0.169
 9595SOL     OW39713   9.315   1.985   1.650
 9595SOL    HW139714   9.294   1.891   1.679
 9595SOL    HW239715   9.414   1.997   1.646
 9596SOL     OW39716   9.349   0.237   2.301
 9596SOL    HW139717   9.363   0.188   2.215
 9596SOL    HW239718   9.253   0.234   2.326
 9597SOL     OW39719   9.065   4.756   3.195
 9597SOL    HW139720   9.148   4.786   3.149
 9597SOL    HW239721   9.012   4.697   3.134
 9598SOL     OW39722   4.907   4.651   0.742
 9598SOL    HW139723   4.977   4.588   0.709
 9598SOL    HW239724   4.908   4.733   0.685
 9599SOL     OW39725   7.984   4.020   4.451
 9599SOL    HW139726   7.945   3.928   4.451
 9599SOL    HW239727   8.066   4.022   4.394
 9600SOL     OW39728   3.265   7.675   3.973
 9600SOL    HW139729   3.186   7.714   4.021
 9600SOL    HW239730   3.341   7.740   3.977
 9601SOL     OW39731   0.927   9.535   2.070
 9601SOL    HW139732   0.892   9.626   2.051
 9601SOL    HW239733   0.854   9.467   2.055
 9602SOL     OW39734   5.255   9.307   3.071
 9602SOL    HW139735   5.291   9.307   3.164
 9602SOL    HW239736   5.299   9.234   3.019
 9603SOL     OW39737   4.618   2.791   5.045
 9603SOL    HW139738   4.555   2.865   5.019
 9603SOL    HW239739   4.653   2.747   4.963
 9604SOL     OW39740   8.993   7.011   2.497
 9604SOL    HW139741   9.023   6.955   2.574
 9604SOL    HW239742   9.010   6.962   2.412
 9605SOL     OW39743   4.212   4.585   1.919
 9605SOL    HW139744   4.170   4.507   1.964
 9605SOL    HW239745   4.256   4.644   1.988
 9606SOL     OW39746   2.938   6.175   2.649
 9606SOL    HW139747   2.990   6.094   2.678
 9606SOL    HW239748   3.000   6.253   2.643
 9607SOL     OW39749   8.801   5.578   1.881
 9607SOL    HW139750   8.801   5.590   1.980
 9607SOL    HW239751   8.826   5.665   1.837
 9608SOL     OW39752   7.396   0.417   2.674
 9608SOL    HW139753   7.406   0.450   2.768
 9608SOL    HW239754   7.467   0.457   2.616
 9609SOL     OW39755   0.962   5.816   3.431
 9609SOL    HW139756   0.887   5.876   3.406
 9609SOL    HW239757   0.927   5.738   3.482
 9610SOL     OW39758   0.725   5.381   4.387
 9610SOL    HW139759   0.684   5.328   4.460
 9610SOL    HW239760   0.823   5.363   4.383
 9611SOL     OW39761   0.522   2.108   4.977
 9611SOL    HW139762   0.578   2.079   4.900
 9611SOL    HW239763   0.512   2.207   4.975
 9612SOL     OW39764   6.855   0.996   0.597
 9612SOL    HW139765   6.891   0.994   0.503
 9612SOL    HW239766   6.847   0.902   0.631
 9613SOL     OW39767   3.841   9.498   1.680
 9613SOL    HW139768   3.758   9.475   1.629
 9613SOL    HW239769   3.900   9.418   1.685
 9614SOL     OW39770   9.269   6.391   0.821
 9614SOL    HW139771   9.275   6.406   0.920
 9614SOL    HW239772   9.361   6.384   0.783
 9615SOL     OW39773   1.691   5.062   5.032
 9615SOL    HW139774   1.647   5.066   4.942
 9615SOL    HW239775   1.699   4.966   5.059
 9616SOL     OW39776   9.634   7.380   5.090
 9616SOL    HW139777   9.577   7.446   5.139
 9616SOL    HW239778   9.726   7.380   5.128
 9617SOL     OW39779   9.409   3.516   3.914
 9617SOL    HW139780   9.469   3.594   3.926
 9617SOL    HW239781   9.316   3.540   3.942
 9618SOL     OW39782   8.008   8.555   2.752
 9618SOL    HW139783   7.993   8.649   2.722
 9618SOL    HW239784   7.953   8.493   2.694
 9619SOL     OW39785   6.901   1.496   0.231
 9619SOL    HW139786   6.816   1.448   0.210
 9619SOL    HW239787   6.924   1.484   0.327
 9620SOL     OW39788   5.161   9.022   2.076
 9620SOL    HW139789   5.175   8.955   2.003
 9620SOL    HW239790   5.168   8.976   2.165
 9621SOL     OW39791   8.180   1.951   2.570
 9621SOL    HW139792   8.135   1.914   2.651
 9621SOL    HW239793   8.118   2.016   2.525
 9622SOL     OW39794   9.648   8.389   2.716
 9622SOL    HW139795   9.703   8.309   2.691
 9622SOL    HW239796   9.707   8.458   2.758
 9623SOL     OW39797   2.346   8.979   0.815
 9623SOL    HW139798   2.340   8.995   0.914
 9623SOL    HW239799   2.273   8.917   0.787
 9624SOL     OW39800   5.651   0.832   3.423
 9624SOL    HW139801   5.561   0.789   3.423
 9624SOL    HW239802   5.709   0.787   3.490
 9625SOL     OW39803   9.722   6.210   1.618
 9625SOL    HW139804   9.631   6.248   1.604
 9625SOL    HW239805   9.746   6.214   1.715
 9626SOL     OW39806   8.180   3.963   3.052
 9626SOL    HW139807   8.255   3.910   3.091
 9626SOL    HW239808   8.202   4.060   3.058
 9627SOL     OW39809   9.204   2.157   3.496
 9627SOL    HW139810   9.236   2.160   3.402
 9627SOL    HW239811   9.229   2.070   3.538
 9628SOL     OW39812   4.217   0.755   2.693
 9628SOL    HW139813   4.196   0.757   2.791
 9628SOL    HW239814   4.148   0.703   2.645
 9629SOL     OW39815   0.801   6.264   4.958
 9629SOL    HW139816   0.838   6.178   4.925
 9629SOL    HW239817   0.843   6.340   4.909
 9630SOL     OW39818   7.501   7.856   2.851
 9630SOL    HW139819   7.505   7.758   2.867
 9630SOL    HW239820   7.593   7.895   2.855
 9631SOL     OW39821   2.036   7.644   5.006
 9631SOL    HW139822   2.064   7.570   5.067
 9631SOL    HW239823   2.028   7.729   5.057
 9632SOL     OW39824   3.742   8.918   4.879
 9632SOL    HW139825   3.659   8.962   4.845
 9632SOL    HW239826   3.796   8.884   4.802
 9633SOL     OW39827   8.553   9.078   1.372
 9633SOL    HW139828   8.568   9.163   1.322
 9633SOL    HW239829   8.456   9.053   1.367
 9634SOL     OW39830   2.996   0.895   2.558
 9634SOL    HW139831   3.040   0.815   2.517
 9634SOL    HW239832   3.047   0.978   2.535
 9635SOL     OW39833   8.542   6.796   0.608
 9635SOL    HW139834   8.540   6.883   0.658
 9635SOL    HW239835   8.607   6.803   0.533
 9636SOL     OW39836   1.825   5.030   0.407
 9636SOL    HW139837   1.866   5.121   0.401
 9636SOL    HW239838   1.725   5.038   0.408
 9637SOL     OW39839   8.052   8.670   5.013
 9637SOL    HW139840   8.015   8.590   5.060
 9637SOL    HW239841   8.138   8.645   4.968
 9638SOL     OW39842   1.889   6.456   2.597
 9638SOL    HW139843   1.963   6.405   2.552
 9638SOL    HW239844   1.914   6.553   2.601
 9639SOL     OW39845   8.375   5.845   1.559
 9639SOL    HW139846   8.343   5.938   1.539
 9639SOL    HW239847   8.437   5.848   1.638
 9640SOL     OW39848   3.029   9.325   3.925
 9640SOL    HW139849   2.976   9.378   3.858
 9640SOL    HW239850   3.085   9.387   3.980
 9641SOL     OW39851   9.271   3.830   1.754
 9641SOL    HW139852   9.217   3.752   1.786
 9641SOL    HW239853   9.210   3.908   1.739
 9642SOL     OW39854   2.957   5.753   1.473
 9642SOL    HW139855   3.056   5.758   1.480
 9642SOL    HW239856   2.916   5.777   1.561
 9643SOL     OW39857   1.590   7.428   3.653
 9643SOL    HW139858   1.536   7.399   3.731
 9643SOL    HW239859   1.663   7.489   3.683
 9644SOL     OW39860   2.405   4.070   4.624
 9644SOL    HW139861   2.377   4.167   4.625
 9644SOL    HW239862   2.484   4.059   4.565
 9645SOL     OW39863   9.208   0.642   3.296
 9645SOL    HW139864   9.134   0.703   3.323
 9645SOL    HW239865   9.172   0.551   3.278
 9646SOL     OW39866   2.024   5.392   3.071
 9646SOL    HW139867   1.962   5.314   3.062
 9646SOL    HW239868   2.001   5.443   3.153
 9647SOL     OW39869   9.793   6.323   2.668
 9647SOL    HW139870   9.811   6.349   2.573
 9647SOL    HW239871   9.850   6.244   2.692
 9648SOL     OW39872   8.982   5.324   2.722
 9648SOL    HW139873   8.885   5.338   2.739
 9648SOL    HW239874   9.028   5.302   2.808
 9649SOL     OW39875   8.055   2.402   4.228
 9649SOL    HW139876   8.116   2.440   4.159
 9649SOL    HW239877   7.984   2.347   4.184
 9650SOL     OW39878   9.399   2.121   4.123
 9650SOL    HW139879   9.432   2.160   4.209
 9650SOL    HW239880   9.467   2.057   4.086
 9651SOL     OW39881   4.696   4.550   2.963
 9651SOL    HW139882   4.709   4.530   2.866
 9651SOL    HW239883   4.629   4.623   2.974
 9652SOL     OW39884   1.927   6.068   3.892
 9652SOL    HW139885   1.879   6.155   3.881
 9652SOL    HW239886   1.909   6.031   3.983
 9653SOL     OW39887   2.809   1.543   1.586
 9653SOL    HW139888   2.779   1.528   1.492
 9653SOL    HW239889   2.909   1.544   1.590
 9654SOL     OW39890   8.219   4.005   4.291
 9654SOL    HW139891   8.197   3.989   4.195
 9654SOL    HW239892   8.278   3.933   4.325
 9655SOL     OW39893   9.241   4.784   0.745
 9655SOL    HW139894   9.264   4.843   0.667
 9655SOL    HW239895   9.227   4.841   0.826
 9656SOL     OW39896   8.739   1.514   3.628
 9656SOL    HW139897   8.773   1.608   3.631
 9656SOL    HW239898   8.640   1.513   3.637
 9657SOL     OW39899   9.009   6.315   0.072
 9657SOL    HW139900   9.047   6.248   0.136
 9657SOL    HW239901   8.945   6.270   0.010
 9658SOL     OW39902   8.814   3.002   2.564
 9658SOL    HW139903   8.893   2.944   2.546
 9658SOL    HW239904   8.734   2.964   2.517
 9659SOL     OW39905   7.153   1.714   2.767
 9659SOL    HW139906   7.212   1.791   2.795
 9659SOL    HW239907   7.195   1.666   2.690
 9660SOL     OW39908   1.129   4.023   3.269
 9660SOL    HW139909   1.176   4.024   3.357
 9660SOL    HW239910   1.093   3.931   3.252
 9661SOL     OW39911   8.426   2.262   1.337
 9661SOL    HW139912   8.506   2.260   1.277
 9661SOL    HW239913   8.398   2.169   1.358
 9662SOL     OW39914   3.395   7.881   4.704
 9662SOL    HW139915   3.465   7.841   4.645
 9662SOL    HW239916   3.369   7.814   4.774
 9663SOL     OW39917   3.376   0.272   1.637
 9663SOL    HW139918   3.309   0.347   1.640
 9663SOL    HW239919   3.359   0.215   1.557
 9664SOL     OW39920   2.859   3.161   0.944
 9664SOL    HW139921   2.810   3.074   0.950
 9664SOL    HW239922   2.794   3.236   0.956
 9665SOL     OW39923   1.123   6.345   3.632
 9665SOL    HW139924   1.198   6.386   3.683
 9665SOL    HW239925   1.065   6.293   3.694
 9666SOL     OW39926   5.046   9.019   2.535
 9666SOL    HW139927   5.052   9.119   2.546
 9666SOL    HW239928   4.952   8.990   2.551
 9667SOL     OW39929   8.897   6.532   1.921
 9667SOL    HW139930   8.813   6.552   1.871
 9667SOL    HW239931   8.892   6.439   1.959
 9668SOL     OW39932   2.590   6.014   1.426
 9668SOL    HW139933   2.542   5.984   1.343
 9668SOL    HW239934   2.542   5.977   1.506
 9669SOL     OW39935   8.100   0.441   1.847
 9669SOL    HW139936   8.074   0.350   1.878
 9669SOL    HW239937   8.145   0.491   1.922
 9670SOL     OW39938   9.192   5.781   4.187
 9670SOL    HW139939   9.197   5.688   4.152
 9670SOL    HW239940   9.275   5.831   4.161
 9671SOL     OW39941   5.371   3.177   3.919
 9671SOL    HW139942   5.429   3.097   3.910
 9671SOL    HW239943   5.324   3.195   3.833
 9672SOL     OW39944   9.860   9.475   1.038
 9672SOL    HW139945   9.910   9.560   1.055
 9672SOL    HW239946   9.823   9.440   1.125
 9673SOL     OW39947   3.656   1.899   3.559
 9673SOL    HW139948   3.582   1.907   3.492
 9673SOL    HW239949   3.718   1.827   3.531
 9674SOL     OW39950   5.448   7.495   1.963
 9674SOL    HW139951   5.513   7.567   1.938
 9674SOL    HW239952   5.423   7.443   1.881
 9675SOL     OW39953   6.995   7.644   2.882
 9675SOL    HW139954   6.905   7.604   2.900
 9675SOL    HW239955   7.012   7.647   2.784
 9676SOL     OW39956   8.886   1.011   3.216
 9676SOL    HW139957   8.815   1.049   3.276
 9676SOL    HW239958   8.942   1.084   3.180
 9677SOL     OW39959   1.245   1.940   1.953
 9677SOL    HW139960   1.181   1.931   2.030
 9677SOL    HW239961   1.304   1.859   1.950
 9678SOL     OW39962   9.108   0.824   1.741
 9678SOL    HW139963   9.010   0.805   1.734
 9678SOL    HW239964   9.131   0.905   1.687
 9679SOL     OW39965   0.832   8.974   1.818
 9679SOL    HW139966   0.743   9.021   1.814
 9679SOL    HW239967   0.820   8.880   1.788
 9680SOL     OW39968   2.257   4.259   2.187
 9680SOL    HW139969   2.329   4.223   2.246
 9680SOL    HW239970   2.273   4.356   2.170
 9681SOL     OW39971   3.659   8.028   3.179
 9681SOL    HW139972   3.657   8.051   3.277
 9681SOL    HW239973   3.581   7.970   3.157
 9682SOL     OW39974   0.626   7.458   1.276
 9682SOL    HW139975   0.656   7.525   1.344
 9682SOL    HW239976   0.542   7.490   1.233
 9683SOL     OW39977   9.013   2.638   3.770
 9683SOL    HW139978   9.047   2.652   3.863
 9683SOL    HW239979   9.083   2.593   3.714
 9684SOL     OW39980   4.697   2.552   3.282
 9684SOL    HW139981   4.676   2.458   3.252
 9684SOL    HW239982   4.787   2.578   3.248
 9685SOL     OW39983   3.450   0.998   0.633
 9685SOL    HW139984   3.483   1.009   0.726
 9685SOL    HW239985   3.397   1.078   0.606
 9686SOL     OW39986   2.665   4.753   0.306
 9686SOL    HW139987   2.666   4.673   0.366
 9686SOL    HW239988   2.724   4.825   0.344
 9687SOL     OW39989   3.671   2.028   1.084
 9687SOL    HW139990   3.719   2.116   1.075
 9687SOL    HW239991   3.734   1.953   1.063
 9688SOL     OW39992   2.689   0.695   2.853
 9688SOL    HW139993   2.767   0.725   2.909
 9688SOL    HW239994   2.720   0.677   2.760
 9689SOL     OW39995   9.306   0.913   5.245
 9689SOL    HW139996   9.267   0.993   5.198
 9689SOL    HW239997   9.295   0.923   5.343
 9690SOL     OW39998   1.666   2.889   0.692
 9690SOL    HW139999   1.651   2.982   0.725
 9690SOL    HW240000   1.580   2.839   0.692
 9691SOL     OW40001   2.391   4.758   3.662
 9691SOL    HW140002   2.388   4.716   3.571
 9691SOL    HW240003   2.331   4.838   3.664
 9692SOL     OW40004   3.400   0.637   0.101
 9692SOL    HW140005   3.300   0.630   0.102
 9692SOL    HW240006   3.439   0.553   0.065
 9693SOL     OW40007   0.173   0.885   2.107
 9693SOL    HW140008   0.083   0.910   2.143
 9693SOL    HW240009   0.183   0.922   2.015
 9694SOL     OW40010   1.339   8.916   2.966
 9694SOL    HW140011   1.313   8.995   2.910
 9694SOL    HW240012   1.258   8.863   2.989
 9695SOL     OW40013   0.359   8.269   4.208
 9695SOL    HW140014   0.401   8.184   4.176
 9695SOL    HW240015   0.340   8.262   4.306
 9696SOL     OW40016   3.382   2.508   3.259
 9696SOL    HW140017   3.464   2.487   3.206
 9696SOL    HW240018   3.406   2.568   3.336
 9697SOL     OW40019   3.987   7.802   4.599
 9697SOL    HW140020   3.995   7.897   4.568
 9697SOL    HW240021   4.055   7.784   4.670
 9698SOL     OW40022   2.067   6.072   0.724
 9698SOL    HW140023   2.096   6.050   0.631
 9698SOL    HW240024   1.974   6.039   0.739
 9699SOL     OW40025   2.174   7.828   0.205
 9699SOL    HW140026   2.136   7.912   0.243
 9699SOL    HW240027   2.273   7.837   0.196
 9700SOL     OW40028   9.128   3.955   2.667
 9700SOL    HW140029   9.078   3.870   2.686
 9700SOL    HW240030   9.066   4.033   2.674
 9701SOL     OW40031   2.029   3.348   3.694
 9701SOL    HW140032   2.080   3.423   3.736
 9701SOL    HW240033   2.084   3.308   3.620
 9702SOL     OW40034   2.027   9.120   1.752
 9702SOL    HW140035   1.991   9.155   1.838
 9702SOL    HW240036   2.127   9.132   1.750
 9703SOL     OW40037   3.976   7.630   4.382
 9703SOL    HW140038   4.028   7.672   4.307
 9703SOL    HW240039   3.978   7.689   4.462
 9704SOL     OW40040   3.869   2.512   3.061
 9704SOL    HW140041   3.870   2.567   3.145
 9704SOL    HW240042   3.910   2.564   2.987
 9705SOL     OW40043   3.443   1.739   2.151
 9705SOL    HW140044   3.406   1.734   2.244
 9705SOL    HW240045   3.541   1.722   2.153
 9706SOL     OW40046   7.147   4.006   0.079
 9706SOL    HW140047   7.116   3.912   0.065
 9706SOL    HW240048   7.146   4.027   0.177
 9707SOL     OW40049   4.071   9.249   2.456
 9707SOL    HW140050   4.105   9.330   2.504
 9707SOL    HW240051   4.074   9.266   2.357
 9708SOL     OW40052   9.254   6.579   4.699
 9708SOL    HW140053   9.190   6.652   4.675
 9708SOL    HW240054   9.304   6.605   4.781
 9709SOL     OW40055   0.928   2.505   3.608
 9709SOL    HW140056   0.865   2.447   3.660
 9709SOL    HW240057   1.021   2.488   3.640
 9710SOL     OW40058   3.029   3.285   4.767
 9710SOL    HW140059   3.076   3.336   4.839
 9710SOL    HW240060   2.936   3.263   4.797
 9711SOL     OW40061   4.217   2.644   2.765
 9711SOL    HW140062   4.142   2.667   2.827
 9711SOL    HW240063   4.209   2.548   2.738
 9712SOL     OW40064   9.489   7.378   1.436
 9712SOL    HW140065   9.536   7.385   1.524
 9712SOL    HW240066   9.406   7.434   1.437
 9713SOL     OW40067   8.645   4.138   4.302
 9713SOL    HW140068   8.687   4.065   4.248
 9713SOL    HW240069   8.676   4.132   4.397
 9714SOL     OW40070   7.022   8.691   3.905
 9714SOL    HW140071   7.100   8.711   3.963
 9714SOL    HW240072   6.959   8.629   3.953
 9715SOL     OW40073   7.687   1.084   4.977
 9715SOL    HW140074   7.609   1.143   4.959
 9715SOL    HW240075   7.672   1.034   5.062
 9716SOL     OW40076   1.463   3.888   2.927
 9716SOL    HW140077   1.472   3.788   2.934
 9716SOL    HW240078   1.504   3.919   2.842
 9717SOL     OW40079   6.618   2.007   3.379
 9717SOL    HW140080   6.647   2.097   3.409
 9717SOL    HW240081   6.585   1.954   3.457
 9718SOL     OW40082   8.643   0.700   2.355
 9718SOL    HW140083   8.668   0.751   2.272
 9718SOL    HW240084   8.726   0.669   2.402
 9719SOL     OW40085   3.562   2.996   2.194
 9719SOL    HW140086   3.483   2.964   2.142
 9719SOL    HW240087   3.572   3.095   2.182
 9720SOL     OW40088   7.051   9.219   4.449
 9720SOL    HW140089   7.099   9.219   4.536
 9720SOL    HW240090   6.954   9.238   4.465
 9721SOL     OW40091   6.233   0.730   1.796
 9721SOL    HW140092   6.172   0.738   1.874
 9721SOL    HW240093   6.286   0.645   1.804
 9722SOL     OW40094   8.842   2.879   2.277
 9722SOL    HW140095   8.791   2.798   2.307
 9722SOL    HW240096   8.777   2.951   2.251
 9723SOL     OW40097   3.080   0.011   1.536
 9723SOL    HW140098   3.156   0.042   1.479
 9723SOL    HW240099   3.106   0.016   1.632
 9724SOL     OW40100   2.852   9.914   2.278
 9724SOL    HW140101   2.856   9.831   2.333
 9724SOL    HW240102   2.784   9.977   2.317
 9725SOL     OW40103   9.883   5.991   1.558
 9725SOL    HW140104   9.816   6.063   1.577
 9725SOL    HW240105   9.846   5.927   1.490
 9726SOL     OW40106   4.695   7.421   3.973
 9726SOL    HW140107   4.752   7.409   3.892
 9726SOL    HW240108   4.742   7.385   4.054
 9727SOL     OW40109   3.274   3.014   2.721
 9727SOL    HW140110   3.191   2.959   2.730
 9727SOL    HW240111   3.291   3.034   2.625
 9728SOL     OW40112   3.085   0.661   2.012
 9728SOL    HW140113   3.075   0.689   1.917
 9728SOL    HW240114   3.073   0.562   2.019
 9729SOL     OW40115   9.719   3.583   3.655
 9729SOL    HW140116   9.750   3.587   3.750
 9729SOL    HW240117   9.797   3.564   3.595
 9730SOL     OW40118   8.114   2.238   1.620
 9730SOL    HW140119   8.138   2.144   1.645
 9730SOL    HW240120   8.027   2.263   1.664
 9731SOL     OW40121   8.843   4.975   4.981
 9731SOL    HW140122   8.942   4.989   4.990
 9731SOL    HW240123   8.805   5.045   4.922
 9732SOL     OW40124   8.253   1.907   0.795
 9732SOL    HW140125   8.245   1.942   0.888
 9732SOL    HW240126   8.167   1.862   0.769
 9733SOL     OW40127   8.441   4.544   1.765
 9733SOL    HW140128   8.380   4.624   1.770
 9733SOL    HW240129   8.448   4.514   1.670
 9734SOL     OW40130   8.273   3.790   0.218
 9734SOL    HW140131   8.305   3.819   0.308
 9734SOL    HW240132   8.349   3.787   0.154
 9735SOL     OW40133   6.450   9.006   2.504
 9735SOL    HW140134   6.540   8.968   2.525
 9735SOL    HW240135   6.461   9.094   2.458
 9736SOL     OW40136   7.803   3.472   0.968
 9736SOL    HW140137   7.833   3.568   0.972
 9736SOL    HW240138   7.859   3.417   1.030
 9737SOL     OW40139   3.754   2.737   0.817
 9737SOL    HW140140   3.837   2.697   0.856
 9737SOL    HW240141   3.697   2.665   0.778
 9738SOL     OW40142   0.618   3.712   4.620
 9738SOL    HW140143   0.667   3.728   4.534
 9738SOL    HW240144   0.631   3.617   4.648
 9739SOL     OW40145   3.408   1.635   1.130
 9739SOL    HW140146   3.354   1.719   1.124
 9739SOL    HW240147   3.453   1.630   1.219
 9740SOL     OW40148   5.484   4.109   0.730
 9740SOL    HW140149   5.386   4.090   0.730
 9740SOL    HW240150   5.533   4.033   0.773
 9741SOL     OW40151   0.927   7.666   3.167
 9741SOL    HW140152   1.014   7.692   3.125
 9741SOL    HW240153   0.852   7.688   3.105
 9742SOL     OW40154   1.900   2.940   3.796
 9742SOL    HW140155   1.879   2.987   3.711
 9742SOL    HW240156   1.855   2.851   3.797
 9743SOL     OW40157   4.420   1.195   4.771
 9743SOL    HW140158   4.355   1.123   4.743
 9743SOL    HW240159   4.510   1.174   4.734
 9744SOL     OW40160   3.492   1.271   2.772
 9744SOL    HW140161   3.451   1.180   2.762
 9744SOL    HW240162   3.420   1.340   2.777
 9745SOL     OW40163   2.761   3.055   1.852
 9745SOL    HW140164   2.740   3.149   1.826
 9745SOL    HW240165   2.777   3.000   1.770
 9746SOL     OW40166   8.181   9.058   4.413
 9746SOL    HW140167   8.128   9.128   4.367
 9746SOL    HW240168   8.226   9.000   4.345
 9747SOL     OW40169   5.702   9.562   2.412
 9747SOL    HW140170   5.772   9.580   2.343
 9747SOL    HW240171   5.673   9.467   2.407
 9748SOL     OW40172   2.109   2.355   5.155
 9748SOL    HW140173   2.051   2.273   5.160
 9748SOL    HW240174   2.195   2.333   5.111
 9749SOL     OW40175   2.879   0.161   0.582
 9749SOL    HW140176   2.847   0.248   0.543
 9749SOL    HW240177   2.876   0.166   0.682
 9750SOL     OW40178   3.110   7.345   3.343
 9750SOL    HW140179   3.204   7.346   3.309
 9750SOL    HW240180   3.109   7.305   3.435
 9751SOL     OW40181   1.199   3.093   4.129
 9751SOL    HW140182   1.190   3.072   4.226
 9751SOL    HW240183   1.109   3.093   4.086
 9752SOL     OW40184   1.875   9.616   4.522
 9752SOL    HW140185   1.903   9.676   4.597
 9752SOL    HW240186   1.783   9.642   4.490
 9753SOL     OW40187   1.109   1.523   1.813
 9753SOL    HW140188   1.165   1.484   1.886
 9753SOL    HW240189   1.161   1.593   1.765
 9754SOL     OW40190   1.658   1.947   1.272
 9754SOL    HW140191   1.640   2.040   1.303
 9754SOL    HW240192   1.739   1.911   1.317
 9755SOL     OW40193   9.338   3.097   3.302
 9755SOL    HW140194   9.268   3.027   3.315
 9755SOL    HW240195   9.306   3.184   3.341
 9756SOL     OW40196   4.410   0.494   4.358
 9756SOL    HW140197   4.466   0.414   4.336
 9756SOL    HW240198   4.458   0.577   4.329
 9757SOL     OW40199   3.872   4.034   3.474
 9757SOL    HW140200   3.849   4.007   3.381
 9757SOL    HW240201   3.942   3.973   3.511
 9758SOL     OW40202   2.397   4.870   0.551
 9758SOL    HW140203   2.404   4.944   0.484
 9758SOL    HW240204   2.302   4.839   0.556
 9759SOL     OW40205   3.801   6.153   2.098
 9759SOL    HW140206   3.763   6.098   2.023
 9759SOL    HW240207   3.762   6.245   2.094
 9760SOL     OW40208   3.718   6.417   2.061
 9760SOL    HW140209   3.646   6.480   2.032
 9760SOL    HW240210   3.793   6.420   1.995
 9761SOL     OW40211   1.384   0.033   1.523
 9761SOL    HW140212   1.429   0.077   1.445
 9761SOL    HW240213   1.397   0.090   1.605
 9762SOL     OW40214   3.919   2.467   4.790
 9762SOL    HW140215   4.000   2.409   4.778
 9762SOL    HW240216   3.842   2.425   4.743
 9763SOL     OW40217   0.284   1.796   5.054
 9763SOL    HW140218   0.275   1.896   5.052
 9763SOL    HW240219   0.246   1.761   5.139
 9764SOL     OW40220   8.925   4.881   2.874
 9764SOL    HW140221   8.909   4.853   2.779
 9764SOL    HW240222   9.012   4.930   2.880
 9765SOL     OW40223   1.778   0.025   5.018
 9765SOL    HW140224   1.699   0.006   5.076
 9765SOL    HW240225   1.862   0.003   5.068
 9766SOL     OW40226   7.140   4.702   0.882
 9766SOL    HW140227   7.179   4.794   0.878
 9766SOL    HW240228   7.177   4.647   0.808
 9767SOL     OW40229   4.473   1.563   0.801
 9767SOL    HW140230   4.429   1.624   0.735
 9767SOL    HW240231   4.473   1.469   0.766
 9768SOL     OW40232   7.941   2.592   0.554
 9768SOL    HW140233   7.909   2.647   0.630
 9768SOL    HW240234   7.948   2.649   0.472
 9769SOL     OW40235   5.156   1.012   1.770
 9769SOL    HW140236   5.116   0.984   1.683
 9769SOL    HW240237   5.226   1.082   1.755
 9770SOL     OW40238   2.573   6.681   1.793
 9770SOL    HW140239   2.572   6.738   1.875
 9770SOL    HW240240   2.634   6.603   1.807
 9771SOL     OW40241   2.156   5.134   3.938
 9771SOL    HW140242   2.215   5.095   3.869
 9771SOL    HW240243   2.149   5.233   3.925
 9772SOL     OW40244   1.982   4.254   2.143
 9772SOL    HW140245   2.082   4.250   2.153
 9772SOL    HW240246   1.944   4.317   2.210
 9773SOL     OW40247   1.948   4.546   1.281
 9773SOL    HW140248   2.035   4.504   1.307
 9773SOL    HW240249   1.895   4.565   1.363
 9774SOL     OW40250   8.614   2.306   0.169
 9774SOL    HW140251   8.581   2.359   0.247
 9774SOL    HW240252   8.698   2.257   0.194
 9775SOL     OW40253   1.349   9.179   0.823
 9775SOL    HW140254   1.440   9.149   0.850
 9775SOL    HW240255   1.317   9.250   0.886
 9776SOL     OW40256   9.942   8.342   3.663
 9776SOL    HW140257   0.016   8.276   3.654
 9776SOL    HW240258   9.949   8.410   3.590
 9777SOL     OW40259   2.512   9.137   4.909
 9777SOL    HW140260   2.428   9.168   4.863
 9777SOL    HW240261   2.578   9.212   4.911
 9778SOL     OW40262   2.697   2.274   5.139
 9778SOL    HW140263   2.644   2.354   5.108
 9778SOL    HW240264   2.693   2.268   5.238
 9779SOL     OW40265   6.289   1.108   1.262
 9779SOL    HW140266   6.236   1.025   1.245
 9779SOL    HW240267   6.384   1.093   1.236
 9780SOL     OW40268   3.128   3.809   1.884
 9780SOL    HW140269   3.167   3.877   1.822
 9780SOL    HW240270   3.180   3.809   1.970
 9781SOL     OW40271   3.182   3.318   1.904
 9781SOL    HW140272   3.181   3.279   1.996
 9781SOL    HW240273   3.112   3.389   1.898
 9782SOL     OW40274   2.531   7.728   1.365
 9782SOL    HW140275   2.505   7.644   1.318
 9782SOL    HW240276   2.535   7.803   1.299
 9783SOL     OW40277   3.702   0.053   4.266
 9783SOL    HW140278   3.729   0.149   4.274
 9783SOL    HW240279   3.642   0.042   4.187
 9784SOL     OW40280   0.482   2.549   3.730
 9784SOL    HW140281   0.488   2.568   3.632
 9784SOL    HW240282   0.424   2.618   3.774
 9785SOL     OW40283   0.460   3.794   2.486
 9785SOL    HW140284   0.481   3.750   2.573
 9785SOL    HW240285   0.361   3.802   2.477
 9786SOL     OW40286   8.366   9.553   4.189
 9786SOL    HW140287   8.366   9.602   4.102
 9786SOL    HW240288   8.272   9.523   4.209
 9787SOL     OW40289   0.734   4.650   4.487
 9787SOL    HW140290   0.801   4.576   4.489
 9787SOL    HW240291   0.780   4.737   4.508
 9788SOL     OW40292   4.570   1.075   5.051
 9788SOL    HW140293   4.538   1.170   5.056
 9788SOL    HW240294   4.668   1.072   5.072
 9789SOL     OW40295   3.051   7.769   4.119
 9789SOL    HW140296   3.100   7.733   4.198
 9789SOL    HW240297   2.977   7.828   4.151
 9790SOL     OW40298   1.501   3.827   4.183
 9790SOL    HW140299   1.429   3.863   4.242
 9790SOL    HW240300   1.562   3.768   4.236
 9791SOL     OW40301   1.805   5.162   4.477
 9791SOL    HW140302   1.861   5.239   4.507
 9791SOL    HW240303   1.813   5.087   4.543
 9792SOL     OW40304   6.235   0.645   4.159
 9792SOL    HW140305   6.291   0.571   4.194
 9792SOL    HW240306   6.292   0.724   4.139
 9793SOL     OW40307   0.380   7.246   1.412
 9793SOL    HW140308   0.317   7.172   1.389
 9793SOL    HW240309   0.469   7.228   1.370
 9794SOL     OW40310   9.196   1.044   1.599
 9794SOL    HW140311   9.280   1.001   1.564
 9794SOL    HW240312   9.161   1.108   1.530
 9795SOL     OW40313   5.808   8.293   5.138
 9795SOL    HW140314   5.724   8.267   5.187
 9795SOL    HW240315   5.811   8.393   5.129
 9796SOL     OW40316   8.944   8.621   0.305
 9796SOL    HW140317   9.040   8.615   0.280
 9796SOL    HW240318   8.912   8.715   0.294
 9797SOL     OW40319   3.769   5.461   4.153
 9797SOL    HW140320   3.823   5.406   4.217
 9797SOL    HW240321   3.779   5.423   4.061
 9798SOL     OW40322   1.032   1.293   2.552
 9798SOL    HW140323   0.948   1.341   2.576
 9798SOL    HW240324   1.011   1.220   2.487
 9799SOL     OW40325   3.224   0.152   0.254
 9799SOL    HW140326   3.214   0.067   0.201
 9799SOL    HW240327   3.175   0.226   0.207
 9800SOL     OW40328   0.298   3.234   3.657
 9800SOL    HW140329   0.317   3.325   3.620
 9800SOL    HW240330   0.273   3.172   3.582
 9801SOL     OW40331   5.274   5.400   0.725
 9801SOL    HW140332   5.351   5.451   0.685
 9801SOL    HW240333   5.242   5.331   0.660
 9802SOL     OW40334   4.411   4.011   3.909
 9802SOL    HW140335   4.450   4.031   3.999
 9802SOL    HW240336   4.376   3.917   3.909
 9803SOL     OW40337   9.407   1.124   0.894
 9803SOL    HW140338   9.376   1.209   0.849
 9803SOL    HW240339   9.351   1.108   0.975
 9804SOL     OW40340   1.133   7.895   4.906
 9804SOL    HW140341   1.177   7.919   4.820
 9804SOL    HW240342   1.202   7.888   4.978
 9805SOL     OW40343   8.798   7.569   1.193
 9805SOL    HW140344   8.867   7.497   1.204
 9805SOL    HW240345   8.754   7.586   1.281
 9806SOL     OW40346   5.389   1.244   1.449
 9806SOL    HW140347   5.336   1.327   1.469
 9806SOL    HW240348   5.465   1.267   1.389
 9807SOL     OW40349   8.627   6.598   0.290
 9807SOL    HW140350   8.549   6.563   0.340
 9807SOL    HW240351   8.652   6.688   0.325
 9808SOL     OW40352   8.291   6.659   4.824
 9808SOL    HW140353   8.291   6.691   4.729
 9808SOL    HW240354   8.230   6.716   4.879
 9809SOL     OW40355   4.990   6.948   2.983
 9809SOL    HW140356   4.949   6.935   3.074
 9809SOL    HW240357   4.938   6.897   2.915
 9810SOL     OW40358   8.312   8.383   3.695
 9810SOL    HW140359   8.342   8.363   3.602
 9810SOL    HW240360   8.234   8.324   3.718
 9811SOL     OW40361   3.590   5.107   2.642
 9811SOL    HW140362   3.669   5.083   2.698
 9811SOL    HW240363   3.588   5.049   2.561
 9812SOL     OW40364   9.348   6.053   5.252
 9812SOL    HW140365   9.361   6.086   5.346
 9812SOL    HW240366   9.269   6.099   5.211
 9813SOL     OW40367   7.022   1.249   1.146
 9813SOL    HW140368   6.932   1.284   1.118
 9813SOL    HW240369   7.061   1.195   1.072
 9814SOL     OW40370   2.356   5.825   3.389
 9814SOL    HW140371   2.270   5.842   3.342
 9814SOL    HW240372   2.384   5.730   3.374
 9815SOL     OW40373   8.688   0.249   2.414
 9815SOL    HW140374   8.774   0.285   2.450
 9815SOL    HW240375   8.706   0.195   2.332
 9816SOL     OW40376   1.680   2.189   3.305
 9816SOL    HW140377   1.660   2.093   3.286
 9816SOL    HW240378   1.728   2.196   3.392
 9817SOL     OW40379   7.186   0.673   5.006
 9817SOL    HW140380   7.210   0.583   5.043
 9817SOL    HW240381   7.090   0.693   5.026
 9818SOL     OW40382   1.561   2.997   3.120
 9818SOL    HW140383   1.547   2.899   3.104
 9818SOL    HW240384   1.558   3.046   3.033
 9819SOL     OW40385   4.482   0.184   5.060
 9819SOL    HW140386   4.400   0.162   5.113
 9819SOL    HW240387   4.460   0.257   4.995
 9820SOL     OW40388   1.527   9.306   1.262
 9820SOL    HW140389   1.533   9.209   1.286
 9820SOL    HW240390   1.619   9.342   1.246
 9821SOL     OW40391   5.342   2.646   3.761
 9821SOL    HW140392   5.302   2.712   3.824
 9821SOL    HW240393   5.392   2.576   3.813
 9822SOL     OW40394   6.468   1.876   4.346
 9822SOL    HW140395   6.478   1.777   4.352
 9822SOL    HW240396   6.464   1.915   4.438
 9823SOL     OW40397   1.903   8.586   0.372
 9823SOL    HW140398   1.977   8.653   0.362
 9823SOL    HW240399   1.824   8.629   0.416
 9824SOL     OW40400   0.880   2.016   3.705
 9824SOL    HW140401   0.868   2.072   3.787
 9824SOL    HW240402   0.974   2.025   3.671
 9825SOL     OW40403   3.829   8.012   0.172
 9825SOL    HW140404   3.774   8.094   0.192
 9825SOL    HW240405   3.884   8.028   0.090
 9826SOL     OW40406   8.692   9.205   1.577
 9826SOL    HW140407   8.640   9.147   1.515
 9826SOL    HW240408   8.656   9.298   1.573
 9827SOL     OW40409   7.449   9.948   4.005
 9827SOL    HW140410   7.527   0.002   4.036
 9827SOL    HW240411   7.476   9.893   3.925
 9828SOL     OW40412   4.303   4.258   1.674
 9828SOL    HW140413   4.275   4.351   1.649
 9828SOL    HW240414   4.238   4.192   1.637
 9829SOL     OW40415   1.142   7.946   0.621
 9829SOL    HW140416   1.192   8.032   0.609
 9829SOL    HW240417   1.076   7.935   0.547
 9830SOL     OW40418   4.277   9.832   2.887
 9830SOL    HW140419   4.266   9.882   2.801
 9830SOL    HW240420   4.371   9.841   2.918
 9831SOL     OW40421   2.138   6.505   2.264
 9831SOL    HW140422   2.203   6.491   2.190
 9831SOL    HW240423   2.045   6.487   2.231
 9832SOL     OW40424   6.630   1.814   0.455
 9832SOL    HW140425   6.535   1.819   0.424
 9832SOL    HW240426   6.688   1.793   0.377
 9833SOL     OW40427   7.586   9.033   5.127
 9833SOL    HW140428   7.676   9.039   5.169
 9833SOL    HW240429   7.525   9.101   5.168
 9834SOL     OW40430   0.627   9.767   4.161
 9834SOL    HW140431   0.672   9.857   4.163
 9834SOL    HW240432   0.563   9.763   4.084
 9835SOL     OW40433   3.882   1.117   3.607
 9835SOL    HW140434   3.877   1.069   3.519
 9835SOL    HW240435   3.940   1.066   3.670
 9836SOL     OW40436   3.412   8.324   3.242
 9836SOL    HW140437   3.386   8.365   3.155
 9836SOL    HW240438   3.375   8.231   3.249
 9837SOL     OW40439   8.865   6.585   4.823
 9837SOL    HW140440   8.824   6.616   4.737
 9837SOL    HW240441   8.793   6.571   4.891
 9838SOL     OW40442   5.518   8.889   2.213
 9838SOL    HW140443   5.463   8.830   2.272
 9838SOL    HW240444   5.496   8.869   2.117
 9839SOL     OW40445   1.882   9.626   2.646
 9839SOL    HW140446   1.868   9.571   2.728
 9839SOL    HW240447   1.797   9.673   2.622
 9840SOL     OW40448   8.730   1.980   0.428
 9840SOL    HW140449   8.631   1.979   0.419
 9840SOL    HW240450   8.768   2.057   0.378
 9841SOL     OW40451   3.787   6.864   5.012
 9841SOL    HW140452   3.730   6.883   4.932
 9841SOL    HW240453   3.729   6.847   5.092
 9842SOL     OW40454   0.224   3.204   3.081
 9842SOL    HW140455   0.192   3.133   3.018
 9842SOL    HW240456   0.317   3.182   3.112
 9843SOL     OW40457   9.134   3.565   2.542
 9843SOL    HW140458   9.117   3.471   2.570
 9843SOL    HW240459   9.092   3.628   2.608
 9844SOL     OW40460   5.313   6.936   2.688
 9844SOL    HW140461   5.345   6.865   2.624
 9844SOL    HW240462   5.341   7.026   2.654
 9845SOL     OW40463   2.016   7.013   0.861
 9845SOL    HW140464   2.046   6.919   0.841
 9845SOL    HW240465   1.934   7.034   0.808
 9846SOL     OW40466   8.001   7.283   3.854
 9846SOL    HW140467   8.013   7.261   3.951
 9846SOL    HW240468   7.958   7.373   3.846
 9847SOL     OW40469   1.920   5.726   5.131
 9847SOL    HW140470   1.878   5.636   5.144
 9847SOL    HW240471   1.849   5.797   5.134
 9848SOL     OW40472   0.982   5.277   3.173
 9848SOL    HW140473   1.001   5.361   3.121
 9848SOL    HW240474   1.067   5.244   3.214
 9849SOL     OW40475   0.454   4.723   1.690
 9849SOL    HW140476   0.475   4.640   1.743
 9849SOL    HW240477   0.372   4.767   1.727
 9850SOL     OW40478   8.679   9.974   0.758
 9850SOL    HW140479   8.683   9.953   0.660
 9850SOL    HW240480   8.642   9.895   0.807
 9851SOL     OW40481   1.387   1.531   0.138
 9851SOL    HW140482   1.382   1.605   0.071
 9851SOL    HW240483   1.461   1.550   0.203
 9852SOL     OW40484   5.625   1.348   0.746
 9852SOL    HW140485   5.535   1.307   0.732
 9852SOL    HW240486   5.614   1.442   0.776
 9853SOL     OW40487   2.634   2.071   0.347
 9853SOL    HW140488   2.663   2.081   0.251
 9853SOL    HW240489   2.641   2.160   0.393
 9854SOL     OW40490   0.335   7.410   0.562
 9854SOL    HW140491   0.424   7.368   0.545
 9854SOL    HW240492   0.315   7.405   0.660
 9855SOL     OW40493   0.941   6.329   0.791
 9855SOL    HW140494   0.953   6.428   0.792
 9855SOL    HW240495   0.897   6.300   0.876
 9856SOL     OW40496   0.065   5.321   3.313
 9856SOL    HW140497   9.995   5.390   3.329
 9856SOL    HW240498   0.078   5.266   3.395
 9857SOL     OW40499   0.770   2.905   2.908
 9857SOL    HW140500   0.725   2.917   2.820
 9857SOL    HW240501   0.858   2.861   2.895
 9858SOL     OW40502   1.185   7.723   3.082
 9858SOL    HW140503   1.223   7.715   2.990
 9858SOL    HW240504   1.221   7.805   3.126
 9859SOL     OW40505   4.204   5.648   0.259
 9859SOL    HW140506   4.296   5.617   0.283
 9859SOL    HW240507   4.144   5.639   0.338
 9860SOL     OW40508   6.293   8.790   2.583
 9860SOL    HW140509   6.358   8.854   2.543
 9860SOL    HW240510   6.294   8.799   2.682
 9861SOL     OW40511   6.209   1.203   4.643
 9861SOL    HW140512   6.283   1.173   4.703
 9861SOL    HW240513   6.249   1.246   4.561
 9862SOL     OW40514   1.724   0.504   1.399
 9862SOL    HW140515   1.756   0.486   1.306
 9862SOL    HW240516   1.786   0.461   1.465
 9863SOL     OW40517   2.463   5.779   3.840
 9863SOL    HW140518   2.551   5.786   3.793
 9863SOL    HW240519   2.461   5.695   3.895
 9864SOL     OW40520   3.484   5.404   4.118
 9864SOL    HW140521   3.487   5.304   4.121
 9864SOL    HW240522   3.576   5.441   4.132
 9865SOL     OW40523   9.080   7.098   2.892
 9865SOL    HW140524   9.060   7.048   2.808
 9865SOL    HW240525   9.159   7.058   2.937
 9866SOL     OW40526   4.452   4.998   3.615
 9866SOL    HW140527   4.471   4.977   3.519
 9866SOL    HW240528   4.487   4.924   3.672
 9867SOL     OW40529   4.040   4.754   0.042
 9867SOL    HW140530   4.037   4.660   0.076
 9867SOL    HW240531   4.031   4.755   6.691
 9868SOL     OW40532   0.156   9.219   4.886
 9868SOL    HW140533   0.153   9.164   4.803
 9868SOL    HW240534   0.225   9.182   4.948
 9869SOL     OW40535   8.859   9.829   1.705
 9869SOL    HW140536   8.900   9.881   1.781
 9869SOL    HW240537   8.909   9.744   1.693
 9870SOL     OW40538   1.880   6.458   2.204
 9870SOL    HW140539   1.837   6.375   2.238
 9870SOL    HW240540   1.811   6.527   2.186
 9871SOL     OW40541   8.063   2.737   2.049
 9871SOL    HW140542   8.090   2.830   2.023
 9871SOL    HW240543   8.010   2.741   2.134
 9872SOL     OW40544   3.763   1.327   2.753
 9872SOL    HW140545   3.665   1.309   2.765
 9872SOL    HW240546   3.809   1.242   2.729
 9873SOL     OW40547   2.179   6.497   0.836
 9873SOL    HW140548   2.251   6.482   0.905
 9873SOL    HW240549   2.112   6.424   0.842
 9874SOL     OW40550   1.143   5.806   3.810
 9874SOL    HW140551   1.156   5.795   3.712
 9874SOL    HW240552   1.231   5.829   3.853
 9875SOL     OW40553   9.733   7.853   2.970
 9875SOL    HW140554   9.665   7.910   3.015
 9875SOL    HW240555   9.687   7.786   2.911
 9876SOL     OW40556   9.863   7.944   4.819
 9876SOL    HW140557   9.945   7.987   4.781
 9876SOL    HW240558   9.867   7.947   4.919
 9877SOL     OW40559   3.152   2.959   2.246
 9877SOL    HW140560   3.221   2.916   2.187
 9877SOL    HW240561   3.193   2.983   2.334
 9878SOL     OW40562   9.054   2.864   3.606
 9878SOL    HW140563   9.050   2.779   3.659
 9878SOL    HW240564   8.964   2.906   3.602
 9879SOL     OW40565   6.672   2.201   2.662
 9879SOL    HW140566   6.758   2.154   2.647
 9879SOL    HW240567   6.668   2.283   2.604
 9880SOL     OW40568   8.661   7.881   0.834
 9880SOL    HW140569   8.672   7.789   0.870
 9880SOL    HW240570   8.608   7.878   0.749
 9881SOL     OW40571   0.715   1.808   3.632
 9881SOL    HW140572   0.770   1.748   3.574
 9881SOL    HW240573   0.774   1.881   3.668
 9882SOL     OW40574   9.805   3.598   2.483
 9882SOL    HW140575   9.742   3.669   2.515
 9882SOL    HW240576   9.758   3.510   2.480
 9883SOL     OW40577   2.673   8.382   4.282
 9883SOL    HW140578   2.726   8.332   4.350
 9883SOL    HW240579   2.592   8.421   4.325
 9884SOL     OW40580   3.476   2.267   4.647
 9884SOL    HW140581   3.416   2.308   4.579
 9884SOL    HW240582   3.491   2.170   4.625
 9885SOL     OW40583   7.021   0.929   3.443
 9885SOL    HW140584   7.101   0.875   3.418
 9885SOL    HW240585   6.944   0.905   3.383
 9886SOL     OW40586   9.983   1.905   0.358
 9886SOL    HW140587   0.000   1.992   0.312
 9886SOL    HW240588   9.992   1.831   0.291
 9887SOL     OW40589   6.345   7.562   2.338
 9887SOL    HW140590   6.441   7.567   2.368
 9887SOL    HW240591   6.313   7.468   2.343
 9888SOL     OW40592   0.472   2.435   5.236
 9888SOL    HW140593   0.410   2.509   5.261
 9888SOL    HW240594   0.566   2.468   5.240
 9889SOL     OW40595   2.854   7.926   4.232
 9889SOL    HW140596   2.794   7.887   4.301
 9889SOL    HW240597   2.800   7.954   4.152
 9890SOL     OW40598   5.227   8.490   4.031
 9890SOL    HW140599   5.223   8.474   3.932
 9890SOL    HW240600   5.137   8.472   4.071
 9891SOL     OW40601   9.739   3.843   0.927
 9891SOL    HW140602   9.805   3.914   0.953
 9891SOL    HW240603   9.773   3.754   0.957
 9892SOL     OW40604   0.267   9.492   4.142
 9892SOL    HW140605   0.294   9.449   4.055
 9892SOL    HW240606   0.339   9.477   4.210
 9893SOL     OW40607   0.109   8.528   3.116
 9893SOL    HW140608   0.059   8.445   3.140
 9893SOL    HW240609   0.183   8.543   3.182
 9894SOL     OW40610   3.636   7.590   2.667
 9894SOL    HW140611   3.671   7.599   2.574
 9894SOL    HW240612   3.711   7.572   2.731
 9895SOL     OW40613   3.429   0.717   1.766
 9895SOL    HW140614   3.366   0.795   1.757
 9895SOL    HW240615   3.423   0.680   1.859
 9896SOL     OW40616   5.128   3.082   3.287
 9896SOL    HW140617   5.128   3.000   3.231
 9896SOL    HW240618   5.132   3.057   3.384
 9897SOL     OW40619   4.315   1.726   3.527
 9897SOL    HW140620   4.280   1.633   3.527
 9897SOL    HW240621   4.319   1.761   3.620
 9898SOL     OW40622   4.405   7.292   1.339
 9898SOL    HW140623   4.405   7.357   1.415
 9898SOL    HW240624   4.331   7.316   1.275
 9899SOL     OW40625   9.732   4.907   1.866
 9899SOL    HW140626   9.693   4.839   1.804
 9899SOL    HW240627   9.712   4.999   1.833
 9900SOL     OW40628   0.952   3.765   4.717
 9900SOL    HW140629   0.951   3.823   4.635
 9900SOL    HW240630   1.001   3.679   4.696
 9901SOL     OW40631   3.785   2.545   1.722
 9901SOL    HW140632   3.857   2.565   1.788
 9901SOL    HW240633   3.816   2.572   1.631
 9902SOL     OW40634   1.753   8.805   4.277
 9902SOL    HW140635   1.794   8.756   4.355
 9902SOL    HW240636   1.695   8.742   4.226
 9903SOL     OW40637   1.571   7.196   5.126
 9903SOL    HW140638   1.524   7.139   5.194
 9903SOL    HW240639   1.510   7.213   5.049
 9904SOL     OW40640   6.433   9.434   4.623
 9904SOL    HW140641   6.488   9.486   4.558
 9904SOL    HW240642   6.475   9.344   4.638
 9905SOL     OW40643   0.726   7.611   1.495
 9905SOL    HW140644   0.817   7.570   1.499
 9905SOL    HW240645   0.668   7.571   1.567
 9906SOL     OW40646   9.503   4.097   4.740
 9906SOL    HW140647   9.455   4.010   4.730
 9906SOL    HW240648   9.439   4.167   4.772
 9907SOL     OW40649   7.121   8.880   2.129
 9907SOL    HW140650   7.218   8.858   2.119
 9907SOL    HW240651   7.067   8.797   2.118
 9908SOL     OW40652   4.074   3.693   2.839
 9908SOL    HW140653   4.081   3.760   2.914
 9908SOL    HW240654   3.978   3.684   2.813
 9909SOL     OW40655   2.335   1.626   0.297
 9909SOL    HW140656   2.403   1.554   0.316
 9909SOL    HW240657   2.347   1.701   0.361
 9910SOL     OW40658   1.329   3.817   4.783
 9910SOL    HW140659   1.293   3.734   4.826
 9910SOL    HW240660   1.405   3.793   4.722
 9911SOL     OW40661   4.178   2.312   1.764
 9911SOL    HW140662   4.198   2.295   1.861
 9911SOL    HW240663   4.084   2.284   1.744
 9912SOL     OW40664   4.754   4.013   2.309
 9912SOL    HW140665   4.741   4.104   2.269
 9912SOL    HW240666   4.666   3.966   2.314
 9913SOL     OW40667   1.001   7.262   5.082
 9913SOL    HW140668   1.072   7.309   5.030
 9913SOL    HW240669   0.955   7.327   5.142
 9914SOL     OW40670   1.238   1.037   4.943
 9914SOL    HW140671   1.262   0.947   4.980
 9914SOL    HW240672   1.321   1.089   4.925
 9915SOL     OW40673   8.430   6.601   4.161
 9915SOL    HW140674   8.339   6.643   4.162
 9915SOL    HW240675   8.431   6.524   4.226
 9916SOL     OW40676   5.084   4.658   1.062
 9916SOL    HW140677   4.994   4.697   1.042
 9916SOL    HW240678   5.153   4.731   1.062
 9917SOL     OW40679   2.598   1.612   1.760
 9917SOL    HW140680   2.557   1.697   1.727
 9917SOL    HW240681   2.672   1.583   1.699
 9918SOL     OW40682   6.818   8.631   4.995
 9918SOL    HW140683   6.856   8.722   5.015
 9918SOL    HW240684   6.893   8.570   4.969
 9919SOL     OW40685   0.272   3.633   0.113
 9919SOL    HW140686   0.298   3.537   0.128
 9919SOL    HW240687   0.355   3.688   0.104
 9920SOL     OW40688   3.082   1.817   2.960
 9920SOL    HW140689   3.026   1.752   3.012
 9920SOL    HW240690   3.057   1.910   2.984
 9921SOL     OW40691   1.710   8.000   1.226
 9921SOL    HW140692   1.701   7.944   1.309
 9921SOL    HW240693   1.691   8.096   1.248
 9922SOL     OW40694   4.294   4.631   0.241
 9922SOL    HW140695   4.214   4.612   0.185
 9922SOL    HW240696   4.284   4.721   0.283
 9923SOL     OW40697   1.968   3.846   1.490
 9923SOL    HW140698   1.897   3.884   1.430
 9923SOL    HW240699   1.935   3.845   1.585
 9924SOL     OW40700   0.186   7.387   4.664
 9924SOL    HW140701   0.256   7.382   4.593
 9924SOL    HW240702   0.172   7.482   4.692
 9925SOL     OW40703   9.900   0.275   4.236
 9925SOL    HW140704   9.957   0.200   4.269
 9925SOL    HW240705   9.828   0.294   4.303
 9926SOL     OW40706   2.573   5.236   4.875
 9926SOL    HW140707   2.655   5.281   4.839
 9926SOL    HW240708   2.558   5.265   4.969
 9927SOL     OW40709   2.331   1.083   3.173
 9927SOL    HW140710   2.232   1.069   3.164
 9927SOL    HW240711   2.374   1.074   3.083
 9928SOL     OW40712   3.321   3.046   4.470
 9928SOL    HW140713   3.345   3.090   4.383
 9928SOL    HW240714   3.237   3.085   4.505
 9929SOL     OW40715   8.102   6.118   3.781
 9929SOL    HW140716   8.016   6.070   3.763
 9929SOL    HW240717   8.178   6.067   3.740
 9930SOL     OW40718   4.960   1.309   0.983
 9930SOL    HW140719   4.944   1.278   1.076
 9930SOL    HW240720   4.984   1.406   0.984
 9931SOL     OW40721   4.857   7.463   2.992
 9931SOL    HW140722   4.873   7.448   3.090
 9931SOL    HW240723   4.881   7.380   2.942
 9932SOL     OW40724   6.230   4.141   0.558
 9932SOL    HW140725   6.276   4.226   0.533
 9932SOL    HW240726   6.286   4.091   0.624
 9933SOL     OW40727   9.327   4.653   3.660
 9933SOL    HW140728   9.307   4.556   3.670
 9933SOL    HW240729   9.423   4.670   3.680
 9934SOL     OW40730   3.360   7.318   1.009
 9934SOL    HW140731   3.363   7.346   1.105
 9934SOL    HW240732   3.349   7.219   1.004
 9935SOL     OW40733   7.923   3.358   0.165
 9935SOL    HW140734   7.885   3.450   0.156
 9935SOL    HW240735   7.918   3.329   0.261
 9936SOL     OW40736   5.652   4.806   0.457
 9936SOL    HW140737   5.627   4.709   0.455
 9936SOL    HW240738   5.575   4.860   0.490
 9937SOL     OW40739   8.010   5.815   1.128
 9937SOL    HW140740   8.013   5.850   1.221
 9937SOL    HW240741   8.096   5.834   1.082
 9938SOL     OW40742   9.858   4.372   2.492
 9938SOL    HW140743   9.929   4.309   2.461
 9938SOL    HW240744   9.799   4.326   2.559
 9939SOL     OW40745   0.073   5.232   2.113
 9939SOL    HW140746   0.015   5.154   2.087
 9939SOL    HW240747   0.122   5.210   2.198
 9940SOL     OW40748   0.766   4.782   2.595
 9940SOL    HW140749   0.751   4.881   2.588
 9940SOL    HW240750   0.707   4.744   2.665
 9941SOL     OW40751   0.255   9.128   2.845
 9941SOL    HW140752   0.292   9.210   2.888
 9941SOL    HW240753   0.159   9.143   2.821
 9942SOL     OW40754   7.068   1.503   3.803
 9942SOL    HW140755   7.088   1.565   3.726
 9942SOL    HW240756   7.082   1.409   3.773
 9943SOL     OW40757   8.769   6.062   4.579
 9943SOL    HW140758   8.811   6.111   4.503
 9943SOL    HW240759   8.740   6.128   4.649
 9944SOL     OW40760   1.246   3.658   0.159
 9944SOL    HW140761   1.303   3.589   0.115
 9944SOL    HW240762   1.296   3.744   0.167
 9945SOL     OW40763   0.864   4.892   4.555
 9945SOL    HW140764   0.952   4.868   4.596
 9945SOL    HW240765   0.879   4.931   4.464
 9946SOL     OW40766   5.735   0.569   2.549
 9946SOL    HW140767   5.737   0.540   2.454
 9946SOL    HW240768   5.808   0.635   2.567
 9947SOL     OW40769   2.917   2.888   3.475
 9947SOL    HW140770   2.954   2.937   3.554
 9947SOL    HW240771   2.898   2.954   3.402
 9948SOL     OW40772   9.758   2.776   2.810
 9948SOL    HW140773   9.768   2.679   2.786
 9948SOL    HW240774   9.723   2.783   2.903
 9949SOL     OW40775   8.223   2.462   4.014
 9949SOL    HW140776   8.212   2.525   3.937
 9949SOL    HW240777   8.215   2.368   3.981
 9950SOL     OW40778   4.325   1.655   1.016
 9950SOL    HW140779   4.237   1.608   1.007
 9950SOL    HW240780   4.388   1.622   0.946
 9951SOL     OW40781   9.086   3.375   1.969
 9951SOL    HW140782   9.029   3.312   2.021
 9951SOL    HW240783   9.157   3.413   2.029
 9952SOL     OW40784   9.848   3.662   0.528
 9952SOL    HW140785   9.860   3.742   0.586
 9952SOL    HW240786   9.764   3.614   0.555
 9953SOL     OW40787   2.354   0.896   4.375
 9953SOL    HW140788   2.447   0.876   4.344
 9953SOL    HW240789   2.309   0.811   4.401
 9954SOL     OW40790   3.214   4.425   1.472
 9954SOL    HW140791   3.293   4.369   1.496
 9954SOL    HW240792   3.231   4.471   1.385
 9955SOL     OW40793   1.089   9.462   1.335
 9955SOL    HW140794   1.048   9.444   1.425
 9955SOL    HW240795   1.069   9.556   1.308
 9956SOL     OW40796   2.506   3.117   0.981
 9956SOL    HW140797   2.563   3.046   1.022
 9956SOL    HW240798   2.421   3.127   1.033
 9957SOL     OW40799   9.187   2.185   3.960
 9957SOL    HW140800   9.219   2.239   3.882
 9957SOL    HW240801   9.265   2.162   4.019
 9958SOL     OW40802   8.505   3.891   1.277
 9958SOL    HW140803   8.534   3.906   1.371
 9958SOL    HW240804   8.550   3.810   1.240
 9959SOL     OW40805   9.208   6.762   0.242
 9959SOL    HW140806   9.277   6.825   0.205
 9959SOL    HW240807   9.200   6.682   0.183
 9960SOL     OW40808   8.333   8.788   3.559
 9960SOL    HW140809   8.404   8.743   3.505
 9960SOL    HW240810   8.269   8.834   3.497
 9961SOL     OW40811   7.770   8.777   3.691
 9961SOL    HW140812   7.843   8.742   3.632
 9961SOL    HW240813   7.682   8.740   3.660
 9962SOL     OW40814   2.337   3.574   2.612
 9962SOL    HW140815   2.241   3.571   2.639
 9962SOL    HW240816   2.366   3.670   2.605
 9963SOL     OW40817   3.186   7.683   4.344
 9963SOL    HW140818   3.252   7.614   4.315
 9963SOL    HW240819   3.133   7.649   4.421
 9964SOL     OW40820   7.460   2.370   4.882
 9964SOL    HW140821   7.393   2.444   4.876
 9964SOL    HW240822   7.503   2.358   4.792
 9965SOL     OW40823   2.255   5.787   2.197
 9965SOL    HW140824   2.271   5.886   2.201
 9965SOL    HW240825   2.341   5.740   2.177
 9966SOL     OW40826   4.628   3.604   1.497
 9966SOL    HW140827   4.659   3.584   1.404
 9966SOL    HW240828   4.697   3.573   1.563
 9967SOL     OW40829   0.707   5.054   2.619
 9967SOL    HW140830   0.731   5.031   2.713
 9967SOL    HW240831   0.634   5.122   2.618
 9968SOL     OW40832   4.537   0.350   1.346
 9968SOL    HW140833   4.600   0.307   1.281
 9968SOL    HW240834   4.546   0.306   1.435
 9969SOL     OW40835   9.817   4.741   2.839
 9969SOL    HW140836   9.735   4.781   2.798
 9969SOL    HW240837   9.802   4.644   2.856
 9970SOL     OW40838   9.677   8.484   4.780
 9970SOL    HW140839   9.723   8.449   4.862
 9970SOL    HW240840   9.725   8.452   4.699
 9971SOL     OW40841   2.460   6.845   2.959
 9971SOL    HW140842   2.503   6.931   2.984
 9971SOL    HW240843   2.479   6.776   3.029
 9972SOL     OW40844   0.917   8.486   3.998
 9972SOL    HW140845   1.015   8.489   4.015
 9972SOL    HW240846   0.869   8.529   4.074
 9973SOL     OW40847   8.136   3.125   0.489
 9973SOL    HW140848   8.234   3.127   0.510
 9973SOL    HW240849   8.089   3.068   0.556
 9974SOL     OW40850   3.638   7.370   2.939
 9974SOL    HW140851   3.716   7.421   2.902
 9974SOL    HW240852   3.599   7.312   2.867
 9975SOL     OW40853   1.853   0.096   2.833
 9975SOL    HW140854   1.914   0.148   2.773
 9975SOL    HW240855   1.777   0.060   2.779
 9976SOL     OW40856   6.743   9.340   4.228
 9976SOL    HW140857   6.771   9.252   4.189
 9976SOL    HW240858   6.823   9.398   4.243
 9977SOL     OW40859   0.205   4.508   3.629
 9977SOL    HW140860   0.110   4.516   3.601
 9977SOL    HW240861   0.260   4.471   3.554
 9978SOL     OW40862   0.350   8.922   4.264
 9978SOL    HW140863   0.294   8.988   4.314
 9978SOL    HW240864   0.317   8.829   4.284
 9979SOL     OW40865   1.066   5.079   2.880
 9979SOL    HW140866   1.051   5.088   2.978
 9979SOL    HW240867   1.040   4.987   2.850
 9980SOL     OW40868   2.607   1.020   3.547
 9980SOL    HW140869   2.551   0.975   3.478
 9980SOL    HW240870   2.675   1.078   3.503
 9981SOL     OW40871   2.134   0.930   0.732
 9981SOL    HW140872   2.054   0.877   0.706
 9981SOL    HW240873   2.171   0.895   0.818
 9982SOL     OW40874   3.663   4.962   3.972
 9982SOL    HW140875   3.582   4.914   3.938
 9982SOL    HW240876   3.718   4.994   3.895
 9983SOL     OW40877   9.205   7.066   1.174
 9983SOL    HW140878   9.262   7.088   1.253
 9983SOL    HW240879   9.252   6.999   1.117
 9984SOL     OW40880   3.093   6.855   3.332
 9984SOL    HW140881   3.057   6.931   3.277
 9984SOL    HW240882   3.085   6.770   3.280
 9985SOL     OW40883   0.528   2.926   4.994
 9985SOL    HW140884   0.586   2.844   4.992
 9985SOL    HW240885   0.551   2.981   5.073
 9986SOL     OW40886   0.759   6.235   2.064
 9986SOL    HW140887   0.731   6.204   2.155
 9986SOL    HW240888   0.821   6.313   2.073
 9987SOL     OW40889   0.025   5.578   2.404
 9987SOL    HW140890   0.037   5.612   2.311
 9987SOL    HW240891   9.941   5.615   2.443
 9988SOL     OW40892   0.800   3.279   3.256
 9988SOL    HW140893   0.858   3.218   3.309
 9988SOL    HW240894   0.715   3.297   3.307
 9989SOL     OW40895   4.045   5.981   1.073
 9989SOL    HW140896   4.015   5.936   1.157
 9989SOL    HW240897   4.030   5.920   0.995
 9990SOL     OW40898   7.783   6.570   3.003
 9990SOL    HW140899   7.793   6.614   2.914
 9990SOL    HW240900   7.843   6.615   3.070
 9991SOL     OW40901   6.995   1.481   3.402
 9991SOL    HW140902   7.026   1.386   3.408
 9991SOL    HW240903   7.050   1.538   3.464
 9992SOL     OW40904   2.123   5.912   2.980
 9992SOL    HW140905   2.126   5.897   3.079
 9992SOL    HW240906   2.092   5.829   2.935
 9993SOL     OW40907   9.574   4.249   2.119
 9993SOL    HW140908   9.491   4.276   2.166
 9993SOL    HW240909   9.612   4.327   2.070
 9994SOL     OW40910   9.390   4.646   5.023
 9994SOL    HW140911   9.292   4.625   5.016
 9994SOL    HW240912   9.440   4.562   5.043
 9995SOL     OW40913   4.675   0.372   3.481
 9995SOL    HW140914   4.724   0.427   3.413
 9995SOL    HW240915   4.630   0.433   3.546
 9996SOL     OW40916   1.649   3.880   0.960
 9996SOL    HW140917   1.626   3.943   1.035
 9996SOL    HW240918   1.570   3.823   0.939
 9997SOL     OW40919   1.687   0.655   3.357
 9997SOL    HW140920   1.642   0.636   3.444
 9997SOL    HW240921   1.627   0.630   3.281
 9998SOL     OW40922   7.678   9.609   1.226
 9998SOL    HW140923   7.630   9.684   1.179
 9998SOL    HW240924   7.630   9.588   1.311
 9999SOL     OW40925   3.867   0.521   1.201
 9999SOL    HW140926   3.874   0.426   1.171
 9999SOL    HW240927   3.817   0.525   1.287
10000SOL     OW40928   3.397   2.503   2.171
10000SOL    HW140929   3.486   2.484   2.132
10000SOL    HW240930   3.344   2.418   2.177
10001SOL     OW40931   2.779   1.537   2.272
10001SOL    HW140932   2.873   1.568   2.258
10001SOL    HW240933   2.726   1.557   2.190
10002SOL     OW40934   2.563   1.661   4.436
10002SOL    HW140935   2.558   1.572   4.392
10002SOL    HW240936   2.471   1.695   4.455
10003SOL     OW40937   7.908   0.155   2.989
10003SOL    HW140938   7.874   0.101   3.066
10003SOL    HW240939   7.965   0.230   3.024
10004SOL     OW40940   0.323   4.762   3.606
10004SOL    HW140941   0.277   4.673   3.612
10004SOL    HW240942   0.405   4.761   3.664
10005SOL     OW40943   4.993   1.052   0.875
10005SOL    HW140944   4.994   1.057   0.775
10005SOL    HW240945   4.970   1.141   0.913
10006SOL     OW40946   9.724   6.741   4.087
10006SOL    HW140947   9.773   6.758   4.172
10006SOL    HW240948   9.653   6.672   4.103
10007SOL     OW40949   0.228   3.123   3.416
10007SOL    HW140950   0.255   3.031   3.384
10007SOL    HW240951   0.245   3.189   3.343
10008SOL     OW40952   1.933   2.217   0.854
10008SOL    HW140953   1.887   2.154   0.916
10008SOL    HW240954   1.879   2.226   0.770
10009SOL     OW40955   1.624   7.658   3.248
10009SOL    HW140956   1.579   7.648   3.160
10009SOL    HW240957   1.580   7.599   3.315
10010SOL     OW40958   0.269   2.071   5.073
10010SOL    HW140959   0.257   2.131   5.152
10010SOL    HW240960   0.361   2.082   5.036
10011SOL     OW40961   4.487   0.122   0.476
10011SOL    HW140962   4.410   0.160   0.426
10011SOL    HW240963   4.506   0.029   0.443
10012SOL     OW40964   9.848   8.487   4.303
10012SOL    HW140965   9.937   8.443   4.315
10012SOL    HW240966   9.814   8.468   4.211
10013SOL     OW40967   9.988   6.029   1.214
10013SOL    HW140968   0.075   6.066   1.246
10013SOL    HW240969   9.912   6.076   1.260
10014SOL     OW40970   3.205   1.962   3.305
10014SOL    HW140971   3.165   1.871   3.308
10014SOL    HW240972   3.303   1.957   3.322
10015SOL     OW40973   1.984   9.159   1.475
10015SOL    HW140974   2.018   9.142   1.567
10015SOL    HW240975   1.888   9.187   1.480
10016SOL     OW40976   3.306   2.371   4.456
10016SOL    HW140977   3.226   2.314   4.435
10016SOL    HW240978   3.365   2.377   4.375
10017SOL     OW40979   0.524   3.767   3.274
10017SOL    HW140980   0.522   3.741   3.178
10017SOL    HW240981   0.570   3.855   3.285
10018SOL     OW40982   0.657   6.248   2.960
10018SOL    HW140983   0.670   6.227   3.057
10018SOL    HW240984   0.675   6.345   2.943
10019SOL     OW40985   2.474   5.323   2.181
10019SOL    HW140986   2.499   5.393   2.248
10019SOL    HW240987   2.508   5.234   2.210
10020SOL     OW40988   5.164   5.559   2.111
10020SOL    HW140989   5.170   5.459   2.113
10020SOL    HW240990   5.227   5.594   2.041
10021SOL     OW40991   2.151   5.265   5.098
10021SOL    HW140992   2.214   5.267   5.021
10021SOL    HW240993   2.057   5.259   5.064
10022SOL     OW40994   4.497   3.910   2.354
10022SOL    HW140995   4.478   3.878   2.261
10022SOL    HW240996   4.441   3.860   2.419
10023SOL     OW40997   9.503   3.447   1.114
10023SOL    HW140998   9.499   3.535   1.162
10023SOL    HW240999   9.549   3.460   1.026
10024SOL     OW41000   1.831   0.455   1.837
10024SOL    HW141001   1.874   0.509   1.910
10024SOL    HW241002   1.742   0.496   1.814
10025SOL     OW41003   9.706   3.236   0.252
10025SOL    HW141004   9.749   3.160   0.301
10025SOL    HW241005   9.757   3.254   0.168
10026SOL     OW41006   1.320   6.369   1.835
10026SOL    HW141007   1.383   6.368   1.913
10026SOL    HW241008   1.227   6.353   1.868
10027SOL     OW41009   1.117   5.546   1.821
10027SOL    HW141010   1.043   5.514   1.880
10027SOL    HW241011   1.188   5.475   1.813
10028SOL     OW41012   8.626   5.589   3.647
10028SOL    HW141013   8.645   5.491   3.640
10028SOL    HW241014   8.655   5.623   3.736
10029SOL     OW41015   3.580   0.794   4.852
10029SOL    HW141016   3.522   0.873   4.832
10029SOL    HW241017   3.563   0.722   4.785
10030SOL     OW41018   8.216   7.281   2.939
10030SOL    HW141019   8.244   7.313   2.849
10030SOL    HW241020   8.185   7.186   2.933
10031SOL     OW41021   1.563   7.220   2.022
10031SOL    HW141022   1.606   7.153   2.081
10031SOL    HW241023   1.632   7.281   1.983
10032SOL     OW41024   1.950   4.192   0.808
10032SOL    HW141025   1.969   4.289   0.822
10032SOL    HW241026   2.019   4.151   0.749
10033SOL     OW41027   0.053   8.334   1.721
10033SOL    HW141028   0.064   8.342   1.622
10033SOL    HW241029   9.960   8.362   1.746
10034SOL     OW41030   5.892   9.105   3.836
10034SOL    HW141031   5.956   9.036   3.869
10034SOL    HW241032   5.928   9.196   3.857
10035SOL     OW41033   1.808   2.626   0.257
10035SOL    HW141034   1.757   2.687   0.317
10035SOL    HW241035   1.814   2.535   0.299
10036SOL     OW41036   1.776   5.072   4.193
10036SOL    HW141037   1.846   5.065   4.265
10036SOL    HW241038   1.688   5.092   4.235
10037SOL     OW41039   3.778   0.928   0.879
10037SOL    HW141040   3.777   0.834   0.913
10037SOL    HW241041   3.688   0.969   0.893
10038SOL     OW41042   2.690   9.041   0.085
10038SOL    HW141043   2.756   9.069   0.155
10038SOL    HW241044   2.626   9.117   0.069
10039SOL     OW41045   4.403   6.890   2.805
10039SOL    HW141046   4.325   6.952   2.816
10039SOL    HW241047   4.464   6.898   2.883
10040SOL     OW41048   1.777   1.727   0.112
10040SOL    HW141049   1.792   1.675   0.028
10040SOL    HW241050   1.809   1.675   0.190
10041SOL     OW41051   6.586   4.943   0.319
10041SOL    HW141052   6.549   5.021   0.267
10041SOL    HW241053   6.529   4.862   0.302
10042SOL     OW41054   3.554   2.933   2.458
10042SOL    HW141055   3.591   2.842   2.476
10042SOL    HW241056   3.565   2.955   2.361
10043SOL     OW41057   1.742   2.682   2.620
10043SOL    HW141058   1.712   2.601   2.670
10043SOL    HW241059   1.687   2.694   2.537
10044SOL     OW41060   9.282   4.069   0.807
10044SOL    HW141061   9.206   4.058   0.871
10044SOL    HW241062   9.354   4.004   0.828
10045SOL     OW41063   7.880   4.297   5.243
10045SOL    HW141064   7.788   4.271   5.215
10045SOL    HW241065   7.902   4.255   5.331
10046SOL     OW41066   0.330   1.903   4.568
10046SOL    HW141067   0.349   1.960   4.488
10046SOL    HW241068   0.302   1.812   4.538
10047SOL     OW41069   4.915   0.685   4.467
10047SOL    HW141070   4.887   0.666   4.561
10047SOL    HW241071   5.015   0.689   4.462
10048SOL     OW41072   8.582   9.255   3.968
10048SOL    HW141073   8.498   9.213   3.931
10048SOL    HW241074   8.662   9.213   3.925
10049SOL     OW41075   2.903   4.992   1.367
10049SOL    HW141076   2.880   4.897   1.345
10049SOL    HW241077   2.822   5.050   1.358
10050SOL     OW41078   7.264   2.632   4.284
10050SOL    HW141079   7.338   2.621   4.217
10050SOL    HW241080   7.254   2.729   4.306
10051SOL     OW41081   3.627   0.519   0.643
10051SOL    HW141082   3.670   0.578   0.575
10051SOL    HW241083   3.569   0.575   0.703
10052SOL     OW41084   3.150   1.342   0.983
10052SOL    HW141085   3.120   1.376   0.894
10052SOL    HW241086   3.150   1.242   0.982
10053SOL     OW41087   8.048   3.716   3.065
10053SOL    HW141088   8.085   3.809   3.064
10053SOL    HW241089   8.041   3.682   2.971
10054SOL     OW41090   3.557   8.815   0.423
10054SOL    HW141091   3.524   8.830   0.329
10054SOL    HW241092   3.486   8.842   0.488
10055SOL     OW41093   3.650   7.493   4.522
10055SOL    HW141094   3.562   7.447   4.515
10055SOL    HW241095   3.703   7.477   4.439
10056SOL     OW41096   4.541   4.656   0.948
10056SOL    HW141097   4.577   4.589   0.884
10056SOL    HW241098   4.504   4.609   1.028
10057SOL     OW41099   2.974   0.016   1.060
10057SOL    HW141100   3.066   0.001   1.025
10057SOL    HW241101   2.922   9.931   1.056
10058SOL     OW41102   4.280   1.768   2.651
10058SOL    HW141103   4.229   1.752   2.567
10058SOL    HW241104   4.367   1.814   2.630
10059SOL     OW41105   2.495   9.238   0.137
10059SOL    HW141106   2.408   9.201   0.170
10059SOL    HW241107   2.547   9.275   0.214
10060SOL     OW41108   4.757   9.504   2.153
10060SOL    HW141109   4.853   9.530   2.157
10060SOL    HW241110   4.701   9.587   2.150
10061SOL     OW41111   5.011   7.253   2.642
10061SOL    HW141112   4.988   7.172   2.588
10061SOL    HW241113   4.978   7.241   2.736
10062SOL     OW41114   1.471   9.648   0.304
10062SOL    HW141115   1.514   9.708   0.372
10062SOL    HW241116   1.377   9.630   0.331
10063SOL     OW41117   2.435   7.852   0.514
10063SOL    HW141118   2.514   7.885   0.567
10063SOL    HW241119   2.362   7.920   0.515
10064SOL     OW41120   8.307   0.447   1.656
10064SOL    HW141121   8.227   0.458   1.715
10064SOL    HW241122   8.372   0.521   1.675
10065SOL     OW41123   5.480   9.439   3.529
10065SOL    HW141124   5.561   9.450   3.471
10065SOL    HW241125   5.501   9.376   3.604
10066SOL     OW41126   4.856   6.415   2.039
10066SOL    HW141127   4.909   6.454   1.964
10066SOL    HW241128   4.852   6.316   2.029
10067SOL     OW41129   8.889   5.372   4.763
10067SOL    HW141130   8.946   5.453   4.759
10067SOL    HW241131   8.899   5.328   4.853
10068SOL     OW41132   5.898   8.147   1.961
10068SOL    HW141133   5.900   8.228   1.902
10068SOL    HW241134   5.828   8.084   1.927
10069SOL     OW41135   1.262   1.463   4.038
10069SOL    HW141136   1.203   1.536   4.074
10069SOL    HW241137   1.356   1.479   4.067
10070SOL     OW41138   8.215   5.939   5.215
10070SOL    HW141139   8.131   5.991   5.198
10070SOL    HW241140   8.191   5.847   5.247
10071SOL     OW41141   9.569   2.316   2.242
10071SOL    HW141142   9.543   2.267   2.159
10071SOL    HW241143   9.550   2.414   2.231
10072SOL     OW41144   7.992   5.072   1.126
10072SOL    HW141145   8.059   5.042   1.057
10072SOL    HW241146   8.007   5.169   1.147
10073SOL     OW41147   3.117   9.191   0.316
10073SOL    HW141148   3.098   9.289   0.307
10073SOL    HW241149   3.139   9.171   0.412
10074SOL     OW41150   4.289   2.078   4.804
10074SOL    HW141151   4.303   2.077   4.705
10074SOL    HW241152   4.346   2.008   4.846
10075SOL     OW41153   1.586   1.556   4.394
10075SOL    HW141154   1.508   1.614   4.417
10075SOL    HW241155   1.586   1.538   4.295
10076SOL     OW41156   5.328   7.679   5.096
10076SOL    HW141157   5.331   7.728   5.009
10076SOL    HW241158   5.354   7.584   5.083
10077SOL     OW41159   0.087   3.261   2.465
10077SOL    HW141160   0.060   3.333   2.401
10077SOL    HW241161   0.012   3.242   2.527
10078SOL     OW41162   1.945   2.315   2.658
10078SOL    HW141163   1.952   2.332   2.756
10078SOL    HW241164   2.015   2.250   2.630
10079SOL     OW41165   7.521   1.235   5.238
10079SOL    HW141166   7.442   1.289   5.207
10079SOL    HW241167   7.605   1.288   5.226
10080SOL     OW41168   1.260   8.195   0.561
10080SOL    HW141169   1.308   8.177   0.476
10080SOL    HW241170   1.183   8.257   0.544
10081SOL     OW41171   8.830   1.830   2.675
10081SOL    HW141172   8.882   1.785   2.746
10081SOL    HW241173   8.738   1.851   2.709
10082SOL     OW41174   9.626   4.624   1.103
10082SOL    HW141175   9.722   4.602   1.120
10082SOL    HW241176   9.617   4.664   1.012
10083SOL     OW41177   0.502   8.062   2.049
10083SOL    HW141178   0.407   8.088   2.030
10083SOL    HW241179   0.516   7.967   2.022
10084SOL     OW41180   9.143   4.618   4.293
10084SOL    HW141181   9.132   4.707   4.249
10084SOL    HW241182   9.072   4.556   4.261
10085SOL     OW41183   1.840   3.560   1.717
10085SOL    HW141184   1.890   3.516   1.792
10085SOL    HW241185   1.842   3.659   1.729
10086SOL     OW41186   1.869   4.811   1.626
10086SOL    HW141187   1.817   4.866   1.692
10086SOL    HW241188   1.953   4.860   1.601
10087SOL     OW41189   1.868   2.962   4.749
10087SOL    HW141190   1.907   2.885   4.799
10087SOL    HW241191   1.885   3.047   4.801
10088SOL     OW41192   3.239   3.930   4.104
10088SOL    HW141193   3.319   3.947   4.045
10088SOL    HW241194   3.181   4.011   4.104
10089SOL     OW41195   3.091   0.245   4.749
10089SOL    HW141196   3.139   0.322   4.790
10089SOL    HW241197   3.130   0.226   4.658
10090SOL     OW41198   6.760   9.239   4.498
10090SOL    HW141199   6.740   9.283   4.411
10090SOL    HW241200   6.674   9.216   4.544
10091SOL     OW41201   8.653   8.289   2.457
10091SOL    HW141202   8.607   8.200   2.462
10091SOL    HW241203   8.631   8.332   2.370
10092SOL     OW41204   1.445   9.837   0.105
10092SOL    HW141205   1.454   9.798   0.013
10092SOL    HW241206   1.460   9.764   0.173
10093SOL     OW41207   0.141   8.361   4.051
10093SOL    HW141208   0.214   8.324   4.109
10093SOL    HW241209   0.116   8.452   4.082
10094SOL     OW41210   4.748   4.690   2.458
10094SOL    HW141211   4.809   4.749   2.406
10094SOL    HW241212   4.670   4.743   2.492
10095SOL     OW41213   8.017   5.903   1.392
10095SOL    HW141214   8.053   5.831   1.451
10095SOL    HW241215   7.928   5.932   1.427
10096SOL     OW41216   2.535   6.647   0.411
10096SOL    HW141217   2.553   6.645   0.313
10096SOL    HW241218   2.436   6.640   0.426
10097SOL     OW41219   4.912   2.265   0.562
10097SOL    HW141220   4.936   2.174   0.530
10097SOL    HW241221   4.890   2.323   0.484
10098SOL     OW41222   3.085   1.535   1.607
10098SOL    HW141223   3.124   1.625   1.626
10098SOL    HW241224   3.140   1.464   1.651
10099SOL     OW41225   2.623   1.823   3.340
10099SOL    HW141226   2.642   1.815   3.242
10099SOL    HW241227   2.636   1.918   3.369
10100SOL     OW41228   6.979   0.698   3.634
10100SOL    HW141229   6.991   0.786   3.588
10100SOL    HW241230   6.885   0.665   3.618
10101SOL     OW41231   1.564   4.449   3.905
10101SOL    HW141232   1.623   4.456   3.986
10101SOL    HW241233   1.570   4.356   3.868
10102SOL     OW41234   4.262   8.480   4.708
10102SOL    HW141235   4.264   8.552   4.639
10102SOL    HW241236   4.353   8.469   4.749
10103SOL     OW41237   3.954   2.934   4.400
10103SOL    HW141238   3.904   2.996   4.461
10103SOL    HW241239   4.049   2.965   4.392
10104SOL     OW41240   1.133   5.736   0.716
10104SOL    HW141241   1.205   5.709   0.652
10104SOL    HW241242   1.174   5.785   0.793
10105SOL     OW41243   3.372   7.036   0.758
10105SOL    HW141244   3.462   6.993   0.765
10105SOL    HW241245   3.331   7.041   0.849
10106SOL     OW41246   9.433   8.564   1.028
10106SOL    HW141247   9.469   8.530   1.115
10106SOL    HW241248   9.333   8.568   1.033
10107SOL     OW41249   0.153   6.540   2.865
10107SOL    HW141250   0.197   6.497   2.944
10107SOL    HW241251   0.196   6.508   2.781
10108SOL     OW41252   3.142   1.457   0.521
10108SOL    HW141253   3.075   1.430   0.452
10108SOL    HW241254   3.183   1.545   0.496
10109SOL     OW41255   2.352   9.914   1.049
10109SOL    HW141256   2.257   9.883   1.047
10109SOL    HW241257   2.363   9.991   0.986
10110SOL     OW41258   9.665   0.989   0.546
10110SOL    HW141259   9.683   1.021   0.453
10110SOL    HW241260   9.713   0.902   0.562
10111SOL     OW41261   4.396   2.073   3.198
10111SOL    HW141262   4.339   2.003   3.239
10111SOL    HW241263   4.478   2.031   3.158
10112SOL     OW41264   5.979   9.363   3.891
10112SOL    HW141265   5.933   9.416   3.962
10112SOL    HW241266   6.078   9.375   3.899
10113SOL     OW41267   4.033   1.570   0.379
10113SOL    HW141268   4.047   1.656   0.330
10113SOL    HW241269   4.121   1.529   0.401
10114SOL     OW41270   4.188   0.108   4.293
10114SOL    HW141271   4.280   0.107   4.255
10114SOL    HW241272   4.193   0.106   4.393
10115SOL     OW41273   2.591   3.439   4.789
10115SOL    HW141274   2.503   3.409   4.755
10115SOL    HW241275   2.578   3.515   4.853
10116SOL     OW41276   1.823   6.350   1.502
10116SOL    HW141277   1.828   6.255   1.470
10116SOL    HW241278   1.763   6.402   1.443
10117SOL     OW41279   0.426   7.447   2.967
10117SOL    HW141280   0.405   7.366   3.022
10117SOL    HW241281   0.523   7.446   2.943
10118SOL     OW41282   2.029   5.034   4.848
10118SOL    HW141283   1.995   5.105   4.910
10118SOL    HW241284   2.086   5.076   4.777
10119SOL     OW41285   0.528   6.395   3.542
10119SOL    HW141286   0.464   6.328   3.580
10119SOL    HW241287   0.476   6.466   3.493
10120SOL     OW41288   9.753   4.630   2.119
10120SOL    HW141289   9.728   4.560   2.052
10120SOL    HW241290   9.691   4.708   2.112
10121SOL     OW41291   2.579   8.612   0.901
10121SOL    HW141292   2.595   8.633   0.804
10121SOL    HW241293   2.481   8.601   0.917
10122SOL     OW41294   9.655   7.567   4.888
10122SOL    HW141295   9.651   7.488   4.949
10122SOL    HW241296   9.566   7.611   4.884
10123SOL     OW41297   1.850   3.967   0.392
10123SOL    HW141298   1.760   3.953   0.433
10123SOL    HW241299   1.870   4.065   0.387
10124SOL     OW41300   5.277   3.303   3.189
10124SOL    HW141301   5.367   3.276   3.154
10124SOL    HW241302   5.228   3.221   3.220
10125SOL     OW41303   8.672   8.016   2.695
10125SOL    HW141304   8.659   8.099   2.749
10125SOL    HW241305   8.619   8.023   2.610
10126SOL     OW41306   2.438   7.476   1.267
10126SOL    HW141307   2.400   7.459   1.358
10126SOL    HW241308   2.435   7.392   1.214
10127SOL     OW41309   6.985   8.472   3.439
10127SOL    HW141310   7.034   8.484   3.525
10127SOL    HW241311   6.921   8.548   3.426
10128SOL     OW41312   3.705   9.800   4.616
10128SOL    HW141313   3.618   9.814   4.663
10128SOL    HW241314   3.760   9.883   4.623
10129SOL     OW41315   2.424   4.815   0.197
10129SOL    HW141316   2.396   4.730   0.154
10129SOL    HW241317   2.515   4.804   0.238
10130SOL     OW41318   8.616   1.759   5.071
10130SOL    HW141319   8.709   1.767   5.035
10130SOL    HW241320   8.586   1.847   5.105
10131SOL     OW41321   9.289   6.143   3.302
10131SOL    HW141322   9.264   6.236   3.328
10131SOL    HW241323   9.248   6.078   3.366
10132SOL     OW41324   0.620   8.877   4.303
10132SOL    HW141325   0.522   8.886   4.284
10132SOL    HW241326   0.657   8.966   4.331
10133SOL     OW41327   4.927   5.360   1.568
10133SOL    HW141328   4.998   5.310   1.518
10133SOL    HW241329   4.874   5.415   1.503
10134SOL     OW41330   8.791   0.828   4.575
10134SOL    HW141331   8.749   0.783   4.654
10134SOL    HW241332   8.875   0.874   4.603
10135SOL     OW41333   7.900   5.151   0.665
10135SOL    HW141334   7.893   5.069   0.608
10135SOL    HW241335   7.990   5.153   0.709
10136SOL     OW41336   7.869   9.757   5.087
10136SOL    HW141337   7.945   9.706   5.127
10136SOL    HW241338   7.880   9.854   5.106
10137SOL     OW41339   6.024   9.517   3.530
10137SOL    HW141340   6.054   9.598   3.579
10137SOL    HW241341   5.938   9.484   3.570
10138SOL     OW41342   3.753   8.407   3.654
10138SOL    HW141343   3.722   8.477   3.719
10138SOL    HW241344   3.674   8.359   3.616
10139SOL     OW41345   4.269   7.497   3.145
10139SOL    HW141346   4.248   7.529   3.237
10139SOL    HW241347   4.256   7.572   3.080
10140SOL     OW41348   8.307   2.805   0.613
10140SOL    HW141349   8.272   2.888   0.657
10140SOL    HW241350   8.351   2.830   0.526
10141SOL     OW41351   7.352   1.985   0.182
10141SOL    HW141352   7.264   1.948   0.154
10141SOL    HW241353   7.381   2.056   0.118
10142SOL     OW41354   6.329   9.960   2.467
10142SOL    HW141355   6.396   9.918   2.528
10142SOL    HW241356   6.248   9.987   2.520
10143SOL     OW41357   6.839   7.773   4.990
10143SOL    HW141358   6.855   7.732   4.900
10143SOL    HW241359   6.852   7.872   4.983
10144SOL     OW41360   1.004   9.735   4.307
10144SOL    HW141361   0.998   9.718   4.406
10144SOL    HW241362   0.997   9.833   4.290
10145SOL     OW41363   9.532   4.419   5.069
10145SOL    HW141364   9.497   4.328   5.094
10145SOL    HW241365   9.602   4.408   4.998
10146SOL     OW41366   7.957   2.669   3.349
10146SOL    HW141367   8.043   2.619   3.358
10146SOL    HW241368   7.962   2.755   3.400
10147SOL     OW41369   1.169   5.674   4.712
10147SOL    HW141370   1.120   5.708   4.793
10147SOL    HW241371   1.231   5.600   4.738
10148SOL     OW41372   5.707   9.578   4.579
10148SOL    HW141373   5.644   9.653   4.599
10148SOL    HW241374   5.760   9.600   4.497
10149SOL     OW41375   8.611   4.758   4.676
10149SOL    HW141376   8.689   4.754   4.737
10149SOL    HW241377   8.589   4.854   4.656
10150SOL     OW41378   3.345   2.874   2.060
10150SOL    HW141379   3.419   2.819   2.022
10150SOL    HW241380   3.266   2.870   2.000
10151SOL     OW41381   1.962   5.350   4.607
10151SOL    HW141382   1.896   5.371   4.680
10151SOL    HW241383   2.005   5.435   4.577
10152SOL     OW41384   0.386   1.035   0.269
10152SOL    HW141385   0.402   1.022   0.367
10152SOL    HW241386   0.424   1.123   0.241
10153SOL     OW41387   3.724   3.974   0.545
10153SOL    HW141388   3.681   4.064   0.551
10153SOL    HW241389   3.739   3.950   0.449
10154SOL     OW41390   6.017   9.402   3.054
10154SOL    HW141391   6.034   9.500   3.043
10154SOL    HW241392   6.082   9.363   3.119
10155SOL     OW41393   2.540   3.841   1.822
10155SOL    HW141394   2.608   3.770   1.840
10155SOL    HW241395   2.513   3.884   1.908
10156SOL     OW41396   9.854   1.682   3.925
10156SOL    HW141397   9.776   1.641   3.973
10156SOL    HW241398   9.827   1.770   3.886
10157SOL     OW41399   6.281   9.457   4.213
10157SOL    HW141400   6.193   9.414   4.230
10157SOL    HW241401   6.279   9.552   4.246
10158SOL     OW41402   3.460   5.258   4.545
10158SOL    HW141403   3.374   5.207   4.538
10158SOL    HW241404   3.495   5.251   4.639
10159SOL     OW41405   9.722   5.504   2.717
10159SOL    HW141406   9.774   5.418   2.715
10159SOL    HW241407   9.756   5.564   2.645
10160SOL     OW41408   8.603   3.313   5.026
10160SOL    HW141409   8.699   3.343   5.031
10160SOL    HW241410   8.596   3.220   5.061
10161SOL     OW41411   4.582   4.232   1.667
10161SOL    HW141412   4.605   4.165   1.738
10161SOL    HW241413   4.482   4.244   1.663
10162SOL     OW41414   1.933   2.942   0.315
10162SOL    HW141415   1.904   3.017   0.255
10162SOL    HW241416   1.986   2.876   0.262
10163SOL     OW41417   0.587   8.233   4.582
10163SOL    HW141418   0.582   8.205   4.678
10163SOL    HW241419   0.677   8.210   4.545
10164SOL     OW41420   0.558   7.504   1.688
10164SOL    HW141421   0.493   7.428   1.689
10164SOL    HW241422   0.511   7.588   1.712
10165SOL     OW41423   5.192   5.212   0.540
10165SOL    HW141424   5.188   5.121   0.581
10165SOL    HW241425   5.099   5.250   0.534
10166SOL     OW41426   5.923   8.387   1.827
10166SOL    HW141427   5.902   8.462   1.765
10166SOL    HW241428   5.993   8.416   1.892
10167SOL     OW41429   1.086   6.638   0.162
10167SOL    HW141430   1.055   6.636   0.257
10167SOL    HW241431   1.102   6.545   0.130
10168SOL     OW41432   0.954   2.992   2.143
10168SOL    HW141433   0.962   2.912   2.083
10168SOL    HW241434   1.043   3.035   2.153
10169SOL     OW41435   4.604   2.159   4.120
10169SOL    HW141436   4.575   2.090   4.054
10169SOL    HW241437   4.646   2.236   4.072
10170SOL     OW41438   5.350   7.497   3.548
10170SOL    HW141439   5.335   7.596   3.542
10170SOL    HW241440   5.404   7.467   3.470
10171SOL     OW41441   0.131   2.301   1.722
10171SOL    HW141442   0.143   2.342   1.813
10171SOL    HW241443   0.043   2.254   1.719
10172SOL     OW41444   5.762   1.836   2.578
10172SOL    HW141445   5.842   1.882   2.540
10172SOL    HW241446   5.743   1.871   2.670
10173SOL     OW41447   4.373   5.314   4.848
10173SOL    HW141448   4.471   5.308   4.866
10173SOL    HW241449   4.348   5.410   4.832
10174SOL     OW41450   9.184   6.537   0.065
10174SOL    HW141451   9.177   6.575   6.721
10174SOL    HW241452   9.122   6.460   0.075
10175SOL     OW41453   9.333   3.199   2.542
10175SOL    HW141454   9.325   3.101   2.560
10175SOL    HW241455   9.375   3.245   2.620
10176SOL     OW41456   8.239   3.016   0.785
10176SOL    HW141457   8.263   2.950   0.856
10176SOL    HW241458   8.152   3.060   0.809
10177SOL     OW41459   9.963   9.226   3.784
10177SOL    HW141460   9.870   9.203   3.755
10177SOL    HW241461   9.968   9.322   3.810
10178SOL     OW41462   4.042   9.014   5.222
10178SOL    HW141463   4.142   9.013   5.223
10178SOL    HW241464   4.008   9.021   5.315
10179SOL     OW41465   4.068   7.339   0.953
10179SOL    HW141466   4.102   7.274   0.885
10179SOL    HW241467   3.975   7.367   0.930
10180SOL     OW41468   0.358   4.854   4.576
10180SOL    HW141469   0.320   4.796   4.648
10180SOL    HW241470   0.446   4.891   4.607
10181SOL     OW41471   5.029   8.459   2.223
10181SOL    HW141472   4.943   8.447   2.273
10181SOL    HW241473   5.100   8.404   2.267
10182SOL     OW41474   4.085   1.793   1.162
10182SOL    HW141475   4.156   1.785   1.092
10182SOL    HW241476   3.997   1.808   1.118
10183SOL     OW41477   9.056   7.813   3.746
10183SOL    HW141478   9.035   7.735   3.806
10183SOL    HW241479   9.057   7.897   3.800
10184SOL     OW41480   2.874   0.159   2.734
10184SOL    HW141481   2.889   0.255   2.712
10184SOL    HW241482   2.945   0.103   2.692
10185SOL     OW41483   7.127   0.846   1.276
10185SOL    HW141484   7.217   0.803   1.284
10185SOL    HW241485   7.131   0.938   1.315
10186SOL     OW41486   8.700   0.913   0.898
10186SOL    HW141487   8.655   0.903   0.810
10186SOL    HW241488   8.761   0.992   0.895
10187SOL     OW41489   3.438   4.962   5.089
10187SOL    HW141490   3.366   5.021   5.053
10187SOL    HW241491   3.525   5.012   5.093
10188SOL     OW41492   4.422   9.851   3.422
10188SOL    HW141493   4.427   9.756   3.454
10188SOL    HW241494   4.487   9.865   3.348
10189SOL     OW41495   2.411   1.411   3.905
10189SOL    HW141496   2.425   1.501   3.863
10189SOL    HW241497   2.416   1.340   3.835
10190SOL     OW41498   0.812   1.319   3.606
10190SOL    HW141499   0.888   1.384   3.604
10190SOL    HW241500   0.842   1.233   3.648
10191SOL     OW41501   0.180   0.100   0.165
10191SOL    HW141502   0.118   0.062   0.097
10191SOL    HW241503   0.251   0.033   0.187
10192SOL     OW41504   2.464   5.631   2.088
10192SOL    HW141505   2.470   5.574   2.006
10192SOL    HW241506   2.488   5.577   2.168
10193SOL     OW41507   8.933   4.987   1.475
10193SOL    HW141508   8.901   4.942   1.392
10193SOL    HW241509   8.861   4.986   1.544
10194SOL     OW41510   2.002   5.722   2.270
10194SOL    HW141511   1.983   5.629   2.238
10194SOL    HW241512   2.097   5.745   2.252
10195SOL     OW41513   4.837   5.406   2.600
10195SOL    HW141514   4.836   5.309   2.574
10195SOL    HW241515   4.860   5.414   2.697
10196SOL     OW41516   9.037   5.987   4.300
10196SOL    HW141517   9.100   5.927   4.251
10196SOL    HW241518   8.964   5.932   4.340
10197SOL     OW41519   1.482   8.471   3.210
10197SOL    HW141520   1.499   8.376   3.235
10197SOL    HW241521   1.563   8.507   3.163
10198SOL     OW41522   3.995   1.721   2.760
10198SOL    HW141523   4.075   1.734   2.701
10198SOL    HW241524   3.948   1.809   2.772
10199SOL     OW41525   4.034   6.652   4.434
10199SOL    HW141526   4.097   6.593   4.486
10199SOL    HW241527   4.013   6.733   4.488
10200SOL     OW41528   8.586   2.928   1.552
10200SOL    HW141529   8.533   2.992   1.607
10200SOL    HW241530   8.681   2.926   1.584
10201SOL     OW41531   0.147   3.688   3.554
10201SOL    HW141532   0.117   3.765   3.609
10201SOL    HW241533   0.069   3.629   3.533
10202SOL     OW41534   4.472   0.838   4.960
10202SOL    HW141535   4.507   0.925   4.995
10202SOL    HW241536   4.477   0.838   4.860
10203SOL     OW41537   4.078   4.399   4.972
10203SOL    HW141538   4.131   4.388   4.888
10203SOL    HW241539   4.019   4.479   4.964
10204SOL     OW41540   8.001   5.209   0.250
10204SOL    HW141541   7.993   5.260   0.336
10204SOL    HW241542   8.097   5.184   0.235
10205SOL     OW41543   0.136   1.375   0.352
10205SOL    HW141544   0.074   1.443   0.391
10205SOL    HW241545   0.230   1.395   0.379
10206SOL     OW41546   8.661   9.324   4.423
10206SOL    HW141547   8.747   9.349   4.467
10206SOL    HW241548   8.652   9.374   4.337
10207SOL     OW41549   3.115   4.932   4.397
10207SOL    HW141550   3.069   4.928   4.308
10207SOL    HW241551   3.091   4.850   4.450
10208SOL     OW41552   3.547   2.198   5.286
10208SOL    HW141553   3.633   2.147   5.295
10208SOL    HW241554   3.550   2.252   5.202
10209SOL     OW41555   9.981   5.158   3.085
10209SOL    HW141556   9.960   5.061   3.094
10209SOL    HW241557   0.020   5.192   3.171
10210SOL     OW41558   7.702   8.504   5.104
10210SOL    HW141559   7.788   8.498   5.155
10210SOL    HW241560   7.630   8.540   5.163
10211SOL     OW41561   7.604   2.131   3.905
10211SOL    HW141562   7.580   2.079   3.987
10211SOL    HW241563   7.586   2.076   3.823
10212SOL     OW41564   3.490   2.599   5.104
10212SOL    HW141565   3.522   2.504   5.096
10212SOL    HW241566   3.449   2.627   5.017
10213SOL     OW41567   1.205   6.762   2.677
10213SOL    HW141568   1.140   6.691   2.650
10213SOL    HW241569   1.206   6.834   2.608
10214SOL     OW41570   6.013   5.023   0.386
10214SOL    HW141571   5.937   5.006   0.322
10214SOL    HW241572   6.100   5.013   0.338
10215SOL     OW41573   7.096   0.771   1.947
10215SOL    HW141574   7.045   0.807   2.024
10215SOL    HW241575   7.137   0.847   1.896
10216SOL     OW41576   0.675   8.565   0.896
10216SOL    HW141577   0.714   8.640   0.949
10216SOL    HW241578   0.687   8.479   0.947
10217SOL     OW41579   4.640   1.385   3.588
10217SOL    HW141580   4.622   1.366   3.491
10217SOL    HW241581   4.590   1.467   3.616
10218SOL     OW41582   4.205   1.366   1.194
10218SOL    HW141583   4.291   1.345   1.147
10218SOL    HW241584   4.223   1.382   1.291
10219SOL     OW41585   1.070   8.828   4.241
10219SOL    HW141586   1.112   8.898   4.300
10219SOL    HW241587   1.064   8.742   4.291
10220SOL     OW41588   1.020   4.106   2.480
10220SOL    HW141589   1.085   4.084   2.407
10220SOL    HW241590   0.964   4.026   2.500
10221SOL     OW41591   5.545   6.402   2.159
10221SOL    HW141592   5.606   6.475   2.128
10221SOL    HW241593   5.452   6.421   2.125
10222SOL     OW41594   4.102   4.306   2.388
10222SOL    HW141595   4.088   4.403   2.367
10222SOL    HW241596   4.191   4.277   2.352
10223SOL     OW41597   0.073   1.145   0.492
10223SOL    HW141598   0.095   1.207   0.416
10223SOL    HW241599   0.086   1.192   0.579
10224SOL     OW41600   0.268   2.203   1.365
10224SOL    HW141601   0.307   2.203   1.457
10224SOL    HW241602   0.298   2.285   1.315
10225SOL     OW41603   0.168   4.956   3.717
10225SOL    HW141604   0.224   4.888   3.670
10225SOL    HW241605   0.097   4.910   3.770
10226SOL     OW41606   8.706   7.391   0.828
10226SOL    HW141607   8.716   7.398   0.729
10226SOL    HW241608   8.702   7.482   0.868
10227SOL     OW41609   9.537   7.210   0.169
10227SOL    HW141610   9.596   7.287   0.145
10227SOL    HW241611   9.566   7.172   0.257
10228SOL     OW41612   5.501   0.735   3.713
10228SOL    HW141613   5.520   0.833   3.720
10228SOL    HW241614   5.458   0.716   3.625
10229SOL     OW41615   1.250   5.524   3.701
10229SOL    HW141616   1.164   5.515   3.751
10229SOL    HW241617   1.242   5.599   3.635
10230SOL     OW41618   2.849   7.543   2.122
10230SOL    HW141619   2.800   7.467   2.078
10230SOL    HW241620   2.782   7.605   2.164
10231SOL     OW41621   9.299   6.295   4.090
10231SOL    HW141622   9.385   6.306   4.039
10231SOL    HW241623   9.299   6.358   4.168
10232SOL     OW41624   2.812   4.950   0.415
10232SOL    HW141625   2.895   4.996   0.382
10232SOL    HW241626   2.810   4.953   0.515
10233SOL     OW41627   9.970   1.993   4.545
10233SOL    HW141628   9.890   2.045   4.573
10233SOL    HW241629   0.036   2.054   4.501
10234SOL     OW41630   5.971   8.567   4.129
10234SOL    HW141631   5.929   8.487   4.174
10234SOL    HW241632   5.905   8.607   4.066
10235SOL     OW41633   8.878   4.207   1.070
10235SOL    HW141634   8.792   4.157   1.081
10235SOL    HW241635   8.953   4.142   1.057
10236SOL     OW41636   3.066   8.925   1.985
10236SOL    HW141637   3.102   8.971   1.903
10236SOL    HW241638   3.017   8.991   2.041
10237SOL     OW41639   2.205   5.373   2.442
10237SOL    HW141640   2.201   5.332   2.351
10237SOL    HW241641   2.113   5.403   2.469
10238SOL     OW41642   2.628   3.042   1.321
10238SOL    HW141643   2.637   3.142   1.321
10238SOL    HW241644   2.543   3.017   1.367
10239SOL     OW41645   1.003   4.620   1.370
10239SOL    HW141646   1.042   4.591   1.458
10239SOL    HW241647   0.903   4.613   1.374
10240SOL     OW41648   2.089   2.352   2.118
10240SOL    HW141649   2.115   2.349   2.214
10240SOL    HW241650   2.114   2.266   2.074
10241SOL     OW41651   4.417   1.454   4.683
10241SOL    HW141652   4.322   1.486   4.674
10241SOL    HW241653   4.417   1.360   4.715
10242SOL     OW41654   9.462   3.009   3.041
10242SOL    HW141655   9.403   3.035   3.118
10242SOL    HW241656   9.496   3.092   2.996
10243SOL     OW41657   2.345   1.819   0.498
10243SOL    HW141658   2.397   1.834   0.582
10243SOL    HW241659   2.331   1.906   0.451
10244SOL     OW41660   5.527   0.149   2.475
10244SOL    HW141661   5.609   0.116   2.522
10244SOL    HW241662   5.489   0.075   2.419
10245SOL     OW41663   9.213   8.478   4.836
10245SOL    HW141664   9.210   8.547   4.908
10245SOL    HW241665   9.300   8.429   4.840
10246SOL     OW41666   7.913   6.899   4.756
10246SOL    HW141667   7.925   6.994   4.783
10246SOL    HW241668   7.838   6.892   4.690
10247SOL     OW41669   8.538   9.009   2.378
10247SOL    HW141670   8.578   8.927   2.418
10247SOL    HW241671   8.476   8.984   2.305
10248SOL     OW41672   0.051   9.636   3.024
10248SOL    HW141673   9.972   9.677   3.069
10248SOL    HW241674   0.056   9.539   3.048
10249SOL     OW41675   9.882   4.570   0.177
10249SOL    HW141676   9.784   4.557   0.170
10249SOL    HW241677   9.904   4.667   0.167
10250SOL     OW41678   3.889   2.025   2.119
10250SOL    HW141679   3.910   1.991   2.210
10250SOL    HW241680   3.875   1.948   2.057
10251SOL     OW41681   4.738   3.530   2.372
10251SOL    HW141682   4.727   3.531   2.471
10251SOL    HW241683   4.658   3.487   2.330
10252SOL     OW41684   8.654   8.239   3.330
10252SOL    HW141685   8.716   8.200   3.262
10252SOL    HW241686   8.653   8.181   3.411
10253SOL     OW41687   2.747   2.803   0.402
10253SOL    HW141688   2.757   2.820   0.304
10253SOL    HW241689   2.663   2.750   0.417
10254SOL     OW41690   4.766   3.722   0.143
10254SOL    HW141691   4.731   3.641   0.095
10254SOL    HW241692   4.742   3.716   0.240
10255SOL     OW41693   4.200   0.692   3.424
10255SOL    HW141694   4.245   0.759   3.483
10255SOL    HW241695   4.234   0.600   3.445
10256SOL     OW41696   3.284   9.619   2.689
10256SOL    HW141697   3.347   9.693   2.713
10256SOL    HW241698   3.336   9.536   2.668
10257SOL     OW41699   9.866   5.098   5.175
10257SOL    HW141700   9.806   5.018   5.168
10257SOL    HW241701   9.813   5.177   5.206
10258SOL     OW41702   4.179   9.902   3.767
10258SOL    HW141703   4.099   9.884   3.824
10258SOL    HW241704   4.237   9.971   3.811
10259SOL     OW41705   4.331   9.363   0.771
10259SOL    HW141706   4.306   9.284   0.827
10259SOL    HW241707   4.296   9.350   0.678
10260SOL     OW41708   6.707   8.054   5.169
10260SOL    HW141709   6.667   7.962   5.172
10260SOL    HW241710   6.785   8.055   5.107
10261SOL     OW41711   4.681   4.493   0.772
10261SOL    HW141712   4.762   4.550   0.755
10261SOL    HW241713   4.631   4.479   0.687
10262SOL     OW41714   6.631   8.173   4.446
10262SOL    HW141715   6.633   8.092   4.503
10262SOL    HW241716   6.677   8.249   4.493
10263SOL     OW41717   8.528   7.903   0.594
10263SOL    HW141718   8.446   7.875   0.545
10263SOL    HW241719   8.534   8.003   0.595
10264SOL     OW41720   4.131   1.237   0.251
10264SOL    HW141721   4.041   1.280   0.249
10264SOL    HW241722   4.125   1.151   0.301
10265SOL     OW41723   8.970   5.963   2.656
10265SOL    HW141724   9.055   6.016   2.665
10265SOL    HW241725   8.969   5.915   2.569
10266SOL     OW41726   0.561   8.511   2.523
10266SOL    HW141727   0.611   8.458   2.454
10266SOL    HW241728   0.609   8.597   2.540
10267SOL     OW41729   8.711   8.077   1.421
10267SOL    HW141730   8.628   8.043   1.466
10267SOL    HW241731   8.763   8.000   1.384
10268SOL     OW41732   2.751   2.507   4.827
10268SOL    HW141733   2.714   2.595   4.860
10268SOL    HW241734   2.818   2.473   4.893
10269SOL     OW41735   3.546   0.090   2.838
10269SOL    HW141736   3.614   0.153   2.803
10269SOL    HW241737   3.463   0.095   2.782
10270SOL     OW41738   3.283   2.804   4.071
10270SOL    HW141739   3.222   2.753   4.131
10270SOL    HW241740   3.362   2.836   4.123
10271SOL     OW41741   8.237   4.284   1.413
10271SOL    HW141742   8.187   4.348   1.355
10271SOL    HW241743   8.255   4.200   1.363
10272SOL     OW41744   3.159   5.892   0.194
10272SOL    HW141745   3.256   5.908   0.208
10272SOL    HW241746   3.114   5.978   0.168
10273SOL     OW41747   3.877   0.402   0.646
10273SOL    HW141748   3.951   0.469   0.649
10273SOL    HW241749   3.790   0.449   0.631
10274SOL     OW41750   3.140   8.828   2.705
10274SOL    HW141751   3.172   8.910   2.754
10274SOL    HW241752   3.189   8.819   2.619
10275SOL     OW41753   1.910   7.693   2.547
10275SOL    HW141754   1.996   7.642   2.537
10275SOL    HW241755   1.873   7.679   2.639
10276SOL     OW41756   4.864   9.519   3.470
10276SOL    HW141757   4.953   9.502   3.511
10276SOL    HW241758   4.797   9.454   3.507
10277SOL     OW41759   8.152   0.890   3.636
10277SOL    HW141760   8.120   0.896   3.542
10277SOL    HW241761   8.238   0.839   3.639
10278SOL     OW41762   2.145   2.544   2.819
10278SOL    HW141763   2.232   2.536   2.867
10278SOL    HW241764   2.080   2.478   2.856
10279SOL     OW41765   2.184   7.327   2.372
10279SOL    HW141766   2.161   7.231   2.358
10279SOL    HW241767   2.277   7.344   2.338
10280SOL     OW41768   9.406   7.350   0.926
10280SOL    HW141769   9.452   7.270   0.963
10280SOL    HW241770   9.399   7.341   0.826
10281SOL     OW41771   1.474   5.362   1.154
10281SOL    HW141772   1.406   5.366   1.227
10281SOL    HW241773   1.465   5.442   1.095
10282SOL     OW41774   6.224   9.134   3.925
10282SOL    HW141775   6.176   9.111   4.009
10282SOL    HW241776   6.248   9.231   3.925
10283SOL     OW41777   9.517   9.541   2.534
10283SOL    HW141778   9.540   9.508   2.625
10283SOL    HW241779   9.567   9.626   2.516
10284SOL     OW41780   2.048   0.793   0.292
10284SOL    HW141781   2.018   0.882   0.326
10284SOL    HW241782   2.132   0.766   0.340
10285SOL     OW41783   3.684   3.822   4.606
10285SOL    HW141784   3.657   3.830   4.510
10285SOL    HW241785   3.630   3.750   4.650
10286SOL     OW41786   2.425   4.656   3.399
10286SOL    HW141787   2.505   4.623   3.348
10286SOL    HW241788   2.406   4.750   3.373
10287SOL     OW41789   1.785   4.723   4.582
10287SOL    HW141790   1.794   4.820   4.604
10287SOL    HW241791   1.868   4.675   4.609
10288SOL     OW41792   6.363   8.893   3.988
10288SOL    HW141793   6.317   8.977   3.961
10288SOL    HW241794   6.303   8.839   4.046
10289SOL     OW41795   1.563   1.368   3.055
10289SOL    HW141796   1.577   1.313   3.138
10289SOL    HW241797   1.465   1.389   3.046
10290SOL     OW41798   9.728   0.667   1.537
10290SOL    HW141799   9.772   0.690   1.450
10290SOL    HW241800   9.741   0.742   1.602
10291SOL     OW41801   6.377   4.357   0.486
10291SOL    HW141802   6.460   4.361   0.542
10291SOL    HW241803   6.403   4.351   0.389
10292SOL     OW41804   8.057   7.849   5.056
10292SOL    HW141805   8.013   7.914   4.994
10292SOL    HW241806   7.992   7.777   5.081
10293SOL     OW41807   1.218   6.184   3.418
10293SOL    HW141808   1.211   6.235   3.331
10293SOL    HW241809   1.192   6.245   3.493
10294SOL     OW41810   3.932   3.335   2.106
10294SOL    HW141811   3.855   3.390   2.075
10294SOL    HW241812   3.920   3.313   2.203
10295SOL     OW41813   9.220   0.323   0.946
10295SOL    HW141814   9.174   0.262   1.011
10295SOL    HW241815   9.253   0.270   0.868
10296SOL     OW41816   7.413   3.783   2.134
10296SOL    HW141817   7.387   3.819   2.045
10296SOL    HW241818   7.433   3.685   2.126
10297SOL     OW41819   7.453   2.551   4.099
10297SOL    HW141820   7.384   2.494   4.054
10297SOL    HW241821   7.538   2.500   4.107
10298SOL     OW41822   1.967   4.349   3.107
10298SOL    HW141823   2.065   4.333   3.115
10298SOL    HW241824   1.937   4.410   3.181
10299SOL     OW41825   5.231   8.299   2.336
10299SOL    HW141826   5.257   8.343   2.422
10299SOL    HW241827   5.256   8.202   2.339
10300SOL     OW41828   0.721   1.704   2.386
10300SOL    HW141829   0.714   1.699   2.486
10300SOL    HW241830   0.707   1.798   2.356
10301SOL     OW41831   1.265   7.743   1.576
10301SOL    HW141832   1.303   7.678   1.643
10301SOL    HW241833   1.331   7.817   1.561
10302SOL     OW41834   2.954   5.006   4.847
10302SOL    HW141835   2.909   4.951   4.777
10302SOL    HW241836   2.992   5.089   4.806
10303SOL     OW41837   7.106   1.840   1.879
10303SOL    HW141838   7.153   1.908   1.822
10303SOL    HW241839   7.148   1.838   1.970
10304SOL     OW41840   6.493   7.663   3.207
10304SOL    HW141841   6.431   7.738   3.231
10304SOL    HW241842   6.479   7.638   3.112
10305SOL     OW41843   3.659   3.953   4.104
10305SOL    HW141844   3.709   4.033   4.071
10305SOL    HW241845   3.577   3.940   4.048
10306SOL     OW41846   3.152   4.591   4.981
10306SOL    HW141847   3.093   4.524   5.027
10306SOL    HW241848   3.207   4.640   5.049
10307SOL     OW41849   0.620   0.665   4.443
10307SOL    HW141850   0.622   0.762   4.418
10307SOL    HW241851   0.535   0.624   4.411
10308SOL     OW41852   4.518   1.987   2.138
10308SOL    HW141853   4.533   1.912   2.202
10308SOL    HW241854   4.508   2.073   2.189
10309SOL     OW41855   2.283   2.016   4.403
10309SOL    HW141856   2.295   2.045   4.498
10309SOL    HW241857   2.343   2.069   4.344
10310SOL     OW41858   4.085   3.744   4.711
10310SOL    HW141859   4.068   3.758   4.808
10310SOL    HW241860   4.154   3.810   4.680
10311SOL     OW41861   2.181   1.489   1.996
10311SOL    HW141862   2.245   1.486   1.919
10311SOL    HW241863   2.113   1.560   1.980
10312SOL     OW41864   8.063   5.336   1.168
10312SOL    HW141865   8.156   5.355   1.135
10312SOL    HW241866   8.004   5.415   1.147
10313SOL     OW41867   7.038   8.348   5.211
10313SOL    HW141868   6.946   8.386   5.210
10313SOL    HW241869   7.041   8.269   5.272
10314SOL     OW41870   9.837   9.726   5.169
10314SOL    HW141871   9.778   9.757   5.094
10314SOL    HW241872   9.817   9.630   5.188
10315SOL     OW41873   5.849   0.006   1.414
10315SOL    HW141874   5.750   0.005   1.421
10315SOL    HW241875   5.886   0.079   1.471
10316SOL     OW41876   3.564   5.148   3.244
10316SOL    HW141877   3.576   5.247   3.255
10316SOL    HW241878   3.497   5.115   3.310
10317SOL     OW41879   4.139   7.220   4.314
10317SOL    HW141880   4.072   7.147   4.329
10317SOL    HW241881   4.170   7.218   4.218
10318SOL     OW41882   0.364   9.207   1.230
10318SOL    HW141883   0.316   9.129   1.189
10318SOL    HW241884   0.434   9.174   1.293
10319SOL     OW41885   8.542   8.033   2.447
10319SOL    HW141886   8.588   7.996   2.366
10319SOL    HW241887   8.451   7.992   2.454
10320SOL     OW41888   0.290   4.444   2.436
10320SOL    HW141889   0.333   4.369   2.486
10320SOL    HW241890   0.207   4.472   2.483
10321SOL     OW41891   4.775   9.611   0.158
10321SOL    HW141892   4.778   9.696   0.211
10321SOL    HW241893   4.681   9.580   0.150
10322SOL     OW41894   3.355   1.995   3.798
10322SOL    HW141895   3.441   2.042   3.821
10322SOL    HW241896   3.353   1.906   3.844
10323SOL     OW41897   8.848   7.279   0.274
10323SOL    HW141898   8.904   7.226   0.209
10323SOL    HW241899   8.839   7.228   0.359
10324SOL     OW41900   9.856   5.703   0.417
10324SOL    HW141901   9.812   5.613   0.406
10324SOL    HW241902   9.936   5.707   0.358
10325SOL     OW41903   9.540   6.536   4.162
10325SOL    HW141904   9.461   6.518   4.221
10325SOL    HW241905   9.609   6.466   4.177
10326SOL     OW41906   8.830   0.904   0.485
10326SOL    HW141907   8.906   0.871   0.541
10326SOL    HW241908   8.863   0.974   0.421
10327SOL     OW41909   6.510   7.746   3.620
10327SOL    HW141910   6.449   7.818   3.587
10327SOL    HW241911   6.588   7.786   3.667
10328SOL     OW41912   3.315   3.558   2.335
10328SOL    HW141913   3.374   3.599   2.405
10328SOL    HW241914   3.220   3.576   2.356
10329SOL     OW41915   2.068   3.901   4.710
10329SOL    HW141916   2.093   3.806   4.693
10329SOL    HW241917   2.116   3.935   4.791
10330SOL     OW41918   2.030   6.150   2.868
10330SOL    HW141919   2.052   6.067   2.918
10330SOL    HW241920   2.028   6.131   2.770
10331SOL     OW41921   1.543   5.285   0.119
10331SOL    HW141922   1.485   5.273   0.200
10331SOL    HW241923   1.586   5.197   0.096
10332SOL     OW41924   3.234   3.615   3.978
10332SOL    HW141925   3.207   3.640   4.071
10332SOL    HW241926   3.329   3.584   3.979
10333SOL     OW41927   4.612   2.947   0.017
10333SOL    HW141928   4.613   2.982   6.672
10333SOL    HW241929   4.633   3.021   0.081
10334SOL     OW41930   1.219   3.981   2.318
10334SOL    HW141931   1.224   3.883   2.339
10334SOL    HW241932   1.176   3.992   2.228
10335SOL     OW41933   0.130   3.906   1.262
10335SOL    HW141934   0.097   3.812   1.249
10335SOL    HW241935   0.177   3.936   1.180
10336SOL     OW41936   8.098   2.892   2.372
10336SOL    HW141937   8.160   2.933   2.305
10336SOL    HW241938   8.014   2.863   2.327
10337SOL     OW41939   9.809   0.253   3.780
10337SOL    HW141940   9.895   0.219   3.740
10337SOL    HW241941   9.815   0.351   3.794
10338SOL     OW41942   7.759   0.182   0.251
10338SOL    HW141943   7.794   0.088   0.259
10338SOL    HW241944   7.836   0.245   0.239
10339SOL     OW41945   1.698   4.279   1.083
10339SOL    HW141946   1.652   4.194   1.110
10339SOL    HW241947   1.761   4.260   1.008
10340SOL     OW41948   2.687   1.104   0.648
10340SOL    HW141949   2.625   1.183   0.647
10340SOL    HW241950   2.638   1.023   0.678
10341SOL     OW41951   1.776   6.934   1.362
10341SOL    HW141952   1.775   6.894   1.271
10341SOL    HW241953   1.800   6.864   1.429
10342SOL     OW41954   3.659   4.537   3.211
10342SOL    HW141955   3.739   4.531   3.150
10342SOL    HW241956   3.593   4.601   3.171
10343SOL     OW41957   3.966   6.214   0.362
10343SOL    HW141958   3.962   6.281   0.436
10343SOL    HW241959   3.967   6.121   0.400
10344SOL     OW41960   6.862   9.810   4.802
10344SOL    HW141961   6.777   9.759   4.816
10344SOL    HW241962   6.842   9.908   4.797
10345SOL     OW41963   1.648   4.423   4.759
10345SOL    HW141964   1.568   4.427   4.819
10345SOL    HW241965   1.706   4.347   4.787
10346SOL     OW41966   1.456   8.914   3.223
10346SOL    HW141967   1.408   8.931   3.137
10346SOL    HW241968   1.531   8.850   3.208
10347SOL     OW41969   1.542   9.226   0.433
10347SOL    HW141970   1.449   9.262   0.428
10347SOL    HW241971   1.541   9.128   0.413
10348SOL     OW41972   1.737   2.387   4.580
10348SOL    HW141973   1.672   2.318   4.612
10348SOL    HW241974   1.690   2.454   4.523
10349SOL     OW41975   3.155   5.492   4.851
10349SOL    HW141976   3.066   5.507   4.893
10349SOL    HW241977   3.218   5.453   4.918
10350SOL     OW41978   2.143   0.160   0.179
10350SOL    HW141979   2.194   0.075   0.163
10350SOL    HW241980   2.089   0.182   0.098
10351SOL     OW41981   6.627   0.352   3.485
10351SOL    HW141982   6.562   0.363   3.410
10351SOL    HW241983   6.576   0.340   3.571
10352SOL     OW41984   4.913   2.960   4.828
10352SOL    HW141985   4.980   3.015   4.779
10352SOL    HW241986   4.928   2.969   4.927
10353SOL     OW41987   8.116   8.916   3.422
10353SOL    HW141988   8.121   8.887   3.326
10353SOL    HW241989   8.035   8.973   3.435
10354SOL     OW41990   0.832   9.976   2.813
10354SOL    HW141991   0.919   9.989   2.861
10354SOL    HW241992   0.779   0.061   2.814
10355SOL     OW41993   9.327   8.444   0.071
10355SOL    HW141994   9.321   8.512   6.746
10355SOL    HW241995   9.419   8.444   0.110
10356SOL     OW41996   5.431   4.203   1.229
10356SOL    HW141997   5.352   4.218   1.289
10356SOL    HW241998   5.419   4.256   1.145
10357SOL     OW41999   4.545   0.374   2.889
10357SOL    HW142000   4.535   0.340   2.983
10357SOL    HW242001   4.541   0.297   2.825
10358SOL     OW42002   5.994   8.395   2.468
10358SOL    HW142003   5.969   8.443   2.384
10358SOL    HW242004   6.060   8.324   2.448
10359SOL     OW42005   9.599   3.799   2.273
10359SOL    HW142006   9.694   3.803   2.242
10359SOL    HW242007   9.597   3.807   2.373
10360SOL     OW42008   3.529   5.191   1.024
10360SOL    HW142009   3.531   5.218   1.120
10360SOL    HW242010   3.487   5.100   1.016
10361SOL     OW42011   1.533   9.157   3.773
10361SOL    HW142012   1.545   9.093   3.849
10361SOL    HW242013   1.572   9.117   3.689
10362SOL     OW42014   4.956   0.162   0.962
10362SOL    HW142015   4.869   0.173   0.914
10362SOL    HW242016   5.009   0.090   0.918
10363SOL     OW42017   2.755   8.592   2.516
10363SOL    HW142018   2.798   8.505   2.543
10363SOL    HW242019   2.748   8.651   2.596
10364SOL     OW42020   5.937   8.523   2.231
10364SOL    HW142021   5.968   8.618   2.228
10364SOL    HW242022   5.976   8.474   2.153
10365SOL     OW42023   6.588   1.024   3.513
10365SOL    HW142024   6.547   1.068   3.593
10365SOL    HW242025   6.662   1.081   3.477
10366SOL     OW42026   1.017   6.980   3.610
10366SOL    HW142027   1.082   6.905   3.595
10366SOL    HW242028   0.931   6.943   3.647
10367SOL     OW42029   0.736   0.771   2.623
10367SOL    HW142030   0.765   0.799   2.531
10367SOL    HW242031   0.654   0.714   2.616
10368SOL     OW42032   6.540   0.098   2.009
10368SOL    HW142033   6.503   0.124   2.098
10368SOL    HW242034   6.633   0.064   2.020
10369SOL     OW42035   2.371   3.368   4.635
10369SOL    HW142036   2.375   3.451   4.580
10369SOL    HW242037   2.278   3.331   4.634
10370SOL     OW42038   0.900   1.642   2.178
10370SOL    HW142039   0.840   1.656   2.256
10370SOL    HW242040   0.974   1.710   2.180
10371SOL     OW42041   5.278   1.077   2.864
10371SOL    HW142042   5.230   1.004   2.816
10371SOL    HW242043   5.279   1.057   2.962
10372SOL     OW42044   5.041   0.720   0.355
10372SOL    HW142045   5.010   0.708   0.261
10372SOL    HW242046   5.013   0.640   0.409
10373SOL     OW42047   2.589   4.814   5.195
10373SOL    HW142048   2.686   4.835   5.206
10373SOL    HW242049   2.576   4.715   5.195
10374SOL     OW42050   3.764   1.456   0.882
10374SOL    HW142051   3.813   1.384   0.832
10374SOL    HW242052   3.795   1.546   0.851
10375SOL     OW42053   8.827   1.392   3.886
10375SOL    HW142054   8.732   1.368   3.901
10375SOL    HW242055   8.833   1.463   3.815
10376SOL     OW42056   3.516   4.736   2.732
10376SOL    HW142057   3.598   4.683   2.754
10376SOL    HW242058   3.486   4.715   2.639
10377SOL     OW42059   2.184   4.537   1.894
10377SOL    HW142060   2.105   4.556   1.835
10377SOL    HW242061   2.191   4.607   1.964
10378SOL     OW42062   2.640   6.358   4.055
10378SOL    HW142063   2.686   6.301   3.988
10378SOL    HW242064   2.696   6.363   4.138
10379SOL     OW42065   4.880   0.356   1.696
10379SOL    HW142066   4.812   0.303   1.747
10379SOL    HW242067   4.910   0.304   1.616
10380SOL     OW42068   0.750   1.205   2.811
10380SOL    HW142069   0.686   1.212   2.887
10380SOL    HW242070   0.840   1.237   2.840
10381SOL     OW42071   0.430   1.135   1.017
10381SOL    HW142072   0.340   1.093   1.030
10381SOL    HW242073   0.468   1.161   1.105
10382SOL     OW42074   9.055   1.191   3.110
10382SOL    HW142075   9.069   1.276   3.162
10382SOL    HW242076   9.086   1.203   3.016
10383SOL     OW42077   3.337   4.679   4.791
10383SOL    HW142078   3.267   4.646   4.854
10383SOL    HW242079   3.324   4.777   4.774
10384SOL     OW42080   0.655   6.136   2.300
10384SOL    HW142081   0.559   6.165   2.302
10384SOL    HW242082   0.663   6.049   2.252
10385SOL     OW42083   1.405   7.892   2.614
10385SOL    HW142084   1.307   7.907   2.621
10385SOL    HW242085   1.424   7.825   2.541
10386SOL     OW42086   0.660   5.507   3.154
10386SOL    HW142087   0.607   5.591   3.162
10386SOL    HW242088   0.717   5.511   3.071
10387SOL     OW42089   5.120   1.286   5.166
10387SOL    HW142090   5.109   1.228   5.086
10387SOL    HW242091   5.079   1.241   5.246
10388SOL     OW42092   7.339   8.360   4.837
10388SOL    HW142093   7.434   8.363   4.806
10388SOL    HW242094   7.295   8.448   4.819
10389SOL     OW42095   2.083   2.988   0.974
10389SOL    HW142096   2.038   2.959   0.889
10389SOL    HW242097   2.123   2.909   1.019
10390SOL     OW42098   2.009   8.719   4.063
10390SOL    HW142099   1.993   8.649   4.132
10390SOL    HW242100   2.063   8.793   4.104
10391SOL     OW42101   0.219   4.823   1.338
10391SOL    HW142102   0.315   4.804   1.318
10391SOL    HW242103   0.210   4.858   1.431
10392SOL     OW42104   8.710   5.332   3.231
10392SOL    HW142105   8.658   5.417   3.221
10392SOL    HW242106   8.745   5.304   3.141
10393SOL     OW42107   2.773   9.382   3.492
10393SOL    HW142108   2.762   9.285   3.472
10393SOL    HW242109   2.685   9.428   3.484
10394SOL     OW42110   5.513   1.754   3.698
10394SOL    HW142111   5.501   1.734   3.601
10394SOL    HW242112   5.588   1.699   3.734
10395SOL     OW42113   3.681   8.626   4.874
10395SOL    HW142114   3.716   8.569   4.949
10395SOL    HW242115   3.696   8.722   4.896
10396SOL     OW42116   9.394   0.439   1.371
10396SOL    HW142117   9.475   0.380   1.365
10396SOL    HW242118   9.409   0.510   1.440
10397SOL     OW42119   3.077   5.077   2.029
10397SOL    HW142120   3.141   5.152   2.013
10397SOL    HW242121   3.078   5.015   1.951
10398SOL     OW42122   6.227   1.048   0.779
10398SOL    HW142123   6.184   1.112   0.843
10398SOL    HW242124   6.181   1.053   0.690
10399SOL     OW42125   4.203   4.433   5.211
10399SOL    HW142126   4.199   4.350   5.266
10399SOL    HW242127   4.154   4.418   5.125
10400SOL     OW42128   9.722   1.362   0.402
10400SOL    HW142129   9.744   1.324   0.491
10400SOL    HW242130   9.654   1.434   0.412
10401SOL     OW42131   9.842   7.656   5.086
10401SOL    HW142132   9.772   7.643   5.016
10401SOL    HW242133   9.870   7.567   5.121
10402SOL     OW42134   6.247   8.534   5.176
10402SOL    HW142135   6.191   8.452   5.184
10402SOL    HW242136   6.194   8.614   5.204
10403SOL     OW42137   6.738   0.728   2.132
10403SOL    HW142138   6.734   0.632   2.104
10403SOL    HW242139   6.833   0.756   2.141
10404SOL     OW42140   7.281   2.383   3.968
10404SOL    HW142141   7.285   2.284   3.982
10404SOL    HW242142   7.316   2.405   3.876
10405SOL     OW42143   9.422   8.690   1.802
10405SOL    HW142144   9.444   8.660   1.894
10405SOL    HW242145   9.337   8.743   1.803
10406SOL     OW42146   0.010   7.400   2.917
10406SOL    HW142147   0.030   7.330   2.986
10406SOL    HW242148   9.930   7.372   2.865
10407SOL     OW42149   0.805   8.524   4.738
10407SOL    HW142150   0.850   8.605   4.775
10407SOL    HW242151   0.729   8.552   4.678
10408SOL     OW42152   5.088   3.129   4.691
10408SOL    HW142153   5.050   3.221   4.686
10408SOL    HW242154   5.188   3.133   4.694
10409SOL     OW42155   9.651   9.384   4.409
10409SOL    HW142156   9.581   9.447   4.442
10409SOL    HW242157   9.725   9.379   4.476
10410SOL     OW42158   2.012   3.233   1.513
10410SOL    HW142159   1.956   3.273   1.441
10410SOL    HW242160   1.956   3.172   1.569
10411SOL     OW42161   6.095   0.523   0.849
10411SOL    HW142162   6.195   0.529   0.857
10411SOL    HW242163   6.058   0.486   0.934
10412SOL     OW42164   8.204   4.624   4.622
10412SOL    HW142165   8.144   4.648   4.546
10412SOL    HW242166   8.253   4.706   4.653
10413SOL     OW42167   6.382   1.514   2.119
10413SOL    HW142168   6.325   1.451   2.170
10413SOL    HW242169   6.454   1.549   2.179
10414SOL     OW42170   6.673   1.580   0.706
10414SOL    HW142171   6.710   1.673   0.707
10414SOL    HW242172   6.742   1.517   0.741
10415SOL     OW42173   5.855   9.636   4.352
10415SOL    HW142174   5.855   9.589   4.263
10415SOL    HW242175   5.813   9.726   4.342
10416SOL     OW42176   2.950   4.514   0.394
10416SOL    HW142177   2.961   4.415   0.388
10416SOL    HW242178   3.007   4.558   0.325
10417SOL     OW42179   1.274   5.679   2.930
10417SOL    HW142180   1.334   5.752   2.963
10417SOL    HW242181   1.280   5.601   2.992
10418SOL     OW42182   0.730   8.705   5.015
10418SOL    HW142183   0.809   8.724   4.956
10418SOL    HW242184   0.763   8.669   5.103
10419SOL     OW42185   8.515   3.292   3.115
10419SOL    HW142186   8.489   3.290   3.018
10419SOL    HW242187   8.581   3.219   3.132
10420SOL     OW42188   0.242   8.203   0.955
10420SOL    HW142189   0.338   8.197   0.931
10420SOL    HW242190   0.195   8.265   0.893
10421SOL     OW42191   6.968   1.263   3.009
10421SOL    HW142192   6.905   1.204   3.059
10421SOL    HW242193   6.980   1.349   3.058
10422SOL     OW42194   9.983   6.669   0.388
10422SOL    HW142195   9.921   6.747   0.385
10422SOL    HW242196   9.950   6.596   0.328
10423SOL     OW42197   7.912   3.668   4.943
10423SOL    HW142198   7.897   3.766   4.951
10423SOL    HW242199   7.894   3.639   4.849
10424SOL     OW42200   7.893   5.103   4.737
10424SOL    HW142201   7.955   5.066   4.667
10424SOL    HW242202   7.844   5.028   4.782
10425SOL     OW42203   4.767   2.011   4.938
10425SOL    HW142204   4.840   2.063   4.983
10425SOL    HW242205   4.721   1.954   5.005
10426SOL     OW42206   9.251   1.614   4.598
10426SOL    HW142207   9.204   1.559   4.667
10426SOL    HW242208   9.231   1.578   4.507
10427SOL     OW42209   9.602   3.559   0.598
10427SOL    HW142210   9.596   3.525   0.503
10427SOL    HW242211   9.553   3.646   0.605
10428SOL     OW42212   3.914   5.867   5.264
10428SOL    HW142213   3.946   5.774   5.248
10428SOL    HW242214   3.898   5.880   5.362
10429SOL     OW42215   8.256   9.966   3.785
10429SOL    HW142216   8.352   9.944   3.801
10429SOL    HW242217   8.238   0.061   3.811
10430SOL     OW42218   5.939   8.311   4.719
10430SOL    HW142219   5.975   8.397   4.755
10430SOL    HW242220   5.991   8.286   4.637
10431SOL     OW42221   9.099   0.165   3.516
10431SOL    HW142222   9.183   0.143   3.466
10431SOL    HW242223   9.063   0.253   3.484
10432SOL     OW42224   1.717   8.052   0.594
10432SOL    HW142225   1.624   8.017   0.590
10432SOL    HW242226   1.767   8.024   0.512
10433SOL     OW42227   7.287   1.102   3.861
10433SOL    HW142228   7.224   1.027   3.884
10433SOL    HW242229   7.353   1.114   3.936
10434SOL     OW42230   4.971   8.454   0.117
10434SOL    HW142231   4.935   8.363   0.137
10434SOL    HW242232   4.975   8.468   0.018
10435SOL     OW42233   1.105   2.507   4.004
10435SOL    HW142234   1.201   2.526   3.982
10435SOL    HW242235   1.089   2.408   4.000
10436SOL     OW42236   4.114   9.144   3.183
10436SOL    HW142237   4.115   9.061   3.240
10436SOL    HW242238   4.192   9.141   3.121
10437SOL     OW42239   2.546   3.415   2.674
10437SOL    HW142240   2.481   3.487   2.649
10437SOL    HW242241   2.627   3.457   2.716
10438SOL     OW42242   4.854   5.908   1.907
10438SOL    HW142243   4.787   5.862   1.964
10438SOL    HW242244   4.869   5.855   1.823
10439SOL     OW42245   3.014   6.008   4.430
10439SOL    HW142246   2.928   6.040   4.390
10439SOL    HW242247   2.998   5.974   4.522
10440SOL     OW42248   3.758   5.481   2.673
10440SOL    HW142249   3.734   5.565   2.624
10440SOL    HW242250   3.839   5.440   2.631
10441SOL     OW42251   2.127   5.386   0.998
10441SOL    HW142252   2.102   5.289   0.993
10441SOL    HW242253   2.195   5.399   1.071
10442SOL     OW42254   5.954   1.520   3.262
10442SOL    HW142255   6.017   1.582   3.216
10442SOL    HW242256   6.005   1.459   3.323
10443SOL     OW42257   7.890   9.625   3.137
10443SOL    HW142258   7.814   9.686   3.118
10443SOL    HW242259   7.908   9.568   3.057
10444SOL     OW42260   2.616   9.537   0.141
10444SOL    HW142261   2.640   9.470   0.211
10444SOL    HW242262   2.593   9.490   0.056
10445SOL     OW42263   1.005   3.891   1.015
10445SOL    HW142264   1.017   3.797   1.049
10445SOL    HW242265   1.023   3.956   1.088
10446SOL     OW42266   5.230   1.571   2.297
10446SOL    HW142267   5.146   1.612   2.263
10446SOL    HW242268   5.212   1.527   2.385
10447SOL     OW42269   5.166   8.892   2.318
10447SOL    HW142270   5.244   8.836   2.344
10447SOL    HW242271   5.128   8.936   2.399
10448SOL     OW42272   2.256   5.826   3.666
10448SOL    HW142273   2.291   5.843   3.574
10448SOL    HW242274   2.333   5.805   3.727
10449SOL     OW42275   9.293   4.537   2.169
10449SOL    HW142276   9.241   4.469   2.117
10449SOL    HW242277   9.326   4.494   2.253
10450SOL     OW42278   7.995   0.667   2.168
10450SOL    HW142279   7.950   0.753   2.146
10450SOL    HW242280   7.928   0.602   2.204
10451SOL     OW42281   4.685   8.417   1.708
10451SOL    HW142282   4.686   8.349   1.782
10451SOL    HW242283   4.595   8.417   1.664
10452SOL     OW42284   7.016   7.640   2.604
10452SOL    HW142285   7.051   7.731   2.586
10452SOL    HW242286   7.036   7.580   2.527
10453SOL     OW42287   6.682   9.054   4.902
10453SOL    HW142288   6.781   9.051   4.905
10453SOL    HW242289   6.647   8.967   4.866
10454SOL     OW42290   9.500   6.247   2.479
10454SOL    HW142291   9.512   6.312   2.554
10454SOL    HW242292   9.576   6.183   2.477
10455SOL     OW42293   7.638   4.583   0.524
10455SOL    HW142294   7.618   4.643   0.447
10455SOL    HW242295   7.647   4.489   0.492
10456SOL     OW42296   2.495   9.035   3.260
10456SOL    HW142297   2.544   8.984   3.190
10456SOL    HW242298   2.442   8.972   3.317
10457SOL     OW42299   0.353   4.167   4.520
10457SOL    HW142300   0.349   4.126   4.611
10457SOL    HW242301   0.397   4.257   4.527
10458SOL     OW42302   7.041   2.997   3.527
10458SOL    HW142303   6.942   2.999   3.540
10458SOL    HW242304   7.076   2.906   3.552
10459SOL     OW42305   4.867   2.119   3.222
10459SOL    HW142306   4.855   2.203   3.168
10459SOL    HW242307   4.831   2.133   3.314
10460SOL     OW42308   8.327   6.383   0.656
10460SOL    HW142309   8.396   6.446   0.691
10460SOL    HW242310   8.243   6.434   0.634
10461SOL     OW42311   0.686   6.557   2.188
10461SOL    HW142312   0.611   6.503   2.226
10461SOL    HW242313   0.660   6.590   2.098
10462SOL     OW42314   2.896   2.840   2.184
10462SOL    HW142315   2.979   2.895   2.198
10462SOL    HW242316   2.904   2.754   2.234
10463SOL     OW42317   9.689   5.641   3.775
10463SOL    HW142318   9.625   5.592   3.834
10463SOL    HW242319   9.656   5.735   3.762
10464SOL     OW42320   1.092   4.427   1.633
10464SOL    HW142321   1.136   4.452   1.720
10464SOL    HW242322   1.162   4.419   1.562
10465SOL     OW42323   6.996   9.473   2.568
10465SOL    HW142324   7.030   9.384   2.539
10465SOL    HW242325   6.939   9.513   2.496
10466SOL     OW42326   2.195   6.372   4.355
10466SOL    HW142327   2.185   6.389   4.257
10466SOL    HW242328   2.264   6.300   4.369
10467SOL     OW42329   9.306   9.158   4.820
10467SOL    HW142330   9.302   9.068   4.862
10467SOL    HW242331   9.371   9.157   4.744
10468SOL     OW42332   8.820   1.563   4.411
10468SOL    HW142333   8.884   1.632   4.379
10468SOL    HW242334   8.736   1.566   4.355
10469SOL     OW42335   8.800   9.862   2.552
10469SOL    HW142336   8.727   9.815   2.503
10469SOL    HW242337   8.862   9.795   2.593
10470SOL     OW42338   1.927   0.173   2.372
10470SOL    HW142339   1.965   0.259   2.404
10470SOL    HW242340   1.999   0.103   2.370
10471SOL     OW42341   9.244   8.809   0.805
10471SOL    HW142342   9.244   8.819   0.904
10471SOL    HW242343   9.279   8.718   0.781
10472SOL     OW42344   9.769   6.171   1.316
10472SOL    HW142345   9.695   6.123   1.269
10472SOL    HW242346   9.742   6.188   1.411
10473SOL     OW42347   2.622   3.655   5.092
10473SOL    HW142348   2.716   3.660   5.061
10473SOL    HW242349   2.596   3.741   5.137
10474SOL     OW42350   9.216   8.422   4.102
10474SOL    HW142351   9.165   8.492   4.052
10474SOL    HW242352   9.309   8.455   4.120
10475SOL     OW42353   5.611   1.066   4.589
10475SOL    HW142354   5.533   1.045   4.531
10475SOL    HW242355   5.615   1.001   4.665
10476SOL     OW42356   1.340   2.663   4.843
10476SOL    HW142357   1.340   2.619   4.753
10476SOL    HW242358   1.274   2.617   4.902
10477SOL     OW42359   8.802   3.015   5.260
10477SOL    HW142360   8.817   2.984   5.355
10477SOL    HW242361   8.865   3.089   5.240
10478SOL     OW42362   0.905   7.567   0.352
10478SOL    HW142363   0.954   7.631   0.292
10478SOL    HW242364   0.924   7.474   0.322
10479SOL     OW42365   8.103   9.867   3.388
10479SOL    HW142366   8.040   9.789   3.385
10479SOL    HW242367   8.197   9.834   3.379
10480SOL     OW42368   0.915   0.200   5.171
10480SOL    HW142369   0.967   0.127   5.214
10480SOL    HW242370   0.823   0.204   5.211
10481SOL     OW42371   8.942   0.026   2.873
10481SOL    HW142372   8.879   9.949   2.872
10481SOL    HW242373   8.896   0.106   2.834
10482SOL     OW42374   9.013   0.435   1.717
10482SOL    HW142375   8.954   0.457   1.795
10482SOL    HW242376   9.097   0.489   1.724
10483SOL     OW42377   7.135   1.151   0.240
10483SOL    HW142378   7.174   1.194   0.321
10483SOL    HW242379   7.097   1.221   0.179
10484SOL     OW42380   1.352   9.981   2.682
10484SOL    HW142381   1.321   9.972   2.588
10484SOL    HW242382   1.306   0.058   2.726
10485SOL     OW42383   0.814   7.542   5.042
10485SOL    HW142384   0.849   7.489   4.965
10485SOL    HW242385   0.877   7.617   5.063
10486SOL     OW42386   1.514   7.741   5.255
10486SOL    HW142387   1.562   7.828   5.263
10486SOL    HW242388   1.580   7.667   5.247
10487SOL     OW42389   8.531   7.831   1.290
10487SOL    HW142390   8.626   7.855   1.268
10487SOL    HW242391   8.476   7.833   1.206
10488SOL     OW42392   6.802   9.761   4.492
10488SOL    HW142393   6.732   9.819   4.534
10488SOL    HW242394   6.880   9.817   4.463
10489SOL     OW42395   5.792   8.720   3.973
10489SOL    HW142396   5.741   8.680   3.897
10489SOL    HW242397   5.747   8.805   4.002
10490SOL     OW42398   3.854   3.357   2.938
10490SOL    HW142399   3.920   3.347   3.013
10490SOL    HW242400   3.902   3.388   2.856
10491SOL     OW42401   8.554   5.498   2.939
10491SOL    HW142402   8.570   5.516   3.036
10491SOL    HW242403   8.465   5.535   2.913
10492SOL     OW42404   4.710   3.472   0.884
10492SOL    HW142405   4.632   3.503   0.939
10492SOL    HW242406   4.793   3.519   0.913
10493SOL     OW42407   2.776   6.109   4.333
10493SOL    HW142408   2.712   6.074   4.265
10493SOL    HW242409   2.796   6.205   4.313
10494SOL     OW42410   2.844   7.861   0.925
10494SOL    HW142411   2.760   7.813   0.902
10494SOL    HW242412   2.899   7.875   0.842
10495SOL     OW42413   3.296   0.127   1.410
10495SOL    HW142414   3.268   0.203   1.351
10495SOL    HW242415   3.364   0.072   1.362
10496SOL     OW42416   9.682   2.023   2.895
10496SOL    HW142417   9.769   1.980   2.916
10496SOL    HW242418   9.632   2.041   2.980
10497SOL     OW42419   4.642   3.628   3.152
10497SOL    HW142420   4.658   3.529   3.145
10497SOL    HW242421   4.703   3.676   3.089
10498SOL     OW42422   1.588   1.635   0.638
10498SOL    HW142423   1.604   1.701   0.564
10498SOL    HW242424   1.521   1.567   0.608
10499SOL     OW42425   0.740   0.764   0.576
10499SOL    HW142426   0.758   0.857   0.609
10499SOL    HW242427   0.641   0.747   0.576
10500SOL     OW42428   8.410   1.360   0.553
10500SOL    HW142429   8.494   1.355   0.499
10500SOL    HW242430   8.429   1.331   0.647
10501SOL     OW42431   9.869   1.466   0.190
10501SOL    HW142432   9.923   1.395   0.146
10501SOL    HW242433   9.818   1.427   0.267
10502SOL     OW42434   4.438   7.000   1.408
10502SOL    HW142435   4.379   7.073   1.373
10502SOL    HW242436   4.522   7.040   1.443
10503SOL     OW42437   1.879   0.857   4.357
10503SOL    HW142438   1.867   0.954   4.340
10503SOL    HW242439   1.947   0.843   4.429
10504SOL     OW42440   1.550   0.834   2.706
10504SOL    HW142441   1.528   0.772   2.630
10504SOL    HW242442   1.464   0.867   2.746
10505SOL     OW42443   4.393   1.791   4.191
10505SOL    HW142444   4.427   1.698   4.177
10505SOL    HW242445   4.390   1.812   4.288
10506SOL     OW42446   0.411   5.322   4.778
10506SOL    HW142447   0.354   5.255   4.826
10506SOL    HW242448   0.439   5.393   4.842
10507SOL     OW42449   2.367   2.262   3.189
10507SOL    HW142450   2.366   2.168   3.155
10507SOL    HW242451   2.300   2.271   3.263
10508SOL     OW42452   0.360   7.370   4.459
10508SOL    HW142453   0.311   7.430   4.395
10508SOL    HW242454   0.457   7.396   4.461
10509SOL     OW42455   8.226   0.580   2.063
10509SOL    HW142456   8.292   0.558   2.135
10509SOL    HW242457   8.141   0.611   2.104
10510SOL     OW42458   8.529   7.526   5.218
10510SOL    HW142459   8.542   7.625   5.219
10510SOL    HW242460   8.443   7.503   5.265
10511SOL     OW42461   8.882   6.998   1.988
10511SOL    HW142462   8.953   7.062   1.957
10511SOL    HW242463   8.885   6.992   2.088
10512SOL     OW42464   0.805   4.197   0.970
10512SOL    HW142465   0.738   4.271   0.974
10512SOL    HW242466   0.882   4.219   1.030
10513SOL     OW42467   4.001   9.372   3.048
10513SOL    HW142468   4.013   9.287   3.099
10513SOL    HW242469   4.040   9.361   2.956
10514SOL     OW42470   3.172   0.028   4.902
10514SOL    HW142471   3.176   9.945   4.847
10514SOL    HW242472   3.130   0.102   4.848
10515SOL     OW42473   2.916   5.729   4.042
10515SOL    HW142474   2.876   5.675   4.115
10515SOL    HW242475   2.857   5.807   4.021
10516SOL     OW42476   2.985   0.026   4.392
10516SOL    HW142477   2.895   0.070   4.399
10516SOL    HW242478   3.054   0.086   4.431
10517SOL     OW42479   7.148   8.388   4.426
10517SOL    HW142480   7.127   8.339   4.342
10517SOL    HW242481   7.164   8.322   4.500
10518SOL     OW42482   2.152   9.538   0.145
10518SOL    HW142483   2.074   9.597   0.125
10518SOL    HW242484   2.118   9.447   0.172
10519SOL     OW42485   4.917   0.523   3.996
10519SOL    HW142486   4.926   0.573   3.910
10519SOL    HW242487   4.855   0.445   3.983
10520SOL     OW42488   0.457   5.924   4.065
10520SOL    HW142489   0.480   5.867   3.987
10520SOL    HW242490   0.364   5.906   4.095
10521SOL     OW42491   2.940   3.391   1.611
10521SOL    HW142492   2.981   3.475   1.645
10521SOL    HW242493   2.875   3.355   1.678
10522SOL     OW42494   8.574   5.049   1.953
10522SOL    HW142495   8.620   5.120   1.899
10522SOL    HW242496   8.622   4.962   1.939
10523SOL     OW42497   9.698   7.088   0.835
10523SOL    HW142498   9.641   7.105   0.915
10523SOL    HW242499   9.701   6.990   0.815
10524SOL     OW42500   0.469   0.745   0.592
10524SOL    HW142501   0.454   0.837   0.557
10524SOL    HW242502   0.399   0.723   0.660
10525SOL     OW42503   5.060   7.847   3.098
10525SOL    HW142504   4.965   7.820   3.082
10525SOL    HW242505   5.095   7.799   3.179
10526SOL     OW42506   1.745   3.527   1.266
10526SOL    HW142507   1.676   3.596   1.287
10526SOL    HW242508   1.818   3.530   1.334
10527SOL     OW42509   9.322   6.801   3.386
10527SOL    HW142510   9.224   6.820   3.386
10527SOL    HW242511   9.349   6.763   3.474
10528SOL     OW42512   0.840   0.147   0.698
10528SOL    HW142513   0.763   0.115   0.753
10528SOL    HW242514   0.805   0.187   0.613
10529SOL     OW42515   1.376   7.868   4.353
10529SOL    HW142516   1.445   7.826   4.412
10529SOL    HW242517   1.393   7.842   4.258
10530SOL     OW42518   2.659   7.562   3.682
10530SOL    HW142519   2.622   7.546   3.774
10530SOL    HW242520   2.638   7.656   3.653
10531SOL     OW42521   0.565   3.006   0.461
10531SOL    HW142522   0.639   3.012   0.527
10531SOL    HW242523   0.481   2.978   0.508
10532SOL     OW42524   1.346   1.474   1.537
10532SOL    HW142525   1.336   1.557   1.593
10532SOL    HW242526   1.266   1.465   1.477
10533SOL     OW42527   7.643   7.845   4.829
10533SOL    HW142528   7.705   7.886   4.763
10533SOL    HW242529   7.573   7.791   4.781
10534SOL     OW42530   4.440   0.655   0.496
10534SOL    HW142531   4.538   0.640   0.488
10534SOL    HW242532   4.417   0.681   0.590
10535SOL     OW42533   9.247   2.572   4.360
10535SOL    HW142534   9.204   2.626   4.433
10535SOL    HW242535   9.327   2.525   4.397
10536SOL     OW42536   4.724   7.462   4.352
10536SOL    HW142537   4.731   7.559   4.329
10536SOL    HW242538   4.682   7.451   4.442
10537SOL     OW42539   2.106   1.138   4.042
10537SOL    HW142540   2.077   1.197   4.117
10537SOL    HW242541   2.109   1.191   3.957
10538SOL     OW42542   3.194   4.328   4.485
10538SOL    HW142543   3.223   4.338   4.580
10538SOL    HW242544   3.273   4.301   4.430
10539SOL     OW42545   1.443   2.780   1.894
10539SOL    HW142546   1.350   2.746   1.880
10539SOL    HW242547   1.489   2.789   1.806
10540SOL     OW42548   5.431   9.137   5.116
10540SOL    HW142549   5.446   9.174   5.208
10540SOL    HW242550   5.516   9.144   5.063
10541SOL     OW42551   7.680   2.377   0.787
10541SOL    HW142552   7.748   2.378   0.860
10541SOL    HW242553   7.639   2.468   0.779
10542SOL     OW42554   8.547   2.753   0.734
10542SOL    HW142555   8.460   2.771   0.687
10542SOL    HW242556   8.549   2.657   0.764
10543SOL     OW42557   3.253   5.605   3.772
10543SOL    HW142558   3.265   5.549   3.854
10543SOL    HW242559   3.158   5.633   3.763
10544SOL     OW42560   0.978   8.440   3.096
10544SOL    HW142561   0.927   8.426   3.011
10544SOL    HW242562   1.074   8.455   3.075
10545SOL     OW42563   8.519   9.995   3.404
10545SOL    HW142564   8.458   0.074   3.403
10545SOL    HW242565   8.466   9.911   3.391
10546SOL     OW42566   2.766   5.312   3.102
10546SOL    HW142567   2.807   5.396   3.067
10546SOL    HW242568   2.701   5.276   3.035
10547SOL     OW42569   5.570   9.150   1.870
10547SOL    HW142570   5.563   9.219   1.798
10547SOL    HW242571   5.605   9.065   1.831
10548SOL     OW42572   5.652   0.240   4.469
10548SOL    HW142573   5.704   0.265   4.387
10548SOL    HW242574   5.561   0.209   4.442
10549SOL     OW42575   2.933   4.371   1.540
10549SOL    HW142576   3.010   4.353   1.479
10549SOL    HW242577   2.959   4.438   1.609
10550SOL     OW42578   6.393   9.254   5.140
10550SOL    HW142579   6.471   9.284   5.085
10550SOL    HW242580   6.351   9.333   5.185
10551SOL     OW42581   0.574   3.922   4.113
10551SOL    HW142582   0.563   3.960   4.021
10551SOL    HW242583   0.506   3.962   4.174
10552SOL     OW42584   4.954   2.347   4.845
10552SOL    HW142585   4.948   2.437   4.886
10552SOL    HW242586   5.037   2.341   4.788
10553SOL     OW42587   5.618   0.583   3.033
10553SOL    HW142588   5.578   0.674   3.035
10553SOL    HW242589   5.547   0.514   3.042
10554SOL     OW42590   5.344   4.967   1.686
10554SOL    HW142591   5.324   4.982   1.589
10554SOL    HW242592   5.259   4.946   1.734
10555SOL     OW42593   9.835   3.270   2.894
10555SOL    HW142594   9.837   3.252   2.795
10555SOL    HW242595   9.919   3.317   2.921
10556SOL     OW42596   9.529   9.092   1.094
10556SOL    HW142597   9.493   9.019   1.152
10556SOL    HW242598   9.629   9.089   1.095
10557SOL     OW42599   8.593   1.118   4.889
10557SOL    HW142600   8.536   1.047   4.847
10557SOL    HW242601   8.537   1.198   4.910
10558SOL     OW42602   2.561   6.834   2.019
10558SOL    HW142603   2.492   6.905   2.027
10558SOL    HW242604   2.545   6.762   2.087
10559SOL     OW42605   3.221   5.309   0.586
10559SOL    HW142606   3.240   5.356   0.500
10559SOL    HW242607   3.287   5.235   0.600
10560SOL     OW42608   1.139   4.781   0.400
10560SOL    HW142609   1.206   4.849   0.372
10560SOL    HW242610   1.055   4.826   0.430
10561SOL     OW42611   3.470   9.560   2.023
10561SOL    HW142612   3.556   9.525   1.985
10561SOL    HW242613   3.471   9.552   2.122
10562SOL     OW42614   2.484   0.507   4.341
10562SOL    HW142615   2.569   0.476   4.384
10562SOL    HW242616   2.441   0.430   4.295
10563SOL     OW42617   9.319   4.272   3.423
10563SOL    HW142618   9.233   4.313   3.392
10563SOL    HW242619   9.320   4.175   3.400
10564SOL     OW42620   4.337   8.558   3.141
10564SOL    HW142621   4.339   8.484   3.208
10564SOL    HW242622   4.270   8.538   3.070
10565SOL     OW42623   6.292   8.281   2.110
10565SOL    HW142624   6.215   8.217   2.118
10565SOL    HW242625   6.377   8.235   2.135
10566SOL     OW42626   4.559   2.529   1.091
10566SOL    HW142627   4.480   2.591   1.089
10566SOL    HW242628   4.629   2.566   1.151
10567SOL     OW42629   0.994   8.173   2.881
10567SOL    HW142630   0.959   8.080   2.890
10567SOL    HW242631   0.919   8.238   2.896
10568SOL     OW42632   3.078   7.784   2.892
10568SOL    HW142633   3.147   7.823   2.831
10568SOL    HW242634   2.990   7.829   2.876
10569SOL     OW42635   7.055   0.666   1.694
10569SOL    HW142636   7.072   0.568   1.687
10569SOL    HW242637   7.068   0.696   1.788
10570SOL     OW42638   3.740   4.512   5.116
10570SOL    HW142639   3.783   4.453   5.184
10570SOL    HW242640   3.768   4.607   5.131
10571SOL     OW42641   8.357   4.490   4.193
10571SOL    HW142642   8.430   4.545   4.232
10571SOL    HW242643   8.322   4.427   4.263
10572SOL     OW42644   6.910   1.960   3.883
10572SOL    HW142645   6.839   1.999   3.825
10572SOL    HW242646   6.999   1.991   3.852
10573SOL     OW42647   8.378   1.721   0.268
10573SOL    HW142648   8.334   1.776   0.196
10573SOL    HW242649   8.391   1.627   0.235
10574SOL     OW42650   2.187   1.058   0.278
10574SOL    HW142651   2.187   0.982   0.213
10574SOL    HW242652   2.096   1.070   0.316
10575SOL     OW42653   2.268   8.393   4.580
10575SOL    HW142654   2.272   8.362   4.675
10575SOL    HW242655   2.203   8.468   4.573
10576SOL     OW42656   3.755   5.237   0.135
10576SOL    HW142657   3.749   5.245   0.234
10576SOL    HW242658   3.819   5.305   0.099
10577SOL     OW42659   0.194   1.782   2.751
10577SOL    HW142660   0.201   1.736   2.839
10577SOL    HW242661   0.259   1.740   2.687
10578SOL     OW42662   7.082   0.713   4.237
10578SOL    HW142663   7.123   0.770   4.308
10578SOL    HW242664   6.983   0.727   4.236
10579SOL     OW42665   2.295   2.858   3.036
10579SOL    HW142666   2.215   2.918   3.036
10579SOL    HW242667   2.272   2.771   3.079
10580SOL     OW42668   1.592   3.131   0.802
10580SOL    HW142669   1.583   3.220   0.759
10580SOL    HW242670   1.637   3.141   0.891
10581SOL     OW42671   2.856   0.429   1.432
10581SOL    HW142672   2.914   0.382   1.499
10581SOL    HW242673   2.783   0.368   1.402
10582SOL     OW42674   3.207   4.264   1.174
10582SOL    HW142675   3.240   4.355   1.197
10582SOL    HW242676   3.240   4.198   1.243
10583SOL     OW42677   4.476   8.762   0.149
10583SOL    HW142678   4.538   8.779   0.072
10583SOL    HW242679   4.508   8.682   0.200
10584SOL     OW42680   0.421   0.242   1.124
10584SOL    HW142681   0.388   0.229   1.218
10584SOL    HW242682   0.520   0.251   1.125
10585SOL     OW42683   3.677   6.060   0.233
10585SOL    HW142684   3.756   6.089   0.179
10585SOL    HW242685   3.646   6.136   0.290
10586SOL     OW42686   9.528   3.495   4.783
10586SOL    HW142687   9.527   3.412   4.728
10586SOL    HW242688   9.557   3.573   4.727
10587SOL     OW42689   3.195   1.193   3.981
10587SOL    HW142690   3.166   1.204   4.076
10587SOL    HW242691   3.274   1.252   3.963
10588SOL     OW42692   4.893   8.594   1.747
10588SOL    HW142693   4.811   8.537   1.742
10588SOL    HW242694   4.949   8.566   1.825
10589SOL     OW42695   2.238   0.591   0.677
10589SOL    HW142696   2.214   0.503   0.636
10589SOL    HW242697   2.219   0.589   0.775
10590SOL     OW42698   4.465   5.660   1.714
10590SOL    HW142699   4.461   5.707   1.802
10590SOL    HW242700   4.523   5.579   1.722
10591SOL     OW42701   0.813   2.196   3.914
10591SOL    HW142702   0.772   2.266   3.855
10591SOL    HW242703   0.750   2.174   3.988
10592SOL     OW42704   0.474   5.432   3.672
10592SOL    HW142705   0.476   5.511   3.610
10592SOL    HW242706   0.434   5.354   3.624
10593SOL     OW42707   1.327   6.865   4.463
10593SOL    HW142708   1.360   6.823   4.548
10593SOL    HW242709   1.246   6.921   4.482
10594SOL     OW42710   6.019   1.141   3.200
10594SOL    HW142711   6.024   1.228   3.150
10594SOL    HW242712   6.002   1.066   3.137
10595SOL     OW42713   4.927   0.175   5.030
10595SOL    HW142714   4.861   0.249   5.038
10595SOL    HW242715   4.940   0.153   4.933
10596SOL     OW42716   8.954   3.160   1.545
10596SOL    HW142717   8.995   3.120   1.464
10596SOL    HW242718   8.884   3.226   1.518
10597SOL     OW42719   0.223   3.398   3.277
10597SOL    HW142720   0.225   3.334   3.200
10597SOL    HW242721   0.160   3.473   3.257
10598SOL     OW42722   0.827   6.162   1.545
10598SOL    HW142723   0.862   6.075   1.579
10598SOL    HW242724   0.731   6.151   1.519
10599SOL     OW42725   2.225   9.349   4.418
10599SOL    HW142726   2.176   9.433   4.395
10599SOL    HW242727   2.160   9.280   4.449
10600SOL     OW42728   2.187   3.639   2.949
10600SOL    HW142729   2.102   3.640   3.002
10600SOL    HW242730   2.165   3.627   2.852
10601SOL     OW42731   3.014   8.720   5.207
10601SOL    HW142732   3.037   8.729   5.110
10601SOL    HW242733   3.026   8.809   5.252
10602SOL     OW42734   1.626   0.727   3.858
10602SOL    HW142735   1.562   0.714   3.934
10602SOL    HW242736   1.719   0.730   3.893
10603SOL     OW42737   0.358   2.170   1.631
10603SOL    HW142738   0.280   2.221   1.668
10603SOL    HW242739   0.407   2.125   1.706
10604SOL     OW42740   6.587   0.551   2.493
10604SOL    HW142741   6.590   0.638   2.443
10604SOL    HW242742   6.636   0.560   2.579
10605SOL     OW42743   9.027   7.619   5.159
10605SOL    HW142744   8.975   7.551   5.108
10605SOL    HW242745   8.965   7.692   5.189
10606SOL     OW42746   7.514   7.456   4.220
10606SOL    HW142747   7.489   7.513   4.142
10606SOL    HW242748   7.533   7.363   4.189
10607SOL     OW42749   4.727   4.359   0.403
10607SOL    HW142750   4.693   4.363   0.309
10607SOL    HW242751   4.651   4.373   0.466
10608SOL     OW42752   7.632   1.187   3.822
10608SOL    HW142753   7.646   1.094   3.854
10608SOL    HW242754   7.583   1.240   3.891
10609SOL     OW42755   2.281   4.316   4.648
10609SOL    HW142756   2.185   4.305   4.671
10609SOL    HW242757   2.291   4.382   4.574
10610SOL     OW42758   1.248   3.628   3.174
10610SOL    HW142759   1.173   3.691   3.196
10610SOL    HW242760   1.226   3.580   3.089
10611SOL     OW42761   1.748   4.502   4.110
10611SOL    HW142762   1.778   4.591   4.075
10611SOL    HW242763   1.750   4.503   4.210
10612SOL     OW42764   5.072   9.450   5.092
10612SOL    HW142765   5.126   9.517   5.142
10612SOL    HW242766   4.977   9.480   5.087
10613SOL     OW42767   0.908   0.386   3.802
10613SOL    HW142768   1.008   0.392   3.794
10613SOL    HW242769   0.870   0.478   3.809
10614SOL     OW42770   9.416   1.930   4.817
10614SOL    HW142771   9.368   1.948   4.903
10614SOL    HW242772   9.457   1.839   4.820
10615SOL     OW42773   1.597   6.587   4.577
10615SOL    HW142774   1.590   6.511   4.513
10615SOL    HW242775   1.681   6.639   4.559
10616SOL     OW42776   2.016   5.752   0.407
10616SOL    HW142777   2.043   5.655   0.414
10616SOL    HW242778   1.958   5.776   0.484
10617SOL     OW42779   2.249   3.176   1.084
10617SOL    HW142780   2.220   3.267   1.053
10617SOL    HW242781   2.190   3.107   1.042
10618SOL     OW42782   3.125   0.729   0.944
10618SOL    HW142783   3.045   0.773   0.903
10618SOL    HW242784   3.117   0.630   0.935
10619SOL     OW42785   9.624   3.306   1.841
10619SOL    HW142786   9.574   3.363   1.775
10619SOL    HW242787   9.626   3.212   1.809
10620SOL     OW42788   4.816   3.509   1.681
10620SOL    HW142789   4.829   3.536   1.776
10620SOL    HW242790   4.809   3.409   1.675
10621SOL     OW42791   8.853   0.043   1.158
10621SOL    HW142792   8.881   9.984   1.234
10621SOL    HW242793   8.821   0.131   1.194
10622SOL     OW42794   2.352   9.247   4.193
10622SOL    HW142795   2.306   9.261   4.280
10622SOL    HW242796   2.344   9.330   4.137
10623SOL     OW42797   2.276   5.750   0.288
10623SOL    HW142798   2.264   5.813   0.211
10623SOL    HW242799   2.187   5.730   0.328
10624SOL     OW42800   8.994   2.460   1.221
10624SOL    HW142801   9.033   2.533   1.166
10624SOL    HW242802   8.934   2.499   1.291
10625SOL     OW42803   1.828   6.603   4.113
10625SOL    HW142804   1.759   6.608   4.040
10625SOL    HW242805   1.870   6.512   4.113
10626SOL     OW42806   3.552   7.266   3.815
10626SOL    HW142807   3.506   7.321   3.745
10626SOL    HW242808   3.540   7.309   3.904
10627SOL     OW42809   1.497   1.187   2.475
10627SOL    HW142810   1.556   1.131   2.417
10627SOL    HW242811   1.552   1.240   2.540
10628SOL     OW42812   9.271   8.133   3.715
10628SOL    HW142813   9.213   8.209   3.745
10628SOL    HW242814   9.352   8.170   3.669
10629SOL     OW42815   9.202   8.252   0.446
10629SOL    HW142816   9.116   8.222   0.486
10629SOL    HW242817   9.224   8.345   0.477
10630SOL     OW42818   4.608   6.889   3.279
10630SOL    HW142819   4.613   6.929   3.371
10630SOL    HW242820   4.544   6.812   3.279
10631SOL     OW42821   3.684   0.091   1.245
10631SOL    HW142822   3.711   0.088   1.341
10631SOL    HW242823   3.709   0.006   1.200
10632SOL     OW42824   3.763   4.326   4.908
10632SOL    HW142825   3.757   4.405   4.969
10632SOL    HW242826   3.687   4.328   4.843
10633SOL     OW42827   8.973   3.190   2.148
10633SOL    HW142828   9.041   3.118   2.142
10633SOL    HW242829   8.948   3.205   2.243
10634SOL     OW42830   4.194   2.714   3.587
10634SOL    HW142831   4.240   2.649   3.526
10634SOL    HW242832   4.095   2.708   3.572
10635SOL     OW42833   4.055   1.985   0.668
10635SOL    HW142834   4.042   1.892   0.633
10635SOL    HW242835   4.147   1.994   0.706
10636SOL     OW42836   4.649   1.840   5.114
10636SOL    HW142837   4.598   1.828   5.199
10636SOL    HW242838   4.705   1.759   5.097
10637SOL     OW42839   8.032   8.456   4.396
10637SOL    HW142840   8.012   8.367   4.438
10637SOL    HW242841   8.130   8.474   4.402
10638SOL     OW42842   6.193   9.611   1.660
10638SOL    HW142843   6.157   9.687   1.607
10638SOL    HW242844   6.148   9.608   1.750
10639SOL     OW42845   0.772   4.498   4.942
10639SOL    HW142846   0.775   4.407   4.901
10639SOL    HW242847   0.855   4.513   4.997
10640SOL     OW42848   4.224   2.084   3.521
10640SOL    HW142849   4.222   2.020   3.445
10640SOL    HW242850   4.200   2.175   3.489
10641SOL     OW42851   5.911   0.991   0.737
10641SOL    HW142852   5.884   0.957   0.647
10641SOL    HW242853   5.944   0.916   0.793
10642SOL     OW42854   3.495   5.569   5.093
10642SOL    HW142855   3.559   5.544   5.021
10642SOL    HW242856   3.509   5.665   5.118
10643SOL     OW42857   1.217   2.335   0.169
10643SOL    HW142858   1.241   2.404   0.237
10643SOL    HW242859   1.124   2.351   0.136
10644SOL     OW42860   3.273   0.699   2.711
10644SOL    HW142861   3.371   0.718   2.708
10644SOL    HW242862   3.226   0.774   2.758
10645SOL     OW42863   1.330   4.214   0.900
10645SOL    HW142864   1.411   4.214   0.841
10645SOL    HW242865   1.268   4.141   0.872
10646SOL     OW42866   8.510   1.867   4.676
10646SOL    HW142867   8.595   1.912   4.651
10646SOL    HW242868   8.472   1.819   4.597
10647SOL     OW42869   1.123   9.143   4.833
10647SOL    HW142870   1.122   9.043   4.836
10647SOL    HW242871   1.153   9.173   4.742
10648SOL     OW42872   2.294   8.099   0.793
10648SOL    HW142873   2.279   8.084   0.695
10648SOL    HW242874   2.212   8.141   0.833
10649SOL     OW42875   9.538   3.284   0.734
10649SOL    HW142876   9.545   3.331   0.646
10649SOL    HW242877   9.563   3.347   0.807
10650SOL     OW42878   9.007   8.624   3.742
10650SOL    HW142879   8.934   8.556   3.740
10650SOL    HW242880   9.040   8.635   3.835
10651SOL     OW42881   7.385   5.029   0.204
10651SOL    HW142882   7.476   5.003   0.173
10651SOL    HW242883   7.348   4.958   0.264
10652SOL     OW42884   7.888   8.202   5.100
10652SOL    HW142885   7.796   8.221   5.064
10652SOL    HW242886   7.927   8.125   5.049
10653SOL     OW42887   0.480   8.218   0.815
10653SOL    HW142888   0.530   8.292   0.770
10653SOL    HW242889   0.449   8.152   0.747
10654SOL     OW42890   5.670   4.976   1.164
10654SOL    HW142891   5.629   4.885   1.166
10654SOL    HW242892   5.766   4.971   1.188
10655SOL     OW42893   4.823   2.568   4.198
10655SOL    HW142894   4.828   2.652   4.145
10655SOL    HW242895   4.906   2.558   4.253
10656SOL     OW42896   9.940   2.264   0.613
10656SOL    HW142897   9.867   2.221   0.560
10656SOL    HW242898   9.919   2.361   0.627
10657SOL     OW42899   0.059   0.475   0.952
10657SOL    HW142900   0.017   0.399   1.002
10657SOL    HW242901   0.136   0.442   0.898
10658SOL     OW42902   6.979   0.511   4.776
10658SOL    HW142903   6.880   0.502   4.782
10658SOL    HW242904   7.004   0.608   4.769
10659SOL     OW42905   8.671   0.225   3.493
10659SOL    HW142906   8.721   0.247   3.410
10659SOL    HW242907   8.631   0.134   3.485
10660SOL     OW42908   3.662   1.488   5.072
10660SOL    HW142909   3.569   1.478   5.106
10660SOL    HW242910   3.725   1.442   5.134
10661SOL     OW42911   0.370   8.480   0.195
10661SOL    HW142912   0.419   8.471   0.282
10661SOL    HW242913   0.289   8.422   0.196
10662SOL     OW42914   4.263   9.443   1.296
10662SOL    HW142915   4.244   9.511   1.367
10662SOL    HW242916   4.284   9.490   1.210
10663SOL     OW42917   8.145   9.015   2.275
10663SOL    HW142918   8.073   8.966   2.225
10663SOL    HW242919   8.235   8.987   2.241
10664SOL     OW42920   3.680   9.326   4.342
10664SOL    HW142921   3.634   9.269   4.274
10664SOL    HW242922   3.778   9.306   4.341
10665SOL     OW42923   2.083   6.794   0.532
10665SOL    HW142924   1.988   6.826   0.527
10665SOL    HW242925   2.112   6.791   0.628
10666SOL     OW42926   7.348   0.473   3.608
10666SOL    HW142927   7.276   0.501   3.671
10666SOL    HW242928   7.437   0.491   3.650
10667SOL     OW42929   1.419   8.183   1.386
10667SOL    HW142930   1.378   8.264   1.429
10667SOL    HW242931   1.508   8.208   1.347
10668SOL     OW42932   6.519   0.265   1.030
10668SOL    HW142933   6.560   0.347   0.989
10668SOL    HW242934   6.438   0.291   1.082
10669SOL     OW42935   6.779   1.838   0.680
10669SOL    HW142936   6.730   1.834   0.593
10669SOL    HW242937   6.764   1.927   0.723
10670SOL     OW42938   4.603   4.795   1.601
10670SOL    HW142939   4.561   4.714   1.561
10670SOL    HW242940   4.542   4.874   1.590
10671SOL     OW42941   2.663   9.085   3.707
10671SOL    HW142942   2.656   9.170   3.759
10671SOL    HW242943   2.686   9.105   3.612
10672SOL     OW42944   8.194   6.444   4.471
10672SOL    HW142945   8.173   6.347   4.481
10672SOL    HW242946   8.280   6.454   4.421
10673SOL     OW42947   5.023   1.952   4.371
10673SOL    HW142948   5.023   2.029   4.307
10673SOL    HW242949   5.014   1.987   4.465
10674SOL     OW42950   1.479   8.714   1.057
10674SOL    HW142951   1.548   8.692   1.125
10674SOL    HW242952   1.520   8.713   0.966
10675SOL     OW42953   0.157   1.627   4.870
10675SOL    HW142954   0.096   1.676   4.808
10675SOL    HW242955   0.203   1.692   4.930
10676SOL     OW42956   6.218   8.770   3.328
10676SOL    HW142957   6.160   8.704   3.376
10676SOL    HW242958   6.304   8.726   3.302
10677SOL     OW42959   2.173   6.655   5.036
10677SOL    HW142960   2.084   6.656   5.082
10677SOL    HW242961   2.209   6.562   5.036
10678SOL     OW42962   2.976   8.872   3.626
10678SOL    HW142963   2.882   8.854   3.596
10678SOL    HW242964   2.982   8.963   3.667
10679SOL     OW42965   9.774   6.371   0.908
10679SOL    HW142966   9.851   6.374   0.845
10679SOL    HW242967   9.723   6.457   0.904
10680SOL     OW42968   7.758   3.447   1.480
10680SOL    HW142969   7.735   3.501   1.400
10680SOL    HW242970   7.857   3.430   1.482
10681SOL     OW42971   5.310   8.217   1.557
10681SOL    HW142972   5.300   8.206   1.656
10681SOL    HW242973   5.381   8.285   1.538
10682SOL     OW42974   2.070   2.501   1.436
10682SOL    HW142975   2.097   2.451   1.519
10682SOL    HW242976   2.096   2.448   1.355
10683SOL     OW42977   3.535   9.548   3.716
10683SOL    HW142978   3.568   9.588   3.801
10683SOL    HW242979   3.607   9.555   3.646
10684SOL     OW42980   0.501   4.505   4.822
10684SOL    HW142981   0.442   4.472   4.896
10684SOL    HW242982   0.595   4.510   4.856
10685SOL     OW42983   1.371   3.763   2.034
10685SOL    HW142984   1.455   3.817   2.038
10685SOL    HW242985   1.371   3.708   1.950
10686SOL     OW42986   7.972   3.775   2.117
10686SOL    HW142987   7.912   3.695   2.123
10686SOL    HW242988   7.947   3.829   2.037
10687SOL     OW42989   9.540   0.806   3.065
10687SOL    HW142990   9.483   0.866   3.009
10687SOL    HW242991   9.532   0.712   3.031
10688SOL     OW42992   4.108   7.115   1.237
10688SOL    HW142993   4.024   7.112   1.182
10688SOL    HW242994   4.146   7.207   1.235
10689SOL     OW42995   8.865   0.918   3.830
10689SOL    HW142996   8.888   0.866   3.747
10689SOL    HW242997   8.888   1.015   3.815
10690SOL     OW42998   0.988   1.321   0.318
10690SOL    HW142999   1.003   1.222   0.314
10690SOL    HW243000   0.907   1.340   0.375
10691SOL     OW43001   8.670   0.721   4.800
10691SOL    HW143002   8.653   0.627   4.772
10691SOL    HW243003   8.701   0.723   4.895
10692SOL     OW43004   2.705   7.209   1.379
10692SOL    HW143005   2.726   7.288   1.322
10692SOL    HW243006   2.657   7.140   1.325
10693SOL     OW43007   2.957   1.173   5.252
10693SOL    HW143008   2.993   1.081   5.263
10693SOL    HW243009   3.010   1.237   5.308
10694SOL     OW43010   0.548   6.710   2.842
10694SOL    HW143011   0.517   6.714   2.747
10694SOL    HW243012   0.481   6.755   2.901
10695SOL     OW43013   1.891   0.653   4.954
10695SOL    HW143014   1.948   0.653   5.036
10695SOL    HW243015   1.810   0.709   4.971
10696SOL     OW43016   4.694   9.865   1.507
10696SOL    HW143017   4.604   9.908   1.517
10696SOL    HW243018   4.700   9.821   1.417
10697SOL     OW43019   2.646   8.578   5.166
10697SOL    HW143020   2.698   8.598   5.249
10697SOL    HW243021   2.690   8.504   5.116
10698SOL     OW43022   8.529   7.801   5.224
10698SOL    HW143023   8.605   7.864   5.242
10698SOL    HW243024   8.448   7.854   5.195
10699SOL     OW43025   4.840   8.033   3.726
10699SOL    HW143026   4.754   8.037   3.778
10699SOL    HW243027   4.819   8.030   3.628
10700SOL     OW43028   0.514   3.035   1.638
10700SOL    HW143029   0.416   3.037   1.621
10700SOL    HW243030   0.546   3.127   1.661
10701SOL     OW43031   4.097   4.266   4.019
10701SOL    HW143032   4.155   4.311   4.087
10701SOL    HW243033   4.012   4.318   4.009
10702SOL     OW43034   9.918   3.123   0.726
10702SOL    HW143035   9.954   3.183   0.797
10702SOL    HW243036   9.948   3.155   0.636
10703SOL     OW43037   1.535   3.306   1.893
10703SOL    HW143038   1.444   3.338   1.920
10703SOL    HW243039   1.594   3.305   1.973
10704SOL     OW43040   2.469   0.130   0.421
10704SOL    HW143041   2.442   0.190   0.345
10704SOL    HW243042   2.415   0.046   0.418
10705SOL     OW43043   9.662   2.453   0.809
10705SOL    HW143044   9.602   2.382   0.772
10705SOL    HW243045   9.722   2.486   0.736
10706SOL     OW43046   8.844   2.929   1.639
10706SOL    HW143047   8.884   3.018   1.616
10706SOL    HW243048   8.885   2.895   1.724
10707SOL     OW43049   0.843   3.777   2.251
10707SOL    HW143050   0.926   3.745   2.205
10707SOL    HW243051   0.829   3.874   2.230
10708SOL     OW43052   7.272   9.218   4.632
10708SOL    HW143053   7.321   9.305   4.620
10708SOL    HW243054   7.318   9.146   4.581
10709SOL     OW43055   1.863   1.574   0.321
10709SOL    HW143056   1.944   1.532   0.282
10709SOL    HW243057   1.883   1.606   0.414
10710SOL     OW43058   5.572   7.556   3.919
10710SOL    HW143059   5.604   7.642   3.880
10710SOL    HW243060   5.600   7.550   4.015
10711SOL     OW43061   9.789   0.983   1.769
10711SOL    HW143062   9.838   0.929   1.838
10711SOL    HW243063   9.849   0.998   1.690
10712SOL     OW43064   3.410   1.814   0.825
10712SOL    HW143065   3.437   1.719   0.841
10712SOL    HW243066   3.460   1.849   0.746
10713SOL     OW43067   3.823   5.066   2.052
10713SOL    HW143068   3.916   5.046   2.021
10713SOL    HW243069   3.814   5.043   2.149
10714SOL     OW43070   2.591   4.390   0.143
10714SOL    HW143071   2.642   4.334   0.209
10714SOL    HW243072   2.523   4.333   0.097
10715SOL     OW43073   2.363   4.558   0.142
10715SOL    HW143074   2.292   4.508   0.192
10715SOL    HW243075   2.446   4.502   0.139
10716SOL     OW43076   9.430   7.007   3.876
10716SOL    HW143077   9.338   7.013   3.839
10716SOL    HW243078   9.497   7.008   3.801
10717SOL     OW43079   5.554   1.003   3.701
10717SOL    HW143080   5.499   1.040   3.776
10717SOL    HW243081   5.530   1.050   3.616
10718SOL     OW43082   2.588   9.167   4.328
10718SOL    HW143083   2.501   9.153   4.281
10718SOL    HW243084   2.601   9.095   4.396
10719SOL     OW43085   2.125   4.768   2.473
10719SOL    HW143086   2.046   4.768   2.535
10719SOL    HW243087   2.157   4.674   2.460
10720SOL     OW43088   0.021   4.229   3.489
10720SOL    HW143089   0.100   4.196   3.438
10720SOL    HW243090   0.031   4.204   3.586
10721SOL     OW43091   4.347   9.763   0.887
10721SOL    HW143092   4.315   9.856   0.868
10721SOL    HW243093   4.447   9.761   0.883
10722SOL     OW43094   1.707   8.476   1.495
10722SOL    HW143095   1.621   8.522   1.520
10722SOL    HW243096   1.769   8.542   1.454
10723SOL     OW43097   1.234   1.523   4.738
10723SOL    HW143098   1.167   1.543   4.809
10723SOL    HW243099   1.306   1.464   4.776
10724SOL     OW43100   3.848   9.821   5.293
10724SOL    HW143101   3.863   9.810   5.391
10724SOL    HW243102   3.790   9.746   5.260
10725SOL     OW43103   2.857   5.994   0.281
10725SOL    HW143104   2.867   5.897   0.257
10725SOL    HW243105   2.924   6.047   0.230
10726SOL     OW43106   9.043   1.348   5.137
10726SOL    HW143107   9.014   1.419   5.072
10726SOL    HW243108   8.963   1.306   5.178
10727SOL     OW43109   6.615   1.768   2.926
10727SOL    HW143110   6.662   1.785   3.013
10727SOL    HW243111   6.537   1.830   2.918
10728SOL     OW43112   9.762   0.648   2.221
10728SOL    HW143113   9.764   0.714   2.295
10728SOL    HW243114   9.712   0.686   2.143
10729SOL     OW43115   8.645   2.270   4.604
10729SOL    HW143116   8.667   2.331   4.680
10729SOL    HW243117   8.546   2.259   4.597
10730SOL     OW43118   7.229   0.851   3.098
10730SOL    HW143119   7.160   0.789   3.062
10730SOL    HW243120   7.212   0.943   3.063
10731SOL     OW43121   5.550   2.187   2.760
10731SOL    HW143122   5.471   2.171   2.700
10731SOL    HW243123   5.575   2.284   2.756
10732SOL     OW43124   2.053   7.736   1.537
10732SOL    HW143125   2.022   7.664   1.474
10732SOL    HW243126   2.077   7.817   1.485
10733SOL     OW43127   8.442   0.548   3.192
10733SOL    HW143128   8.466   0.453   3.173
10733SOL    HW243129   8.392   0.586   3.113
10734SOL     OW43130   7.977   0.850   2.972
10734SOL    HW143131   7.981   0.896   2.883
10734SOL    HW243132   8.013   0.757   2.964
10735SOL     OW43133   8.451   5.862   2.956
10735SOL    HW143134   8.405   5.773   2.966
10735SOL    HW243135   8.449   5.890   2.860
10736SOL     OW43136   1.145   2.743   0.621
10736SOL    HW143137   1.123   2.650   0.591
10736SOL    HW243138   1.068   2.804   0.602
10737SOL     OW43139   3.262   3.915   4.955
10737SOL    HW143140   3.190   3.862   4.910
10737SOL    HW243141   3.322   3.956   4.886
10738SOL     OW43142   9.596   4.857   2.101
10738SOL    HW143143   9.636   4.878   2.012
10738SOL    HW243144   9.631   4.921   2.169
10739SOL     OW43145   9.653   7.788   0.583
10739SOL    HW143146   9.559   7.811   0.606
10739SOL    HW243147   9.712   7.867   0.598
10740SOL     OW43148   9.379   1.436   4.852
10740SOL    HW143149   9.421   1.527   4.842
10740SOL    HW243150   9.284   1.440   4.821
10741SOL     OW43151   8.169   6.053   1.746
10741SOL    HW143152   8.163   6.135   1.803
10741SOL    HW243153   8.182   5.973   1.804
10742SOL     OW43154   4.065   4.564   2.300
10742SOL    HW143155   4.137   4.627   2.329
10742SOL    HW243156   3.986   4.616   2.267
10743SOL     OW43157   9.112   4.591   1.580
10743SOL    HW143158   9.128   4.687   1.558
10743SOL    HW243159   9.178   4.562   1.649
10744SOL     OW43160   9.294   9.253   2.270
10744SOL    HW143161   9.329   9.187   2.203
10744SOL    HW243162   9.311   9.218   2.362
10745SOL     OW43163   0.490   2.035   1.831
10745SOL    HW143164   0.437   2.027   1.916
10745SOL    HW243165   0.516   1.943   1.800
10746SOL     OW43166   0.510   0.471   0.566
10746SOL    HW143167   0.425   0.426   0.538
10746SOL    HW243168   0.499   0.570   0.559
10747SOL     OW43169   2.386   5.355   3.498
10747SOL    HW143170   2.349   5.390   3.584
10747SOL    HW243171   2.416   5.432   3.441
10748SOL     OW43172   9.124   5.880   5.054
10748SOL    HW143173   9.152   5.967   5.094
10748SOL    HW243174   9.025   5.878   5.044
10749SOL     OW43175   8.490   6.516   3.899
10749SOL    HW143176   8.486   6.547   3.994
10749SOL    HW243177   8.578   6.542   3.859
10750SOL     OW43178   0.246   8.555   0.990
10750SOL    HW143179   0.310   8.504   1.047
10750SOL    HW243180   0.206   8.493   0.922
10751SOL     OW43181   1.473   0.879   4.298
10751SOL    HW143182   1.533   0.825   4.356
10751SOL    HW243183   1.396   0.914   4.353
10752SOL     OW43184   8.186   9.332   4.023
10752SOL    HW143185   8.244   9.267   3.975
10752SOL    HW243186   8.144   9.287   4.103
10753SOL     OW43187   2.556   2.508   5.090
10753SOL    HW143188   2.589   2.587   5.037
10753SOL    HW243189   2.462   2.524   5.119
10754SOL     OW43190   3.710   8.377   0.546
10754SOL    HW143191   3.799   8.380   0.500
10754SOL    HW243192   3.674   8.284   0.543
10755SOL     OW43193   8.918   3.526   0.449
10755SOL    HW143194   8.904   3.581   0.367
10755SOL    HW243195   8.868   3.440   0.441
10756SOL     OW43196   3.403   4.243   4.327
10756SOL    HW143197   3.378   4.246   4.230
10756SOL    HW243198   3.480   4.304   4.344
10757SOL     OW43199   8.811   6.191   2.652
10757SOL    HW143200   8.878   6.264   2.664
10757SOL    HW243201   8.857   6.102   2.664
10758SOL     OW43202   3.983   8.916   1.093
10758SOL    HW143203   3.884   8.925   1.099
10758SOL    HW243204   4.025   8.946   1.178
10759SOL     OW43205   1.937   5.897   0.188
10759SOL    HW143206   1.954   5.835   0.265
10759SOL    HW243207   2.019   5.905   0.132
10760SOL     OW43208   3.897   8.301   0.879
10760SOL    HW143209   3.821   8.246   0.845
10760SOL    HW243210   3.964   8.313   0.806
10761SOL     OW43211   5.079   8.759   4.134
10761SOL    HW143212   4.996   8.758   4.190
10761SOL    HW243213   5.054   8.769   4.038
10762SOL     OW43214   1.489   0.593   2.034
10762SOL    HW143215   1.569   0.583   2.092
10762SOL    HW243216   1.444   0.680   2.053
10763SOL     OW43217   0.213   8.888   3.683
10763SOL    HW143218   0.163   8.802   3.690
10763SOL    HW243219   0.304   8.871   3.643
10764SOL     OW43220   3.692   7.046   1.276
10764SOL    HW143221   3.620   6.992   1.232
10764SOL    HW243222   3.655   7.134   1.306
10765SOL     OW43223   0.415   3.297   1.458
10765SOL    HW143224   0.400   3.390   1.425
10765SOL    HW243225   0.471   3.299   1.541
10766SOL     OW43226   3.066   9.465   0.300
10766SOL    HW143227   3.005   9.501   0.229
10766SOL    HW243228   3.045   9.509   0.387
10767SOL     OW43229   8.332   3.098   0.160
10767SOL    HW143230   8.429   3.100   0.183
10767SOL    HW243231   8.294   3.190   0.165
10768SOL     OW43232   0.350   6.265   0.290
10768SOL    HW143233   0.426   6.218   0.334
10768SOL    HW243234   0.384   6.319   0.212
10769SOL     OW43235   8.178   6.434   5.173
10769SOL    HW143236   8.265   6.389   5.152
10769SOL    HW243237   8.144   6.481   5.091
10770SOL     OW43238   0.449   8.448   1.876
10770SOL    HW143239   0.397   8.363   1.867
10770SOL    HW243240   0.398   8.524   1.836
10771SOL     OW43241   5.483   9.682   2.299
10771SOL    HW143242   5.413   9.614   2.324
10771SOL    HW243243   5.570   9.657   2.341
10772SOL     OW43244   9.131   7.977   4.181
10772SOL    HW143245   9.119   7.879   4.191
10772SOL    HW243246   9.089   8.024   4.259
10773SOL     OW43247   9.713   1.037   0.993
10773SOL    HW143248   9.639   1.105   0.995
10773SOL    HW243249   9.681   0.954   0.947
10774SOL     OW43250   1.036   8.757   0.499
10774SOL    HW143251   0.982   8.731   0.419
10774SOL    HW243252   0.979   8.809   0.563
10775SOL     OW43253   0.113   9.845   4.638
10775SOL    HW143254   0.084   9.759   4.597
10775SOL    HW243255   0.213   9.849   4.640
10776SOL     OW43256   8.679   8.839   3.583
10776SOL    HW143257   8.694   8.801   3.674
10776SOL    HW243258   8.638   8.769   3.524
10777SOL     OW43259   1.255   4.647   2.419
10777SOL    HW143260   1.158   4.655   2.444
10777SOL    HW243261   1.270   4.561   2.371
10778SOL     OW43262   7.731   1.737   4.983
10778SOL    HW143263   7.728   1.772   5.076
10778SOL    HW243264   7.778   1.803   4.924
10779SOL     OW43265   3.357   4.960   4.766
10779SOL    HW143266   3.455   4.950   4.746
10779SOL    HW243267   3.345   5.022   4.844
10780SOL     OW43268   3.997   2.268   3.018
10780SOL    HW143269   3.950   2.355   3.032
10780SOL    HW243270   3.942   2.194   3.059
10781SOL     OW43271   3.889   3.806   4.084
10781SOL    HW143272   3.962   3.874   4.078
10781SOL    HW243273   3.802   3.853   4.099
10782SOL     OW43274   0.427   7.708   3.062
10782SOL    HW143275   0.453   7.712   3.159
10782SOL    HW243276   0.424   7.612   3.033
10783SOL     OW43277   8.977   3.206   5.190
10783SOL    HW143278   9.073   3.223   5.213
10783SOL    HW243279   8.939   3.285   5.143
10784SOL     OW43280   9.127   9.527   1.203
10784SOL    HW143281   9.164   9.455   1.143
10784SOL    HW243282   9.116   9.612   1.150
10785SOL     OW43283   1.563   7.182   0.298
10785SOL    HW143284   1.553   7.232   0.383
10785SOL    HW243285   1.643   7.216   0.248
10786SOL     OW43286   4.794   0.712   3.504
10786SOL    HW143287   4.815   0.643   3.434
10786SOL    HW243288   4.813   0.803   3.468
10787SOL     OW43289   1.379   3.031   0.531
10787SOL    HW143290   1.419   3.005   0.442
10787SOL    HW243291   1.382   2.952   0.592
10788SOL     OW43292   0.330   3.562   1.787
10788SOL    HW143293   0.233   3.569   1.761
10788SOL    HW243294   0.345   3.475   1.834
10789SOL     OW43295   3.450   7.533   0.861
10789SOL    HW143296   3.422   7.450   0.909
10789SOL    HW243297   3.525   7.511   0.799
10790SOL     OW43298   9.801   8.850   1.117
10790SOL    HW143299   9.890   8.806   1.102
10790SOL    HW243300   9.812   8.949   1.114
10791SOL     OW43301   9.772   8.574   2.883
10791SOL    HW143302   9.860   8.621   2.888
10791SOL    HW243303   9.755   8.525   2.969
10792SOL     OW43304   6.586   7.537   2.495
10792SOL    HW143305   6.584   7.455   2.438
10792SOL    HW243306   6.660   7.529   2.562
10793SOL     OW43307   0.438   9.179   0.581
10793SOL    HW143308   0.352   9.146   0.541
10793SOL    HW243309   0.447   9.277   0.565
10794SOL     OW43310   0.870   1.772   5.230
10794SOL    HW143311   0.801   1.832   5.189
10794SOL    HW243312   0.956   1.782   5.181
10795SOL     OW43313   8.560   9.590   2.751
10795SOL    HW143314   8.629   9.629   2.812
10795SOL    HW243315   8.596   9.505   2.711
10796SOL     OW43316   8.430   1.874   1.167
10796SOL    HW143317   8.516   1.885   1.117
10796SOL    HW243318   8.416   1.777   1.188
10797SOL     OW43319   3.066   2.258   2.390
10797SOL    HW143320   3.077   2.279   2.487
10797SOL    HW243321   3.015   2.173   2.380
10798SOL     OW43322   7.651   8.938   2.253
10798SOL    HW143323   7.562   8.910   2.217
10798SOL    HW243324   7.709   8.857   2.267
10799SOL     OW43325   2.403   8.753   1.947
10799SOL    HW143326   2.340   8.771   1.872
10799SOL    HW243327   2.393   8.657   1.976
10800SOL     OW43328   7.657   3.001   1.322
10800SOL    HW143329   7.565   3.039   1.312
10800SOL    HW243330   7.662   2.913   1.275
10801SOL     OW43331   9.304   3.112   4.634
10801SOL    HW143332   9.212   3.130   4.671
10801SOL    HW243333   9.326   3.015   4.645
10802SOL     OW43334   7.652   6.295   5.114
10802SOL    HW143335   7.633   6.210   5.162
10802SOL    HW243336   7.749   6.318   5.124
10803SOL     OW43337   9.327   2.144   5.260
10803SOL    HW143338   9.231   2.168   5.246
10803SOL    HW243339   9.371   2.216   5.315
10804SOL     OW43340   9.919   2.394   5.008
10804SOL    HW143341   9.822   2.413   4.996
10804SOL    HW243342   9.933   2.345   5.094
10805SOL     OW43343   2.568   9.734   2.185
10805SOL    HW143344   2.486   9.684   2.159
10805SOL    HW243345   2.587   9.806   2.118
10806SOL     OW43346   0.053   3.624   2.606
10806SOL    HW143347   9.966   3.610   2.560
10806SOL    HW243348   0.105   3.696   2.560
10807SOL     OW43349   1.582   9.040   0.887
10807SOL    HW143350   1.550   8.958   0.934
10807SOL    HW243351   1.661   9.078   0.935
10808SOL     OW43352   9.643   3.497   0.879
10808SOL    HW143353   9.636   3.532   0.786
10808SOL    HW243354   9.725   3.534   0.922
10809SOL     OW43355   1.952   5.472   2.185
10809SOL    HW143356   2.026   5.407   2.170
10809SOL    HW243357   1.876   5.427   2.232
10810SOL     OW43358   5.434   0.057   4.999
10810SOL    HW143359   5.514   0.080   5.055
10810SOL    HW243360   5.410   0.136   4.942
10811SOL     OW43361   2.127   2.347   1.657
10811SOL    HW143362   2.042   2.337   1.709
10811SOL    HW243363   2.150   2.260   1.613
10812SOL     OW43364   8.405   3.920   3.858
10812SOL    HW143365   8.444   3.833   3.828
10812SOL    HW243366   8.479   3.983   3.884
10813SOL     OW43367   4.283   4.876   0.356
10813SOL    HW143368   4.280   4.903   0.452
10813SOL    HW243369   4.215   4.928   0.304
10814SOL     OW43370   5.742   7.135   2.394
10814SOL    HW143371   5.665   7.072   2.404
10814SOL    HW243372   5.771   7.168   2.484
10815SOL     OW43373   8.315   0.496   5.122
10815SOL    HW143374   8.393   0.512   5.182
10815SOL    HW243375   8.346   0.450   5.038
10816SOL     OW43376   8.936   1.771   1.594
10816SOL    HW143377   8.858   1.804   1.540
10816SOL    HW243378   9.008   1.741   1.532
10817SOL     OW43379   3.731   9.734   3.192
10817SOL    HW143380   3.817   9.732   3.242
10817SOL    HW243381   3.655   9.743   3.257
10818SOL     OW43382   9.615   7.105   0.415
10818SOL    HW143383   9.641   7.169   0.488
10818SOL    HW243384   9.684   7.034   0.406
10819SOL     OW43385   7.862   6.023   0.718
10819SOL    HW143386   7.770   6.005   0.684
10819SOL    HW243387   7.882   6.121   0.712
10820SOL     OW43388   0.088   5.068   0.837
10820SOL    HW143389   0.126   5.105   0.922
10820SOL    HW243390   0.042   5.141   0.787
10821SOL     OW43391   2.372   8.283   0.226
10821SOL    HW143392   2.400   8.284   0.322
10821SOL    HW243393   2.273   8.298   0.219
10822SOL     OW43394   8.914   0.630   2.464
10822SOL    HW143395   8.960   0.666   2.384
10822SOL    HW243396   8.966   0.653   2.546
10823SOL     OW43397   1.453   3.612   2.864
10823SOL    HW143398   1.533   3.634   2.809
10823SOL    HW243399   1.372   3.611   2.806
10824SOL     OW43400   3.580   4.896   3.592
10824SOL    HW143401   3.525   4.950   3.529
10824SOL    HW243402   3.650   4.955   3.634
10825SOL     OW43403   5.022   9.593   2.172
10825SOL    HW143404   5.043   9.616   2.267
10825SOL    HW243405   5.100   9.544   2.132
10826SOL     OW43406   3.973   5.282   1.342
10826SOL    HW143407   4.018   5.355   1.393
10826SOL    HW243408   4.040   5.210   1.321
10827SOL     OW43409   0.264   1.351   1.666
10827SOL    HW143410   0.259   1.318   1.572
10827SOL    HW243411   0.247   1.276   1.729
10828SOL     OW43412   5.089   1.297   3.136
10828SOL    HW143413   5.173   1.273   3.185
10828SOL    HW243414   5.110   1.368   3.068
10829SOL     OW43415   5.830   8.638   2.884
10829SOL    HW143416   5.880   8.577   2.824
10829SOL    HW243417   5.809   8.591   2.970
10830SOL     OW43418   8.340   5.218   4.662
10830SOL    HW143419   8.284   5.216   4.579
10830SOL    HW243420   8.369   5.312   4.680
10831SOL     OW43421   8.295   8.496   4.455
10831SOL    HW143422   8.338   8.410   4.483
10831SOL    HW243423   8.303   8.563   4.530
10832SOL     OW43424   0.574   1.687   1.052
10832SOL    HW143425   0.642   1.672   1.124
10832SOL    HW243426   0.559   1.785   1.041
10833SOL     OW43427   1.858   9.952   1.529
10833SOL    HW143428   1.844   9.962   1.430
10833SOL    HW243429   1.842   9.857   1.555
10834SOL     OW43430   4.610   5.320   2.918
10834SOL    HW143431   4.615   5.419   2.906
10834SOL    HW243432   4.559   5.299   3.002
10835SOL     OW43433   3.761   9.114   3.423
10835SOL    HW143434   3.678   9.158   3.459
10835SOL    HW243435   3.763   9.018   3.452
10836SOL     OW43436   2.717   1.479   0.458
10836SOL    HW143437   2.714   1.485   0.558
10836SOL    HW243438   2.766   1.557   0.421
10837SOL     OW43439   8.348   1.484   0.960
10837SOL    HW143440   8.251   1.499   0.980
10837SOL    HW243441   8.378   1.551   0.892
10838SOL     OW43442   2.937   3.559   4.504
10838SOL    HW143443   3.019   3.519   4.548
10838SOL    HW243444   2.857   3.504   4.529
10839SOL     OW43445   8.655   8.762   2.444
10839SOL    HW143446   8.653   8.677   2.498
10839SOL    HW243447   8.665   8.740   2.347
10840SOL     OW43448   3.791   9.385   5.018
10840SOL    HW143449   3.717   9.399   4.952
10840SOL    HW243450   3.816   9.288   5.019
10841SOL     OW43451   7.386   3.190   4.271
10841SOL    HW143452   7.451   3.266   4.278
10841SOL    HW243453   7.411   3.131   4.194
10842SOL     OW43454   2.146   3.159   4.858
10842SOL    HW143455   2.144   3.195   4.765
10842SOL    HW243456   2.054   3.167   4.899
10843SOL     OW43457   4.444   9.975   1.537
10843SOL    HW143458   4.380   9.964   1.461
10843SOL    HW243459   4.467   0.072   1.548
10844SOL     OW43460   0.332   6.567   3.795
10844SOL    HW143461   0.419   6.551   3.840
10844SOL    HW243462   0.338   6.648   3.737
10845SOL     OW43463   0.701   9.386   0.581
10845SOL    HW143464   0.706   9.288   0.560
10845SOL    HW243465   0.633   9.401   0.652
10846SOL     OW43466   3.413   6.955   3.143
10846SOL    HW143467   3.508   6.975   3.168
10846SOL    HW243468   3.389   6.864   3.177
10847SOL     OW43469   9.965   2.027   3.459
10847SOL    HW143470   0.023   2.076   3.525
10847SOL    HW243471   9.877   2.007   3.501
10848SOL     OW43472   3.338   5.724   4.862
10848SOL    HW143473   3.344   5.765   4.952
10848SOL    HW243474   3.268   5.652   4.863
10849SOL     OW43475   3.428   3.625   4.291
10849SOL    HW143476   3.335   3.659   4.282
10849SOL    HW243477   3.488   3.700   4.319
10850SOL     OW43478   7.846   4.364   2.072
10850SOL    HW143479   7.913   4.439   2.073
10850SOL    HW243480   7.767   4.389   2.129
10851SOL     OW43481   4.514   6.973   2.078
10851SOL    HW143482   4.504   6.985   1.979
10851SOL    HW243483   4.572   7.045   2.115
10852SOL     OW43484   2.244   8.603   1.241
10852SOL    HW143485   2.337   8.604   1.205
10852SOL    HW243486   2.181   8.642   1.174
10853SOL     OW43487   5.068   8.771   4.607
10853SOL    HW143488   5.155   8.791   4.651
10853SOL    HW243489   5.057   8.831   4.527
10854SOL     OW43490   3.017   8.612   1.347
10854SOL    HW143491   3.058   8.699   1.318
10854SOL    HW243492   2.994   8.616   1.444
10855SOL     OW43493   0.533   1.280   0.239
10855SOL    HW143494   0.605   1.212   0.227
10855SOL    HW243495   0.568   1.370   0.212
10856SOL     OW43496   2.443   2.746   1.051
10856SOL    HW143497   2.488   2.736   0.962
10856SOL    HW243498   2.513   2.759   1.122
10857SOL     OW43499   9.307   1.480   3.754
10857SOL    HW143500   9.242   1.423   3.703
10857SOL    HW243501   9.282   1.479   3.851
10858SOL     OW43502   8.179   9.724   4.959
10858SOL    HW143503   8.182   9.801   4.895
10858SOL    HW243504   8.172   9.760   5.052
10859SOL     OW43505   0.708   7.534   2.099
10859SOL    HW143506   0.704   7.469   2.022
10859SOL    HW243507   0.761   7.614   2.072
10860SOL     OW43508   6.248   1.697   1.759
10860SOL    HW143509   6.234   1.705   1.858
10860SOL    HW243510   6.338   1.735   1.736
10861SOL     OW43511   3.063   7.452   1.420
10861SOL    HW143512   3.141   7.512   1.435
10861SOL    HW243513   3.022   7.472   1.331
10862SOL     OW43514   4.338   3.457   1.875
10862SOL    HW143515   4.343   3.478   1.778
10862SOL    HW243516   4.427   3.422   1.906
10863SOL     OW43517   4.958   7.027   2.490
10863SOL    HW143518   5.006   7.040   2.404
10863SOL    HW243519   4.976   6.935   2.525
10864SOL     OW43520   9.435   2.387   1.650
10864SOL    HW143521   9.523   2.356   1.613
10864SOL    HW243522   9.404   2.467   1.598
10865SOL     OW43523   5.132   0.346   1.064
10865SOL    HW143524   5.056   0.295   1.024
10865SOL    HW243525   5.201   0.282   1.097
10866SOL     OW43526   1.545   1.709   1.366
10866SOL    HW143527   1.569   1.798   1.326
10866SOL    HW243528   1.608   1.640   1.331
10867SOL     OW43529   3.501   0.426   2.793
10867SOL    HW143530   3.433   0.402   2.725
10867SOL    HW243531   3.584   0.373   2.778
10868SOL     OW43532   3.739   3.260   2.604
10868SOL    HW143533   3.693   3.344   2.632
10868SOL    HW243534   3.683   3.181   2.630
10869SOL     OW43535   5.579   0.822   2.767
10869SOL    HW143536   5.508   0.781   2.711
10869SOL    HW243537   5.664   0.770   2.758
10870SOL     OW43538   1.363   2.936   4.811
10870SOL    HW143539   1.356   2.839   4.830
10870SOL    HW243540   1.454   2.957   4.776
10871SOL     OW43541   7.134   0.513   2.656
10871SOL    HW143542   7.067   0.448   2.622
10871SOL    HW243543   7.217   0.465   2.683
10872SOL     OW43544   9.028   5.179   1.780
10872SOL    HW143545   9.055   5.255   1.839
10872SOL    HW243546   9.004   5.214   1.689
10873SOL     OW43547   1.817   2.359   3.146
10873SOL    HW143548   1.895   2.394   3.198
10873SOL    HW243549   1.764   2.297   3.204
10874SOL     OW43550   0.491   4.126   5.152
10874SOL    HW143551   0.446   4.203   5.196
10874SOL    HW243552   0.448   4.041   5.182
10875SOL     OW43553   0.848   7.195   3.898
10875SOL    HW143554   0.853   7.227   3.803
10875SOL    HW243555   0.760   7.151   3.914
10876SOL     OW43556   6.644   9.066   5.181
10876SOL    HW143557   6.561   9.115   5.208
10876SOL    HW243558   6.646   9.056   5.082
10877SOL     OW43559   9.851   5.353   1.831
10877SOL    HW143560   9.858   5.390   1.924
10877SOL    HW243561   9.930   5.383   1.777
10878SOL     OW43562   1.992   2.349   2.927
10878SOL    HW143563   1.928   2.354   3.004
10878SOL    HW243564   2.050   2.269   2.938
10879SOL     OW43565   8.308   9.147   4.637
10879SOL    HW143566   8.407   9.142   4.623
10879SOL    HW243567   8.262   9.115   4.554
10880SOL     OW43568   7.308   7.803   3.856
10880SOL    HW143569   7.251   7.756   3.923
10880SOL    HW243570   7.264   7.799   3.766
10881SOL     OW43571   3.832   2.757   1.242
10881SOL    HW143572   3.848   2.854   1.221
10881SOL    HW243573   3.738   2.733   1.221
10882SOL     OW43574   4.187   1.399   0.751
10882SOL    HW143575   4.157   1.442   0.836
10882SOL    HW243576   4.269   1.344   0.769
10883SOL     OW43577   3.554   0.996   1.556
10883SOL    HW143578   3.540   0.913   1.501
10883SOL    HW243579   3.649   1.025   1.550
10884SOL     OW43580   3.827   2.923   2.199
10884SOL    HW143581   3.728   2.940   2.205
10884SOL    HW243582   3.842   2.830   2.166
10885SOL     OW43583   2.530   7.603   4.454
10885SOL    HW143584   2.481   7.556   4.381
10885SOL    HW243585   2.468   7.625   4.529
10886SOL     OW43586   0.971   1.425   3.164
10886SOL    HW143587   0.902   1.389   3.228
10886SOL    HW243588   0.965   1.524   3.161
10887SOL     OW43589   1.573   8.271   2.109
10887SOL    HW143590   1.634   8.200   2.072
10887SOL    HW243591   1.572   8.265   2.208
10888SOL     OW43592   6.791   3.681   0.541
10888SOL    HW143593   6.755   3.590   0.561
10888SOL    HW243594   6.845   3.714   0.618
10889SOL     OW43595   5.713   0.455   0.842
10889SOL    HW143596   5.756   0.481   0.755
10889SOL    HW243597   5.642   0.521   0.865
10890SOL     OW43598   1.523   5.122   2.770
10890SOL    HW143599   1.526   5.092   2.675
10890SOL    HW243600   1.485   5.215   2.774
10891SOL     OW43601   1.533   8.872   0.102
10891SOL    HW143602   1.561   8.954   0.053
10891SOL    HW243603   1.433   8.868   0.105
10892SOL     OW43604   3.377   4.156   3.467
10892SOL    HW143605   3.315   4.094   3.419
10892SOL    HW243606   3.427   4.212   3.400
10893SOL     OW43607   2.784   6.215   3.852
10893SOL    HW143608   2.725   6.273   3.795
10893SOL    HW243609   2.851   6.169   3.794
10894SOL     OW43610   8.087   2.193   2.195
10894SOL    HW143611   8.179   2.233   2.184
10894SOL    HW243612   8.024   2.238   2.131
10895SOL     OW43613   3.202   2.642   3.620
10895SOL    HW143614   3.131   2.647   3.689
10895SOL    HW243615   3.161   2.646   3.529
10896SOL     OW43616   1.557   4.527   0.431
10896SOL    HW143617   1.458   4.533   0.420
10896SOL    HW243618   1.601   4.590   0.366
10897SOL     OW43619   6.399   5.361   0.332
10897SOL    HW143620   6.399   5.459   0.349
10897SOL    HW243621   6.372   5.312   0.415
10898SOL     OW43622   4.728   2.476   0.114
10898SOL    HW143623   4.776   2.452   0.199
10898SOL    HW243624   4.663   2.404   0.092
10899SOL     OW43625   5.356   1.191   1.722
10899SOL    HW143626   5.374   1.210   1.626
10899SOL    HW243627   5.336   1.276   1.770
10900SOL     OW43628   1.921   1.176   3.622
10900SOL    HW143629   1.983   1.128   3.560
10900SOL    HW243630   1.864   1.240   3.570
10901SOL     OW43631   7.185   0.377   2.354
10901SOL    HW143632   7.227   0.309   2.414
10901SOL    HW243633   7.217   0.469   2.380
10902SOL     OW43634   9.783   5.658   2.499
10902SOL    HW143635   9.738   5.738   2.538
10902SOL    HW243636   9.719   5.608   2.441
10903SOL     OW43637   2.162   4.805   4.932
10903SOL    HW143638   2.111   4.886   4.902
10903SOL    HW243639   2.245   4.834   4.980
10904SOL     OW43640   6.785   8.452   5.200
10904SOL    HW143641   6.689   8.435   5.224
10904SOL    HW243642   6.789   8.524   5.131
10905SOL     OW43643   8.027   6.847   4.505
10905SOL    HW143644   8.008   6.936   4.465
10905SOL    HW243645   7.992   6.844   4.599
10906SOL     OW43646   7.693   8.672   4.137
10906SOL    HW143647   7.764   8.602   4.139
10906SOL    HW243648   7.719   8.748   4.197
10907SOL     OW43649   4.692   7.963   4.385
10907SOL    HW143650   4.607   7.957   4.438
10907SOL    HW243651   4.770   7.953   4.447
10908SOL     OW43652   9.517   5.522   1.675
10908SOL    HW143653   9.457   5.444   1.689
10908SOL    HW243654   9.591   5.497   1.614
10909SOL     OW43655   3.401   8.123   3.998
10909SOL    HW143656   3.448   8.211   3.992
10909SOL    HW243657   3.342   8.123   4.080
10910SOL     OW43658   4.620   1.254   2.927
10910SOL    HW143659   4.553   1.202   2.979
10910SOL    HW243660   4.710   1.242   2.968
10911SOL     OW43661   1.281   5.358   2.331
10911SOL    HW143662   1.193   5.389   2.296
10911SOL    HW243663   1.355   5.406   2.284
10912SOL     OW43664   6.777   7.639   3.208
10912SOL    HW143665   6.810   7.596   3.291
10912SOL    HW243666   6.681   7.666   3.219
10913SOL     OW43667   4.385   2.322   1.130
10913SOL    HW143668   4.374   2.303   1.228
10913SOL    HW243669   4.457   2.390   1.117
10914SOL     OW43670   6.626   9.897   3.191
10914SOL    HW143671   6.683   9.827   3.233
10914SOL    HW243672   6.620   9.976   3.252
10915SOL     OW43673   1.835   4.228   4.814
10915SOL    HW143674   1.900   4.274   4.753
10915SOL    HW243675   1.886   4.181   4.887
10916SOL     OW43676   8.490   2.825   3.118
10916SOL    HW143677   8.396   2.791   3.125
10916SOL    HW243678   8.516   2.869   3.204
10917SOL     OW43679   9.279   1.962   5.046
10917SOL    HW143680   9.205   1.901   5.073
10917SOL    HW243681   9.296   2.028   5.120
10918SOL     OW43682   9.927   0.037   4.711
10918SOL    HW143683   9.962   0.122   4.751
10918SOL    HW243684   0.004   9.978   4.685
10919SOL     OW43685   3.192   8.472   3.818
10919SOL    HW143686   3.270   8.517   3.775
10919SOL    HW243687   3.112   8.531   3.813
10920SOL     OW43688   5.965   4.965   0.840
10920SOL    HW143689   6.029   4.965   0.916
10920SOL    HW243690   5.924   4.874   0.831
10921SOL     OW43691   4.979   2.851   2.531
10921SOL    HW143692   4.904   2.847   2.597
10921SOL    HW243693   4.943   2.861   2.439
10922SOL     OW43694   8.519   1.677   1.644
10922SOL    HW143695   8.469   1.732   1.711
10922SOL    HW243696   8.467   1.595   1.623
10923SOL     OW43697   9.499   5.231   1.305
10923SOL    HW143698   9.537   5.190   1.387
10923SOL    HW243699   9.454   5.161   1.250
10924SOL     OW43700   3.349   3.220   3.850
10924SOL    HW143701   3.421   3.234   3.918
10924SOL    HW243702   3.260   3.219   3.896
10925SOL     OW43703   9.216   9.545   2.833
10925SOL    HW143704   9.316   9.543   2.829
10925SOL    HW243705   9.179   9.478   2.769
10926SOL     OW43706   8.170   7.305   3.206
10926SOL    HW143707   8.073   7.282   3.207
10926SOL    HW243708   8.204   7.306   3.112
10927SOL     OW43709   9.233   5.620   3.744
10927SOL    HW143710   9.187   5.546   3.793
10927SOL    HW243711   9.172   5.656   3.673
10928SOL     OW43712   0.330   1.824   3.898
10928SOL    HW143713   0.237   1.814   3.935
10928SOL    HW243714   0.329   1.892   3.825
10929SOL     OW43715   1.754   7.757   2.309
10929SOL    HW143716   1.766   7.686   2.240
10929SOL    HW243717   1.802   7.731   2.393
10930SOL     OW43718   4.409   9.474   1.841
10930SOL    HW143719   4.482   9.427   1.890
10930SOL    HW243720   4.448   9.540   1.777
10931SOL     OW43721   9.834   2.278   2.319
10931SOL    HW143722   9.867   2.186   2.298
10931SOL    HW243723   9.740   2.289   2.286
10932SOL     OW43724   0.415   9.637   2.568
10932SOL    HW143725   0.439   9.589   2.653
10932SOL    HW243726   0.475   9.717   2.557
10933SOL     OW43727   8.273   3.725   1.239
10933SOL    HW143728   8.217   3.736   1.157
10933SOL    HW243729   8.344   3.796   1.241
10934SOL     OW43730   6.217   9.060   2.259
10934SOL    HW143731   6.187   9.154   2.240
10934SOL    HW243732   6.308   9.046   2.218
10935SOL     OW43733   6.119   8.730   2.135
10935SOL    HW143734   6.175   8.787   2.076
10935SOL    HW243735   6.113   8.771   2.226
10936SOL     OW43736   7.264   1.419   1.556
10936SOL    HW143737   7.202   1.403   1.479
10936SOL    HW243738   7.212   1.434   1.640
10937SOL     OW43739   2.843   1.921   2.110
10937SOL    HW143740   2.744   1.909   2.111
10937SOL    HW243741   2.886   1.842   2.067
10938SOL     OW43742   9.258   5.336   0.567
10938SOL    HW143743   9.304   5.425   0.570
10938SOL    HW243744   9.295   5.278   0.640
10939SOL     OW43745   1.910   3.723   5.031
10939SOL    HW143746   1.843   3.740   4.959
10939SOL    HW243747   1.904   3.795   5.100
10940SOL     OW43748   9.281   6.453   1.092
10940SOL    HW143749   9.189   6.480   1.121
10940SOL    HW243750   9.339   6.534   1.084
10941SOL     OW43751   9.095   9.958   4.897
10941SOL    HW143752   9.036   9.914   4.966
10941SOL    HW243753   9.118   9.892   4.826
10942SOL     OW43754   5.487   0.439   2.187
10942SOL    HW143755   5.468   0.472   2.095
10942SOL    HW243756   5.414   0.377   2.217
10943SOL     OW43757   2.113   6.980   0.330
10943SOL    HW143758   2.091   6.911   0.399
10943SOL    HW243759   2.036   6.991   0.267
10944SOL     OW43760   0.858   0.661   3.840
10944SOL    HW143761   0.954   0.688   3.832
10944SOL    HW243762   0.800   0.741   3.825
10945SOL     OW43763   0.844   5.805   0.324
10945SOL    HW143764   0.808   5.790   0.416
10945SOL    HW243765   0.943   5.794   0.325
10946SOL     OW43766   8.395   9.598   4.457
10946SOL    HW143767   8.302   9.593   4.492
10946SOL    HW243768   8.395   9.582   4.358
10947SOL     OW43769   4.645   2.936   3.450
10947SOL    HW143770   4.702   2.935   3.368
10947SOL    HW243771   4.609   2.845   3.467
10948SOL     OW43772   8.192   8.621   1.675
10948SOL    HW143773   8.276   8.671   1.652
10948SOL    HW243774   8.192   8.599   1.773
10949SOL     OW43775   6.806   0.730   4.273
10949SOL    HW143776   6.806   0.822   4.310
10949SOL    HW243777   6.827   0.664   4.345
10950SOL     OW43778   1.531   5.984   4.685
10950SOL    HW143779   1.553   6.047   4.610
10950SOL    HW243780   1.611   5.929   4.707
10951SOL     OW43781   9.481   7.830   1.160
10951SOL    HW143782   9.558   7.861   1.215
10951SOL    HW243783   9.439   7.908   1.114
10952SOL     OW43784   5.716   8.987   4.018
10952SOL    HW143785   5.627   9.033   4.019
10952SOL    HW243786   5.777   9.031   3.952
10953SOL     OW43787   9.644   9.427   4.140
10953SOL    HW143788   9.549   9.434   4.108
10953SOL    HW243789   9.643   9.416   4.240
10954SOL     OW43790   0.686   7.689   3.511
10954SOL    HW143791   0.694   7.776   3.560
10954SOL    HW243792   0.777   7.659   3.482
10955SOL     OW43793   9.067   8.000   1.121
10955SOL    HW143794   9.036   7.906   1.113
10955SOL    HW243795   9.066   8.028   1.218
10956SOL     OW43796   0.909   6.967   2.030
10956SOL    HW143797   0.898   7.004   2.121
10956SOL    HW243798   0.941   6.872   2.036
10957SOL     OW43799   7.389   8.249   3.557
10957SOL    HW143800   7.394   8.275   3.461
10957SOL    HW243801   7.319   8.179   3.570
10958SOL     OW43802   5.640   9.257   2.948
10958SOL    HW143803   5.688   9.191   2.890
10958SOL    HW243804   5.561   9.294   2.897
10959SOL     OW43805   8.007   9.440   1.003
10959SOL    HW143806   7.994   9.482   1.093
10959SOL    HW243807   8.104   9.420   0.989
10960SOL     OW43808   2.851   4.436   2.989
10960SOL    HW143809   2.768   4.405   2.942
10960SOL    HW243810   2.848   4.406   3.084
10961SOL     OW43811   0.086   2.639   3.036
10961SOL    HW143812   0.045   2.730   3.038
10961SOL    HW243813   0.069   2.593   3.123
10962SOL     OW43814   2.976   7.909   0.682
10962SOL    HW143815   2.925   7.974   0.627
10962SOL    HW243816   3.069   7.942   0.696
10963SOL     OW43817   9.584   9.389   0.462
10963SOL    HW143818   9.490   9.364   0.438
10963SOL    HW243819   9.596   9.384   0.561
10964SOL     OW43820   1.323   6.503   3.746
10964SOL    HW143821   1.386   6.550   3.685
10964SOL    HW243822   1.267   6.571   3.794
10965SOL     OW43823   0.818   6.224   2.520
10965SOL    HW143824   0.787   6.312   2.554
10965SOL    HW243825   0.759   6.194   2.445
10966SOL     OW43826   4.651   6.697   1.430
10966SOL    HW143827   4.626   6.601   1.425
10966SOL    HW243828   4.643   6.729   1.525
10967SOL     OW43829   9.933   6.168   4.722
10967SOL    HW143830   9.922   6.244   4.786
10967SOL    HW243831   9.924   6.082   4.772
10968SOL     OW43832   1.217   9.024   4.383
10968SOL    HW143833   1.199   9.085   4.460
10968SOL    HW243834   1.292   8.962   4.406
10969SOL     OW43835   1.896   5.239   4.990
10969SOL    HW143836   1.824   5.176   5.018
10969SOL    HW243837   1.860   5.300   4.918
10970SOL     OW43838   9.546   0.867   1.737
10970SOL    HW143839   9.627   0.923   1.756
10970SOL    HW243840   9.470   0.897   1.796
10971SOL     OW43841   4.588   1.055   2.723
10971SOL    HW143842   4.597   1.140   2.775
10971SOL    HW243843   4.500   1.053   2.676
10972SOL     OW43844   0.512   7.942   1.010
10972SOL    HW143845   0.493   7.887   1.091
10972SOL    HW243846   0.439   7.930   0.943
10973SOL     OW43847   7.144   7.546   4.749
10973SOL    HW143848   7.200   7.512   4.673
10973SOL    HW243849   7.203   7.581   4.821
10974SOL     OW43850   4.369   4.680   3.213
10974SOL    HW143851   4.273   4.678   3.240
10974SOL    HW243852   4.425   4.711   3.290
10975SOL     OW43853   4.931   7.063   2.065
10975SOL    HW143854   4.945   7.140   2.003
10975SOL    HW243855   4.996   7.068   2.140
10976SOL     OW43856   1.817   8.404   2.956
10976SOL    HW143857   1.758   8.328   2.982
10976SOL    HW243858   1.794   8.484   3.012
10977SOL     OW43859   7.658   4.673   1.053
10977SOL    HW143860   7.619   4.665   0.961
10977SOL    HW243861   7.639   4.588   1.104
10978SOL     OW43862   8.461   4.798   1.538
10978SOL    HW143863   8.473   4.896   1.528
10978SOL    HW243864   8.543   4.757   1.579
10979SOL     OW43865   3.464   5.427   3.300
10979SOL    HW143866   3.376   5.379   3.306
10979SOL    HW243867   3.477   5.461   3.207
10980SOL     OW43868   6.584   0.773   3.413
10980SOL    HW143869   6.575   0.865   3.452
10980SOL    HW243870   6.495   0.740   3.384
10981SOL     OW43871   9.639   0.737   1.978
10981SOL    HW143872   9.735   0.761   1.965
10981SOL    HW243873   9.590   0.749   1.892
10982SOL     OW43874   2.071   4.775   2.883
10982SOL    HW143875   2.067   4.745   2.978
10982SOL    HW243876   2.146   4.840   2.871
10983SOL     OW43877   8.773   9.803   2.902
10983SOL    HW143878   8.685   9.834   2.936
10983SOL    HW243879   8.801   9.721   2.953
10984SOL     OW43880   0.595   6.754   5.246
10984SOL    HW143881   0.534   6.674   5.244
10984SOL    HW243882   0.541   6.837   5.235
10985SOL     OW43883   7.660   1.178   2.999
10985SOL    HW143884   7.690   1.160   2.906
10985SOL    HW243885   7.667   1.094   3.053
10986SOL     OW43886   9.060   0.865   3.372
10986SOL    HW143887   9.149   0.910   3.365
10986SOL    HW243888   8.996   0.909   3.309
10987SOL     OW43889   2.303   9.280   4.803
10987SOL    HW143890   2.208   9.290   4.833
10987SOL    HW243891   2.353   9.364   4.821
10988SOL     OW43892   7.105   2.510   1.516
10988SOL    HW143893   7.105   2.424   1.464
10988SOL    HW243894   7.198   2.533   1.542
10989SOL     OW43895   0.571   9.876   0.997
10989SOL    HW143896   0.506   9.831   1.058
10989SOL    HW243897   0.649   9.910   1.050
10990SOL     OW43898   2.171   8.074   2.505
10990SOL    HW143899   2.079   8.037   2.519
10990SOL    HW243900   2.204   8.049   2.414
10991SOL     OW43901   0.429   9.997   1.618
10991SOL    HW143902   0.485   0.073   1.652
10991SOL    HW243903   0.338   0.001   1.661
10992SOL     OW43904   1.395   3.851   3.768
10992SOL    HW143905   1.435   3.923   3.825
10992SOL    HW243906   1.433   3.856   3.676
10993SOL     OW43907   8.803   1.099   1.618
10993SOL    HW143908   8.771   1.187   1.652
10993SOL    HW243909   8.824   1.107   1.520
10994SOL     OW43910   6.027   9.395   4.883
10994SOL    HW143911   5.977   9.333   4.944
10994SOL    HW243912   5.964   9.464   4.847
10995SOL     OW43913   3.302   9.947   2.013
10995SOL    HW143914   3.293   9.854   1.979
10995SOL    HW243915   3.310   9.946   2.113
10996SOL     OW43916   1.327   5.120   2.189
10996SOL    HW143917   1.407   5.068   2.219
10996SOL    HW243918   1.307   5.193   2.255
10997SOL     OW43919   8.760   3.299   0.378
10997SOL    HW143920   8.785   3.226   0.442
10997SOL    HW243921   8.668   3.331   0.398
10998SOL     OW43922   3.391   3.502   0.109
10998SOL    HW143923   3.373   3.600   0.114
10998SOL    HW243924   3.305   3.451   0.117
10999SOL     OW43925   4.473   1.679   3.101
10999SOL    HW143926   4.496   1.699   3.196
10999SOL    HW243927   4.552   1.638   3.056
11000SOL     OW43928   8.431   2.959   3.604
11000SOL    HW143929   8.432   3.059   3.596
11000SOL    HW243930   8.433   2.933   3.700
11001SOL     OW43931   8.683   0.101   0.085
11001SOL    HW143932   8.614   0.167   0.054
11001SOL    HW243933   8.752   0.090   0.013
11002SOL     OW43934   2.396   6.657   3.368
11002SOL    HW143935   2.303   6.625   3.351
11002SOL    HW243936   2.447   6.657   3.282
11003SOL     OW43937   3.704   2.990   0.206
11003SOL    HW143938   3.746   2.911   0.251
11003SOL    HW243939   3.606   2.973   0.194
11004SOL     OW43940   2.909   0.693   1.515
11004SOL    HW143941   2.942   0.747   1.438
11004SOL    HW243942   2.885   0.601   1.485
11005SOL     OW43943   7.631   0.505   1.300
11005SOL    HW143944   7.625   0.603   1.282
11005SOL    HW243945   7.572   0.482   1.377
11006SOL     OW43946   1.169   0.021   1.912
11006SOL    HW143947   1.239   0.062   1.853
11006SOL    HW243948   1.211   9.991   1.997
11007SOL     OW43949   3.542   7.151   4.174
11007SOL    HW143950   3.533   7.239   4.128
11007SOL    HW243951   3.618   7.154   4.239
11008SOL     OW43952   3.917   6.539   2.768
11008SOL    HW143953   3.899   6.538   2.669
11008SOL    HW243954   3.968   6.622   2.792
11009SOL     OW43955   7.272   1.391   2.276
11009SOL    HW143956   7.368   1.406   2.255
11009SOL    HW243957   7.264   1.350   2.367
11010SOL     OW43958   7.332   1.805   3.913
11010SOL    HW143959   7.247   1.796   3.964
11010SOL    HW243960   7.402   1.845   3.972
11011SOL     OW43961   4.945   4.441   2.025
11011SOL    HW143962   4.882   4.480   2.092
11011SOL    HW243963   5.017   4.390   2.072
11012SOL     OW43964   6.844   2.344   4.044
11012SOL    HW143965   6.906   2.422   4.053
11012SOL    HW243966   6.819   2.310   4.135
11013SOL     OW43967   5.662   9.139   1.363
11013SOL    HW143968   5.647   9.049   1.403
11013SOL    HW243969   5.737   9.134   1.297
11014SOL     OW43970   9.010   8.274   2.034
11014SOL    HW143971   9.040   8.228   2.118
11014SOL    HW243972   9.081   8.266   1.964
11015SOL     OW43973   9.838   6.774   2.676
11015SOL    HW143974   9.866   6.689   2.722
11015SOL    HW243975   9.892   6.850   2.712
11016SOL     OW43976   3.783   6.590   3.111
11016SOL    HW143977   3.810   6.504   3.069
11016SOL    HW243978   3.705   6.629   3.061
11017SOL     OW43979   3.345   8.464   3.013
11017SOL    HW143980   3.275   8.534   3.025
11017SOL    HW243981   3.315   8.397   2.945
11018SOL     OW43982   7.434   4.001   1.054
11018SOL    HW143983   7.408   3.923   0.998
11018SOL    HW243984   7.515   4.045   1.015
11019SOL     OW43985   2.502   5.569   4.485
11019SOL    HW143986   2.581   5.507   4.489
11019SOL    HW243987   2.513   5.641   4.553
11020SOL     OW43988   7.393   0.903   2.137
11020SOL    HW143989   7.326   0.892   2.210
11020SOL    HW243990   7.387   0.825   2.075
11021SOL     OW43991   9.121   4.536   0.289
11021SOL    HW143992   9.117   4.549   0.388
11021SOL    HW243993   9.046   4.477   0.260
11022SOL     OW43994   8.595   7.240   0.526
11022SOL    HW143995   8.594   7.197   0.435
11022SOL    HW243996   8.653   7.321   0.524
11023SOL     OW43997   2.414   5.437   2.598
11023SOL    HW143998   2.337   5.411   2.540
11023SOL    HW243999   2.389   5.516   2.653
11024SOL     OW44000   0.543   4.712   3.247
11024SOL    HW144001   0.555   4.762   3.162
11024SOL    HW244002   0.464   4.749   3.297
11025SOL     OW44003   3.262   5.268   1.955
11025SOL    HW144004   3.322   5.226   1.887
11025SOL    HW244005   3.212   5.343   1.914
11026SOL     OW44006   2.338   2.929   3.854
11026SOL    HW144007   2.265   2.881   3.806
11026SOL    HW244008   2.351   3.019   3.814
11027SOL     OW44009   2.293   6.985   1.443
11027SOL    HW144010   2.340   6.897   1.432
11027SOL    HW244011   2.248   7.010   1.357
11028SOL     OW44012   3.343   2.826   1.185
11028SOL    HW144013   3.341   2.897   1.255
11028SOL    HW244014   3.433   2.782   1.185
11029SOL     OW44015   8.070   9.582   5.214
11029SOL    HW144016   8.047   9.486   5.228
11029SOL    HW244017   8.170   9.592   5.210
11030SOL     OW44018   7.198   3.635   1.920
11030SOL    HW144019   7.134   3.641   1.996
11030SOL    HW244020   7.240   3.724   1.903
11031SOL     OW44021   7.823   2.501   2.256
11031SOL    HW144022   7.860   2.490   2.348
11031SOL    HW244023   7.827   2.597   2.229
11032SOL     OW44024   1.994   6.302   0.844
11032SOL    HW144025   1.899   6.313   0.817
11032SOL    HW244026   2.034   6.223   0.798
11033SOL     OW44027   9.579   8.172   2.136
11033SOL    HW144028   9.564   8.212   2.226
11033SOL    HW244029   9.660   8.114   2.139
11034SOL     OW44030   2.607   3.972   1.115
11034SOL    HW144031   2.687   3.945   1.062
11034SOL    HW244032   2.619   4.065   1.149
11035SOL     OW44033   3.428   3.531   2.866
11035SOL    HW144034   3.397   3.438   2.846
11035SOL    HW244035   3.374   3.596   2.811
11036SOL     OW44036   0.881   2.552   1.818
11036SOL    HW144037   0.800   2.493   1.817
11036SOL    HW244038   0.882   2.610   1.736
11037SOL     OW44039   0.900   5.329   1.289
11037SOL    HW144040   0.933   5.406   1.342
11037SOL    HW244041   0.958   5.249   1.304
11038SOL     OW44042   6.696   0.994   4.934
11038SOL    HW144043   6.634   0.927   4.974
11038SOL    HW244044   6.733   1.053   5.005
11039SOL     OW44045   0.236   6.114   1.298
11039SOL    HW144046   0.292   6.142   1.220
11039SOL    HW244047   0.290   6.054   1.357
11040SOL     OW44048   9.556   0.855   3.998
11040SOL    HW144049   9.465   0.815   3.993
11040SOL    HW244050   9.613   0.815   3.926
11041SOL     OW44051   3.426   2.965   1.760
11041SOL    HW144052   3.474   3.037   1.810
11041SOL    HW244053   3.446   2.877   1.802
11042SOL     OW44054   0.879   5.783   0.984
11042SOL    HW144055   0.938   5.704   0.966
11042SOL    HW244056   0.803   5.783   0.920
11043SOL     OW44057   8.670   6.676   4.306
11043SOL    HW144058   8.590   6.636   4.261
11043SOL    HW244059   8.669   6.775   4.292
11044SOL     OW44060   7.614   9.469   2.480
11044SOL    HW144061   7.650   9.562   2.481
11044SOL    HW244062   7.690   9.404   2.488
11045SOL     OW44063   1.606   0.204   4.214
11045SOL    HW144064   1.525   0.177   4.162
11045SOL    HW244065   1.610   0.303   4.221
11046SOL     OW44066   0.739   1.637   1.273
11046SOL    HW144067   0.700   1.707   1.333
11046SOL    HW244068   0.838   1.650   1.267
11047SOL     OW44069   3.607   9.732   0.947
11047SOL    HW144070   3.615   9.792   0.868
11047SOL    HW244071   3.642   9.641   0.923
11048SOL     OW44072   8.184   6.088   3.442
11048SOL    HW144073   8.227   6.066   3.354
11048SOL    HW244074   8.087   6.107   3.427
11049SOL     OW44075   1.275   1.962   4.814
11049SOL    HW144076   1.340   2.031   4.844
11049SOL    HW244077   1.326   1.883   4.776
11050SOL     OW44078   3.499   0.908   4.252
11050SOL    HW144079   3.502   0.890   4.350
11050SOL    HW244080   3.520   1.005   4.235
11051SOL     OW44081   9.297   3.716   1.034
11051SOL    HW144082   9.371   3.692   1.096
11051SOL    HW244083   9.224   3.762   1.085
11052SOL     OW44084   0.577   6.848   0.431
11052SOL    HW144085   0.675   6.844   0.451
11052SOL    HW244086   0.542   6.755   0.423
11053SOL     OW44087   5.299   1.425   1.845
11053SOL    HW144088   5.337   1.511   1.811
11053SOL    HW244089   5.312   1.419   1.944
11054SOL     OW44090   3.397   6.063   3.639
11054SOL    HW144091   3.365   6.023   3.554
11054SOL    HW244092   3.378   6.001   3.715
11055SOL     OW44093   3.706   6.973   2.162
11055SOL    HW144094   3.785   7.002   2.108
11055SOL    HW244095   3.627   6.964   2.102
11056SOL     OW44096   4.261   6.137   1.112
11056SOL    HW144097   4.181   6.081   1.090
11056SOL    HW244098   4.235   6.211   1.173
11057SOL     OW44099   0.601   9.088   2.187
11057SOL    HW144100   0.540   9.167   2.178
11057SOL    HW244101   0.691   9.120   2.218
11058SOL     OW44102   8.880   7.412   5.045
11058SOL    HW144103   8.796   7.420   4.992
11058SOL    HW244104   8.937   7.339   5.007
11059SOL     OW44105   9.968   8.802   1.572
11059SOL    HW144106   0.006   8.785   1.662
11059SOL    HW244107   9.878   8.759   1.566
11060SOL     OW44108   2.644   8.970   4.517
11060SOL    HW144109   2.651   8.963   4.616
11060SOL    HW244110   2.608   8.885   4.479
11061SOL     OW44111   1.531   1.360   1.918
11061SOL    HW144112   1.490   1.319   1.836
11061SOL    HW244113   1.629   1.339   1.919
11062SOL     OW44114   0.174   4.755   3.145
11062SOL    HW144115   0.220   4.799   3.222
11062SOL    HW244116   0.085   4.797   3.130
11063SOL     OW44117   6.844   0.343   3.311
11063SOL    HW144118   6.776   0.362   3.382
11063SOL    HW244119   6.929   0.313   3.353
11064SOL     OW44120   0.224   4.442   1.032
11064SOL    HW144121   0.162   4.408   1.103
11064SOL    HW244122   0.190   4.416   0.942
11065SOL     OW44123   7.375   3.153   3.842
11065SOL    HW144124   7.397   3.163   3.745
11065SOL    HW244125   7.299   3.090   3.853
11066SOL     OW44126   1.172   6.324   3.178
11066SOL    HW144127   1.220   6.393   3.124
11066SOL    HW244128   1.082   6.359   3.205
11067SOL     OW44129   8.613   9.996   4.308
11067SOL    HW144130   8.618   0.085   4.352
11067SOL    HW244131   8.594   9.925   4.376
11068SOL     OW44132   9.173   7.724   4.759
11068SOL    HW144133   9.258   7.707   4.809
11068SOL    HW244134   9.166   7.821   4.738
11069SOL     OW44135   7.518   8.386   4.463
11069SOL    HW144136   7.456   8.461   4.436
11069SOL    HW244137   7.588   8.375   4.393
11070SOL     OW44138   6.857   4.905   0.299
11070SOL    HW144139   6.885   4.963   0.223
11070SOL    HW244140   6.759   4.916   0.315
11071SOL     OW44141   9.268   0.472   2.893
11071SOL    HW144142   9.232   0.422   2.814
11071SOL    HW244143   9.193   0.520   2.939
11072SOL     OW44144   2.483   2.278   0.087
11072SOL    HW144145   2.385   2.297   0.075
11072SOL    HW244146   2.524   2.350   0.143
11073SOL     OW44147   4.767   9.133   4.743
11073SOL    HW144148   4.795   9.056   4.801
11073SOL    HW244149   4.826   9.137   4.662
11074SOL     OW44150   8.405   3.759   2.643
11074SOL    HW144151   8.392   3.857   2.659
11074SOL    HW244152   8.489   3.744   2.592
11075SOL     OW44153   8.548   3.806   0.161
11075SOL    HW144154   8.588   3.737   0.100
11075SOL    HW244155   8.576   3.787   0.255
11076SOL     OW44156   5.615   1.645   4.467
11076SOL    HW144157   5.565   1.633   4.553
11076SOL    HW244158   5.632   1.742   4.451
11077SOL     OW44159   6.992   9.009   3.302
11077SOL    HW144160   6.931   8.949   3.249
11077SOL    HW244161   6.949   9.032   3.389
11078SOL     OW44162   8.287   6.123   1.078
11078SOL    HW144163   8.240   6.175   1.006
11078SOL    HW244164   8.268   6.026   1.066
11079SOL     OW44165   3.674   3.906   4.872
11079SOL    HW144166   3.731   3.859   4.939
11079SOL    HW244167   3.700   3.877   4.780
11080SOL     OW44168   2.225   8.027   2.233
11080SOL    HW144169   2.125   8.021   2.223
11080SOL    HW244170   2.254   8.122   2.223
11081SOL     OW44171   2.586   4.524   2.088
11081SOL    HW144172   2.627   4.592   2.149
11081SOL    HW244173   2.653   4.453   2.067
11082SOL     OW44174   2.148   7.388   3.559
11082SOL    HW144175   2.204   7.362   3.480
11082SOL    HW244176   2.082   7.315   3.578
11083SOL     OW44177   8.518   4.458   5.018
11083SOL    HW144178   8.479   4.396   4.950
11083SOL    HW244179   8.447   4.519   5.052
11084SOL     OW44180   9.000   2.721   2.101
11084SOL    HW144181   9.052   2.648   2.145
11084SOL    HW244182   8.982   2.793   2.167
11085SOL     OW44183   2.794   1.398   2.884
11085SOL    HW144184   2.742   1.323   2.842
11085SOL    HW244185   2.820   1.464   2.813
11086SOL     OW44186   0.692   0.821   3.114
11086SOL    HW144187   0.709   0.846   3.018
11086SOL    HW244188   0.639   0.736   3.118
11087SOL     OW44189   5.173   7.648   4.468
11087SOL    HW144190   5.262   7.651   4.514
11087SOL    HW244191   5.174   7.575   4.399
11088SOL     OW44192   9.137   2.677   4.597
11088SOL    HW144193   9.203   2.752   4.603
11088SOL    HW244194   9.152   2.613   4.672
11089SOL     OW44195   3.758   5.551   1.725
11089SOL    HW144196   3.702   5.474   1.694
11089SOL    HW244197   3.706   5.605   1.792
11090SOL     OW44198   2.708   1.665   4.672
11090SOL    HW144199   2.660   1.663   4.584
11090SOL    HW244200   2.716   1.759   4.703
11091SOL     OW44201   2.057   8.224   1.415
11091SOL    HW144202   2.002   8.250   1.494
11091SOL    HW244203   2.140   8.279   1.413
11092SOL     OW44204   9.899   2.908   4.020
11092SOL    HW144205   9.953   2.992   4.028
11092SOL    HW244206   9.808   2.931   3.984
11093SOL     OW44207   6.590   7.806   5.107
11093SOL    HW144208   6.553   7.720   5.141
11093SOL    HW244209   6.674   7.789   5.057
11094SOL     OW44210   4.067   4.035   4.369
11094SOL    HW144211   3.988   4.020   4.429
11094SOL    HW244212   4.042   4.013   4.275
11095SOL     OW44213   0.680   5.335   1.970
11095SOL    HW144214   0.659   5.239   1.988
11095SOL    HW244215   0.604   5.391   2.002
11096SOL     OW44216   7.868   4.669   0.265
11096SOL    HW144217   7.769   4.673   0.270
11096SOL    HW244218   7.904   4.760   0.243
11097SOL     OW44219   2.650   6.991   3.803
11097SOL    HW144220   2.572   7.044   3.768
11097SOL    HW244221   2.695   7.043   3.876
11098SOL     OW44222   3.860   5.621   2.892
11098SOL    HW144223   3.857   5.710   2.847
11098SOL    HW244224   3.821   5.551   2.832
11099SOL     OW44225   0.157   0.253   1.610
11099SOL    HW144226   0.151   0.348   1.643
11099SOL    HW244227   0.190   0.194   1.684
11100SOL     OW44228   8.539   9.648   5.015
11100SOL    HW144229   8.625   9.598   4.999
11100SOL    HW244230   8.543   9.736   4.969
11101SOL     OW44231   3.992   8.908   0.825
11101SOL    HW144232   4.003   9.003   0.793
11101SOL    HW244233   4.004   8.904   0.924
11102SOL     OW44234   3.069   9.983   2.645
11102SOL    HW144235   3.077   9.979   2.546
11102SOL    HW244236   3.021   9.901   2.678
11103SOL     OW44237   3.005   9.130   5.072
11103SOL    HW144238   3.084   9.104   5.126
11103SOL    HW244239   3.025   9.214   5.021
11104SOL     OW44240   2.477   2.728   4.505
11104SOL    HW144241   2.571   2.733   4.471
11104SOL    HW244242   2.473   2.772   4.595
11105SOL     OW44243   9.842   5.321   4.579
11105SOL    HW144244   9.885   5.382   4.512
11105SOL    HW244245   9.891   5.234   4.581
11106SOL     OW44246   9.141   0.891   3.027
11106SOL    HW144247   9.230   0.916   2.991
11106SOL    HW244248   9.094   0.972   3.062
11107SOL     OW44249   7.582   3.005   1.716
11107SOL    HW144250   7.523   3.042   1.788
11107SOL    HW244251   7.603   3.077   1.649
11108SOL     OW44252   0.881   8.051   2.277
11108SOL    HW144253   0.809   7.982   2.280
11108SOL    HW244254   0.910   8.073   2.370
11109SOL     OW44255   8.625   3.565   0.641
11109SOL    HW144256   8.648   3.485   0.698
11109SOL    HW244257   8.528   3.560   0.615
11110SOL     OW44258   2.370   0.810   3.765
11110SOL    HW144259   2.333   0.900   3.742
11110SOL    HW244260   2.300   0.740   3.754
11111SOL     OW44261   5.164   7.296   2.414
11111SOL    HW144262   5.243   7.357   2.421
11111SOL    HW244263   5.121   7.287   2.504
11112SOL     OW44264   1.670   4.486   3.458
11112SOL    HW144265   1.579   4.511   3.489
11112SOL    HW244266   1.702   4.405   3.507
11113SOL     OW44267   3.536   3.172   0.939
11113SOL    HW144268   3.553   3.101   0.870
11113SOL    HW244269   3.567   3.139   1.028
11114SOL     OW44270   2.223   4.757   2.056
11114SOL    HW144271   2.251   4.824   2.125
11114SOL    HW244272   2.231   4.798   1.965
11115SOL     OW44273   7.474   0.451   1.520
11115SOL    HW144274   7.385   0.414   1.492
11115SOL    HW244275   7.464   0.503   1.604
11116SOL     OW44276   5.037   2.607   3.484
11116SOL    HW144277   4.994   2.635   3.399
11116SOL    HW244278   5.114   2.667   3.505
11117SOL     OW44279   8.407   0.114   0.712
11117SOL    HW144280   8.400   0.104   0.613
11117SOL    HW244281   8.493   0.074   0.744
11118SOL     OW44282   1.805   2.661   1.743
11118SOL    HW144283   1.903   2.671   1.761
11118SOL    HW244284   1.764   2.603   1.813
11119SOL     OW44285   8.662   9.895   0.496
11119SOL    HW144286   8.684   9.886   0.399
11119SOL    HW244287   8.565   9.873   0.511
11120SOL     OW44288   8.264   0.169   1.726
11120SOL    HW144289   8.299   0.262   1.712
11120SOL    HW244290   8.189   0.170   1.791
11121SOL     OW44291   9.431   5.197   2.232
11121SOL    HW144292   9.400   5.263   2.300
11121SOL    HW244293   9.442   5.107   2.275
11122SOL     OW44294   8.701   7.965   2.036
11122SOL    HW144295   8.659   7.875   2.044
11122SOL    HW244296   8.689   8.000   1.943
11123SOL     OW44297   5.924   9.361   2.107
11123SOL    HW144298   5.890   9.273   2.072
11123SOL    HW244299   6.019   9.351   2.136
11124SOL     OW44300   2.383   4.497   0.672
11124SOL    HW144301   2.451   4.569   0.660
11124SOL    HW244302   2.363   4.485   0.769
11125SOL     OW44303   6.796   1.183   3.426
11125SOL    HW144304   6.891   1.209   3.441
11125SOL    HW244305   6.780   1.170   3.328
11126SOL     OW44306   0.328   8.195   4.479
11126SOL    HW144307   0.423   8.204   4.509
11126SOL    HW244308   0.311   8.101   4.449
11127SOL     OW44309   8.740   6.381   0.631
11127SOL    HW144310   8.741   6.281   0.620
11127SOL    HW244311   8.828   6.418   0.602
11128SOL     OW44312   1.051   5.359   2.826
11128SOL    HW144313   1.102   5.374   2.741
11128SOL    HW244314   1.051   5.261   2.848
11129SOL     OW44315   4.047   0.471   3.268
11129SOL    HW144316   4.073   0.563   3.298
11129SOL    HW244317   3.948   0.468   3.251
11130SOL     OW44318   9.217   3.446   0.111
11130SOL    HW144319   9.253   3.480   0.197
11130SOL    HW244320   9.131   3.399   0.127
11131SOL     OW44321   8.709   6.346   3.591
11131SOL    HW144322   8.743   6.256   3.619
11131SOL    HW244323   8.610   6.342   3.581
11132SOL     OW44324   9.763   4.292   1.651
11132SOL    HW144325   9.794   4.199   1.632
11132SOL    HW244326   9.834   4.341   1.701
11133SOL     OW44327   0.201   2.086   2.323
11133SOL    HW144328   0.208   2.178   2.359
11133SOL    HW244329   0.105   2.059   2.318
11134SOL     OW44330   6.222   1.347   2.277
11134SOL    HW144331   6.289   1.287   2.322
11134SOL    HW244332   6.146   1.363   2.340
11135SOL     OW44333   2.650   3.411   3.193
11135SOL    HW144334   2.654   3.333   3.256
11135SOL    HW244335   2.699   3.488   3.233
11136SOL     OW44336   8.681   2.604   1.128
11136SOL    HW144337   8.673   2.670   1.203
11136SOL    HW244338   8.591   2.587   1.088
11137SOL     OW44339   3.682   2.132   2.927
11137SOL    HW144340   3.731   2.110   3.012
11137SOL    HW244341   3.584   2.119   2.941
11138SOL     OW44342   7.833   2.994   2.079
11138SOL    HW144343   7.923   2.994   2.035
11138SOL    HW244344   7.803   3.089   2.092
11139SOL     OW44345   8.957   7.944   5.090
11139SOL    HW144346   9.056   7.948   5.075
11139SOL    HW244347   8.914   7.887   5.020
11140SOL     OW44348   0.588   1.480   1.898
11140SOL    HW144349   0.541   1.538   1.965
11140SOL    HW244350   0.687   1.493   1.907
11141SOL     OW44351   2.738   7.329   1.981
11141SOL    HW144352   2.821   7.288   1.943
11141SOL    HW244353   2.689   7.378   1.909
11142SOL     OW44354   9.565   2.923   0.390
11142SOL    HW144355   9.661   2.950   0.397
11142SOL    HW244356   9.512   2.998   0.350
11143SOL     OW44357   2.524   7.938   1.181
11143SOL    HW144358   2.484   8.019   1.222
11143SOL    HW244359   2.477   7.917   1.095
11144SOL     OW44360   5.351   5.676   1.599
11144SOL    HW144361   5.308   5.715   1.680
11144SOL    HW244362   5.356   5.745   1.527
11145SOL     OW44363   3.532   8.729   4.034
11145SOL    HW144364   3.463   8.677   4.085
11145SOL    HW244365   3.601   8.764   4.098
11146SOL     OW44366   9.699   6.618   2.976
11146SOL    HW144367   9.743   6.699   3.014
11146SOL    HW244368   9.760   6.576   2.909
11147SOL     OW44369   3.825   7.214   3.851
11147SOL    HW144370   3.874   7.301   3.846
11147SOL    HW244371   3.728   7.228   3.832
11148SOL     OW44372   5.486   1.006   0.842
11148SOL    HW144373   5.467   1.049   0.930
11148SOL    HW244374   5.572   0.957   0.847
11149SOL     OW44375   2.082   0.060   1.653
11149SOL    HW144376   2.066   0.083   1.749
11149SOL    HW244377   1.999   0.017   1.615
11150SOL     OW44378   1.651   6.497   2.980
11150SOL    HW144379   1.726   6.449   2.934
11150SOL    HW244380   1.569   6.493   2.922
11151SOL     OW44381   7.142   0.538   3.782
11151SOL    HW144382   7.168   0.588   3.865
11151SOL    HW244383   7.085   0.596   3.725
11152SOL     OW44384   0.580   9.829   1.934
11152SOL    HW144385   0.568   9.797   1.840
11152SOL    HW244386   0.517   9.780   1.994
11153SOL     OW44387   3.929   8.847   3.172
11153SOL    HW144388   4.002   8.868   3.236
11153SOL    HW244389   3.899   8.931   3.127
11154SOL     OW44390   1.575   0.161   5.307
11154SOL    HW144391   1.513   0.207   5.243
11154SOL    HW244392   1.590   0.067   5.276
11155SOL     OW44393   1.968   9.230   2.005
11155SOL    HW144394   1.957   9.328   1.986
11155SOL    HW244395   2.049   9.215   2.061
11156SOL     OW44396   2.928   1.706   0.897
11156SOL    HW144397   3.008   1.758   0.866
11156SOL    HW244398   2.857   1.769   0.926
11157SOL     OW44399   1.482   5.435   1.613
11157SOL    HW144400   1.439   5.513   1.567
11157SOL    HW244401   1.581   5.446   1.611
11158SOL     OW44402   1.927   3.794   2.681
11158SOL    HW144403   1.951   3.862   2.612
11158SOL    HW244404   1.912   3.840   2.769
11159SOL     OW44405   4.491   2.940   1.792
11159SOL    HW144406   4.406   2.990   1.774
11159SOL    HW244407   4.539   2.982   1.869
11160SOL     OW44408   2.024   4.214   4.401
11160SOL    HW144409   2.080   4.134   4.424
11160SOL    HW244410   1.928   4.187   4.393
11161SOL     OW44411   2.731   9.025   1.812
11161SOL    HW144412   2.813   9.082   1.811
11161SOL    HW244413   2.655   9.077   1.851
11162SOL     OW44414   0.008   8.766   0.423
11162SOL    HW144415   0.108   8.772   0.415
11162SOL    HW244416   9.985   8.720   0.509
11163SOL     OW44417   2.467   9.547   1.329
11163SOL    HW144418   2.370   9.565   1.317
11163SOL    HW244419   2.506   9.611   1.395
11164SOL     OW44420   4.103   6.220   1.565
11164SOL    HW144421   4.070   6.308   1.600
11164SOL    HW244422   4.044   6.190   1.490
11165SOL     OW44423   8.525   4.364   0.617
11165SOL    HW144424   8.532   4.431   0.691
11165SOL    HW244425   8.433   4.327   0.613
11166SOL     OW44426   3.101   8.522   4.216
11166SOL    HW144427   3.093   8.445   4.152
11166SOL    HW244428   3.055   8.602   4.179
11167SOL     OW44429   3.116   1.057   0.184
11167SOL    HW144430   3.067   1.138   0.152
11167SOL    HW244431   3.200   1.085   0.229
11168SOL     OW44432   1.498   5.521   0.395
11168SOL    HW144433   1.519   5.546   0.301
11168SOL    HW244434   1.573   5.548   0.455
11169SOL     OW44435   9.777   9.226   0.358
11169SOL    HW144436   9.711   9.289   0.399
11169SOL    HW244437   9.739   9.134   0.357
11170SOL     OW44438   9.066   5.832   0.240
11170SOL    HW144439   9.134   5.772   0.281
11170SOL    HW244440   9.062   5.816   0.141
11171SOL     OW44441   4.407   5.826   1.934
11171SOL    HW144442   4.341   5.767   1.980
11171SOL    HW244443   4.368   5.917   1.924
11172SOL     OW44444   2.580   7.882   2.527
11172SOL    HW144445   2.616   7.969   2.561
11172SOL    HW244446   2.551   7.892   2.432
11173SOL     OW44447   7.089   3.701   1.374
11173SOL    HW144448   7.076   3.772   1.443
11173SOL    HW244449   7.060   3.736   1.285
11174SOL     OW44450   7.326   1.445   5.068
11174SOL    HW144451   7.407   1.497   5.042
11174SOL    HW244452   7.245   1.485   5.026
11175SOL     OW44453   2.889   8.994   4.382
11175SOL    HW144454   2.800   9.008   4.426
11175SOL    HW244455   2.926   8.905   4.408
11176SOL     OW44456   9.492   0.462   0.174
11176SOL    HW144457   9.423   0.527   0.142
11176SOL    HW244458   9.471   0.371   0.136
11177SOL     OW44459   5.297   9.573   3.684
11177SOL    HW144460   5.364   9.530   3.624
11177SOL    HW244461   5.270   9.662   3.646
11178SOL     OW44462   0.497   9.549   2.313
11178SOL    HW144463   0.592   9.572   2.335
11178SOL    HW244464   0.440   9.559   2.395
11179SOL     OW44465   7.215   8.569   5.209
11179SOL    HW144466   7.161   8.650   5.189
11179SOL    HW244467   7.153   8.492   5.228
11180SOL     OW44468   3.849   0.712   4.866
11180SOL    HW144469   3.756   0.749   4.861
11180SOL    HW244470   3.908   0.775   4.917
11181SOL     OW44471   7.365   2.107   2.649
11181SOL    HW144472   7.334   2.026   2.698
11181SOL    HW244473   7.334   2.104   2.554
11182SOL     OW44474   7.398   8.896   2.517
11182SOL    HW144475   7.334   8.949   2.461
11182SOL    HW244476   7.478   8.951   2.538
11183SOL     OW44477   7.879   4.168   1.881
11183SOL    HW144478   7.861   4.197   1.787
11183SOL    HW244479   7.859   4.242   1.944
11184SOL     OW44480   3.082   1.026   0.598
11184SOL    HW144481   3.038   1.038   0.687
11184SOL    HW244482   3.109   0.931   0.586
11185SOL     OW44483   8.978   9.975   1.936
11185SOL    HW144484   9.053   9.970   2.002
11185SOL    HW244485   8.912   0.043   1.967
11186SOL     OW44486   1.901   3.749   0.235
11186SOL    HW144487   1.968   3.694   0.286
11186SOL    HW244488   1.875   3.829   0.289
11187SOL     OW44489   3.070   8.145   3.562
11187SOL    HW144490   3.055   8.098   3.475
11187SOL    HW244491   3.156   8.195   3.558
11188SOL     OW44492   8.006   5.778   4.375
11188SOL    HW144493   7.953   5.847   4.327
11188SOL    HW244494   8.095   5.767   4.331
11189SOL     OW44495   3.702   1.716   0.568
11189SOL    HW144496   3.625   1.777   0.586
11189SOL    HW244497   3.766   1.760   0.506
11190SOL     OW44498   0.248   3.491   2.749
11190SOL    HW144499   0.254   3.394   2.724
11190SOL    HW244500   0.179   3.536   2.692
11191SOL     OW44501   9.996   3.266   3.475
11191SOL    HW144502   9.959   3.246   3.566
11191SOL    HW244503   0.085   3.221   3.466
11192SOL     OW44504   3.193   6.696   2.329
11192SOL    HW144505   3.245   6.672   2.411
11192SOL    HW244506   3.104   6.733   2.355
11193SOL     OW44507   6.492   8.713   3.823
11193SOL    HW144508   6.436   8.784   3.866
11193SOL    HW244509   6.558   8.678   3.889
11194SOL     OW44510   8.324   8.887   2.715
11194SOL    HW144511   8.347   8.798   2.677
11194SOL    HW244512   8.256   8.931   2.656
11195SOL     OW44513   0.594   7.803   3.838
11195SOL    HW144514   0.648   7.849   3.768
11195SOL    HW244515   0.528   7.741   3.794
11196SOL     OW44516   2.509   4.889   2.560
11196SOL    HW144517   2.601   4.870   2.525
11196SOL    HW244518   2.493   4.836   2.643
11197SOL     OW44519   2.955   9.460   4.702
11197SOL    HW144520   2.874   9.409   4.674
11197SOL    HW244521   2.931   9.557   4.712
11198SOL     OW44522   2.407   3.068   2.202
11198SOL    HW144523   2.392   3.050   2.299
11198SOL    HW244524   2.500   3.038   2.177
11199SOL     OW44525   0.888   1.665   3.466
11199SOL    HW144526   0.933   1.588   3.511
11199SOL    HW244527   0.956   1.730   3.435
11200SOL     OW44528   4.148   1.720   4.511
11200SOL    HW144529   4.148   1.651   4.584
11200SOL    HW244530   4.240   1.758   4.502
11201SOL     OW44531   6.245   0.225   4.215
11201SOL    HW144532   6.305   0.303   4.230
11201SOL    HW244533   6.290   0.159   4.155
11202SOL     OW44534   5.588   1.106   1.849
11202SOL    HW144535   5.502   1.129   1.803
11202SOL    HW244536   5.567   1.069   1.940
11203SOL     OW44537   6.415   0.460   2.063
11203SOL    HW144538   6.350   0.399   2.109
11203SOL    HW244539   6.391   0.555   2.084
11204SOL     OW44540   9.504   2.611   2.192
11204SOL    HW144541   9.424   2.612   2.132
11204SOL    HW244542   9.494   2.683   2.261
11205SOL     OW44543   6.432   0.147   2.268
11205SOL    HW144544   6.402   0.078   2.334
11205SOL    HW244545   6.421   0.238   2.308
11206SOL     OW44546   6.845   0.722   0.623
11206SOL    HW144547   6.747   0.711   0.604
11206SOL    HW244548   6.897   0.702   0.540
11207SOL     OW44549   9.050   2.279   3.121
11207SOL    HW144550   9.031   2.249   3.027
11207SOL    HW244551   9.071   2.377   3.120
11208SOL     OW44552   9.926   6.457   0.219
11208SOL    HW144553   9.970   6.380   0.265
11208SOL    HW244554   9.965   6.469   0.128
11209SOL     OW44555   2.810   1.311   1.737
11209SOL    HW144556   2.727   1.259   1.716
11209SOL    HW244557   2.812   1.395   1.684
11210SOL     OW44558   3.945   8.368   1.482
11210SOL    HW144559   3.850   8.362   1.450
11210SOL    HW244560   4.006   8.337   1.409
11211SOL     OW44561   9.390   4.563   0.803
11211SOL    HW144562   9.339   4.648   0.786
11211SOL    HW244563   9.329   4.496   0.844
11212SOL     OW44564   8.259   2.439   4.910
11212SOL    HW144565   8.223   2.463   4.820
11212SOL    HW244566   8.184   2.405   4.968
11213SOL     OW44567   0.606   4.026   2.399
11213SOL    HW144568   0.552   3.944   2.416
11213SOL    HW244569   0.636   4.065   2.486
11214SOL     OW44570   6.977   4.011   0.838
11214SOL    HW144571   6.995   4.047   0.929
11214SOL    HW244572   7.037   4.055   0.772
11215SOL     OW44573   4.156   8.113   3.940
11215SOL    HW144574   4.205   8.125   3.853
11215SOL    HW244575   4.125   8.202   3.972
11216SOL     OW44576   8.196   0.346   3.575
11216SOL    HW144577   8.127   0.416   3.591
11216SOL    HW244578   8.204   0.288   3.656
11217SOL     OW44579   6.620   9.713   4.917
11217SOL    HW144580   6.633   9.793   4.976
11217SOL    HW244581   6.679   9.639   4.949
11218SOL     OW44582   4.510   4.980   0.596
11218SOL    HW144583   4.476   4.956   0.687
11218SOL    HW244584   4.562   5.065   0.601
11219SOL     OW44585   4.739   0.065   4.102
11219SOL    HW144586   4.640   0.049   4.097
11219SOL    HW244587   4.787   9.996   4.048
11220SOL     OW44588   4.810   6.936   1.836
11220SOL    HW144589   4.886   6.925   1.772
11220SOL    HW244590   4.845   6.964   1.926
11221SOL     OW44591   3.775   1.308   5.258
11221SOL    HW144592   3.763   1.322   5.356
11221SOL    HW244593   3.718   1.231   5.228
11222SOL     OW44594   1.491   3.317   4.559
11222SOL    HW144595   1.442   3.378   4.496
11222SOL    HW244596   1.440   3.231   4.567
11223SOL     OW44597   3.595   4.926   2.430
11223SOL    HW144598   3.566   4.950   2.337
11223SOL    HW244599   3.536   4.852   2.464
11224SOL     OW44600   3.074   7.241   0.434
11224SOL    HW144601   2.989   7.291   0.419
11224SOL    HW244602   3.145   7.304   0.467
11225SOL     OW44603   1.383   0.384   3.956
11225SOL    HW144604   1.378   0.425   4.047
11225SOL    HW244605   1.477   0.386   3.923
11226SOL     OW44606   7.676   6.450   3.237
11226SOL    HW144607   7.716   6.510   3.306
11226SOL    HW244608   7.697   6.485   3.146
11227SOL     OW44609   7.408   2.462   3.728
11227SOL    HW144610   7.506   2.457   3.746
11227SOL    HW244611   7.378   2.377   3.684
11228SOL     OW44612   1.843   9.210   0.757
11228SOL    HW144613   1.766   9.271   0.735
11228SOL    HW244614   1.832   9.174   0.850
11229SOL     OW44615   8.207   1.412   5.241
11229SOL    HW144616   8.139   1.377   5.177
11229SOL    HW244617   8.182   1.384   5.334
11230SOL     OW44618   0.903   7.417   0.867
11230SOL    HW144619   0.815   7.436   0.823
11230SOL    HW244620   0.967   7.491   0.845
11231SOL     OW44621   2.516   2.058   1.746
11231SOL    HW144622   2.615   2.042   1.751
11231SOL    HW244623   2.496   2.113   1.665
11232SOL     OW44624   1.113   1.818   3.423
11232SOL    HW144625   1.207   1.801   3.394
11232SOL    HW244626   1.111   1.901   3.479
11233SOL     OW44627   6.954   0.976   0.348
11233SOL    HW144628   7.017   1.041   0.307
11233SOL    HW244629   6.876   0.961   0.287
11234SOL     OW44630   3.178   5.199   4.198
11234SOL    HW144631   3.143   5.216   4.106
11234SOL    HW244632   3.224   5.110   4.200
11235SOL     OW44633   9.545   9.131   4.342
11235SOL    HW144634   9.468   9.164   4.286
11235SOL    HW244635   9.609   9.206   4.357
11236SOL     OW44636   4.766   2.117   2.337
11236SOL    HW144637   4.792   2.141   2.430
11236SOL    HW244638   4.672   2.147   2.320
11237SOL     OW44639   8.100   1.853   1.452
11237SOL    HW144640   8.088   1.754   1.450
11237SOL    HW244641   8.059   1.893   1.369
11238SOL     OW44642   5.322   0.357   4.600
11238SOL    HW144643   5.366   0.438   4.562
11238SOL    HW244644   5.224   0.374   4.609
11239SOL     OW44645   4.782   1.865   4.037
11239SOL    HW144646   4.856   1.932   4.026
11239SOL    HW244647   4.699   1.899   3.992
11240SOL     OW44648   9.785   4.234   0.646
11240SOL    HW144649   9.881   4.237   0.617
11240SOL    HW244650   9.739   4.158   0.600
11241SOL     OW44651   3.311   3.362   5.173
11241SOL    HW144652   3.335   3.438   5.234
11241SOL    HW244653   3.264   3.291   5.225
11242SOL     OW44654   0.559   9.645   6.723
11242SOL    HW144655   0.523   9.689   6.640
11242SOL    HW244656   0.486   9.635   0.042
11243SOL     OW44657   3.828   7.886   1.500
11243SOL    HW144658   3.753   7.930   1.450
11243SOL    HW244659   3.866   7.813   1.444
11244SOL     OW44660   2.759   3.110   3.735
11244SOL    HW144661   2.856   3.097   3.712
11244SOL    HW244662   2.751   3.143   3.829
11245SOL     OW44663   3.966   0.817   4.260
11245SOL    HW144664   3.926   0.772   4.340
11245SOL    HW244665   3.945   0.764   4.178
11246SOL     OW44666   5.797   9.739   3.084
11246SOL    HW144667   5.754   9.650   3.097
11246SOL    HW244668   5.894   9.726   3.064
11247SOL     OW44669   7.875   2.217   3.793
11247SOL    HW144670   7.776   2.220   3.810
11247SOL    HW244671   7.916   2.146   3.851
11248SOL     OW44672   7.478   0.287   5.085
11248SOL    HW144673   7.523   0.311   4.999
11248SOL    HW244674   7.545   0.243   5.146
11249SOL     OW44675   8.277   5.077   4.898
11249SOL    HW144676   8.287   5.132   4.815
11249SOL    HW244677   8.196   5.108   4.948
11250SOL     OW44678   3.132   7.067   1.437
11250SOL    HW144679   3.164   7.144   1.492
11250SOL    HW244680   3.039   7.042   1.465
11251SOL     OW44681   2.934   9.211   1.833
11251SOL    HW144682   2.925   9.303   1.796
11251SOL    HW244683   3.019   9.169   1.801
11252SOL     OW44684   2.590   9.912   1.981
11252SOL    HW144685   2.639   9.997   1.965
11252SOL    HW244686   2.508   9.909   1.924
11253SOL     OW44687   4.182   1.376   3.808
11253SOL    HW144688   4.236   1.438   3.865
11253SOL    HW244689   4.085   1.391   3.826
11254SOL     OW44690   7.886   1.348   4.660
11254SOL    HW144691   7.795   1.311   4.675
11254SOL    HW244692   7.953   1.294   4.711
11255SOL     OW44693   0.304   7.573   2.407
11255SOL    HW144694   0.250   7.558   2.490
11255SOL    HW244695   0.254   7.538   2.328
11256SOL     OW44696   4.483   7.497   3.517
11256SOL    HW144697   4.476   7.495   3.617
11256SOL    HW244698   4.568   7.453   3.488
11257SOL     OW44699   8.764   7.275   3.568
11257SOL    HW144700   8.711   7.226   3.638
11257SOL    HW244701   8.712   7.355   3.537
11258SOL     OW44702   4.855   5.039   1.784
11258SOL    HW144703   4.827   5.050   1.689
11258SOL    HW244704   4.824   4.950   1.817
11259SOL     OW44705   8.226   1.721   2.999
11259SOL    HW144706   8.179   1.773   2.927
11259SOL    HW244707   8.211   1.766   3.087
11260SOL     OW44708   2.181   2.565   2.548
11260SOL    HW144709   2.243   2.642   2.539
11260SOL    HW244710   2.163   2.549   2.646
11261SOL     OW44711   4.258   1.243   2.702
11261SOL    HW144712   4.287   1.169   2.642
11261SOL    HW244713   4.300   1.329   2.671
11262SOL     OW44714   4.314   0.668   1.315
11262SOL    HW144715   4.413   0.653   1.309
11262SOL    HW244716   4.271   0.592   1.362
11263SOL     OW44717   2.353   6.059   2.463
11263SOL    HW144718   2.401   5.988   2.515
11263SOL    HW244719   2.359   6.146   2.511
11264SOL     OW44720   5.193   4.006   1.477
11264SOL    HW144721   5.154   4.015   1.568
11264SOL    HW244722   5.208   4.098   1.438
11265SOL     OW44723   4.207   6.882   3.749
11265SOL    HW144724   4.210   6.798   3.695
11265SOL    HW244725   4.136   6.942   3.712
11266SOL     OW44726   8.718   4.023   0.444
11266SOL    HW144727   8.707   3.924   0.451
11266SOL    HW244728   8.708   4.065   0.534
11267SOL     OW44729   9.884   2.725   2.413
11267SOL    HW144730   9.919   2.634   2.390
11267SOL    HW244731   9.797   2.716   2.463
11268SOL     OW44732   1.771   5.958   3.696
11268SOL    HW144733   1.741   5.866   3.722
11268SOL    HW244734   1.826   5.996   3.769
11269SOL     OW44735   4.933   9.962   2.434
11269SOL    HW144736   5.029   9.935   2.431
11269SOL    HW244737   4.900   9.982   2.342
11270SOL     OW44738   8.161   3.355   4.901
11270SOL    HW144739   8.147   3.431   4.837
11270SOL    HW244740   8.142   3.269   4.855
11271SOL     OW44741   9.863   2.960   2.651
11271SOL    HW144742   9.961   2.938   2.648
11271SOL    HW244743   9.817   2.896   2.713
11272SOL     OW44744   1.008   5.296   3.947
11272SOL    HW144745   1.009   5.377   3.888
11272SOL    HW244746   1.068   5.312   4.026
11273SOL     OW44747   0.542   9.252   4.879
11273SOL    HW144748   0.473   9.247   4.951
11273SOL    HW244749   0.543   9.344   4.840
11274SOL     OW44750   1.303   1.311   1.237
11274SOL    HW144751   1.386   1.351   1.277
11274SOL    HW244752   1.223   1.347   1.286
11275SOL     OW44753   0.338   0.342   4.198
11275SOL    HW144754   0.407   0.287   4.153
11275SOL    HW244755   0.254   0.342   4.144
11276SOL     OW44756   7.302   9.221   1.865
11276SOL    HW144757   7.243   9.141   1.850
11276SOL    HW244758   7.320   9.267   1.778
11277SOL     OW44759   1.135   7.922   2.621
11277SOL    HW144760   1.072   7.985   2.577
11277SOL    HW244761   1.084   7.845   2.659
11278SOL     OW44762   1.172   4.491   0.111
11278SOL    HW144763   1.148   4.586   0.091
11278SOL    HW244764   1.110   4.456   0.182
11279SOL     OW44765   4.200   4.420   4.726
11279SOL    HW144766   4.245   4.507   4.745
11279SOL    HW244767   4.128   4.433   4.658
11280SOL     OW44768   1.651   7.622   1.746
11280SOL    HW144769   1.690   7.701   1.793
11280SOL    HW244770   1.688   7.616   1.653
11281SOL     OW44771   8.077   4.666   5.062
11281SOL    HW144772   8.171   4.649   5.093
11281SOL    HW244773   8.065   4.630   4.970
11282SOL     OW44774   2.351   4.915   3.374
11282SOL    HW144775   2.263   4.906   3.421
11282SOL    HW244776   2.401   4.993   3.411
11283SOL     OW44777   0.686   0.217   2.825
11283SOL    HW144778   0.660   0.172   2.910
11283SOL    HW244779   0.624   0.293   2.807
11284SOL     OW44780   9.114   0.153   1.135
11284SOL    HW144781   9.121   0.218   1.210
11284SOL    HW244782   9.022   0.115   1.132
11285SOL     OW44783   7.751   2.568   4.774
11285SOL    HW144784   7.828   2.629   4.758
11285SOL    HW244785   7.673   2.621   4.807
11286SOL     OW44786   3.051   0.803   0.262
11286SOL    HW144787   3.066   0.895   0.226
11286SOL    HW244788   3.091   0.796   0.354
11287SOL     OW44789   1.778   7.081   2.774
11287SOL    HW144790   1.696   7.122   2.814
11287SOL    HW244791   1.817   7.144   2.706
11288SOL     OW44792   3.718   4.901   4.259
11288SOL    HW144793   3.694   4.988   4.302
11288SOL    HW244794   3.687   4.901   4.164
11289SOL     OW44795   6.377   0.546   0.615
11289SOL    HW144796   6.290   0.544   0.567
11289SOL    HW244797   6.363   0.525   0.712
11290SOL     OW44798   1.251   8.447   3.054
11290SOL    HW144799   1.267   8.471   2.958
11290SOL    HW244800   1.330   8.475   3.109
11291SOL     OW44801   2.636   3.818   3.429
11291SOL    HW144802   2.568   3.783   3.493
11291SOL    HW244803   2.591   3.849   3.345
11292SOL     OW44804   0.049   5.211   5.011
11292SOL    HW144805   9.989   5.167   5.078
11292SOL    HW244806   9.995   5.273   4.954
11293SOL     OW44807   7.974   8.240   3.250
11293SOL    HW144808   7.931   8.322   3.288
11293SOL    HW244809   7.972   8.167   3.318
11294SOL     OW44810   2.250   6.305   3.244
11294SOL    HW144811   2.193   6.235   3.286
11294SOL    HW244812   2.218   6.396   3.272
11295SOL     OW44813   6.649   1.132   0.073
11295SOL    HW144814   6.685   1.059   0.132
11295SOL    HW244815   6.649   1.218   0.123
11296SOL     OW44816   1.575   5.451   5.083
11296SOL    HW144817   1.590   5.511   5.005
11296SOL    HW244818   1.477   5.433   5.093
11297SOL     OW44819   6.111   1.549   2.896
11297SOL    HW144820   6.013   1.558   2.912
11297SOL    HW244821   6.128   1.534   2.798
11298SOL     OW44822   9.599   8.674   0.454
11298SOL    HW144823   9.623   8.729   0.534
11298SOL    HW244824   9.682   8.636   0.413
11299SOL     OW44825   1.437   7.955   1.540
11299SOL    HW144826   1.525   7.916   1.515
11299SOL    HW244827   1.420   8.037   1.485
11300SOL     OW44828   7.626   7.990   5.059
11300SOL    HW144829   7.635   8.087   5.037
11300SOL    HW244830   7.631   7.936   4.975
11301SOL     OW44831   4.519   2.317   3.278
11301SOL    HW144832   4.478   2.229   3.254
11301SOL    HW244833   4.471   2.390   3.230
11302SOL     OW44834   4.239   8.101   1.727
11302SOL    HW144835   4.273   8.066   1.814
11302SOL    HW244836   4.314   8.106   1.661
11303SOL     OW44837   2.193   2.744   1.400
11303SOL    HW144838   2.155   2.808   1.466
11303SOL    HW244839   2.147   2.655   1.408
11304SOL     OW44840   8.976   0.215   3.887
11304SOL    HW144841   8.927   0.253   3.809
11304SOL    HW244842   8.952   0.118   3.898
11305SOL     OW44843   5.879   7.633   3.740
11305SOL    HW144844   5.840   7.548   3.704
11305SOL    HW244845   5.934   7.678   3.669
11306SOL     OW44846   1.446   3.088   2.430
11306SOL    HW144847   1.512   3.078   2.356
11306SOL    HW244848   1.415   2.998   2.460
11307SOL     OW44849   4.609   5.473   3.287
11307SOL    HW144850   4.656   5.407   3.345
11307SOL    HW244851   4.675   5.533   3.243
11308SOL     OW44852   3.242   2.149   3.994
11308SOL    HW144853   3.267   2.086   3.921
11308SOL    HW244854   3.265   2.243   3.966
11309SOL     OW44855   5.267   5.431   1.836
11309SOL    HW144856   5.263   5.333   1.857
11309SOL    HW244857   5.362   5.457   1.815
11310SOL     OW44858   2.520   3.843   1.343
11310SOL    HW144859   2.559   3.898   1.269
11310SOL    HW244860   2.433   3.804   1.314
11311SOL     OW44861   4.281   1.379   2.241
11311SOL    HW144862   4.344   1.323   2.188
11311SOL    HW244863   4.206   1.322   2.275
11312SOL     OW44864   2.410   0.495   1.136
11312SOL    HW144865   2.441   0.406   1.103
11312SOL    HW244866   2.418   0.498   1.236
11313SOL     OW44867   4.050   1.244   2.324
11313SOL    HW144868   4.033   1.321   2.386
11313SOL    HW244869   3.965   1.192   2.312
11314SOL     OW44870   2.045   8.671   3.632
11314SOL    HW144871   2.008   8.734   3.564
11314SOL    HW244872   2.127   8.709   3.673
11315SOL     OW44873   9.579   5.054   4.615
11315SOL    HW144874   9.650   5.000   4.569
11315SOL    HW244875   9.504   5.071   4.551
11316SOL     OW44876   0.614   2.279   1.558
11316SOL    HW144877   0.526   2.236   1.578
11316SOL    HW244878   0.623   2.292   1.459
11317SOL     OW44879   8.523   5.167   4.995
11317SOL    HW144880   8.597   5.158   4.928
11317SOL    HW244881   8.438   5.131   4.956
11318SOL     OW44882   8.348   0.380   1.382
11318SOL    HW144883   8.322   0.454   1.320
11318SOL    HW244884   8.336   0.410   1.477
11319SOL     OW44885   2.325   9.553   3.110
11319SOL    HW144886   2.424   9.555   3.119
11319SOL    HW244887   2.300   9.567   3.014
11320SOL     OW44888   2.507   4.153   5.134
11320SOL    HW144889   2.448   4.232   5.154
11320SOL    HW244890   2.481   4.113   5.046
11321SOL     OW44891   7.471   0.551   1.781
11321SOL    HW144892   7.563   0.524   1.811
11321SOL    HW244893   7.432   0.616   1.846
11322SOL     OW44894   1.651   0.753   4.465
11322SOL    HW144895   1.642   0.821   4.538
11322SOL    HW244896   1.736   0.769   4.415
11323SOL     OW44897   6.509   0.826   5.057
11323SOL    HW144898   6.502   0.803   5.154
11323SOL    HW244899   6.503   0.743   5.002
11324SOL     OW44900   7.644   3.088   0.055
11324SOL    HW144901   7.702   3.149   0.108
11324SOL    HW244902   7.647   2.996   0.095
11325SOL     OW44903   1.408   2.331   1.457
11325SOL    HW144904   1.441   2.416   1.496
11325SOL    HW244905   1.357   2.350   1.373
11326SOL     OW44906   9.080   5.400   1.947
11326SOL    HW144907   9.104   5.488   1.905
11326SOL    HW244908   9.121   5.395   2.038
11327SOL     OW44909   7.273   6.824   4.834
11327SOL    HW144910   7.237   6.858   4.921
11327SOL    HW244911   7.315   6.734   4.848
11328SOL     OW44912   4.374   1.494   2.655
11328SOL    HW144913   4.466   1.482   2.691
11328SOL    HW244914   4.339   1.585   2.681
11329SOL     OW44915   2.823   6.925   2.031
11329SOL    HW144916   2.730   6.891   2.016
11329SOL    HW244917   2.826   6.975   2.117
11330SOL     OW44918   6.122   3.811   0.169
11330SOL    HW144919   6.164   3.727   0.204
11330SOL    HW244920   6.037   3.830   0.218
11331SOL     OW44921   5.143   0.849   0.585
11331SOL    HW144922   5.114   0.796   0.505
11331SOL    HW244923   5.082   0.928   0.596
11332SOL     OW44924   9.113   7.896   0.292
11332SOL    HW144925   9.053   7.822   0.321
11332SOL    HW244926   9.167   7.927   0.370
11333SOL     OW44927   2.273   3.343   2.459
11333SOL    HW144928   2.303   3.251   2.484
11333SOL    HW244929   2.313   3.410   2.521
11334SOL     OW44930   2.253   8.703   1.500
11334SOL    HW144931   2.164   8.672   1.535
11334SOL    HW244932   2.256   8.689   1.401
11335SOL     OW44933   5.765   5.844   0.875
11335SOL    HW144934   5.756   5.943   0.867
11335SOL    HW244935   5.740   5.801   0.789
11336SOL     OW44936   7.082   1.443   1.770
11336SOL    HW144937   7.033   1.487   1.846
11336SOL    HW244938   7.061   1.345   1.769
11337SOL     OW44939   9.025   6.377   2.667
11337SOL    HW144940   9.041   6.384   2.569
11337SOL    HW244941   9.110   6.348   2.712
11338SOL     OW44942   9.525   5.722   0.888
11338SOL    HW144943   9.456   5.765   0.830
11338SOL    HW244944   9.493   5.630   0.914
11339SOL     OW44945   0.373   6.992   1.677
11339SOL    HW144946   0.440   6.987   1.602
11339SOL    HW244947   0.286   6.954   1.647
11340SOL     OW44948   4.663   3.558   2.643
11340SOL    HW144949   4.667   3.497   2.722
11340SOL    HW244950   4.725   3.636   2.657
11341SOL     OW44951   9.742   3.934   3.623
11341SOL    HW144952   9.752   3.943   3.722
11341SOL    HW244953   9.659   3.882   3.603
11342SOL     OW44954   5.013   4.241   0.754
11342SOL    HW144955   5.052   4.297   0.828
11342SOL    HW244956   4.917   4.223   0.773
11343SOL     OW44957   2.645   4.090   3.495
11343SOL    HW144958   2.647   3.992   3.475
11343SOL    HW244959   2.732   4.118   3.535
11344SOL     OW44960   7.383   9.374   2.592
11344SOL    HW144961   7.393   9.366   2.692
11344SOL    HW244962   7.470   9.401   2.552
11345SOL     OW44963   2.608   8.459   2.768
11345SOL    HW144964   2.553   8.507   2.699
11345SOL    HW244965   2.571   8.366   2.781
11346SOL     OW44966   4.934   4.519   1.761
11346SOL    HW144967   4.847   4.490   1.720
11346SOL    HW244968   4.937   4.488   1.857
11347SOL     OW44969   5.687   0.906   4.836
11347SOL    HW144970   5.779   0.875   4.813
11347SOL    HW244971   5.691   0.997   4.877
11348SOL     OW44972   1.289   7.934   3.218
11348SOL    HW144973   1.340   7.919   3.303
11348SOL    HW244974   1.258   8.028   3.214
11349SOL     OW44975   8.203   8.556   1.945
11349SOL    HW144976   8.190   8.600   2.034
11349SOL    HW244977   8.133   8.486   1.932
11350SOL     OW44978   0.339   9.188   1.730
11350SOL    HW144979   0.241   9.193   1.753
11350SOL    HW244980   0.363   9.262   1.668
11351SOL     OW44981   9.495   5.093   0.144
11351SOL    HW144982   9.542   5.157   0.083
11351SOL    HW244983   9.452   5.143   0.219
11352SOL     OW44984   9.618   9.794   2.495
11352SOL    HW144985   9.695   9.839   2.540
11352SOL    HW244986   9.532   9.830   2.532
11353SOL     OW44987   8.060   2.168   3.576
11353SOL    HW144988   8.019   2.209   3.495
11353SOL    HW244989   8.000   2.182   3.655
11354SOL     OW44990   6.743   4.452   1.068
11354SOL    HW144991   6.800   4.528   1.038
11354SOL    HW244992   6.655   4.486   1.099
11355SOL     OW44993   0.873   6.612   1.790
11355SOL    HW144994   0.879   6.512   1.780
11355SOL    HW244995   0.790   6.635   1.842
11356SOL     OW44996   3.728   9.353   0.556
11356SOL    HW144997   3.765   9.445   0.555
11356SOL    HW244998   3.628   9.357   0.567
11357SOL     OW44999   0.089   4.297   4.107
11357SOL    HW145000   9.993   4.270   4.116
11357SOL    HW245001   0.100   4.354   4.025
11358SOL     OW45002   5.129   1.752   3.403
11358SOL    HW145003   5.134   1.795   3.493
11358SOL    HW245004   5.216   1.766   3.355
11359SOL     OW45005   1.043   5.535   0.219
11359SOL    HW145006   0.964   5.533   0.159
11359SOL    HW245007   1.068   5.630   0.239
11360SOL     OW45008   8.161   4.710   4.205
11360SOL    HW145009   8.211   4.624   4.196
11360SOL    HW245010   8.192   4.774   4.136
11361SOL     OW45011   4.824   9.415   4.619
11361SOL    HW145012   4.892   9.409   4.692
11361SOL    HW245013   4.739   9.453   4.656
11362SOL     OW45014   3.977   8.733   0.611
11362SOL    HW145015   3.996   8.806   0.677
11362SOL    HW245016   3.943   8.652   0.660
11363SOL     OW45017   0.603   8.508   4.520
11363SOL    HW145018   0.558   8.512   4.431
11363SOL    HW245019   0.596   8.415   4.556
11364SOL     OW45020   1.671   8.500   4.958
11364SOL    HW145021   1.596   8.437   4.937
11364SOL    HW245022   1.699   8.486   5.053
11365SOL     OW45023   9.765   5.807   0.796
11365SOL    HW145024   9.811   5.862   0.866
11365SOL    HW245025   9.676   5.777   0.831
11366SOL     OW45026   3.118   1.609   0.236
11366SOL    HW145027   3.171   1.655   0.307
11366SOL    HW245028   3.174   1.538   0.193
11367SOL     OW45029   5.219   8.882   1.845
11367SOL    HW145030   5.174   8.933   1.771
11367SOL    HW245031   5.215   8.784   1.824
11368SOL     OW45032   9.498   2.668   4.798
11368SOL    HW145033   9.550   2.633   4.720
11368SOL    HW245034   9.555   2.731   4.850
11369SOL     OW45035   0.405   8.414   5.147
11369SOL    HW145036   0.370   8.508   5.138
11369SOL    HW245037   0.504   8.417   5.162
11370SOL     OW45038   5.973   0.572   4.685
11370SOL    HW145039   6.037   0.504   4.720
11370SOL    HW245040   5.882   0.531   4.675
11371SOL     OW45041   3.608   4.621   2.285
11371SOL    HW145042   3.704   4.646   2.299
11371SOL    HW245043   3.579   4.648   2.193
11372SOL     OW45044   3.803   8.187   4.069
11372SOL    HW145045   3.802   8.186   3.969
11372SOL    HW245046   3.849   8.104   4.102
11373SOL     OW45047   0.482   0.404   2.781
11373SOL    HW145048   0.433   0.439   2.862
11373SOL    HW245049   0.423   0.340   2.732
11374SOL     OW45050   9.880   2.684   4.176
11374SOL    HW145051   9.841   2.712   4.264
11374SOL    HW245052   9.887   2.764   4.116
11375SOL     OW45053   9.902   6.353   1.153
11375SOL    HW145054   9.847   6.363   1.070
11375SOL    HW245055   9.855   6.291   1.216
11376SOL     OW45056   2.340   5.713   4.295
11376SOL    HW145057   2.331   5.806   4.329
11376SOL    HW245058   2.404   5.662   4.353
11377SOL     OW45059   7.647   3.211   3.045
11377SOL    HW145060   7.713   3.174   3.110
11377SOL    HW245061   7.589   3.279   3.091
11378SOL     OW45062   4.779   4.095   4.821
11378SOL    HW145063   4.713   4.163   4.786
11378SOL    HW245064   4.752   4.004   4.789
11379SOL     OW45065   1.721   6.780   3.690
11379SOL    HW145066   1.820   6.768   3.697
11379SOL    HW245067   1.697   6.873   3.721
11380SOL     OW45068   2.256   6.157   1.219
11380SOL    HW145069   2.178   6.208   1.184
11380SOL    HW245070   2.329   6.221   1.245
11381SOL     OW45071   1.617   2.641   4.881
11381SOL    HW145072   1.517   2.643   4.890
11381SOL    HW245073   1.641   2.652   4.784
11382SOL     OW45074   4.792   1.848   2.251
11382SOL    HW145075   4.801   1.944   2.276
11382SOL    HW245076   4.707   1.811   2.290
11383SOL     OW45077   3.396   5.731   2.947
11383SOL    HW145078   3.435   5.734   2.855
11383SOL    HW245079   3.320   5.795   2.953
11384SOL     OW45080   3.390   5.233   2.196
11384SOL    HW145081   3.339   5.244   2.111
11384SOL    HW245082   3.326   5.216   2.271
11385SOL     OW45083   0.983   5.645   2.556
11385SOL    HW145084   0.910   5.709   2.529
11385SOL    HW245085   0.957   5.552   2.530
11386SOL     OW45086   8.992   2.257   4.146
11386SOL    HW145087   9.059   2.225   4.079
11386SOL    HW245088   8.963   2.350   4.122
11387SOL     OW45089   8.866   9.000   0.040
11387SOL    HW145090   8.807   8.953   6.723
11387SOL    HW245091   8.867   8.949   0.126
11388SOL     OW45092   4.087   1.891   3.911
11388SOL    HW145093   4.034   1.825   3.858
11388SOL    HW245094   4.046   1.903   4.001
11389SOL     OW45095   3.355   7.852   5.106
11389SOL    HW145096   3.345   7.791   5.027
11389SOL    HW245097   3.276   7.912   5.112
11390SOL     OW45098   5.099   2.499   2.545
11390SOL    HW145099   5.109   2.424   2.479
11390SOL    HW245100   5.012   2.488   2.594
11391SOL     OW45101   0.610   9.067   3.878
11391SOL    HW145102   0.527   9.070   3.933
11391SOL    HW245103   0.646   8.973   3.877
11392SOL     OW45104   1.331   0.552   1.162
11392SOL    HW145105   1.378   0.510   1.239
11392SOL    HW245106   1.250   0.498   1.139
11393SOL     OW45107   4.026   8.751   2.930
11393SOL    HW145108   4.006   8.775   3.025
11393SOL    HW245109   3.943   8.764   2.875
11394SOL     OW45110   8.901   2.734   0.456
11394SOL    HW145111   8.848   2.795   0.396
11394SOL    HW245112   8.876   2.750   0.551
11395SOL     OW45113   7.533   6.922   4.794
11395SOL    HW145114   7.439   6.888   4.804
11395SOL    HW245115   7.580   6.916   4.882
11396SOL     OW45116   5.516   0.521   4.983
11396SOL    HW145117   5.609   0.487   4.994
11396SOL    HW245118   5.511   0.616   5.015
11397SOL     OW45119   2.678   7.693   2.278
11397SOL    HW145120   2.601   7.755   2.262
11397SOL    HW245121   2.648   7.618   2.338
11398SOL     OW45122   5.735   2.444   3.121
11398SOL    HW145123   5.646   2.398   3.120
11398SOL    HW245124   5.770   2.449   3.214
11399SOL     OW45125   0.373   9.451   0.527
11399SOL    HW145126   0.281   9.439   0.489
11399SOL    HW245127   0.373   9.526   0.593
11400SOL     OW45128   9.373   0.641   5.242
11400SOL    HW145129   9.326   0.612   5.159
11400SOL    HW245130   9.345   0.734   5.266
11401SOL     OW45131   2.968   7.187   0.997
11401SOL    HW145132   2.872   7.213   0.986
11401SOL    HW245133   3.026   7.265   0.976
11402SOL     OW45134   7.434   9.809   5.066
11402SOL    HW145135   7.513   9.749   5.081
11402SOL    HW245136   7.355   9.774   5.117
11403SOL     OW45137   3.879   2.713   4.683
11403SOL    HW145138   3.897   2.623   4.724
11403SOL    HW245139   3.859   2.702   4.586
11404SOL     OW45140   0.723   4.268   4.563
11404SOL    HW145141   0.633   4.313   4.555
11404SOL    HW245142   0.726   4.189   4.502
11405SOL     OW45143   0.932   3.860   4.965
11405SOL    HW145144   0.997   3.930   4.994
11405SOL    HW245145   0.949   3.834   4.870
11406SOL     OW45146   3.798   4.277   0.890
11406SOL    HW145147   3.819   4.188   0.930
11406SOL    HW245148   3.845   4.284   0.801
11407SOL     OW45149   2.665   3.404   0.709
11407SOL    HW145150   2.710   3.491   0.691
11407SOL    HW245151   2.672   3.383   0.807
11408SOL     OW45152   5.490   1.626   4.726
11408SOL    HW145153   5.472   1.541   4.775
11408SOL    HW245154   5.404   1.662   4.689
11409SOL     OW45155   5.749   7.634   2.914
11409SOL    HW145156   5.662   7.668   2.950
11409SOL    HW245157   5.823   7.661   2.977
11410SOL     OW45158   1.256   6.275   2.711
11410SOL    HW145159   1.233   6.185   2.747
11410SOL    HW245160   1.191   6.299   2.638
11411SOL     OW45161   0.341   9.889   0.242
11411SOL    HW145162   0.430   9.920   0.276
11411SOL    HW245163   0.349   9.794   0.210
11412SOL     OW45164   4.705   0.759   3.926
11412SOL    HW145165   4.649   0.678   3.943
11412SOL    HW245166   4.776   0.736   3.859
11413SOL     OW45167   2.601   4.362   0.988
11413SOL    HW145168   2.685   4.414   0.974
11413SOL    HW245169   2.609   4.308   1.072
11414SOL     OW45170   6.058   7.697   5.105
11414SOL    HW145171   6.078   7.757   5.182
11414SOL    HW245172   6.011   7.750   5.034
11415SOL     OW45173   1.447   2.513   3.530
11415SOL    HW145174   1.429   2.456   3.450
11415SOL    HW245175   1.487   2.456   3.602
11416SOL     OW45176   9.780   9.799   0.557
11416SOL    HW145177   9.815   9.826   0.646
11416SOL    HW245178   9.836   9.726   0.519
11417SOL     OW45179   7.868   0.706   3.490
11417SOL    HW145180   7.777   0.701   3.448
11417SOL    HW245181   7.870   0.780   3.557
11418SOL     OW45182   3.795   3.395   0.757
11418SOL    HW145183   3.710   3.447   0.755
11418SOL    HW245184   3.869   3.452   0.721
11419SOL     OW45185   7.416   8.074   3.006
11419SOL    HW145186   7.343   8.117   2.953
11419SOL    HW245187   7.439   7.985   2.965
11420SOL     OW45188   3.351   4.600   3.610
11420SOL    HW145189   3.349   4.505   3.641
11420SOL    HW245190   3.440   4.620   3.568
11421SOL     OW45191   1.204   9.691   4.124
11421SOL    HW145192   1.144   9.709   4.201
11421SOL    HW245193   1.154   9.707   4.038
11422SOL     OW45194   5.223   9.517   1.689
11422SOL    HW145195   5.321   9.529   1.704
11422SOL    HW245196   5.196   9.424   1.716
11423SOL     OW45197   2.416   0.648   2.466
11423SOL    HW145198   2.387   0.738   2.499
11423SOL    HW245199   2.516   0.645   2.461
11424SOL     OW45200   4.884   5.045   0.808
11424SOL    HW145201   4.972   5.041   0.855
11424SOL    HW245202   4.818   5.093   0.866
11425SOL     OW45203   1.654   9.374   0.641
11425SOL    HW145204   1.608   9.322   0.569
11425SOL    HW245205   1.696   9.455   0.600
11426SOL     OW45206   1.838   3.843   4.412
11426SOL    HW145207   1.834   3.905   4.490
11426SOL    HW245208   1.869   3.893   4.331
11427SOL     OW45209   1.668   9.769   4.838
11427SOL    HW145210   1.756   9.777   4.791
11427SOL    HW245211   1.684   9.747   4.934
11428SOL     OW45212   1.585   2.811   1.654
11428SOL    HW145213   1.600   2.881   1.584
11428SOL    HW245214   1.673   2.776   1.686
11429SOL     OW45215   4.912   9.461   4.024
11429SOL    HW145216   4.904   9.420   3.934
11429SOL    HW245217   4.982   9.533   4.022
11430SOL     OW45218   6.177   9.361   1.531
11430SOL    HW145219   6.181   9.456   1.563
11430SOL    HW245220   6.141   9.359   1.437
11431SOL     OW45221   7.700   1.024   1.265
11431SOL    HW145222   7.668   1.119   1.262
11431SOL    HW245223   7.627   0.963   1.235
11432SOL     OW45224   9.391   9.028   3.406
11432SOL    HW145225   9.373   8.934   3.379
11432SOL    HW245226   9.318   9.088   3.373
11433SOL     OW45227   1.055   5.214   1.815
11433SOL    HW145228   1.062   5.153   1.894
11433SOL    HW245229   1.142   5.261   1.801
11434SOL     OW45230   2.427   0.357   5.181
11434SOL    HW145231   2.407   0.282   5.119
11434SOL    HW245232   2.525   0.357   5.203
11435SOL     OW45233   2.662   3.940   3.831
11435SOL    HW145234   2.726   3.940   3.908
11435SOL    HW245235   2.690   3.871   3.765
11436SOL     OW45236   2.659   9.002   2.766
11436SOL    HW145237   2.616   9.065   2.701
11436SOL    HW245238   2.589   8.945   2.809
11437SOL     OW45239   3.719   3.766   3.665
11437SOL    HW145240   3.683   3.849   3.622
11437SOL    HW245241   3.816   3.758   3.644
11438SOL     OW45242   8.928   7.505   2.826
11438SOL    HW145243   9.012   7.461   2.858
11438SOL    HW245244   8.850   7.468   2.877
11439SOL     OW45245   2.845   8.094   0.526
11439SOL    HW145246   2.793   8.176   0.550
11439SOL    HW245247   2.926   8.119   0.473
11440SOL     OW45248   8.719   9.287   3.622
11440SOL    HW145249   8.673   9.216   3.569
11440SOL    HW245250   8.761   9.247   3.703
11441SOL     OW45251   6.166   0.727   1.537
11441SOL    HW145252   6.199   0.732   1.632
11441SOL    HW245253   6.074   0.768   1.532
11442SOL     OW45254   9.095   8.316   0.824
11442SOL    HW145255   9.034   8.269   0.888
11442SOL    HW245256   9.078   8.415   0.829
11443SOL     OW45257   2.469   1.006   1.846
11443SOL    HW145258   2.402   1.059   1.899
11443SOL    HW245259   2.422   0.957   1.773
11444SOL     OW45260   8.101   6.530   0.598
11444SOL    HW145261   8.085   6.556   0.694
11444SOL    HW245262   8.146   6.605   0.550
11445SOL     OW45263   9.748   1.943   0.502
11445SOL    HW145264   9.830   1.915   0.452
11445SOL    HW245265   9.732   2.041   0.487
11446SOL     OW45266   3.490   6.937   1.986
11446SOL    HW145267   3.451   7.026   1.960
11446SOL    HW245268   3.419   6.879   2.026
11447SOL     OW45269   8.792   4.586   1.199
11447SOL    HW145270   8.867   4.578   1.133
11447SOL    HW245271   8.786   4.501   1.252
11448SOL     OW45272   3.127   2.361   2.656
11448SOL    HW145273   3.085   2.385   2.743
11448SOL    HW245274   3.142   2.444   2.602
11449SOL     OW45275   9.197   5.699   2.181
11449SOL    HW145276   9.278   5.692   2.238
11449SOL    HW245277   9.117   5.666   2.232
11450SOL     OW45278   5.143   2.825   3.141
11450SOL    HW145279   5.226   2.779   3.173
11450SOL    HW245280   5.121   2.792   3.049
11451SOL     OW45281   3.491   9.468   3.044
11451SOL    HW145282   3.469   9.378   3.007
11451SOL    HW245283   3.588   9.488   3.027
11452SOL     OW45284   0.527   7.263   2.389
11452SOL    HW145285   0.487   7.220   2.469
11452SOL    HW245286   0.459   7.268   2.316
11453SOL     OW45287   1.746   9.238   4.112
11453SOL    HW145288   1.723   9.287   4.028
11453SOL    HW245289   1.678   9.258   4.182
11454SOL     OW45290   4.974   2.387   3.836
11454SOL    HW145291   4.965   2.486   3.825
11454SOL    HW245292   4.901   2.353   3.895
11455SOL     OW45293   4.602   9.112   0.761
11455SOL    HW145294   4.702   9.113   0.761
11455SOL    HW245295   4.569   9.025   0.725
11456SOL     OW45296   4.642   2.091   1.057
11456SOL    HW145297   4.729   2.043   1.065
11456SOL    HW245298   4.567   2.025   1.061
11457SOL     OW45299   1.588   0.439   4.904
11457SOL    HW145300   1.535   0.357   4.880
11457SOL    HW245301   1.671   0.412   4.953
11458SOL     OW45302   9.430   4.763   3.290
11458SOL    HW145303   9.431   4.668   3.321
11458SOL    HW245304   9.376   4.818   3.353
11459SOL     OW45305   1.342   4.870   1.386
11459SOL    HW145306   1.247   4.869   1.353
11459SOL    HW245307   1.398   4.809   1.331
11460SOL     OW45308   9.231   2.116   1.426
11460SOL    HW145309   9.315   2.143   1.378
11460SOL    HW245310   9.254   2.066   1.509
11461SOL     OW45311   4.306   2.697   3.840
11461SOL    HW145312   4.270   2.701   3.747
11461SOL    HW245313   4.294   2.786   3.885
11462SOL     OW45314   2.035   8.388   0.509
11462SOL    HW145315   1.981   8.459   0.463
11462SOL    HW245316   1.976   8.337   0.572
11463SOL     OW45317   4.079   1.176   1.887
11463SOL    HW145318   4.040   1.101   1.833
11463SOL    HW245319   4.007   1.241   1.910
11464SOL     OW45320   4.368   5.021   1.823
11464SOL    HW145321   4.400   5.105   1.779
11464SOL    HW245322   4.304   4.974   1.762
11465SOL     OW45323   4.484   0.036   4.577
11465SOL    HW145324   4.465   9.951   4.528
11465SOL    HW245325   4.571   0.027   4.627
11466SOL     OW45326   9.725   1.095   0.303
11466SOL    HW145327   9.655   1.085   0.232
11466SOL    HW245328   9.737   1.192   0.324
11467SOL     OW45329   5.436   8.190   3.873
11467SOL    HW145330   5.525   8.233   3.876
11467SOL    HW245331   5.444   8.099   3.832
11468SOL     OW45332   3.898   0.372   1.634
11468SOL    HW145333   3.815   0.339   1.680
11468SOL    HW245334   3.872   0.420   1.550
11469SOL     OW45335   4.505   4.473   4.484
11469SOL    HW145336   4.476   4.378   4.488
11469SOL    HW245337   4.587   4.481   4.426
11470SOL     OW45338   2.827   5.725   2.194
11470SOL    HW145339   2.851   5.632   2.166
11470SOL    HW245340   2.761   5.721   2.269
11471SOL     OW45341   9.621   8.873   4.278
11471SOL    HW145342   9.604   8.968   4.302
11471SOL    HW245343   9.537   8.820   4.291
11472SOL     OW45344   1.415   4.696   1.152
11472SOL    HW145345   1.358   4.749   1.090
11472SOL    HW245346   1.471   4.632   1.099
11473SOL     OW45347   5.924   4.802   0.524
11473SOL    HW145348   5.824   4.806   0.519
11473SOL    HW245349   5.963   4.882   0.479
11474SOL     OW45350   0.044   3.537   5.179
11474SOL    HW145351   0.091   3.500   5.259
11474SOL    HW245352   0.104   3.530   5.099
11475SOL     OW45353   4.567   2.672   3.482
11475SOL    HW145354   4.605   2.632   3.566
11475SOL    HW245355   4.614   2.634   3.403
11476SOL     OW45356   7.854   5.388   0.094
11476SOL    HW145357   7.763   5.347   0.086
11476SOL    HW245358   7.917   5.323   0.137
11477SOL     OW45359   1.177   0.484   3.791
11477SOL    HW145360   1.247   0.448   3.853
11477SOL    HW245361   1.166   0.582   3.808
11478SOL     OW45362   1.812   6.136   0.255
11478SOL    HW145363   1.845   6.048   0.219
11478SOL    HW245364   1.884   6.180   0.308
11479SOL     OW45365   5.042   5.578   1.809
11479SOL    HW145366   5.124   5.521   1.809
11479SOL    HW245367   4.965   5.526   1.847
11480SOL     OW45368   0.602   4.824   1.483
11480SOL    HW145369   0.552   4.794   1.565
11480SOL    HW245370   0.626   4.921   1.493
11481SOL     OW45371   0.454   5.533   2.323
11481SOL    HW145372   0.367   5.554   2.368
11481SOL    HW245373   0.517   5.493   2.389
11482SOL     OW45374   7.534   0.838   4.406
11482SOL    HW145375   7.481   0.787   4.473
11482SOL    HW245376   7.581   0.914   4.450
11483SOL     OW45377   8.297   6.991   5.065
11483SOL    HW145378   8.374   6.932   5.091
11483SOL    HW245379   8.280   7.056   5.139
11484SOL     OW45380   5.059   6.071   1.377
11484SOL    HW145381   4.989   6.131   1.338
11484SOL    HW245382   5.150   6.105   1.352
11485SOL     OW45383   0.144   9.665   4.985
11485SOL    HW145384   0.083   9.586   4.982
11485SOL    HW245385   0.096   9.743   5.026
11486SOL     OW45386   5.669   0.403   1.274
11486SOL    HW145387   5.726   0.370   1.199
11486SOL    HW245388   5.727   0.427   1.352
11487SOL     OW45389   5.902   4.552   0.408
11487SOL    HW145390   5.862   4.495   0.479
11487SOL    HW245391   5.929   4.640   0.447
11488SOL     OW45392   9.228   4.006   3.346
11488SOL    HW145393   9.214   3.990   3.249
11488SOL    HW245394   9.140   4.019   3.391
11489SOL     OW45395   7.369   2.485   4.490
11489SOL    HW145396   7.299   2.469   4.560
11489SOL    HW245397   7.331   2.543   4.418
11490SOL     OW45398   0.873   5.083   3.851
11490SOL    HW145399   0.926   5.161   3.884
11490SOL    HW245400   0.778   5.093   3.878
11491SOL     OW45401   8.660   3.746   0.431
11491SOL    HW145402   8.658   3.680   0.506
11491SOL    HW245403   8.731   3.719   0.365
11492SOL     OW45404   2.800   1.169   4.003
11492SOL    HW145405   2.822   1.071   4.003
11492SOL    HW245406   2.701   1.180   4.009
11493SOL     OW45407   8.095   3.007   1.992
11493SOL    HW145408   8.166   3.015   2.062
11493SOL    HW245409   8.124   3.056   1.909
11494SOL     OW45410   1.358   5.708   1.998
11494SOL    HW145411   1.313   5.741   1.915
11494SOL    HW245412   1.457   5.704   1.983
11495SOL     OW45413   7.076   3.741   0.153
11495SOL    HW145414   7.108   3.651   0.124
11495SOL    HW245415   6.983   3.733   0.188
11496SOL     OW45416   2.971   6.659   3.142
11496SOL    HW145417   3.054   6.672   3.087
11496SOL    HW245418   2.936   6.566   3.129
11497SOL     OW45419   4.719   6.262   1.612
11497SOL    HW145420   4.801   6.206   1.612
11497SOL    HW245421   4.641   6.207   1.644
11498SOL     OW45422   8.371   5.230   0.627
11498SOL    HW145423   8.359   5.170   0.548
11498SOL    HW245424   8.365   5.325   0.598
11499SOL     OW45425   5.571   8.354   2.055
11499SOL    HW145426   5.472   8.344   2.061
11499SOL    HW245427   5.611   8.272   2.014
11500SOL     OW45428   0.609   3.655   4.150
11500SOL    HW145429   0.590   3.751   4.133
11500SOL    HW245430   0.522   3.605   4.157
11501SOL     OW45431   8.259   4.133   0.368
11501SOL    HW145432   8.352   4.116   0.335
11501SOL    HW245433   8.197   4.142   0.290
11502SOL     OW45434   4.302   2.635   4.983
11502SOL    HW145435   4.316   2.694   4.904
11502SOL    HW245436   4.204   2.627   5.001
11503SOL     OW45437   1.565   3.434   3.797
11503SOL    HW145438   1.600   3.527   3.799
11503SOL    HW245439   1.465   3.436   3.789
11504SOL     OW45440   7.390   8.839   2.119
11504SOL    HW145441   7.414   8.772   2.188
11504SOL    HW245442   7.448   8.826   2.038
11505SOL     OW45443   2.131   7.483   2.835
11505SOL    HW145444   2.119   7.500   2.737
11505SOL    HW245445   2.120   7.386   2.854
11506SOL     OW45446   1.047   0.981   4.750
11506SOL    HW145447   1.038   1.054   4.683
11506SOL    HW245448   1.121   1.003   4.814
11507SOL     OW45449   7.169   0.043   3.594
11507SOL    HW145450   7.193   9.947   3.579
11507SOL    HW245451   7.251   0.100   3.587
11508SOL     OW45452   5.233   1.176   4.252
11508SOL    HW145453   5.135   1.181   4.274
11508SOL    HW245454   5.246   1.195   4.155
11509SOL     OW45455   9.092   4.266   4.318
11509SOL    HW145456   9.133   4.286   4.407
11509SOL    HW245457   9.031   4.341   4.292
11510SOL     OW45458   1.446   8.395   4.278
11510SOL    HW145459   1.519   8.443   4.229
11510SOL    HW245460   1.469   8.297   4.283
11511SOL     OW45461   8.893   3.929   3.778
11511SOL    HW145462   8.988   3.899   3.769
11511SOL    HW245463   8.890   4.016   3.828
11512SOL     OW45464   7.930   7.207   3.587
11512SOL    HW145465   7.965   7.232   3.677
11512SOL    HW245466   7.842   7.160   3.598
11513SOL     OW45467   3.808   8.964   1.334
11513SOL    HW145468   3.748   9.044   1.331
11513SOL    HW245469   3.757   8.883   1.305
11514SOL     OW45470   1.922   4.893   0.199
11514SOL    HW145471   2.006   4.842   0.216
11514SOL    HW245472   1.892   4.937   0.283
11515SOL     OW45473   1.016   4.794   5.191
11515SOL    HW145474   1.079   4.845   5.250
11515SOL    HW245475   0.924   4.799   5.228
11516SOL     OW45476   2.309   7.906   5.168
11516SOL    HW145477   2.335   7.897   5.072
11516SOL    HW245478   2.321   7.818   5.214
11517SOL     OW45479   8.734   2.373   1.858
11517SOL    HW145480   8.797   2.382   1.781
11517SOL    HW245481   8.748   2.450   1.921
11518SOL     OW45482   2.090   8.609   4.631
11518SOL    HW145483   2.029   8.578   4.705
11518SOL    HW245484   2.150   8.681   4.666
11519SOL     OW45485   5.557   0.265   3.575
11519SOL    HW145486   5.473   0.211   3.570
11519SOL    HW245487   5.600   0.252   3.664
11520SOL     OW45488   2.367   2.439   2.973
11520SOL    HW145489   2.370   2.371   3.046
11520SOL    HW245490   2.425   2.409   2.897
11521SOL     OW45491   1.513   5.036   3.937
11521SOL    HW145492   1.491   5.084   3.852
11521SOL    HW245493   1.612   5.023   3.943
11522SOL     OW45494   4.469   6.204   2.236
11522SOL    HW145495   4.478   6.232   2.140
11522SOL    HW245496   4.555   6.221   2.284
11523SOL     OW45497   2.145   3.404   0.963
11523SOL    HW145498   2.047   3.386   0.968
11523SOL    HW245499   2.162   3.502   0.968
11524SOL     OW45500   4.076   1.712   0.621
11524SOL    HW145501   4.044   1.659   0.543
11524SOL    HW245502   4.176   1.715   0.620
11525SOL     OW45503   0.736   1.615   0.435
11525SOL    HW145504   0.751   1.521   0.464
11525SOL    HW245505   0.703   1.669   0.512
11526SOL     OW45506   2.109   1.477   0.249
11526SOL    HW145507   2.126   1.423   0.331
11526SOL    HW245508   2.177   1.549   0.241
11527SOL     OW45509   0.728   9.184   1.129
11527SOL    HW145510   0.685   9.095   1.115
11527SOL    HW245511   0.762   9.190   1.223
11528SOL     OW45512   3.577   1.228   2.346
11528SOL    HW145513   3.522   1.163   2.399
11528SOL    HW245514   3.558   1.321   2.378
11529SOL     OW45515   1.505   0.969   3.796
11529SOL    HW145516   1.565   1.044   3.823
11529SOL    HW245517   1.552   0.882   3.810
11530SOL     OW45518   9.683   5.647   0.144
11530SOL    HW145519   9.752   5.714   0.118
11530SOL    HW245520   9.595   5.693   0.160
11531SOL     OW45521   3.149   9.051   1.754
11531SOL    HW145522   3.115   9.024   1.664
11531SOL    HW245523   3.249   9.039   1.756
11532SOL     OW45524   7.939   4.295   1.201
11532SOL    HW145525   7.863   4.285   1.266
11532SOL    HW245526   7.998   4.370   1.230
11533SOL     OW45527   6.923   4.941   1.311
11533SOL    HW145528   6.849   4.982   1.365
11533SOL    HW245529   6.951   4.855   1.354
11534SOL     OW45530   5.566   9.313   2.400
11534SOL    HW145531   5.584   9.218   2.422
11534SOL    HW245532   5.559   9.325   2.301
11535SOL     OW45533   4.919   9.832   1.152
11535SOL    HW145534   4.942   9.921   1.190
11535SOL    HW245535   4.855   9.785   1.213
11536SOL     OW45536   9.381   8.221   1.283
11536SOL    HW145537   9.403   8.318   1.276
11536SOL    HW245538   9.448   8.175   1.341
11537SOL     OW45539   8.690   5.650   3.917
11537SOL    HW145540   8.723   5.602   3.999
11537SOL    HW245541   8.670   5.745   3.940
11538SOL     OW45542   8.874   4.322   0.819
11538SOL    HW145543   8.878   4.284   0.911
11538SOL    HW245544   8.838   4.415   0.822
11539SOL     OW45545   9.885   9.105   4.642
11539SOL    HW145546   9.982   9.089   4.657
11539SOL    HW245547   9.868   9.121   4.545
11540SOL     OW45548   9.446   6.435   0.113
11540SOL    HW145549   9.358   6.480   0.096
11540SOL    HW245550   9.431   6.349   0.162
11541SOL     OW45551   3.340   0.465   0.802
11541SOL    HW145552   3.381   0.554   0.825
11541SOL    HW245553   3.328   0.459   0.703
11542SOL     OW45554   9.645   1.786   4.267
11542SOL    HW145555   9.739   1.791   4.300
11542SOL    HW245556   9.585   1.755   4.342
11543SOL     OW45557   2.236   7.231   0.308
11543SOL    HW145558   2.304   7.234   0.234
11543SOL    HW245559   2.193   7.141   0.310
11544SOL     OW45560   4.099   4.688   5.245
11544SOL    HW145561   4.136   4.595   5.245
11544SOL    HW245562   4.173   4.753   5.225
11545SOL     OW45563   9.043   1.882   2.258
11545SOL    HW145564   9.002   1.792   2.241
11545SOL    HW245565   8.997   1.926   2.335
11546SOL     OW45566   3.810   0.351   2.142
11546SOL    HW145567   3.904   0.364   2.111
11546SOL    HW245568   3.764   0.286   2.082
11547SOL     OW45569   4.443   5.008   1.519
11547SOL    HW145570   4.465   5.094   1.565
11547SOL    HW245571   4.481   5.009   1.426
11548SOL     OW45572   0.957   0.584   0.564
11548SOL    HW145573   0.878   0.643   0.546
11548SOL    HW245574   0.992   0.548   0.477
11549SOL     OW45575   8.609   4.640   4.213
11549SOL    HW145576   8.639   4.548   4.241
11549SOL    HW245577   8.678   4.707   4.239
11550SOL     OW45578   2.727   9.891   5.076
11550SOL    HW145579   2.709   9.904   5.173
11550SOL    HW245580   2.737   9.981   5.032
11551SOL     OW45581   4.630   5.231   0.491
11551SOL    HW145582   4.533   5.243   0.471
11551SOL    HW245583   4.679   5.207   0.408
11552SOL     OW45584   2.378   1.443   1.802
11552SOL    HW145585   2.369   1.398   1.714
11552SOL    HW245586   2.458   1.504   1.801
11553SOL     OW45587   3.535   1.937   0.611
11553SOL    HW145588   3.503   2.030   0.630
11553SOL    HW245589   3.513   1.914   0.516
11554SOL     OW45590   1.108   6.543   1.280
11554SOL    HW145591   1.037   6.492   1.328
11554SOL    HW245592   1.181   6.568   1.344
11555SOL     OW45593   3.549   4.194   2.814
11555SOL    HW145594   3.487   4.219   2.739
11555SOL    HW245595   3.501   4.202   2.901
11556SOL     OW45596   0.101   5.426   1.729
11556SOL    HW145597   0.104   5.358   1.656
11556SOL    HW245598   0.164   5.400   1.801
11557SOL     OW45599   2.315   1.868   1.718
11557SOL    HW145600   2.320   1.833   1.624
11557SOL    HW245601   2.388   1.935   1.732
11558SOL     OW45602   3.521   4.862   0.675
11558SOL    HW145603   3.597   4.872   0.610
11558SOL    HW245604   3.555   4.828   0.762
11559SOL     OW45605   4.898   2.658   3.821
11559SOL    HW145606   4.887   2.694   3.914
11559SOL    HW245607   4.938   2.730   3.763
11560SOL     OW45608   4.552   8.557   2.969
11560SOL    HW145609   4.486   8.569   3.043
11560SOL    HW245610   4.534   8.470   2.922
11561SOL     OW45611   1.660   6.447   0.535
11561SOL    HW145612   1.747   6.491   0.556
11561SOL    HW245613   1.659   6.418   0.440
11562SOL     OW45614   7.635   0.257   3.157
11562SOL    HW145615   7.699   0.182   3.176
11562SOL    HW245616   7.632   0.320   3.234
11563SOL     OW45617   8.419   0.684   0.987
11563SOL    HW145618   8.393   0.684   0.891
11563SOL    HW245619   8.518   0.674   0.995
11564SOL     OW45620   6.740   8.413   4.569
11564SOL    HW145621   6.836   8.441   4.565
11564SOL    HW245622   6.699   8.451   4.653
11565SOL     OW45623   9.460   9.194   2.943
11565SOL    HW145624   9.360   9.189   2.950
11565SOL    HW245625   9.500   9.174   3.032
11566SOL     OW45626   3.096   4.526   1.699
11566SOL    HW145627   3.144   4.506   1.613
11566SOL    HW245628   3.141   4.479   1.775
11567SOL     OW45629   1.408   2.487   0.349
11567SOL    HW145630   1.431   2.390   0.344
11567SOL    HW245631   1.444   2.525   0.434
11568SOL     OW45632   2.773   4.700   2.802
11568SOL    HW145633   2.749   4.699   2.705
11568SOL    HW245634   2.866   4.665   2.814
11569SOL     OW45635   7.359   2.915   0.238
11569SOL    HW145636   7.448   2.876   0.213
11569SOL    HW245637   7.335   2.987   0.173
11570SOL     OW45638   4.873   3.825   4.052
11570SOL    HW145639   4.939   3.815   4.127
11570SOL    HW245640   4.917   3.800   3.966
11571SOL     OW45641   8.898   4.371   0.249
11571SOL    HW145642   8.834   4.328   0.185
11571SOL    HW245643   8.929   4.304   0.316
11572SOL     OW45644   5.512   5.781   1.876
11572SOL    HW145645   5.540   5.685   1.866
11572SOL    HW245646   5.413   5.787   1.876
11573SOL     OW45647   5.797   3.969   0.565
11573SOL    HW145648   5.716   4.009   0.522
11573SOL    HW245649   5.772   3.930   0.653
11574SOL     OW45650   9.405   3.976   2.687
11574SOL    HW145651   9.307   3.959   2.679
11574SOL    HW245652   9.431   3.978   2.784
11575SOL     OW45653   0.794   3.804   0.846
11575SOL    HW145654   0.740   3.735   0.894
11575SOL    HW245655   0.864   3.840   0.907
11576SOL     OW45656   0.301   0.655   1.881
11576SOL    HW145657   0.346   0.673   1.793
11576SOL    HW245658   0.360   0.685   1.956
11577SOL     OW45659   5.972   0.621   4.409
11577SOL    HW145660   5.998   0.543   4.352
11577SOL    HW245661   5.974   0.595   4.505
11578SOL     OW45662   5.560   9.342   1.673
11578SOL    HW145663   5.655   9.322   1.647
11578SOL    HW245664   5.549   9.440   1.686
11579SOL     OW45665   4.622   9.983   1.187
11579SOL    HW145666   4.534   9.993   1.140
11579SOL    HW245667   4.636   9.887   1.211
11580SOL     OW45668   1.536   9.144   2.519
11580SOL    HW145669   1.597   9.217   2.548
11580SOL    HW245670   1.444   9.181   2.507
11581SOL     OW45671   3.484   4.736   3.137
11581SOL    HW145672   3.538   4.787   3.204
11581SOL    HW245673   3.468   4.793   3.057
11582SOL     OW45674   6.751   1.574   3.302
11582SOL    HW145675   6.759   1.666   3.264
11582SOL    HW245676   6.840   1.544   3.336
11583SOL     OW45677   9.545   7.981   2.605
11583SOL    HW145678   9.478   8.020   2.668
11583SOL    HW245679   9.629   8.035   2.608
11584SOL     OW45680   9.629   4.033   1.961
11584SOL    HW145681   9.694   3.972   2.006
11584SOL    HW245682   9.605   4.108   2.022
11585SOL     OW45683   0.752   3.782   1.513
11585SOL    HW145684   0.750   3.691   1.554
11585SOL    HW245685   0.822   3.785   1.442
11586SOL     OW45686   5.934   2.055   4.120
11586SOL    HW145687   5.895   2.022   4.034
11586SOL    HW245688   5.897   2.146   4.141
11587SOL     OW45689   0.101   7.457   3.287
11587SOL    HW145690   0.081   7.546   3.246
11587SOL    HW245691   0.022   7.427   3.341
11588SOL     OW45692   7.684   3.734   4.050
11588SOL    HW145693   7.672   3.829   4.021
11588SOL    HW245694   7.760   3.693   4.000
11589SOL     OW45695   5.329   4.575   0.629
11589SOL    HW145696   5.241   4.529   0.636
11589SOL    HW245697   5.324   4.647   0.560
11590SOL     OW45698   0.309   1.243   4.450
11590SOL    HW145699   0.259   1.178   4.507
11590SOL    HW245700   0.355   1.310   4.507
11591SOL     OW45701   5.138   7.866   1.793
11591SOL    HW145702   5.194   7.864   1.876
11591SOL    HW245703   5.042   7.881   1.818
11592SOL     OW45704   5.115   6.004   1.936
11592SOL    HW145705   5.021   5.969   1.936
11592SOL    HW245706   5.117   6.094   1.892
11593SOL     OW45707   5.293   1.005   3.130
11593SOL    HW145708   5.217   0.959   3.177
11593SOL    HW245709   5.317   1.089   3.179
11594SOL     OW45710   8.829   4.804   2.253
11594SOL    HW145711   8.767   4.879   2.231
11594SOL    HW245712   8.918   4.821   2.210
11595SOL     OW45713   3.317   7.885   0.091
11595SOL    HW145714   3.382   7.906   0.164
11595SOL    HW245715   3.320   7.787   0.072
11596SOL     OW45716   7.470   0.134   0.536
11596SOL    HW145717   7.501   0.217   0.489
11596SOL    HW245718   7.389   0.156   0.591
11597SOL     OW45719   5.843   0.353   2.672
11597SOL    HW145720   5.800   0.437   2.639
11597SOL    HW245721   5.855   0.290   2.596
11598SOL     OW45722   8.886   4.775   0.667
11598SOL    HW145723   8.957   4.734   0.608
11598SOL    HW245724   8.896   4.874   0.667
11599SOL     OW45725   4.683   9.713   1.271
11599SOL    HW145726   4.678   9.653   1.351
11599SOL    HW245727   4.671   9.658   1.188
11600SOL     OW45728   3.538   4.301   3.288
11600SOL    HW145729   3.583   4.388   3.264
11600SOL    HW245730   3.511   4.254   3.204
11601SOL     OW45731   0.068   8.769   1.825
11601SOL    HW145732   0.107   8.844   1.879
11601SOL    HW245733   9.990   8.730   1.876
11602SOL     OW45734   5.110   2.343   1.797
11602SOL    HW145735   5.177   2.279   1.834
11602SOL    HW245736   5.104   2.333   1.698
11603SOL     OW45737   7.862   8.344   2.640
11603SOL    HW145738   7.793   8.314   2.574
11603SOL    HW245739   7.827   8.330   2.733
11604SOL     OW45740   0.381   5.726   1.629
11604SOL    HW145741   0.431   5.707   1.714
11604SOL    HW245742   0.397   5.653   1.564
11605SOL     OW45743   1.147   6.885   0.745
11605SOL    HW145744   1.182   6.882   0.652
11605SOL    HW245745   1.053   6.919   0.744
11606SOL     OW45746   2.780   8.674   2.795
11606SOL    HW145747   2.713   8.600   2.805
11606SOL    HW245748   2.872   8.635   2.787
11607SOL     OW45749   4.837   9.244   0.193
11607SOL    HW145750   4.873   9.325   0.147
11607SOL    HW245751   4.882   9.162   0.157
11608SOL     OW45752   0.521   5.071   0.331
11608SOL    HW145753   0.610   5.108   0.358
11608SOL    HW245754   0.528   4.972   0.320
11609SOL     OW45755   8.689   7.998   0.199
11609SOL    HW145756   8.636   8.079   0.224
11609SOL    HW245757   8.786   8.024   0.188
11610SOL     OW45758   9.106   3.275   3.655
11610SOL    HW145759   9.166   3.310   3.582
11610SOL    HW245760   9.147   3.193   3.695
11611SOL     OW45761   9.834   2.520   0.604
11611SOL    HW145762   9.873   2.602   0.646
11611SOL    HW245763   9.821   2.536   0.506
11612SOL     OW45764   0.256   3.155   4.217
11612SOL    HW145765   0.305   3.096   4.154
11612SOL    HW245766   0.163   3.170   4.184
11613SOL     OW45767   0.849   0.369   0.276
11613SOL    HW145768   0.799   0.429   0.213
11613SOL    HW245769   0.939   0.409   0.295
11614SOL     OW45770   7.406   9.168   4.170
11614SOL    HW145771   7.454   9.109   4.235
11614SOL    HW245772   7.357   9.240   4.220
11615SOL     OW45773   2.215   4.098   2.989
11615SOL    HW145774   2.229   4.177   3.049
11615SOL    HW245775   2.166   4.026   3.038
11616SOL     OW45776   1.272   2.284   5.236
11616SOL    HW145777   1.224   2.269   5.149
11616SOL    HW245778   1.273   2.382   5.256
11617SOL     OW45779   3.073   5.280   3.955
11617SOL    HW145780   3.056   5.268   3.857
11617SOL    HW245781   3.131   5.361   3.969
11618SOL     OW45782   5.113   7.435   5.122
11618SOL    HW145783   5.035   7.400   5.071
11618SOL    HW245784   5.087   7.520   5.168
11619SOL     OW45785   3.859   1.693   0.790
11619SOL    HW145786   3.951   1.698   0.751
11619SOL    HW245787   3.792   1.702   0.717
11620SOL     OW45788   9.312   1.900   2.342
11620SOL    HW145789   9.357   1.987   2.363
11620SOL    HW245790   9.218   1.917   2.314
11621SOL     OW45791   9.668   6.116   0.906
11621SOL    HW145792   9.749   6.060   0.924
11621SOL    HW245793   9.692   6.213   0.912
11622SOL     OW45794   1.252   0.008   5.106
11622SOL    HW145795   1.288   9.921   5.073
11622SOL    HW245796   1.180   9.991   5.173
11623SOL     OW45797   1.449   2.494   3.944
11623SOL    HW145798   1.466   2.441   3.861
11623SOL    HW245799   1.438   2.590   3.920
11624SOL     OW45800   0.497   2.670   0.229
11624SOL    HW145801   0.519   2.573   0.238
11624SOL    HW245802   0.460   2.704   0.316
11625SOL     OW45803   4.266   4.205   1.942
11625SOL    HW145804   4.279   4.231   1.847
11625SOL    HW245805   4.207   4.272   1.987
11626SOL     OW45806   8.761   2.094   1.845
11626SOL    HW145807   8.758   2.194   1.856
11626SOL    HW245808   8.852   2.067   1.811
11627SOL     OW45809   3.846   2.385   0.203
11627SOL    HW145810   3.872   2.309   0.144
11627SOL    HW245811   3.905   2.463   0.186
11628SOL     OW45812   8.098   1.416   0.251
11628SOL    HW145813   8.041   1.498   0.258
11628SOL    HW245814   8.108   1.375   0.342
11629SOL     OW45815   7.953   2.288   3.346
11629SOL    HW145816   8.049   2.306   3.324
11629SOL    HW245817   7.898   2.288   3.263
11630SOL     OW45818   3.743   2.024   4.034
11630SOL    HW145819   3.720   1.983   4.122
11630SOL    HW245820   3.743   2.124   4.043
11631SOL     OW45821   7.277   4.555   0.696
11631SOL    HW145822   7.296   4.506   0.611
11631SOL    HW245823   7.363   4.586   0.736
11632SOL     OW45824   9.152   2.992   2.098
11632SOL    HW145825   9.250   2.984   2.117
11632SOL    HW245826   9.130   2.945   2.013
11633SOL     OW45827   7.379   0.707   4.600
11633SOL    HW145828   7.325   0.628   4.573
11633SOL    HW245829   7.463   0.677   4.645
11634SOL     OW45830   4.425   9.569   4.945
11634SOL    HW145831   4.395   9.658   4.911
11634SOL    HW245832   4.460   9.580   5.038
11635SOL     OW45833   9.335   0.306   1.807
11635SOL    HW145834   9.411   0.277   1.750
11635SOL    HW245835   9.303   0.396   1.777
11636SOL     OW45836   6.368   8.959   3.474
11636SOL    HW145837   6.307   8.999   3.541
11636SOL    HW245838   6.316   8.897   3.414
11637SOL     OW45839   7.808   0.521   4.524
11637SOL    HW145840   7.733   0.547   4.585
11637SOL    HW245841   7.771   0.490   4.437
11638SOL     OW45842   9.032   7.284   2.526
11638SOL    HW145843   8.945   7.327   2.552
11638SOL    HW245844   9.019   7.185   2.515
11639SOL     OW45845   3.136   2.787   3.131
11639SOL    HW145846   3.046   2.827   3.112
11639SOL    HW245847   3.151   2.709   3.071
11640SOL     OW45848   3.734   7.985   4.498
11640SOL    HW145849   3.677   7.907   4.523
11640SOL    HW245850   3.690   8.070   4.528
11641SOL     OW45851   8.520   6.165   0.942
11641SOL    HW145852   8.585   6.089   0.946
11641SOL    HW245853   8.443   6.147   1.003
11642SOL     OW45854   9.481   1.883   0.480
11642SOL    HW145855   9.434   1.930   0.555
11642SOL    HW245856   9.580   1.896   0.489
11643SOL     OW45857   7.486   9.388   2.248
11643SOL    HW145858   7.549   9.320   2.212
11643SOL    HW245859   7.521   9.426   2.333
11644SOL     OW45860   2.876   5.537   2.986
11644SOL    HW145861   2.956   5.496   2.942
11644SOL    HW245862   2.898   5.630   3.014
11645SOL     OW45863   0.726   8.857   3.524
11645SOL    HW145864   0.634   8.855   3.562
11645SOL    HW245865   0.785   8.914   3.581
11646SOL     OW45866   4.126   7.632   1.285
11646SOL    HW145867   4.161   7.648   1.377
11646SOL    HW245868   4.163   7.700   1.222
11647SOL     OW45869   3.144   2.379   0.074
11647SOL    HW145870   3.234   2.378   0.032
11647SOL    HW245871   3.149   2.422   0.164
11648SOL     OW45872   8.081   5.596   4.100
11648SOL    HW145873   8.145   5.665   4.131
11648SOL    HW245874   8.060   5.533   4.176
11649SOL     OW45875   7.153   3.454   0.381
11649SOL    HW145876   7.109   3.365   0.395
11649SOL    HW245877   7.158   3.474   0.284
11650SOL     OW45878   2.039   5.863   4.357
11650SOL    HW145879   2.131   5.901   4.362
11650SOL    HW245880   1.973   5.931   4.391
11651SOL     OW45881   9.974   7.657   3.004
11651SOL    HW145882   9.984   7.564   2.970
11651SOL    HW245883   9.880   7.688   2.990
11652SOL     OW45884   4.345   9.280   0.316
11652SOL    HW145885   4.322   9.298   0.220
11652SOL    HW245886   4.435   9.238   0.321
11653SOL     OW45887   4.393   7.334   2.949
11653SOL    HW145888   4.339   7.397   3.005
11653SOL    HW245889   4.365   7.240   2.969
11654SOL     OW45890   2.590   8.996   5.129
11654SOL    HW145891   2.682   8.961   5.109
11654SOL    HW245892   2.556   9.047   5.050
11655SOL     OW45893   3.187   3.140   5.267
11655SOL    HW145894   3.120   3.078   5.226
11655SOL    HW245895   3.275   3.093   5.277
11656SOL     OW45896   0.575   4.709   2.791
11656SOL    HW145897   0.511   4.742   2.861
11656SOL    HW245898   0.525   4.677   2.712
11657SOL     OW45899   2.018   1.976   4.465
11657SOL    HW145900   2.114   1.995   4.444
11657SOL    HW245901   1.972   2.060   4.491
11658SOL     OW45902   2.073   3.019   3.039
11658SOL    HW145903   2.023   3.091   3.087
11658SOL    HW245904   2.017   2.936   3.036
11659SOL     OW45905   4.440   7.369   2.085
11659SOL    HW145906   4.457   7.355   1.987
11659SOL    HW245907   4.526   7.389   2.131
11660SOL     OW45908   3.964   5.905   1.787
11660SOL    HW145909   4.043   5.918   1.727
11660SOL    HW245910   3.995   5.889   1.880
11661SOL     OW45911   1.248   8.443   4.613
11661SOL    HW145912   1.255   8.481   4.705
11661SOL    HW245913   1.153   8.420   4.593
11662SOL     OW45914   7.116   9.427   4.035
11662SOL    HW145915   7.206   9.469   4.040
11662SOL    HW245916   7.112   9.364   3.958
11663SOL     OW45917   0.852   9.118   4.597
11663SOL    HW145918   0.782   9.113   4.526
11663SOL    HW245919   0.909   9.199   4.582
11664SOL     OW45920   6.745   2.659   2.962
11664SOL    HW145921   6.680   2.732   2.943
11664SOL    HW245922   6.790   2.631   2.877
11665SOL     OW45923   4.466   2.030   2.861
11665SOL    HW145924   4.528   2.016   2.939
11665SOL    HW245925   4.376   1.994   2.883
11666SOL     OW45926   3.477   2.382   4.245
11666SOL    HW145927   3.566   2.401   4.285
11666SOL    HW245928   3.470   2.429   4.157
11667SOL     OW45929   0.614   9.731   0.755
11667SOL    HW145930   0.522   9.731   0.716
11667SOL    HW245931   0.616   9.788   0.837
11668SOL     OW45932   0.623   8.749   0.409
11668SOL    HW145933   0.621   8.813   0.485
11668SOL    HW245934   0.587   8.793   0.327
11669SOL     OW45935   8.765   7.456   0.566
11669SOL    HW145936   8.860   7.462   0.599
11669SOL    HW245937   8.736   7.545   0.531
11670SOL     OW45938   4.198   5.591   2.641
11670SOL    HW145939   4.231   5.667   2.585
11670SOL    HW245940   4.179   5.623   2.733
11671SOL     OW45941   2.593   0.137   2.704
11671SOL    HW145942   2.692   0.133   2.718
11671SOL    HW245943   2.556   0.216   2.752
11672SOL     OW45944   0.177   1.561   1.849
11672SOL    HW145945   0.197   1.490   1.781
11672SOL    HW245946   0.079   1.559   1.871
11673SOL     OW45947   4.268   9.435   4.472
11673SOL    HW145948   4.303   9.382   4.550
11673SOL    HW245949   4.242   9.373   4.399
11674SOL     OW45950   9.845   5.552   0.732
11674SOL    HW145951   9.775   5.489   0.765
11674SOL    HW245952   9.814   5.646   0.745
11675SOL     OW45953   9.374   7.622   0.873
11675SOL    HW145954   9.276   7.639   0.863
11675SOL    HW245955   9.389   7.526   0.898
11676SOL     OW45956   2.569   9.186   1.971
11676SOL    HW145957   2.572   9.286   1.972
11676SOL    HW245958   2.613   9.150   2.053
11677SOL     OW45959   0.303   8.573   3.314
11677SOL    HW145960   0.383   8.514   3.324
11677SOL    HW245961   0.333   8.667   3.298
11678SOL     OW45962   1.388   6.185   0.808
11678SOL    HW145963   1.294   6.160   0.788
11678SOL    HW245964   1.412   6.156   0.901
11679SOL     OW45965   3.348   5.493   1.561
11679SOL    HW145966   3.427   5.436   1.585
11679SOL    HW245967   3.335   5.562   1.631
11680SOL     OW45968   9.936   6.386   1.628
11680SOL    HW145969   9.864   6.321   1.604
11680SOL    HW245970   0.015   6.371   1.568
11681SOL     OW45971   5.836   7.227   2.632
11681SOL    HW145972   5.821   7.275   2.719
11681SOL    HW245973   5.934   7.220   2.615
11682SOL     OW45974   6.228   9.076   2.658
11682SOL    HW145975   6.241   9.011   2.733
11682SOL    HW245976   6.292   9.055   2.584
11683SOL     OW45977   2.347   3.611   4.501
11683SOL    HW145978   2.293   3.602   4.417
11683SOL    HW245979   2.288   3.638   4.576
11684SOL     OW45980   6.518   1.512   1.839
11684SOL    HW145981   6.544   1.606   1.822
11684SOL    HW245982   6.463   1.507   1.923
11685SOL     OW45983   3.522   5.060   0.377
11685SOL    HW145984   3.455   5.071   0.450
11685SOL    HW245985   3.591   4.994   0.404
11686SOL     OW45986   3.040   7.271   3.598
11686SOL    HW145987   3.008   7.352   3.647
11686SOL    HW245988   2.982   7.193   3.622
11687SOL     OW45989   4.652   8.804   3.287
11687SOL    HW145990   4.697   8.854   3.213
11687SOL    HW245991   4.704   8.814   3.372
11688SOL     OW45992   4.532   3.266   4.556
11688SOL    HW145993   4.483   3.183   4.584
11688SOL    HW245994   4.491   3.301   4.471
11689SOL     OW45995   9.396   6.273   1.862
11689SOL    HW145996   9.413   6.178   1.887
11689SOL    HW245997   9.309   6.303   1.902
11690SOL     OW45998   3.016   3.663   2.673
11690SOL    HW145999   3.055   3.635   2.761
11690SOL    HW246000   2.999   3.761   2.673
11691SOL     OW46001   1.175   4.003   0.827
11691SOL    HW146002   1.165   3.962   0.736
11691SOL    HW246003   1.106   3.964   0.889
11692SOL     OW46004   3.079   0.042   2.372
11692SOL    HW146005   3.049   0.136   2.386
11692SOL    HW246006   3.006   9.991   2.326
11693SOL     OW46007   0.826   7.319   3.117
11693SOL    HW146008   0.922   7.335   3.095
11693SOL    HW246009   0.768   7.365   3.050
11694SOL     OW46010   0.719   2.354   3.364
11694SOL    HW146011   0.804   2.378   3.316
11694SOL    HW246012   0.730   2.265   3.408
11695SOL     OW46013   0.348   4.947   4.958
11695SOL    HW146014   0.264   4.958   4.905
11695SOL    HW246015   0.344   4.861   5.008
11696SOL     OW46016   2.471   9.857   2.414
11696SOL    HW146017   2.380   9.886   2.386
11696SOL    HW246018   2.514   9.807   2.339
11697SOL     OW46019   1.750   1.282   1.154
11697SOL    HW146020   1.842   1.271   1.117
11697SOL    HW246021   1.685   1.229   1.100
11698SOL     OW46022   4.401   6.264   2.912
11698SOL    HW146023   4.358   6.278   2.822
11698SOL    HW246024   4.497   6.293   2.908
11699SOL     OW46025   5.262   5.165   1.912
11699SOL    HW146026   5.358   5.141   1.898
11699SOL    HW246027   5.204   5.088   1.883
11700SOL     OW46028   9.387   3.771   3.274
11700SOL    HW146029   9.471   3.734   3.315
11700SOL    HW246030   9.362   3.856   3.320
11701SOL     OW46031   8.222   9.530   2.435
11701SOL    HW146032   8.289   9.569   2.372
11701SOL    HW246033   8.197   9.438   2.404
11702SOL     OW46034   4.137   9.755   1.152
11702SOL    HW146035   4.083   9.795   1.078
11702SOL    HW246036   4.183   9.673   1.120
11703SOL     OW46037   1.879   4.727   1.992
11703SOL    HW146038   1.907   4.673   1.912
11703SOL    HW246039   1.960   4.770   2.032
11704SOL     OW46040   9.835   5.399   3.078
11704SOL    HW146041   9.893   5.317   3.072
11704SOL    HW246042   9.874   5.472   3.021
11705SOL     OW46043   2.078   2.955   0.548
11705SOL    HW146044   2.026   2.943   0.463
11705SOL    HW246045   2.024   2.919   0.624
11706SOL     OW46046   1.745   9.240   3.021
11706SOL    HW146047   1.749   9.140   3.011
11706SOL    HW246048   1.745   9.264   3.118
11707SOL     OW46049   9.152   8.851   3.639
11707SOL    HW146050   9.116   8.766   3.678
11707SOL    HW246051   9.077   8.915   3.624
11708SOL     OW46052   7.723   7.997   3.782
11708SOL    HW146053   7.759   7.988   3.875
11708SOL    HW246054   7.684   8.089   3.771
11709SOL     OW46055   2.542   7.363   3.538
11709SOL    HW146056   2.589   7.433   3.591
11709SOL    HW246057   2.609   7.302   3.495
11710SOL     OW46058   8.528   1.967   2.978
11710SOL    HW146059   8.527   1.904   2.900
11710SOL    HW246060   8.499   1.918   3.060
11711SOL     OW46061   1.802   7.950   0.834
11711SOL    HW146062   1.770   7.989   0.747
11711SOL    HW246063   1.725   7.912   0.884
11712SOL     OW46064   6.441   8.151   3.263
11712SOL    HW146065   6.490   8.170   3.348
11712SOL    HW246066   6.500   8.099   3.202
11713SOL     OW46067   3.335   8.535   1.558
11713SOL    HW146068   3.263   8.589   1.603
11713SOL    HW246069   3.340   8.445   1.600
11714SOL     OW46070   9.572   3.215   2.108
11714SOL    HW146071   9.660   3.219   2.154
11714SOL    HW246072   9.579   3.254   2.017
11715SOL     OW46073   9.699   0.641   4.841
11715SOL    HW146074   9.678   0.621   4.937
11715SOL    HW246075   9.781   0.591   4.814
11716SOL     OW46076   3.377   8.004   1.454
11716SOL    HW146077   3.380   7.945   1.535
11716SOL    HW246078   3.467   8.002   1.409
11717SOL     OW46079   4.907   2.152   2.104
11717SOL    HW146080   4.997   2.109   2.112
11717SOL    HW246081   4.859   2.147   2.192
11718SOL     OW46082   0.858   3.366   4.916
11718SOL    HW146083   0.849   3.363   4.817
11718SOL    HW246084   0.903   3.451   4.943
11719SOL     OW46085   2.633   5.737   3.181
11719SOL    HW146086   2.627   5.698   3.090
11719SOL    HW246087   2.591   5.828   3.182
11720SOL     OW46088   0.559   6.308   4.025
11720SOL    HW146089   0.647   6.262   4.036
11720SOL    HW246090   0.497   6.248   3.973
11721SOL     OW46091   7.653   9.572   1.871
11721SOL    HW146092   7.556   9.598   1.871
11721SOL    HW246093   7.661   9.479   1.834
11722SOL     OW46094   2.706   6.743   1.372
11722SOL    HW146095   2.748   6.786   1.292
11722SOL    HW246096   2.764   6.669   1.404
11723SOL     OW46097   5.926   8.425   2.729
11723SOL    HW146098   5.853   8.361   2.752
11723SOL    HW246099   5.944   8.422   2.631
11724SOL     OW46100   8.762   1.610   1.751
11724SOL    HW146101   8.676   1.634   1.706
11724SOL    HW246102   8.838   1.650   1.700
11725SOL     OW46103   1.549   7.175   4.209
11725SOL    HW146104   1.581   7.182   4.304
11725SOL    HW246105   1.614   7.222   4.149
11726SOL     OW46106   2.592   8.349   1.003
11726SOL    HW146107   2.609   8.445   0.982
11726SOL    HW246108   2.498   8.337   1.034
11727SOL     OW46109   0.571   6.985   1.486
11727SOL    HW146110   0.600   7.065   1.433
11727SOL    HW246111   0.639   6.964   1.556
11728SOL     OW46112   3.852   9.779   2.770
11728SOL    HW146113   3.814   9.701   2.721
11728SOL    HW246114   3.788   9.808   2.842
11729SOL     OW46115   0.215   1.557   4.087
11729SOL    HW146116   0.193   1.477   4.142
11729SOL    HW246117   0.179   1.545   3.994
11730SOL     OW46118   1.966   0.428   3.794
11730SOL    HW146119   1.871   0.458   3.798
11730SOL    HW246120   1.981   0.356   3.861
11731SOL     OW46121   4.799   3.316   3.626
11731SOL    HW146122   4.726   3.382   3.613
11731SOL    HW246123   4.853   3.309   3.542
11732SOL     OW46124   0.283   9.392   2.936
11732SOL    HW146125   0.265   9.412   2.839
11732SOL    HW246126   0.197   9.387   2.985
11733SOL     OW46127   9.092   4.383   3.331
11733SOL    HW146128   9.022   4.324   3.289
11733SOL    HW246129   9.047   4.464   3.370
11734SOL     OW46130   1.024   9.029   3.412
11734SOL    HW146131   0.974   9.010   3.496
11734SOL    HW246132   1.110   8.977   3.411
11735SOL     OW46133   3.710   4.838   1.729
11735SOL    HW146134   3.766   4.903   1.679
11735SOL    HW246135   3.768   4.785   1.791
11736SOL     OW46136   7.345   8.475   3.703
11736SOL    HW146137   7.352   8.399   3.639
11736SOL    HW246138   7.373   8.444   3.794
11737SOL     OW46139   1.593   2.897   4.175
11737SOL    HW146140   1.621   2.937   4.262
11737SOL    HW246141   1.631   2.805   4.167
11738SOL     OW46142   7.176   7.658   4.056
11738SOL    HW146143   7.189   7.564   4.025
11738SOL    HW246144   7.182   7.662   4.155
11739SOL     OW46145   3.411   6.333   3.721
11739SOL    HW146146   3.336   6.387   3.681
11739SOL    HW246147   3.401   6.238   3.693
11740SOL     OW46148   7.631   0.857   2.655
11740SOL    HW146149   7.688   0.775   2.647
11740SOL    HW246150   7.548   0.835   2.707
11741SOL     OW46151   7.222   2.009   4.795
11741SOL    HW146152   7.178   1.975   4.877
11741SOL    HW246153   7.314   2.040   4.816
11742SOL     OW46154   1.738   4.020   0.743
11742SOL    HW146155   1.814   4.082   0.763
11742SOL    HW246156   1.712   3.971   0.826
11743SOL     OW46157   3.523   9.676   4.169
11743SOL    HW146158   3.439   9.730   4.165
11743SOL    HW246159   3.585   9.716   4.237
11744SOL     OW46160   9.141   1.488   1.738
11744SOL    HW146161   9.179   1.400   1.766
11744SOL    HW246162   9.088   1.476   1.654
11745SOL     OW46163   2.494   1.795   2.522
11745SOL    HW146164   2.458   1.792   2.428
11745SOL    HW246165   2.551   1.877   2.532
11746SOL     OW46166   0.256   7.427   0.299
11746SOL    HW146167   0.286   7.420   0.394
11746SOL    HW246168   0.207   7.513   0.285
11747SOL     OW46169   1.961   8.667   2.688
11747SOL    HW146170   1.978   8.703   2.596
11747SOL    HW246171   2.021   8.589   2.705
11748SOL     OW46172   3.625   1.883   2.432
11748SOL    HW146173   3.636   1.982   2.427
11748SOL    HW246174   3.652   1.850   2.523
11749SOL     OW46175   7.631   4.122   0.900
11749SOL    HW146176   7.638   4.091   0.805
11749SOL    HW246177   7.716   4.167   0.927
11750SOL     OW46178   5.708   8.141   3.183
11750SOL    HW146179   5.745   8.224   3.141
11750SOL    HW246180   5.641   8.166   3.253
11751SOL     OW46181   9.391   0.024   3.827
11751SOL    HW146182   9.343   0.107   3.799
11751SOL    HW246183   9.479   0.048   3.868
11752SOL     OW46184   8.952   8.083   0.174
11752SOL    HW146185   9.006   8.166   0.182
11752SOL    HW246186   9.004   8.006   0.211
11753SOL     OW46187   2.924   1.092   1.429
11753SOL    HW146188   2.938   1.091   1.528
11753SOL    HW246189   2.827   1.078   1.410
11754SOL     OW46190   4.181   8.290   3.472
11754SOL    HW146191   4.096   8.342   3.469
11754SOL    HW246192   4.258   8.351   3.457
11755SOL     OW46193   1.293   3.215   2.907
11755SOL    HW146194   1.385   3.180   2.887
11755SOL    HW246195   1.228   3.179   2.840
11756SOL     OW46196   4.371   2.542   1.457
11756SOL    HW146197   4.460   2.585   1.472
11756SOL    HW246198   4.384   2.445   1.435
11757SOL     OW46199   9.549   6.017   0.667
11757SOL    HW146200   9.587   6.053   0.752
11757SOL    HW246201   9.593   5.929   0.645
11758SOL     OW46202   1.905   4.208   1.887
11758SOL    HW146203   1.869   4.115   1.889
11758SOL    HW246204   1.925   4.239   1.980
11759SOL     OW46205   7.340   1.247   1.244
11759SOL    HW146206   7.286   1.186   1.302
11759SOL    HW246207   7.280   1.295   1.180
11760SOL     OW46208   1.998   5.106   2.686
11760SOL    HW146209   1.998   5.203   2.710
11760SOL    HW246210   2.087   5.082   2.645
11761SOL     OW46211   1.810   2.470   4.224
11761SOL    HW146212   1.854   2.380   4.219
11761SOL    HW246213   1.713   2.461   4.199
11762SOL     OW46214   3.502   6.757   2.390
11762SOL    HW146215   3.503   6.665   2.350
11762SOL    HW246216   3.555   6.756   2.475
11763SOL     OW46217   6.336   9.965   3.096
11763SOL    HW146218   6.377   9.926   3.178
11763SOL    HW246219   6.250   0.011   3.119
11764SOL     OW46220   2.920   1.634   3.092
11764SOL    HW146221   2.930   1.555   3.031
11764SOL    HW246222   2.826   1.668   3.087
11765SOL     OW46223   8.394   8.255   2.668
11765SOL    HW146224   8.323   8.300   2.721
11765SOL    HW246225   8.357   8.228   2.579
11766SOL     OW46226   8.524   9.428   1.833
11766SOL    HW146227   8.434   9.420   1.877
11766SOL    HW246228   8.593   9.444   1.903
11767SOL     OW46229   3.423   8.208   0.296
11767SOL    HW146230   3.370   8.247   0.221
11767SOL    HW246231   3.427   8.108   0.285
11768SOL     OW46232   5.479   9.631   2.026
11768SOL    HW146233   5.487   9.656   2.122
11768SOL    HW246234   5.561   9.580   1.998
11769SOL     OW46235   2.787   2.614   2.583
11769SOL    HW146236   2.738   2.618   2.671
11769SOL    HW246237   2.845   2.533   2.582
11770SOL     OW46238   8.959   1.177   3.778
11770SOL    HW146239   8.923   1.253   3.833
11770SOL    HW246240   9.040   1.140   3.822
11771SOL     OW46241   6.972   9.889   1.431
11771SOL    HW146242   6.980   9.910   1.333
11771SOL    HW246243   6.877   9.868   1.452
11772SOL     OW46244   6.686   1.297   1.790
11772SOL    HW146245   6.627   1.377   1.803
11772SOL    HW246246   6.697   1.249   1.877
11773SOL     OW46247   6.998   1.722   2.997
11773SOL    HW146248   7.046   1.705   2.911
11773SOL    HW246249   6.955   1.812   2.994
11774SOL     OW46250   0.230   8.322   4.708
11774SOL    HW146251   0.263   8.280   4.624
11774SOL    HW246252   0.307   8.337   4.770
11775SOL     OW46253   8.523   5.459   4.173
11775SOL    HW146254   8.496   5.504   4.258
11775SOL    HW246255   8.622   5.467   4.160
11776SOL     OW46256   8.470   9.777   2.568
11776SOL    HW146257   8.370   9.769   2.563
11776SOL    HW246258   8.506   9.711   2.634
11777SOL     OW46259   3.463   8.909   3.838
11777SOL    HW146260   3.390   8.880   3.776
11777SOL    HW246261   3.480   8.838   3.906
11778SOL     OW46262   4.198   5.681   1.649
11778SOL    HW146263   4.183   5.779   1.637
11778SOL    HW246264   4.294   5.664   1.671
11779SOL     OW46265   1.016   0.861   2.440
11779SOL    HW146266   1.019   0.808   2.525
11779SOL    HW246267   1.075   0.819   2.372
11780SOL     OW46268   9.177   3.969   3.078
11780SOL    HW146269   9.104   4.019   3.032
11780SOL    HW246270   9.266   4.000   3.045
11781SOL     OW46271   5.913   9.651   2.791
11781SOL    HW146272   5.962   9.675   2.874
11781SOL    HW246273   5.936   9.557   2.765
11782SOL     OW46274   9.163   2.237   2.746
11782SOL    HW146275   9.240   2.176   2.767
11782SOL    HW246276   9.081   2.204   2.794
11783SOL     OW46277   8.761   2.692   4.262
11783SOL    HW146278   8.679   2.749   4.264
11783SOL    HW246279   8.743   2.605   4.308
11784SOL     OW46280   2.514   0.854   4.015
11784SOL    HW146281   2.452   0.922   4.055
11784SOL    HW246282   2.469   0.808   3.938
11785SOL     OW46283   1.698   2.616   1.251
11785SOL    HW146284   1.737   2.592   1.339
11785SOL    HW246285   1.711   2.714   1.234
11786SOL     OW46286   5.253   1.957   3.988
11786SOL    HW146287   5.323   2.026   3.966
11786SOL    HW246288   5.271   1.874   3.936
11787SOL     OW46289   3.270   1.223   0.584
11787SOL    HW146290   3.199   1.152   0.590
11787SOL    HW246291   3.228   1.311   0.565
11788SOL     OW46292   2.565   6.322   1.712
11788SOL    HW146293   2.621   6.377   1.774
11788SOL    HW246294   2.612   6.314   1.624
11789SOL     OW46295   8.612   4.597   1.981
11789SOL    HW146296   8.647   4.513   2.021
11789SOL    HW246297   8.553   4.575   1.903
11790SOL     OW46298   0.369   3.784   4.708
11790SOL    HW146299   0.461   3.763   4.676
11790SOL    HW246300   0.360   3.883   4.720
11791SOL     OW46301   0.423   2.705   3.115
11791SOL    HW146302   0.398   2.790   3.161
11791SOL    HW246303   0.399   2.711   3.018
11792SOL     OW46304   3.523   9.225   1.897
11792SOL    HW146305   3.575   9.159   1.951
11792SOL    HW246306   3.573   9.312   1.893
11793SOL     OW46307   2.924   8.327   1.902
11793SOL    HW146308   2.883   8.399   1.959
11793SOL    HW246309   2.895   8.339   1.807
11794SOL     OW46310   2.646   3.553   3.777
11794SOL    HW146311   2.679   3.469   3.733
11794SOL    HW246312   2.720   3.593   3.831
11795SOL     OW46313   0.779   5.171   0.383
11795SOL    HW146314   0.819   5.185   0.293
11795SOL    HW246315   0.833   5.218   0.452
11796SOL     OW46316   9.161   5.020   2.916
11796SOL    HW146317   9.132   5.090   2.981
11796SOL    HW246318   9.219   4.953   2.963
11797SOL     OW46319   6.482   2.701   3.224
11797SOL    HW146320   6.450   2.713   3.318
11797SOL    HW246321   6.582   2.701   3.223
11798SOL     OW46322   4.958   1.950   1.534
11798SOL    HW146323   4.885   1.890   1.567
11798SOL    HW246324   4.989   1.918   1.444
11799SOL     OW46325   0.091   2.563   3.680
11799SOL    HW146326   0.029   2.612   3.741
11799SOL    HW246327   0.156   2.628   3.639
11800SOL     OW46328   2.323   6.478   2.054
11800SOL    HW146329   2.304   6.544   1.981
11800SOL    HW246330   2.338   6.388   2.014
11801SOL     OW46331   4.708   8.060   2.469
11801SOL    HW146332   4.764   7.979   2.453
11801SOL    HW246333   4.678   8.098   2.381
11802SOL     OW46334   0.749   6.950   1.686
11802SOL    HW146335   0.845   6.925   1.695
11802SOL    HW246336   0.723   7.010   1.762
11803SOL     OW46337   7.476   9.628   3.218
11803SOL    HW146338   7.408   9.692   3.183
11803SOL    HW246339   7.434   9.539   3.233
11804SOL     OW46340   0.147   5.685   3.956
11804SOL    HW146341   0.081   5.667   3.882
11804SOL    HW246342   0.228   5.628   3.942
11805SOL     OW46343   6.213   0.594   5.241
11805SOL    HW146344   6.143   0.666   5.241
11805SOL    HW246345   6.197   0.532   5.164
11806SOL     OW46346   4.050   5.126   0.545
11806SOL    HW146347   4.008   5.045   0.505
11806SOL    HW246348   4.037   5.204   0.483
11807SOL     OW46349   2.683   8.769   1.922
11807SOL    HW146350   2.583   8.764   1.931
11807SOL    HW246351   2.708   8.857   1.881
11808SOL     OW46352   1.730   5.721   4.036
11808SOL    HW146353   1.737   5.720   3.936
11808SOL    HW246354   1.718   5.627   4.069
11809SOL     OW46355   1.941   1.579   3.910
11809SOL    HW146356   1.982   1.577   4.002
11809SOL    HW246357   1.858   1.524   3.909
11810SOL     OW46358   1.799   2.991   3.321
11810SOL    HW146359   1.811   3.026   3.414
11810SOL    HW246360   1.702   2.982   3.300
11811SOL     OW46361   3.106   8.280   3.160
11811SOL    HW146362   3.168   8.205   3.182
11811SOL    HW246363   3.106   8.296   3.061
11812SOL     OW46364   6.737   9.859   2.276
11812SOL    HW146365   6.755   9.909   2.192
11812SOL    HW246366   6.725   9.923   2.352
11813SOL     OW46367   3.524   3.281   4.055
11813SOL    HW146368   3.504   3.377   4.035
11813SOL    HW246369   3.612   3.274   4.102
11814SOL     OW46370   0.688   8.404   5.149
11814SOL    HW146371   0.731   8.374   5.064
11814SOL    HW246372   0.744   8.474   5.193
11815SOL     OW46373   6.144   4.739   0.676
11815SOL    HW146374   6.129   4.715   0.772
11815SOL    HW246375   6.057   4.759   0.632
11816SOL     OW46376   9.909   4.843   0.181
11816SOL    HW146377   9.933   4.864   0.276
11816SOL    HW246378   9.810   4.857   0.168
11817SOL     OW46379   8.200   2.201   3.944
11817SOL    HW146380   8.286   2.150   3.936
11817SOL    HW246381   8.123   2.138   3.942
11818SOL     OW46382   9.912   6.068   0.178
11818SOL    HW146383   9.817   6.101   0.184
11818SOL    HW246384   9.912   5.974   0.145
11819SOL     OW46385   2.556   8.850   1.151
11819SOL    HW146386   2.533   8.758   1.181
11819SOL    HW246387   2.632   8.847   1.086
11820SOL     OW46388   2.553   9.741   0.970
11820SOL    HW146389   2.555   9.764   0.873
11820SOL    HW246390   2.488   9.801   1.017
11821SOL     OW46391   7.061   1.332   4.717
11821SOL    HW146392   7.129   1.260   4.731
11821SOL    HW246393   7.083   1.383   4.634
11822SOL     OW46394   7.647   8.519   2.438
11822SOL    HW146395   7.667   8.425   2.411
11822SOL    HW246396   7.632   8.522   2.537
11823SOL     OW46397   8.988   1.943   0.855
11823SOL    HW146398   8.950   1.901   0.772
11823SOL    HW246399   8.964   2.040   0.858
11824SOL     OW46400   2.545   9.179   2.592
11824SOL    HW146401   2.460   9.231   2.603
11824SOL    HW246402   2.534   9.114   2.517
11825SOL     OW46403   6.575   1.637   2.291
11825SOL    HW146404   6.672   1.616   2.281
11825SOL    HW246405   6.564   1.711   2.357
11826SOL     OW46406   1.107   2.485   0.522
11826SOL    HW146407   1.041   2.412   0.504
11826SOL    HW246408   1.175   2.453   0.589
11827SOL     OW46409   6.986   0.339   5.155
11827SOL    HW146410   6.973   0.264   5.219
11827SOL    HW246411   7.080   0.372   5.160
11828SOL     OW46412   4.791   0.626   4.223
11828SOL    HW146413   4.846   0.632   4.306
11828SOL    HW246414   4.841   0.575   4.153
11829SOL     OW46415   9.577   3.698   4.606
11829SOL    HW146416   9.675   3.718   4.595
11829SOL    HW246417   9.523   3.771   4.563
11830SOL     OW46418   4.038   0.296   4.159
11830SOL    HW146419   4.085   0.383   4.176
11830SOL    HW246420   4.086   0.222   4.207
11831SOL     OW46421   3.513   7.932   2.845
11831SOL    HW146422   3.495   8.031   2.849
11831SOL    HW246423   3.609   7.917   2.820
11832SOL     OW46424   9.514   0.328   3.339
11832SOL    HW146425   9.607   0.300   3.362
11832SOL    HW246426   9.501   0.425   3.362
11833SOL     OW46427   2.718   3.138   4.509
11833SOL    HW146428   2.622   3.125   4.534
11833SOL    HW246429   2.776   3.092   4.576
11834SOL     OW46430   1.875   6.667   1.448
11834SOL    HW146431   1.816   6.602   1.402
11834SOL    HW246432   1.943   6.702   1.384
11835SOL     OW46433   0.904   8.484   1.905
11835SOL    HW146434   0.829   8.454   1.847
11835SOL    HW246435   0.874   8.562   1.960
11836SOL     OW46436   8.655   1.928   2.178
11836SOL    HW146437   8.671   1.851   2.240
11836SOL    HW246438   8.671   1.899   2.084
11837SOL     OW46439   9.455   9.254   1.451
11837SOL    HW146440   9.358   9.246   1.471
11837SOL    HW246441   9.467   9.290   1.358
11838SOL     OW46442   2.841   7.444   2.786
11838SOL    HW146443   2.798   7.533   2.774
11838SOL    HW246444   2.941   7.455   2.790
11839SOL     OW46445   6.635   1.672   1.402
11839SOL    HW146446   6.576   1.609   1.453
11839SOL    HW246447   6.625   1.654   1.304
11840SOL     OW46448   8.631   6.012   2.523
11840SOL    HW146449   8.673   5.995   2.433
11840SOL    HW246450   8.687   6.078   2.574
11841SOL     OW46451   6.961   1.165   1.568
11841SOL    HW146452   6.979   1.163   1.666
11841SOL    HW246453   6.863   1.173   1.552
11842SOL     OW46454   4.498   2.336   1.900
11842SOL    HW146455   4.537   2.421   1.936
11842SOL    HW246456   4.562   2.295   1.835
11843SOL     OW46457   9.840   9.555   2.674
11843SOL    HW146458   9.846   9.563   2.574
11843SOL    HW246459   9.886   9.633   2.717
11844SOL     OW46460   8.735   7.850   4.871
11844SOL    HW146461   8.807   7.782   4.871
11844SOL    HW246462   8.646   7.805   4.867
11845SOL     OW46463   0.739   1.251   2.353
11845SOL    HW146464   0.675   1.207   2.290
11845SOL    HW246465   0.824   1.199   2.355
11846SOL     OW46466   1.854   7.863   4.146
11846SOL    HW146467   1.820   7.944   4.097
11846SOL    HW246468   1.878   7.792   4.080
11847SOL     OW46469   5.077   4.473   0.616
11847SOL    HW146470   5.053   4.381   0.645
11847SOL    HW246471   5.032   4.494   0.529
11848SOL     OW46472   7.832   1.197   2.503
11848SOL    HW146473   7.803   1.114   2.456
11848SOL    HW246474   7.932   1.207   2.495
11849SOL     OW46475   1.423   6.114   1.070
11849SOL    HW146476   1.469   6.168   1.141
11849SOL    HW246477   1.328   6.099   1.096
11850SOL     OW46478   2.341   7.936   1.594
11850SOL    HW146479   2.362   7.838   1.596
11850SOL    HW246480   2.423   7.987   1.571
11851SOL     OW46481   1.359   9.494   1.369
11851SOL    HW146482   1.264   9.472   1.346
11851SOL    HW246483   1.419   9.422   1.335
11852SOL     OW46484   0.433   7.806   0.514
11852SOL    HW146485   0.455   7.752   0.595
11852SOL    HW246486   0.515   7.851   0.479
11853SOL     OW46487   8.607   9.701   2.127
11853SOL    HW146488   8.691   9.751   2.146
11853SOL    HW246489   8.629   9.617   2.078
11854SOL     OW46490   5.961   0.905   3.041
11854SOL    HW146491   5.871   0.905   3.085
11854SOL    HW246492   5.970   0.823   2.984
11855SOL     OW46493   2.197   7.932   4.685
11855SOL    HW146494   2.107   7.973   4.700
11855SOL    HW246495   2.249   7.991   4.622
11856SOL     OW46496   3.849   4.694   1.923
11856SOL    HW146497   3.936   4.733   1.893
11856SOL    HW246498   3.839   4.602   1.885
11857SOL     OW46499   1.236   6.790   3.587
11857SOL    HW146500   1.211   6.770   3.682
11857SOL    HW246501   1.327   6.753   3.569
11858SOL     OW46502   1.211   6.737   2.373
11858SOL    HW146503   1.297   6.695   2.402
11858SOL    HW246504   1.227   6.834   2.352
11859SOL     OW46505   1.167   4.021   4.689
11859SOL    HW146506   1.221   3.942   4.719
11859SOL    HW246507   1.095   3.990   4.627
11860SOL     OW46508   4.679   2.591   2.471
11860SOL    HW146509   4.752   2.561   2.409
11860SOL    HW246510   4.596   2.608   2.418
11861SOL     OW46511   3.603   8.810   1.772
11861SOL    HW146512   3.688   8.846   1.809
11861SOL    HW246513   3.624   8.747   1.697
11862SOL     OW46514   2.088   9.737   2.492
11862SOL    HW146515   2.007   9.703   2.540
11862SOL    HW246516   2.104   9.682   2.410
11863SOL     OW46517   1.993   6.956   3.173
11863SOL    HW146518   2.033   7.048   3.175
11863SOL    HW246519   1.961   6.931   3.264
11864SOL     OW46520   5.105   9.271   4.101
11864SOL    HW146521   5.059   9.183   4.096
11864SOL    HW246522   5.039   9.344   4.081
11865SOL     OW46523   5.826   9.127   2.005
11865SOL    HW146524   5.819   9.052   2.071
11865SOL    HW246525   5.737   9.141   1.962
11866SOL     OW46526   0.387   2.729   0.476
11866SOL    HW146527   0.461   2.699   0.536
11866SOL    HW246528   0.350   2.816   0.510
11867SOL     OW46529   7.115   1.877   0.104
11867SOL    HW146530   7.130   1.781   0.129
11867SOL    HW246531   7.053   1.882   0.026
11868SOL     OW46532   3.814   3.388   3.895
11868SOL    HW146533   3.800   3.366   3.992
11868SOL    HW246534   3.777   3.479   3.876
11869SOL     OW46535   4.706   0.532   1.045
11869SOL    HW146536   4.660   0.524   0.957
11869SOL    HW246537   4.717   0.441   1.085
11870SOL     OW46538   8.459   3.119   1.695
11870SOL    HW146539   8.501   3.083   1.778
11870SOL    HW246540   8.487   3.214   1.683
11871SOL     OW46541   5.760   8.202   2.421
11871SOL    HW146542   5.846   8.227   2.464
11871SOL    HW246543   5.724   8.280   2.370
11872SOL     OW46544   8.418   3.707   2.184
11872SOL    HW146545   8.475   3.781   2.149
11872SOL    HW246546   8.474   3.644   2.238
11873SOL     OW46547   4.036   2.096   3.725
11873SOL    HW146548   4.050   2.030   3.799
11873SOL    HW246549   4.107   2.084   3.656
11874SOL     OW46550   9.710   1.238   1.693
11874SOL    HW146551   9.786   1.304   1.693
11874SOL    HW246552   9.742   1.152   1.734
11875SOL     OW46553   1.216   0.838   1.248
11875SOL    HW146554   1.119   0.864   1.253
11875SOL    HW246555   1.227   0.765   1.181
11876SOL     OW46556   3.468   9.310   0.856
11876SOL    HW146557   3.411   9.389   0.832
11876SOL    HW246558   3.464   9.295   0.955
11877SOL     OW46559   3.315   4.727   5.165
11877SOL    HW146560   3.280   4.732   5.258
11877SOL    HW246561   3.359   4.814   5.141
11878SOL     OW46562   2.093   6.790   3.961
11878SOL    HW146563   2.149   6.737   4.025
11878SOL    HW246564   2.038   6.856   4.011
11879SOL     OW46565   9.539   6.421   2.700
11879SOL    HW146566   9.550   6.521   2.699
11879SOL    HW246567   9.630   6.378   2.702
11880SOL     OW46568   1.952   5.274   0.349
11880SOL    HW146569   2.004   5.227   0.278
11880SOL    HW246570   1.884   5.333   0.307
11881SOL     OW46571   7.588   2.356   2.234
11881SOL    HW146572   7.521   2.410   2.286
11881SOL    HW246573   7.677   2.402   2.238
11882SOL     OW46574   9.800   1.429   1.031
11882SOL    HW146575   9.839   1.512   1.071
11882SOL    HW246576   9.740   1.385   1.098
11883SOL     OW46577   1.233   5.479   3.238
11883SOL    HW146578   1.219   5.392   3.285
11883SOL    HW246579   1.259   5.549   3.304
11884SOL     OW46580   1.823   3.158   0.172
11884SOL    HW146581   1.731   3.174   0.208
11884SOL    HW246582   1.826   3.182   0.075
11885SOL     OW46583   1.024   2.646   3.376
11885SOL    HW146584   0.999   2.625   3.281
11885SOL    HW246585   0.992   2.573   3.436
11886SOL     OW46586   0.382   5.928   0.485
11886SOL    HW146587   0.323   5.940   0.565
11886SOL    HW246588   0.426   6.015   0.463
11887SOL     OW46589   8.711   5.835   4.755
11887SOL    HW146590   8.715   5.743   4.716
11887SOL    HW246591   8.745   5.901   4.689
11888SOL     OW46592   5.959   1.880   1.955
11888SOL    HW146593   6.050   1.915   1.931
11888SOL    HW246594   5.961   1.844   2.049
11889SOL     OW46595   3.816   6.881   2.388
11889SOL    HW146596   3.766   6.913   2.308
11889SOL    HW246597   3.812   6.950   2.460
11890SOL     OW46598   8.399   6.466   0.392
11890SOL    HW146599   8.381   6.402   0.317
11890SOL    HW246600   8.389   6.418   0.479
11891SOL     OW46601   4.752   4.240   0.869
11891SOL    HW146602   4.730   4.335   0.847
11891SOL    HW246603   4.777   4.233   0.966
11892SOL     OW46604   0.836   0.470   5.161
11892SOL    HW146605   0.855   0.527   5.081
11892SOL    HW246606   0.885   0.383   5.153
11893SOL     OW46607   3.035   9.570   2.814
11893SOL    HW146608   2.977   9.649   2.794
11893SOL    HW246609   3.124   9.582   2.771
11894SOL     OW46610   8.253   7.921   3.178
11894SOL    HW146611   8.190   7.844   3.165
11894SOL    HW246612   8.253   7.948   3.274
11895SOL     OW46613   6.102   9.060   4.164
11895SOL    HW146614   6.020   9.034   4.214
11895SOL    HW246615   6.182   9.049   4.224
11896SOL     OW46616   1.866   8.659   4.483
11896SOL    HW146617   1.824   8.570   4.500
11896SOL    HW246618   1.952   8.666   4.534
11897SOL     OW46619   8.533   6.976   2.492
11897SOL    HW146620   8.532   6.913   2.570
11897SOL    HW246621   8.617   7.031   2.495
11898SOL     OW46622   8.306   7.138   3.381
11898SOL    HW146623   8.396   7.107   3.352
11898SOL    HW246624   8.265   7.195   3.310
11899SOL     OW46625   6.406   1.842   2.161
11899SOL    HW146626   6.332   1.808   2.103
11899SOL    HW246627   6.466   1.766   2.186
11900SOL     OW46628   6.147   8.785   4.399
11900SOL    HW146629   6.114   8.702   4.444
11900SOL    HW246630   6.171   8.765   4.304
11901SOL     OW46631   9.595   2.680   1.214
11901SOL    HW146632   9.537   2.677   1.133
11901SOL    HW246633   9.548   2.727   1.288
11902SOL     OW46634   7.472   7.942   2.446
11902SOL    HW146635   7.432   7.952   2.537
11902SOL    HW246636   7.401   7.949   2.377
11903SOL     OW46637   0.437   4.404   3.783
11903SOL    HW146638   0.460   4.466   3.858
11903SOL    HW246639   0.366   4.446   3.726
11904SOL     OW46640   3.011   9.609   3.086
11904SOL    HW146641   3.106   9.612   3.117
11904SOL    HW246642   3.008   9.591   2.988
11905SOL     OW46643   3.008   7.342   1.847
11905SOL    HW146644   3.013   7.438   1.874
11905SOL    HW246645   3.040   7.284   1.922
11906SOL     OW46646   4.880   4.721   4.377
11906SOL    HW146647   4.806   4.784   4.350
11906SOL    HW246648   4.948   4.717   4.304
11907SOL     OW46649   6.810   8.960   2.821
11907SOL    HW146650   6.855   8.887   2.871
11907SOL    HW246651   6.879   9.023   2.785
11908SOL     OW46652   6.872   9.963   2.712
11908SOL    HW146653   6.849   9.942   2.807
11908SOL    HW246654   6.953   0.021   2.709
11909SOL     OW46655   2.962   4.464   4.152
11909SOL    HW146656   2.957   4.397   4.227
11909SOL    HW246657   2.882   4.524   4.156
11910SOL     OW46658   3.589   8.571   3.097
11910SOL    HW146659   3.504   8.528   3.066
11910SOL    HW246660   3.577   8.670   3.101
11911SOL     OW46661   1.418   5.375   2.762
11911SOL    HW146662   1.335   5.361   2.709
11911SOL    HW246663   1.395   5.397   2.857
11912SOL     OW46664   2.468   7.627   5.006
11912SOL    HW146665   2.468   7.549   4.943
11912SOL    HW246666   2.435   7.708   4.958
11913SOL     OW46667   8.193   9.858   5.217
11913SOL    HW146668   8.269   9.794   5.227
11913SOL    HW246669   8.123   9.838   5.285
11914SOL     OW46670   7.899   9.079   3.462
11914SOL    HW146671   7.934   9.128   3.542
11914SOL    HW246672   7.799   9.076   3.466
11915SOL     OW46673   8.403   2.897   3.877
11915SOL    HW146674   8.326   2.835   3.888
11915SOL    HW246675   8.405   2.962   3.954
11916SOL     OW46676   4.420   8.127   1.505
11916SOL    HW146677   4.504   8.073   1.495
11916SOL    HW246678   4.371   8.127   1.419
11917SOL     OW46679   3.347   5.968   4.741
11917SOL    HW146680   3.442   6.000   4.733
11917SOL    HW246681   3.346   5.878   4.785
11918SOL     OW46682   9.261   9.919   1.184
11918SOL    HW146683   9.215   0.008   1.185
11918SOL    HW246684   9.320   9.911   1.264
11919SOL     OW46685   8.817   2.415   2.256
11919SOL    HW146686   8.793   2.319   2.268
11919SOL    HW246687   8.917   2.425   2.256
11920SOL     OW46688   7.464   9.430   5.003
11920SOL    HW146689   7.527   9.361   4.967
11920SOL    HW246690   7.515   9.508   5.038
11921SOL     OW46691   4.661   2.902   1.157
11921SOL    HW146692   4.629   2.909   1.063
11921SOL    HW246693   4.735   2.967   1.172
11922SOL     OW46694   9.079   8.320   3.787
11922SOL    HW146695   9.035   8.310   3.876
11922SOL    HW246696   9.013   8.298   3.715
11923SOL     OW46697   7.708   0.219   4.614
11923SOL    HW146698   7.651   0.205   4.534
11923SOL    HW246699   7.804   0.230   4.586
11924SOL     OW46700   6.316   5.656   0.636
11924SOL    HW146701   6.385   5.694   0.698
11924SOL    HW246702   6.238   5.622   0.688
11925SOL     OW46703   3.316   3.062   2.454
11925SOL    HW146704   3.331   3.150   2.410
11925SOL    HW246705   3.402   3.012   2.460
11926SOL     OW46706   6.466   4.325   0.225
11926SOL    HW146707   6.496   4.231   0.238
11926SOL    HW246708   6.376   4.326   0.180
11927SOL     OW46709   2.538   1.210   3.734
11927SOL    HW146710   2.571   1.140   3.670
11927SOL    HW246711   2.557   1.181   3.828
11928SOL     OW46712   5.778   0.111   4.912
11928SOL    HW146713   5.854   0.175   4.905
11928SOL    HW246714   5.726   0.130   4.995
11929SOL     OW46715   3.829   3.140   0.665
11929SOL    HW146716   3.793   3.145   0.572
11929SOL    HW246717   3.822   3.230   0.708
11930SOL     OW46718   2.122   2.131   2.560
11930SOL    HW146719   2.182   2.059   2.596
11930SOL    HW246720   2.055   2.090   2.499
11931SOL     OW46721   8.652   5.783   4.229
11931SOL    HW146722   8.613   5.830   4.150
11931SOL    HW246723   8.579   5.740   4.282
11932SOL     OW46724   9.122   3.302   0.720
11932SOL    HW146725   9.130   3.389   0.769
11932SOL    HW246726   9.118   3.320   0.622
11933SOL     OW46727   9.489   4.689   4.132
11933SOL    HW146728   9.458   4.678   4.226
11933SOL    HW246729   9.585   4.662   4.126
11934SOL     OW46730   6.385   8.452   3.488
11934SOL    HW146731   6.477   8.425   3.460
11934SOL    HW246732   6.355   8.530   3.433
11935SOL     OW46733   7.545   3.564   0.893
11935SOL    HW146734   7.635   3.529   0.918
11935SOL    HW246735   7.478   3.537   0.962
11936SOL     OW46736   2.904   6.403   3.078
11936SOL    HW146737   2.821   6.347   3.089
11936SOL    HW246738   2.977   6.364   3.134
11937SOL     OW46739   0.641   5.727   1.416
11937SOL    HW146740   0.643   5.773   1.505
11937SOL    HW246741   0.584   5.645   1.422
11938SOL     OW46742   2.059   9.375   0.723
11938SOL    HW146743   2.056   9.450   0.788
11938SOL    HW246744   1.984   9.311   0.742
11939SOL     OW46745   8.428   7.657   3.006
11939SOL    HW146746   8.455   7.562   3.023
11939SOL    HW246747   8.504   7.706   2.963
11940SOL     OW46748   6.337   1.044   5.014
11940SOL    HW146749   6.247   1.001   5.007
11940SOL    HW246750   6.405   0.975   5.041
11941SOL     OW46751   2.193   9.588   1.354
11941SOL    HW146752   2.186   9.574   1.453
11941SOL    HW246753   2.111   9.636   1.322
11942SOL     OW46754   5.582   0.023   1.747
11942SOL    HW146755   5.528   9.946   1.780
11942SOL    HW246756   5.544   0.108   1.783
11943SOL     OW46757   1.326   9.715   0.703
11943SOL    HW146758   1.404   9.662   0.737
11943SOL    HW246759   1.256   9.653   0.669
11944SOL     OW46760   9.944   0.127   1.217
11944SOL    HW146761   9.999   0.065   1.160
11944SOL    HW246762   9.847   0.113   1.197
11945SOL     OW46763   6.622   4.548   0.230
11945SOL    HW146764   6.566   4.465   0.221
11945SOL    HW246765   6.563   4.628   0.239
11946SOL     OW46766   8.717   5.319   3.645
11946SOL    HW146767   8.712   5.237   3.701
11946SOL    HW246768   8.773   5.301   3.564
11947SOL     OW46769   0.787   6.967   2.539
11947SOL    HW146770   0.748   6.897   2.478
11947SOL    HW246771   0.799   6.929   2.630
11948SOL     OW46772   1.834   1.126   4.314
11948SOL    HW146773   1.772   1.176   4.374
11948SOL    HW246774   1.908   1.186   4.284
11949SOL     OW46775   9.856   0.521   3.828
11949SOL    HW146776   9.936   0.571   3.795
11949SOL    HW246777   9.854   0.524   3.928
11950SOL     OW46778   4.061   1.267   3.447
11950SOL    HW146779   4.119   1.195   3.409
11950SOL    HW246780   3.994   1.226   3.510
11951SOL     OW46781   0.131   4.257   1.860
11951SOL    HW146782   0.152   4.239   1.764
11951SOL    HW246783   0.110   4.171   1.906
11952SOL     OW46784   9.427   5.558   0.527
11952SOL    HW146785   9.479   5.643   0.531
11952SOL    HW246786   9.490   5.480   0.526
11953SOL     OW46787   9.085   0.977   2.086
11953SOL    HW146788   9.030   1.007   2.008
11953SOL    HW246789   9.152   1.048   2.108
11954SOL     OW46790   3.709   6.925   3.718
11954SOL    HW146791   3.678   7.020   3.727
11954SOL    HW246792   3.809   6.923   3.712
11955SOL     OW46793   3.516   5.490   3.027
11955SOL    HW146794   3.479   5.580   3.004
11955SOL    HW246795   3.514   5.432   2.946
11956SOL     OW46796   0.309   0.256   2.622
11956SOL    HW146797   0.352   0.270   2.532
11956SOL    HW246798   0.243   0.329   2.639
11957SOL     OW46799   7.255   8.696   2.662
11957SOL    HW146800   7.250   8.720   2.759
11957SOL    HW246801   7.312   8.763   2.615
11958SOL     OW46802   8.059   6.400   3.794
11958SOL    HW146803   8.008   6.408   3.880
11958SOL    HW246804   8.079   6.303   3.776
11959SOL     OW46805   7.392   3.798   0.872
11959SOL    HW146806   7.461   3.726   0.879
11959SOL    HW246807   7.309   3.761   0.832
11960SOL     OW46808   2.166   9.028   3.546
11960SOL    HW146809   2.174   9.036   3.645
11960SOL    HW246810   2.085   8.973   3.523
11961SOL     OW46811   1.864   6.126   4.679
11961SOL    HW146812   1.862   6.151   4.582
11961SOL    HW246813   1.834   6.030   4.689
11962SOL     OW46814   2.989   6.871   4.394
11962SOL    HW146815   2.926   6.933   4.347
11962SOL    HW246816   3.029   6.808   4.328
11963SOL     OW46817   2.491   5.546   3.322
11963SOL    HW146818   2.467   5.474   3.257
11963SOL    HW246819   2.548   5.615   3.276
11964SOL     OW46820   7.748   1.425   0.231
11964SOL    HW146821   7.746   1.329   0.204
11964SOL    HW246822   7.692   1.438   0.313
11965SOL     OW46823   4.748   1.727   1.472
11965SOL    HW146824   4.836   1.696   1.508
11965SOL    HW246825   4.701   1.782   1.541
11966SOL     OW46826   9.248   5.570   1.335
11966SOL    HW146827   9.243   5.667   1.357
11966SOL    HW246828   9.220   5.516   1.415
11967SOL     OW46829   8.839   7.649   4.491
11967SOL    HW146830   8.818   7.582   4.562
11967SOL    HW246831   8.865   7.736   4.533
11968SOL     OW46832   9.410   0.138   2.837
11968SOL    HW146833   9.398   0.230   2.875
11968SOL    HW246834   9.326   0.109   2.791
11969SOL     OW46835   4.619   8.535   3.302
11969SOL    HW146836   4.702   8.490   3.270
11969SOL    HW246837   4.628   8.634   3.291
11970SOL     OW46838   9.618   7.997   4.700
11970SOL    HW146839   9.652   8.031   4.612
11970SOL    HW246840   9.695   7.967   4.756
11971SOL     OW46841   6.028   9.325   4.229
11971SOL    HW146842   6.003   9.315   4.325
11971SOL    HW246843   6.053   9.236   4.191
11972SOL     OW46844   2.027   2.042   0.584
11972SOL    HW146845   1.960   1.970   0.600
11972SOL    HW246846   2.110   2.023   0.636
11973SOL     OW46847   9.389   0.633   1.170
11973SOL    HW146848   9.395   0.593   1.079
11973SOL    HW246849   9.378   0.560   1.238
11974SOL     OW46850   2.317   2.518   1.749
11974SOL    HW146851   2.345   2.503   1.844
11974SOL    HW246852   2.252   2.447   1.721
11975SOL     OW46853   2.490   6.310   0.634
11975SOL    HW146854   2.440   6.256   0.567
11975SOL    HW246855   2.521   6.251   0.708
11976SOL     OW46856   1.262   2.254   3.817
11976SOL    HW146857   1.250   2.339   3.766
11976SOL    HW246858   1.193   2.248   3.889
11977SOL     OW46859   8.530   9.014   2.839
11977SOL    HW146860   8.448   8.984   2.790
11977SOL    HW246861   8.611   8.980   2.792
11978SOL     OW46862   9.095   8.186   1.626
11978SOL    HW146863   8.996   8.201   1.631
11978SOL    HW246864   9.138   8.218   1.711
11979SOL     OW46865   8.280   8.574   4.898
11979SOL    HW146866   8.279   8.476   4.878
11979SOL    HW246867   8.366   8.598   4.944
11980SOL     OW46868   4.419   9.795   4.475
11980SOL    HW146869   4.441   9.735   4.398
11980SOL    HW246870   4.363   9.745   4.542
11981SOL     OW46871   5.265   0.053   3.942
11981SOL    HW146872   5.254   0.146   3.906
11981SOL    HW246873   5.358   0.042   3.976
11982SOL     OW46874   6.381   9.282   2.749
11982SOL    HW146875   6.332   9.202   2.715
11982SOL    HW246876   6.342   9.365   2.710
11983SOL     OW46877   4.888   3.634   4.785
11983SOL    HW146878   4.924   3.702   4.849
11983SOL    HW246879   4.808   3.590   4.826
11984SOL     OW46880   0.013   3.209   0.484
11984SOL    HW146881   0.002   3.307   0.502
11984SOL    HW246882   0.106   3.192   0.453
11985SOL     OW46883   0.799   3.959   3.065
11985SOL    HW146884   0.884   4.005   3.041
11985SOL    HW246885   0.728   3.984   3.000
11986SOL     OW46886   1.626   3.085   1.757
11986SOL    HW146887   1.559   3.011   1.755
11986SOL    HW246888   1.588   3.163   1.807
11987SOL     OW46889   1.478   6.500   2.171
11987SOL    HW146890   1.560   6.553   2.148
11987SOL    HW246891   1.499   6.402   2.168
11988SOL     OW46892   2.492   5.861   2.626
11988SOL    HW146893   2.441   5.792   2.678
11988SOL    HW246894   2.523   5.933   2.688
11989SOL     OW46895   9.155   9.766   2.327
11989SOL    HW146896   9.206   9.714   2.396
11989SOL    HW246897   9.111   9.702   2.264
11990SOL     OW46898   4.665   3.538   4.924
11990SOL    HW146899   4.584   3.482   4.942
11990SOL    HW246900   4.668   3.615   4.988
11991SOL     OW46901   4.670   0.681   1.916
11991SOL    HW146902   4.696   0.771   1.948
11991SOL    HW246903   4.733   0.651   1.844
11992SOL     OW46904   5.580   1.918   2.386
11992SOL    HW146905   5.486   1.883   2.392
11992SOL    HW246906   5.637   1.873   2.455
11993SOL     OW46907   8.590   9.083   3.491
11993SOL    HW146908   8.491   9.090   3.487
11993SOL    HW246909   8.616   8.995   3.529
11994SOL     OW46910   8.375   2.214   4.563
11994SOL    HW146911   8.379   2.150   4.486
11994SOL    HW246912   8.303   2.186   4.626
11995SOL     OW46913   1.921   4.926   3.684
11995SOL    HW146914   1.890   4.952   3.776
11995SOL    HW246915   1.871   4.845   3.653
11996SOL     OW46916   7.948   6.287   0.710
11996SOL    HW146917   8.020   6.281   0.779
11996SOL    HW246918   7.965   6.368   0.653
11997SOL     OW46919   9.600   5.755   1.156
11997SOL    HW146920   9.578   5.751   1.059
11997SOL    HW246921   9.570   5.671   1.201
11998SOL     OW46922   9.756   3.768   4.293
11998SOL    HW146923   9.663   3.735   4.279
11998SOL    HW246924   9.781   3.754   4.389
11999SOL     OW46925   6.467   8.351   4.876
11999SOL    HW146926   6.431   8.286   4.808
11999SOL    HW246927   6.484   8.303   4.962
12000SOL     OW46928   7.121   5.010   0.643
12000SOL    HW146929   7.102   4.925   0.593
12000SOL    HW246930   7.173   4.989   0.725
12001SOL     OW46931   7.274   0.027   4.428
12001SOL    HW146932   7.333   9.947   4.420
12001SOL    HW246933   7.277   0.062   4.521
12002SOL     OW46934   0.411   1.275   2.009
12002SOL    HW146935   0.466   1.221   2.072
12002SOL    HW246936   0.469   1.342   1.962
12003SOL     OW46937   3.202   7.201   2.804
12003SOL    HW146938   3.138   7.133   2.767
12003SOL    HW246939   3.213   7.186   2.902
12004SOL     OW46940   9.745   0.176   0.644
12004SOL    HW146941   9.813   0.210   0.708
12004SOL    HW246942   9.687   0.108   0.690
12005SOL     OW46943   5.227   0.521   1.253
12005SOL    HW146944   5.320   0.544   1.223
12005SOL    HW246945   5.184   0.461   1.186
12006SOL     OW46946   0.218   5.058   4.452
12006SOL    HW146947   0.288   5.121   4.418
12006SOL    HW246948   0.262   4.979   4.495
12007SOL     OW46949   5.682   8.736   2.661
12007SOL    HW146950   5.600   8.784   2.690
12007SOL    HW246951   5.731   8.703   2.742
12008SOL     OW46952   9.251   9.600   2.531
12008SOL    HW146953   9.349   9.582   2.524
12008SOL    HW246954   9.203   9.516   2.554
12009SOL     OW46955   3.023   7.868   2.497
12009SOL    HW146956   3.005   7.917   2.582
12009SOL    HW246957   3.019   7.770   2.513
12010SOL     OW46958   2.530   9.626   1.797
12010SOL    HW146959   2.476   9.708   1.815
12010SOL    HW246960   2.469   9.550   1.776
12011SOL     OW46961   4.360   8.869   2.503
12011SOL    HW146962   4.379   8.903   2.411
12011SOL    HW246963   4.388   8.774   2.510
12012SOL     OW46964   9.175   7.899   3.343
12012SOL    HW146965   9.093   7.857   3.304
12012SOL    HW246966   9.249   7.832   3.346
12013SOL     OW46967   0.820   2.883   3.743
12013SOL    HW146968   0.794   2.817   3.674
12013SOL    HW246969   0.860   2.836   3.822
12014SOL     OW46970   2.005   5.706   4.755
12014SOL    HW146971   2.044   5.785   4.802
12014SOL    HW246972   2.040   5.622   4.796
12015SOL     OW46973   8.646   3.349   0.826
12015SOL    HW146974   8.709   3.274   0.843
12015SOL    HW246975   8.552   3.317   0.839
12016SOL     OW46976   8.723   2.165   5.024
12016SOL    HW146977   8.647   2.217   4.985
12016SOL    HW246978   8.772   2.117   4.950
12017SOL     OW46979   4.786   0.091   3.232
12017SOL    HW146980   4.814   0.115   3.139
12017SOL    HW246981   4.768   0.175   3.284
12018SOL     OW46982   6.389   5.056   0.971
12018SOL    HW146983   6.419   5.145   0.936
12018SOL    HW246984   6.379   4.992   0.895
12019SOL     OW46985   9.283   2.927   2.567
12019SOL    HW146986   9.189   2.906   2.542
12019SOL    HW246987   9.345   2.889   2.499
12020SOL     OW46988   1.410   7.561   4.909
12020SOL    HW146989   1.400   7.544   5.007
12020SOL    HW246990   1.480   7.499   4.872
12021SOL     OW46991   2.038   7.869   5.173
12021SOL    HW146992   2.135   7.893   5.169
12021SOL    HW246993   2.011   7.855   5.268
12022SOL     OW46994   8.158   1.339   4.416
12022SOL    HW146995   8.167   1.342   4.515
12022SOL    HW246996   8.150   1.244   4.386
12023SOL     OW46997   2.150   2.066   3.892
12023SOL    HW146998   2.164   2.016   3.978
12023SOL    HW246999   2.180   2.010   3.815
12024SOL     OW47000   2.342   3.363   2.859
12024SOL    HW147001   2.420   3.366   2.796
12024SOL    HW247002   2.296   3.452   2.860
12025SOL     OW47003   7.819   9.565   0.220
12025SOL    HW147004   7.771   9.633   0.275
12025SOL    HW247005   7.760   9.533   0.146
12026SOL     OW47006   1.490   5.826   0.639
12026SOL    HW147007   1.491   5.837   0.738
12026SOL    HW247008   1.530   5.907   0.596
12027SOL     OW47009   4.628   8.890   4.124
12027SOL    HW147010   4.570   8.810   4.110
12027SOL    HW247011   4.571   8.971   4.138
12028SOL     OW47012   4.743   7.723   4.263
12028SOL    HW147013   4.668   7.704   4.200
12028SOL    HW247014   4.724   7.808   4.313
12029SOL     OW47015   8.504   3.708   3.393
12029SOL    HW147016   8.478   3.617   3.360
12029SOL    HW247017   8.594   3.703   3.435
12030SOL     OW47018   7.028   8.831   2.571
12030SOL    HW147019   7.108   8.777   2.598
12030SOL    HW247020   6.959   8.770   2.532
12031SOL     OW47021   8.828   3.708   3.079
12031SOL    HW147022   8.787   3.783   3.026
12031SOL    HW247023   8.854   3.742   3.169
12032SOL     OW47024   0.736   9.728   2.902
12032SOL    HW147025   0.658   9.692   2.851
12032SOL    HW247026   0.763   9.816   2.863
12033SOL     OW47027   9.177   2.195   2.471
12033SOL    HW147028   9.274   2.179   2.454
12033SOL    HW247029   9.164   2.227   2.565
12034SOL     OW47030   5.791   4.492   0.976
12034SOL    HW147031   5.748   4.426   0.914
12034SOL    HW247032   5.752   4.482   1.068
12035SOL     OW47033   0.692   1.703   6.745
12035SOL    HW147034   0.790   1.681   6.737
12035SOL    HW247035   0.646   1.680   6.659
12036SOL     OW47036   7.991   2.019   3.946
12036SOL    HW147037   8.000   1.950   4.017
12036SOL    HW247038   7.972   1.975   3.858
12037SOL     OW47039   6.931   5.070   0.096
12037SOL    HW147040   7.011   5.115   0.136
12037SOL    HW247041   6.946   5.058   6.746
12038SOL     OW47042   9.263   0.049   4.602
12038SOL    HW147043   9.348   0.009   4.638
12038SOL    HW247044   9.271   0.148   4.600
12039SOL     OW47045   7.935   4.445   0.741
12039SOL    HW147046   7.893   4.522   0.693
12039SOL    HW247047   8.028   4.470   0.769
12040SOL     OW47048   9.032   3.918   4.675
12040SOL    HW147049   8.977   3.841   4.643
12040SOL    HW247050   8.984   3.965   4.749
12041SOL     OW47051   9.249   8.440   2.133
12041SOL    HW147052   9.166   8.464   2.183
12041SOL    HW247053   9.225   8.402   2.044
12042SOL     OW47054   3.350   7.366   3.196
12042SOL    HW147055   3.349   7.422   3.113
12042SOL    HW247056   3.437   7.317   3.202
12043SOL     OW47057   1.137   0.275   1.633
12043SOL    HW147058   1.209   0.254   1.700
12043SOL    HW247059   1.127   0.199   1.569
12044SOL     OW47060   3.857   4.025   1.690
12044SOL    HW147061   3.839   3.950   1.626
12044SOL    HW247062   3.950   4.059   1.675
12045SOL     OW47063   8.826   1.771   3.632
12045SOL    HW147064   8.909   1.783   3.578
12045SOL    HW247065   8.834   1.823   3.718
12046SOL     OW47066   0.246   3.808   4.332
12046SOL    HW147067   0.333   3.849   4.359
12046SOL    HW247068   0.257   3.709   4.322
12047SOL     OW47069   3.984   4.686   2.623
12047SOL    HW147070   3.987   4.630   2.540
12047SOL    HW247071   4.077   4.701   2.657
12048SOL     OW47072   7.488   7.499   3.330
12048SOL    HW147073   7.577   7.463   3.302
12048SOL    HW247074   7.490   7.521   3.428
12049SOL     OW47075   2.383   8.602   3.341
12049SOL    HW147076   2.381   8.697   3.372
12049SOL    HW247077   2.315   8.549   3.391
12050SOL     OW47078   9.914   8.875   3.151
12050SOL    HW147079   9.852   8.832   3.217
12050SOL    HW247080   9.959   8.953   3.195
12051SOL     OW47081   1.831   1.548   1.761
12051SOL    HW147082   1.881   1.494   1.693
12051SOL    HW247083   1.767   1.608   1.714
12052SOL     OW47084   8.694   3.102   3.182
12052SOL    HW147085   8.789   3.125   3.202
12052SOL    HW247086   8.659   3.040   3.251
12053SOL     OW47087   7.973   0.218   2.347
12053SOL    HW147088   8.069   0.211   2.374
12053SOL    HW247089   7.916   0.171   2.414
12054SOL     OW47090   8.922   7.110   0.495
12054SOL    HW147091   8.872   7.081   0.576
12054SOL    HW247092   8.947   7.029   0.441
12055SOL     OW47093   0.281   5.255   1.340
12055SOL    HW147094   0.265   5.352   1.322
12055SOL    HW247095   0.350   5.246   1.412
12056SOL     OW47096   0.869   8.999   5.091
12056SOL    HW147097   0.845   9.024   4.998
12056SOL    HW247098   0.786   8.979   5.143
12057SOL     OW47099   3.563   2.241   0.444
12057SOL    HW147100   3.537   2.223   0.539
12057SOL    HW247101   3.655   2.207   0.427
12058SOL     OW47102   2.707   3.222   3.999
12058SOL    HW147103   2.607   3.230   3.998
12058SOL    HW247104   2.737   3.179   4.085
12059SOL     OW47105   4.083   4.978   0.199
12059SOL    HW147106   4.065   4.905   0.132
12059SOL    HW247107   4.082   5.066   0.153
12060SOL     OW47108   4.780   4.985   3.601
12060SOL    HW147109   4.810   4.908   3.545
12060SOL    HW247110   4.702   4.958   3.657
12061SOL     OW47111   1.205   5.748   3.544
12061SOL    HW147112   1.119   5.779   3.504
12061SOL    HW247113   1.277   5.751   3.474
12062SOL     OW47114   1.752   9.759   3.178
12062SOL    HW147115   1.802   9.842   3.204
12062SOL    HW247116   1.813   9.699   3.126
12063SOL     OW47117   5.856   4.161   0.089
12063SOL    HW147118   5.792   4.100   0.136
12063SOL    HW247119   5.905   4.215   0.157
12064SOL     OW47120   0.418   9.064   4.712
12064SOL    HW147121   0.469   9.117   4.779
12064SOL    HW247122   0.458   8.973   4.705
12065SOL     OW47123   3.563   0.396   2.257
12065SOL    HW147124   3.650   0.390   2.207
12065SOL    HW247125   3.488   0.402   2.192
12066SOL     OW47126   3.435   1.581   3.598
12066SOL    HW147127   3.452   1.483   3.609
12066SOL    HW247128   3.339   1.596   3.577
12067SOL     OW47129   4.107   0.631   1.122
12067SOL    HW147130   4.019   0.600   1.158
12067SOL    HW247131   4.169   0.649   1.199
12068SOL     OW47132   1.128   4.795   4.098
12068SOL    HW147133   1.053   4.798   4.032
12068SOL    HW247134   1.128   4.879   4.152
12069SOL     OW47135   3.879   5.017   1.610
12069SOL    HW147136   3.927   4.970   1.536
12069SOL    HW247137   3.946   5.063   1.669
12070SOL     OW47138   2.616   2.581   2.110
12070SOL    HW147139   2.525   2.564   2.073
12070SOL    HW247140   2.666   2.644   2.050
12071SOL     OW47141   4.027   4.975   4.649
12071SOL    HW147142   4.071   5.027   4.576
12071SOL    HW247143   4.068   5.000   4.737
12072SOL     OW47144   7.095   0.069   1.125
12072SOL    HW147145   7.157   0.073   1.203
12072SOL    HW247146   7.006   0.033   1.154
12073SOL     OW47147   3.279   6.779   0.404
12073SOL    HW147148   3.346   6.738   0.466
12073SOL    HW247149   3.254   6.870   0.438
12074SOL     OW47150   6.953   1.456   4.251
12074SOL    HW147151   7.023   1.481   4.183
12074SOL    HW247152   6.867   1.502   4.229
12075SOL     OW47153   1.342   9.984   0.661
12075SOL    HW147154   1.260   0.026   0.699
12075SOL    HW247155   1.336   9.884   0.669
12076SOL     OW47156   2.937   4.278   1.144
12076SOL    HW147157   3.037   4.277   1.152
12076SOL    HW247158   2.910   4.352   1.082
12077SOL     OW47159   4.375   6.834   1.622
12077SOL    HW147160   4.391   6.894   1.543
12077SOL    HW247161   4.462   6.805   1.660
12078SOL     OW47162   3.114   5.942   0.718
12078SOL    HW147163   3.184   5.891   0.769
12078SOL    HW247164   3.092   6.026   0.768
12079SOL     OW47165   0.052   1.917   1.977
12079SOL    HW147166   0.037   1.905   1.879
12079SOL    HW247167   9.965   1.906   2.026
12080SOL     OW47168   3.477   7.396   4.052
12080SOL    HW147169   3.454   7.436   4.141
12080SOL    HW247170   3.396   7.399   3.993
12081SOL     OW47171   4.245   7.729   3.006
12081SOL    HW147172   4.278   7.769   3.092
12081SOL    HW247173   4.248   7.798   2.934
12082SOL     OW47174   9.391   1.352   1.137
12082SOL    HW147175   9.330   1.431   1.142
12082SOL    HW247176   9.337   1.268   1.133
12083SOL     OW47177   7.187   0.480   3.093
12083SOL    HW147178   7.122   0.549   3.060
12083SOL    HW247179   7.197   0.487   3.192
12084SOL     OW47180   1.041   2.691   2.424
12084SOL    HW147181   1.117   2.697   2.359
12084SOL    HW247182   1.033   2.597   2.457
12085SOL     OW47183   2.627   6.406   2.498
12085SOL    HW147184   2.695   6.410   2.425
12085SOL    HW247185   2.593   6.498   2.517
12086SOL     OW47186   5.717   1.200   3.211
12086SOL    HW147187   5.738   1.249   3.127
12086SOL    HW247188   5.724   1.102   3.195
12087SOL     OW47189   3.832   8.185   3.800
12087SOL    HW147190   3.814   8.268   3.746
12087SOL    HW247191   3.883   8.120   3.744
12088SOL     OW47192   3.735   9.214   3.170
12088SOL    HW147193   3.748   9.168   3.257
12088SOL    HW247194   3.771   9.158   3.096
12089SOL     OW47195   0.630   1.079   5.254
12089SOL    HW147196   0.582   1.154   5.299
12089SOL    HW247197   0.620   1.088   5.154
12090SOL     OW47198   1.223   9.790   4.695
12090SOL    HW147199   1.288   9.788   4.770
12090SOL    HW247200   1.142   9.843   4.721
12091SOL     OW47201   4.082   3.453   3.882
12091SOL    HW147202   3.987   3.421   3.878
12091SOL    HW247203   4.094   3.513   3.960
12092SOL     OW47204   3.776   0.473   3.205
12092SOL    HW147205   3.751   0.479   3.302
12092SOL    HW247206   3.693   0.476   3.149
12093SOL     OW47207   8.033   4.159   5.055
12093SOL    HW147208   7.983   4.221   5.116
12093SOL    HW247209   8.052   4.206   4.969
12094SOL     OW47210   1.197   8.503   4.000
12094SOL    HW147211   1.235   8.573   4.060
12094SOL    HW247212   1.227   8.521   3.906
12095SOL     OW47213   7.895   9.340   4.992
12095SOL    HW147214   7.934   9.428   4.968
12095SOL    HW247215   7.944   9.301   5.070
12096SOL     OW47216   3.726   3.652   3.914
12096SOL    HW147217   3.791   3.700   3.973
12096SOL    HW247218   3.720   3.698   3.826
12097SOL     OW47219   0.496   5.726   3.226
12097SOL    HW147220   0.513   5.779   3.144
12097SOL    HW247221   0.399   5.733   3.250
12098SOL     OW47222   4.518   8.945   0.400
12098SOL    HW147223   4.548   9.035   0.369
12098SOL    HW247224   4.435   8.918   0.350
12099SOL     OW47225   0.183   0.539   3.365
12099SOL    HW147226   0.264   0.597   3.371
12099SOL    HW247227   0.102   0.592   3.389
12100SOL     OW47228   3.686   2.723   4.067
12100SOL    HW147229   3.632   2.648   4.029
12100SOL    HW247230   3.780   2.694   4.080
12101SOL     OW47231   3.932   7.630   1.911
12101SOL    HW147232   3.961   7.540   1.944
12101SOL    HW247233   3.834   7.626   1.889
12102SOL     OW47234   7.694   0.891   0.274
12102SOL    HW147235   7.787   0.919   0.248
12102SOL    HW247236   7.698   0.833   0.355
12103SOL     OW47237   0.908   1.902   1.964
12103SOL    HW147238   0.976   1.892   2.036
12103SOL    HW247239   0.821   1.861   1.994
12104SOL     OW47240   3.963   0.024   2.722
12104SOL    HW147241   3.914   0.072   2.649
12104SOL    HW247242   3.921   9.935   2.737
12105SOL     OW47243   8.304   9.558   2.856
12105SOL    HW147244   8.396   9.573   2.820
12105SOL    HW247245   8.246   9.637   2.834
12106SOL     OW47246   2.861   6.853   5.261
12106SOL    HW147247   2.868   6.952   5.270
12106SOL    HW247248   2.938   6.820   5.206
12107SOL     OW47249   2.564   4.564   4.729
12107SOL    HW147250   2.636   4.515   4.680
12107SOL    HW247251   2.507   4.614   4.663
12108SOL     OW47252   8.003   3.996   2.835
12108SOL    HW147253   8.065   3.966   2.909
12108SOL    HW247254   7.997   4.095   2.835
12109SOL     OW47255   5.603   9.417   4.009
12109SOL    HW147256   5.564   9.326   4.020
12109SOL    HW247257   5.532   9.481   3.981
12110SOL     OW47258   4.016   3.288   1.675
12110SOL    HW147259   4.012   3.198   1.632
12110SOL    HW247260   4.055   3.279   1.767
12111SOL     OW47261   5.734   1.020   1.151
12111SOL    HW147262   5.766   0.957   1.221
12111SOL    HW247263   5.780   1.108   1.162
12112SOL     OW47264   7.517   1.810   1.107
12112SOL    HW147265   7.515   1.712   1.086
12112SOL    HW247266   7.582   1.855   1.046
12113SOL     OW47267   7.913   5.778   0.566
12113SOL    HW147268   7.857   5.715   0.620
12113SOL    HW247269   7.910   5.869   0.608
12114SOL     OW47270   4.717   2.674   4.815
12114SOL    HW147271   4.730   2.719   4.727
12114SOL    HW247272   4.666   2.589   4.801
12115SOL     OW47273   0.449   3.103   0.238
12115SOL    HW147274   0.506   3.071   0.313
12115SOL    HW247275   0.446   3.034   0.166
12116SOL     OW47276   1.370   2.829   2.493
12116SOL    HW147277   1.334   2.812   2.585
12116SOL    HW247278   1.314   2.780   2.426
12117SOL     OW47279   6.002   1.359   0.640
12117SOL    HW147280   5.904   1.372   0.656
12117SOL    HW247281   6.054   1.426   0.694
12118SOL     OW47282   2.253   0.025   4.534
12118SOL    HW147283   2.257   9.932   4.497
12118SOL    HW247284   2.182   0.029   4.604
12119SOL     OW47285   9.593   1.990   1.616
12119SOL    HW147286   9.629   2.064   1.559
12119SOL    HW247287   9.603   1.903   1.568
12120SOL     OW47288   6.016   7.798   4.685
12120SOL    HW147289   6.026   7.699   4.683
12120SOL    HW247290   5.988   7.828   4.776
12121SOL     OW47291   2.405   4.024   2.802
12121SOL    HW147292   2.495   4.054   2.834
12121SOL    HW247293   2.336   4.045   2.870
12122SOL     OW47294   3.697   0.183   1.960
12122SOL    HW147295   3.683   0.226   1.871
12122SOL    HW247296   3.747   0.098   1.949
12123SOL     OW47297   8.033   0.170   1.890
12123SOL    HW147298   8.005   0.140   1.982
12123SOL    HW247299   7.978   0.123   1.822
12124SOL     OW47300   3.653   0.950   2.633
12124SOL    HW147301   3.651   0.859   2.673
12124SOL    HW247302   3.738   0.996   2.658
12125SOL     OW47303   4.027   5.675   4.877
12125SOL    HW147304   4.009   5.593   4.932
12125SOL    HW247305   3.941   5.723   4.860
12126SOL     OW47306   8.361   1.437   1.634
12126SOL    HW147307   8.290   1.496   1.672
12126SOL    HW247308   8.395   1.376   1.706
12127SOL     OW47309   1.291   8.919   0.747
12127SOL    HW147310   1.306   9.014   0.775
12127SOL    HW247311   1.267   8.864   0.827
12128SOL     OW47312   9.549   7.879   3.517
12128SOL    HW147313   9.631   7.881   3.576
12128SOL    HW247314   9.468   7.869   3.574
12129SOL     OW47315   2.352   8.476   2.431
12129SOL    HW147316   2.313   8.561   2.469
12129SOL    HW247317   2.434   8.498   2.379
12130SOL     OW47318   4.982   8.592   3.439
12130SOL    HW147319   4.997   8.616   3.342
12130SOL    HW247320   5.065   8.550   3.475
12131SOL     OW47321   3.478   9.070   1.273
12131SOL    HW147322   3.447   8.989   1.222
12131SOL    HW247323   3.469   9.151   1.215
12132SOL     OW47324   4.309   5.814   2.496
12132SOL    HW147325   4.370   5.744   2.459
12132SOL    HW247326   4.305   5.891   2.433
12133SOL     OW47327   1.517   3.619   2.356
12133SOL    HW147328   1.584   3.545   2.366
12133SOL    HW247329   1.565   3.706   2.346
12134SOL     OW47330   8.856   3.987   1.836
12134SOL    HW147331   8.855   3.986   1.936
12134SOL    HW247332   8.796   4.059   1.803
12135SOL     OW47333   5.867   9.213   3.396
12135SOL    HW147334   5.850   9.176   3.305
12135SOL    HW247335   5.966   9.225   3.409
12136SOL     OW47336   9.758   4.842   4.951
12136SOL    HW147337   9.769   4.930   4.904
12136SOL    HW247338   9.843   4.790   4.944
12137SOL     OW47339   3.651   5.133   5.047
12137SOL    HW147340   3.685   5.210   5.101
12137SOL    HW247341   3.615   5.168   4.960
12138SOL     OW47342   9.884   9.301   4.135
12138SOL    HW147343   9.927   9.303   4.045
12138SOL    HW247344   9.794   9.344   4.130
12139SOL     OW47345   5.418   3.924   1.143
12139SOL    HW147346   5.436   4.013   1.184
12139SOL    HW247347   5.412   3.855   1.215
12140SOL     OW47348   1.171   0.072   3.346
12140SOL    HW147349   1.169   0.022   3.260
12140SOL    HW247350   1.182   0.170   3.328
12141SOL     OW47351   2.629   2.292   3.289
12141SOL    HW147352   2.536   2.295   3.253
12141SOL    HW247353   2.655   2.383   3.322
12142SOL     OW47354   1.319   8.671   3.584
12142SOL    HW147355   1.399   8.637   3.534
12142SOL    HW247356   1.340   8.672   3.682
12143SOL     OW47357   0.729   4.048   4.401
12143SOL    HW147358   0.644   3.995   4.397
12143SOL    HW247359   0.779   4.038   4.315
12144SOL     OW47360   2.768   3.236   4.859
12144SOL    HW147361   2.729   3.201   4.944
12144SOL    HW247362   2.712   3.313   4.826
12145SOL     OW47363   6.901   8.042   4.970
12145SOL    HW147364   6.998   8.019   4.972
12145SOL    HW247365   6.885   8.119   4.908
12146SOL     OW47366   9.256   6.320   4.923
12146SOL    HW147367   9.232   6.266   4.842
12146SOL    HW247368   9.350   6.354   4.913
12147SOL     OW47369   1.519   7.119   0.718
12147SOL    HW147370   1.522   7.104   0.817
12147SOL    HW247371   1.505   7.032   0.671
12148SOL     OW47372   3.014   3.260   0.596
12148SOL    HW147373   2.932   3.302   0.635
12148SOL    HW247374   3.078   3.235   0.669
12149SOL     OW47375   8.411   0.543   2.292
12149SOL    HW147376   8.411   0.478   2.368
12149SOL    HW247377   8.488   0.607   2.302
12150SOL     OW47378   1.701   6.662   2.152
12150SOL    HW147379   1.685   6.725   2.227
12150SOL    HW247380   1.747   6.710   2.077
12151SOL     OW47381   9.084   3.415   3.179
12151SOL    HW147382   9.170   3.385   3.138
12151SOL    HW247383   9.101   3.494   3.238
12152SOL     OW47384   6.493   0.582   1.285
12152SOL    HW147385   6.449   0.657   1.334
12152SOL    HW247386   6.593   0.592   1.292
12153SOL     OW47387   6.209   4.324   0.128
12153SOL    HW147388   6.125   4.322   0.182
12153SOL    HW247389   6.216   4.240   0.074
12154SOL     OW47390   9.279   0.481   3.949
12154SOL    HW147391   9.187   0.504   3.983
12154SOL    HW247392   9.273   0.401   3.889
12155SOL     OW47393   8.399   6.081   4.583
12155SOL    HW147394   8.431   6.173   4.607
12155SOL    HW247395   8.415   6.019   4.659
12156SOL     OW47396   8.375   4.036   2.656
12156SOL    HW147397   8.290   4.007   2.613
12156SOL    HW247398   8.360   4.121   2.706
12157SOL     OW47399   3.367   4.261   5.009
12157SOL    HW147400   3.439   4.194   5.023
12157SOL    HW247401   3.394   4.348   5.048
12158SOL     OW47402   9.391   8.979   0.659
12158SOL    HW147403   9.485   8.946   0.662
12158SOL    HW247404   9.332   8.920   0.714
12159SOL     OW47405   9.496   8.273   3.917
12159SOL    HW147406   9.435   8.223   3.979
12159SOL    HW247407   9.443   8.328   3.854
12160SOL     OW47408   0.190   2.541   0.463
12160SOL    HW147409   0.159   2.532   0.558
12160SOL    HW247410   0.270   2.601   0.460
12161SOL     OW47411   0.723   0.630   2.165
12161SOL    HW147412   0.820   0.646   2.145
12161SOL    HW247413   0.705   0.532   2.165
12162SOL     OW47414   2.771   4.450   4.584
12162SOL    HW147415   2.778   4.351   4.572
12162SOL    HW247416   2.855   4.484   4.627
12163SOL     OW47417   5.109   4.853   3.160
12163SOL    HW147418   5.124   4.760   3.193
12163SOL    HW247419   5.033   4.853   3.094
12164SOL     OW47420   8.552   5.863   0.337
12164SOL    HW147421   8.650   5.841   0.332
12164SOL    HW247422   8.527   5.885   0.431
12165SOL     OW47423   4.858   1.184   3.046
12165SOL    HW147424   4.805   1.143   3.120
12165SOL    HW247425   4.942   1.224   3.084
12166SOL     OW47426   2.642   3.923   0.274
12166SOL    HW147427   2.623   4.006   0.325
12166SOL    HW247428   2.563   3.899   0.217
12167SOL     OW47429   9.047   7.371   1.523
12167SOL    HW147430   8.993   7.429   1.584
12167SOL    HW247431   9.044   7.276   1.554
12168SOL     OW47432   7.640   2.607   1.924
12168SOL    HW147433   7.610   2.652   1.840
12168SOL    HW247434   7.594   2.518   1.932
12169SOL     OW47435   3.934   0.435   2.828
12169SOL    HW147436   3.971   0.353   2.871
12169SOL    HW247437   3.927   0.508   2.896
12170SOL     OW47438   4.902   0.378   0.719
12170SOL    HW147439   4.827   0.339   0.772
12170SOL    HW247440   4.961   0.432   0.778
12171SOL     OW47441   1.267   0.901   1.836
12171SOL    HW147442   1.249   0.988   1.789
12171SOL    HW247443   1.224   0.827   1.785
12172SOL     OW47444   9.389   4.128   1.492
12172SOL    HW147445   9.429   4.105   1.581
12172SOL    HW247446   9.290   4.113   1.495
12173SOL     OW47447   5.488   0.361   5.215
12173SOL    HW147448   5.490   0.416   5.132
12173SOL    HW247449   5.413   0.391   5.274
12174SOL     OW47450   2.732   7.682   5.073
12174SOL    HW147451   2.777   7.621   5.137
12174SOL    HW247452   2.635   7.656   5.064
12175SOL     OW47453   4.483   8.326   2.838
12175SOL    HW147454   4.552   8.272   2.790
12175SOL    HW247455   4.412   8.354   2.774
12176SOL     OW47456   1.848   7.271   2.594
12176SOL    HW147457   1.822   7.264   2.498
12176SOL    HW247458   1.867   7.366   2.617
12177SOL     OW47459   4.998   1.033   1.997
12177SOL    HW147460   4.901   1.009   1.993
12177SOL    HW247461   5.038   1.027   1.905
12178SOL     OW47462   3.418   9.190   2.776
12178SOL    HW147463   3.402   9.165   2.680
12178SOL    HW247464   3.342   9.158   2.832
12179SOL     OW47465   8.870   7.051   5.133
12179SOL    HW147466   8.854   6.956   5.159
12179SOL    HW247467   8.801   7.109   5.177
12180SOL     OW47468   6.768   1.364   1.332
12180SOL    HW147469   6.802   1.446   1.378
12180SOL    HW247470   6.733   1.299   1.400
12181SOL     OW47471   8.603   5.427   0.212
12181SOL    HW147472   8.514   5.401   0.174
12181SOL    HW247473   8.625   5.366   0.288
12182SOL     OW47474   8.143   0.528   0.186
12182SOL    HW147475   8.235   0.494   0.209
12182SOL    HW247476   8.150   0.621   0.150
12183SOL     OW47477   7.122   2.734   3.557
12183SOL    HW147478   7.107   2.733   3.458
12183SOL    HW247479   7.075   2.655   3.598
12184SOL     OW47480   9.464   6.732   3.153
12184SOL    HW147481   9.407   6.751   3.232
12184SOL    HW247482   9.458   6.635   3.129
12185SOL     OW47483   0.685   5.664   2.241
12185SOL    HW147484   0.591   5.633   2.253
12185SOL    HW247485   0.748   5.592   2.271
12186SOL     OW47486   6.749   0.563   2.712
12186SOL    HW147487   6.744   0.492   2.782
12186SOL    HW247488   6.828   0.622   2.731
12187SOL     OW47489   7.653   1.788   2.595
12187SOL    HW147490   7.641   1.840   2.510
12187SOL    HW247491   7.725   1.720   2.583
12188SOL     OW47492   6.588   1.388   2.429
12188SOL    HW147493   6.671   1.400   2.482
12188SOL    HW247494   6.570   1.470   2.375
12189SOL     OW47495   4.266   8.124   2.422
12189SOL    HW147496   4.187   8.111   2.482
12189SOL    HW247497   4.344   8.073   2.458
12190SOL     OW47498   7.702   6.858   4.589
12190SOL    HW147499   7.680   6.776   4.537
12190SOL    HW247500   7.634   6.873   4.660
12191SOL     OW47501   7.701   9.736   2.491
12191SOL    HW147502   7.745   9.752   2.580
12191SOL    HW247503   7.605   9.763   2.497
12192SOL     OW47504   1.464   9.450   1.035
12192SOL    HW147505   1.368   9.434   1.012
12192SOL    HW247506   1.488   9.398   1.116
12193SOL     OW47507   1.038   3.642   3.616
12193SOL    HW147508   1.010   3.727   3.570
12193SOL    HW247509   0.956   3.589   3.639
12194SOL     OW47510   2.845   7.387   0.384
12194SOL    HW147511   2.801   7.364   0.297
12194SOL    HW247512   2.778   7.381   0.458
12195SOL     OW47513   9.492   6.895   4.592
12195SOL    HW147514   9.550   6.835   4.647
12195SOL    HW247515   9.507   6.877   4.495
12196SOL     OW47516   9.057   3.019   1.328
12196SOL    HW147517   9.146   2.988   1.296
12196SOL    HW247518   8.998   2.940   1.347
12197SOL     OW47519   9.004   3.309   0.232
12197SOL    HW147520   8.909   3.309   0.264
12197SOL    HW247521   9.065   3.296   0.310
12198SOL     OW47522   9.281   7.338   2.629
12198SOL    HW147523   9.185   7.317   2.608
12198SOL    HW247524   9.329   7.253   2.651
12199SOL     OW47525   4.989   8.937   5.245
12199SOL    HW147526   4.909   8.894   5.286
12199SOL    HW247527   4.981   9.037   5.255
12200SOL     OW47528   8.702   8.210   1.179
12200SOL    HW147529   8.703   8.166   1.269
12200SOL    HW247530   8.638   8.161   1.119
12201SOL     OW47531   9.994   4.540   1.522
12201SOL    HW147532   9.983   4.504   1.614
12201SOL    HW247533   0.074   4.498   1.479
12202SOL     OW47534   6.099   0.116   3.158
12202SOL    HW147535   6.034   0.049   3.195
12202SOL    HW247536   6.057   0.207   3.158
12203SOL     OW47537   3.822   9.655   2.281
12203SOL    HW147538   3.856   9.630   2.372
12203SOL    HW247539   3.779   9.745   2.285
12204SOL     OW47540   5.398   0.717   3.461
12204SOL    HW147541   5.346   0.803   3.470
12204SOL    HW247542   5.335   0.640   3.462
12205SOL     OW47543   5.123   9.632   2.438
12205SOL    HW147544   5.195   9.564   2.423
12205SOL    HW247545   5.100   9.636   2.535
12206SOL     OW47546   1.401   0.342   2.135
12206SOL    HW147547   1.420   0.432   2.095
12206SOL    HW247548   1.302   0.330   2.144
12207SOL     OW47549   0.022   9.939   3.477
12207SOL    HW147550   9.929   9.907   3.460
12207SOL    HW247551   0.085   9.861   3.474
12208SOL     OW47552   9.619   5.488   2.356
12208SOL    HW147553   9.632   5.394   2.389
12208SOL    HW247554   9.622   5.489   2.256
12209SOL     OW47555   9.359   5.015   1.669
12209SOL    HW147556   9.345   4.942   1.736
12209SOL    HW247557   9.455   5.017   1.641
12210SOL     OW47558   5.369   5.891   2.575
12210SOL    HW147559   5.288   5.928   2.529
12210SOL    HW247560   5.351   5.797   2.605
12211SOL     OW47561   0.915   7.251   3.639
12211SOL    HW147562   0.959   7.162   3.628
12211SOL    HW247563   0.878   7.280   3.551
12212SOL     OW47564   7.823   2.571   1.310
12212SOL    HW147565   7.847   2.479   1.277
12212SOL    HW247566   7.903   2.612   1.353
12213SOL     OW47567   5.410   7.381   3.793
12213SOL    HW147568   5.385   7.419   3.704
12213SOL    HW247569   5.477   7.441   3.836
12214SOL     OW47570   0.614   8.928   1.121
12214SOL    HW147571   0.530   8.893   1.080
12214SOL    HW247572   0.686   8.859   1.113
12215SOL     OW47573   4.256   1.575   1.826
12215SOL    HW147574   4.336   1.635   1.823
12215SOL    HW247575   4.264   1.506   1.754
12216SOL     OW47576   3.015   3.802   0.425
12216SOL    HW147577   3.089   3.785   0.491
12216SOL    HW247578   2.992   3.716   0.379
12217SOL     OW47579   7.200   2.355   3.034
12217SOL    HW147580   7.117   2.377   2.983
12217SOL    HW247581   7.223   2.432   3.094
12218SOL     OW47582   0.396   7.654   3.718
12218SOL    HW147583   0.308   7.678   3.758
12218SOL    HW247584   0.406   7.554   3.716
12219SOL     OW47585   7.137   1.546   4.889
12219SOL    HW147586   7.168   1.620   4.830
12219SOL    HW247587   7.106   1.468   4.834
12220SOL     OW47588   8.089   0.287   5.119
12220SOL    HW147589   8.003   0.310   5.073
12220SOL    HW247590   8.142   0.371   5.134
12221SOL     OW47591   9.121   1.446   4.771
12221SOL    HW147592   9.086   1.360   4.735
12221SOL    HW247593   9.057   1.483   4.838
12222SOL     OW47594   8.469   1.281   0.809
12222SOL    HW147595   8.429   1.350   0.870
12222SOL    HW247596   8.565   1.267   0.832
12223SOL     OW47597   4.087   9.075   2.840
12223SOL    HW147598   4.096   9.028   2.752
12223SOL    HW247599   4.102   9.173   2.827
12224SOL     OW47600   3.372   2.985   0.646
12224SOL    HW147601   3.368   2.936   0.559
12224SOL    HW247602   3.463   2.975   0.685
12225SOL     OW47603   6.522   8.165   2.210
12225SOL    HW147604   6.497   8.078   2.252
12225SOL    HW247605   6.563   8.225   2.279
12226SOL     OW47606   3.330   7.682   4.883
12226SOL    HW147607   3.418   7.640   4.903
12226SOL    HW247608   3.266   7.612   4.850
12227SOL     OW47609   4.248   2.737   0.429
12227SOL    HW147610   4.313   2.813   0.429
12227SOL    HW247611   4.194   2.740   0.514
12228SOL     OW47612   8.712   7.195   1.010
12228SOL    HW147613   8.805   7.195   1.047
12228SOL    HW247614   8.706   7.264   0.938
12229SOL     OW47615   0.914   9.439   2.931
12229SOL    HW147616   0.892   9.501   3.006
12229SOL    HW247617   0.968   9.487   2.862
12230SOL     OW47618   3.768   9.852   3.580
12230SOL    HW147619   3.825   9.903   3.517
12230SOL    HW247620   3.759   9.758   3.548
12231SOL     OW47621   3.528   5.460   0.515
12231SOL    HW147622   3.493   5.500   0.600
12231SOL    HW247623   3.453   5.449   0.450
12232SOL     OW47624   7.790   4.889   4.873
12232SOL    HW147625   7.847   4.889   4.955
12232SOL    HW247626   7.764   4.796   4.850
12233SOL     OW47627   4.004   4.090   0.288
12233SOL    HW147628   3.957   4.172   0.320
12233SOL    HW247629   4.101   4.111   0.271
12234SOL     OW47630   4.446   5.597   2.382
12234SOL    HW147631   4.357   5.557   2.363
12234SOL    HW247632   4.503   5.593   2.300
12235SOL     OW47633   2.992   2.794   4.825
12235SOL    HW147634   3.078   2.828   4.864
12235SOL    HW247635   2.988   2.695   4.834
12236SOL     OW47636   0.202   9.570   1.995
12236SOL    HW147637   0.199   9.472   2.016
12236SOL    HW247638   0.110   9.601   1.972
12237SOL     OW47639   3.054   4.048   3.031
12237SOL    HW147640   3.077   4.038   2.934
12237SOL    HW247641   3.096   4.131   3.067
12238SOL     OW47642   0.885   7.945   4.787
12238SOL    HW147643   0.971   7.922   4.832
12238SOL    HW247644   0.867   7.881   4.713
12239SOL     OW47645   9.630   8.851   0.665
12239SOL    HW147646   9.719   8.897   0.663
12239SOL    HW247647   9.617   8.809   0.755
12240SOL     OW47648   3.617   1.101   5.155
12240SOL    HW147649   3.632   1.135   5.062
12240SOL    HW247650   3.645   1.005   5.161
12241SOL     OW47651   2.841   2.550   0.173
12241SOL    HW147652   2.871   2.457   0.151
12241SOL    HW247653   2.887   2.581   0.256
12242SOL     OW47654   1.985   2.745   4.866
12242SOL    HW147655   1.966   2.678   4.794
12242SOL    HW247656   1.986   2.700   4.955
12243SOL     OW47657   7.235   0.846   4.799
12243SOL    HW147658   7.297   0.803   4.733
12243SOL    HW247659   7.220   0.784   4.876
12244SOL     OW47660   9.117   8.464   5.237
12244SOL    HW147661   9.042   8.466   5.170
12244SOL    HW247662   9.083   8.494   5.326
12245SOL     OW47663   2.402   3.312   3.119
12245SOL    HW147664   2.379   3.331   3.024
12245SOL    HW247665   2.490   3.354   3.142
12246SOL     OW47666   1.071   7.649   2.112
12246SOL    HW147667   0.985   7.683   2.074
12246SOL    HW247668   1.058   7.557   2.148
12247SOL     OW47669   3.819   0.700   4.464
12247SOL    HW147670   3.731   0.654   4.449
12247SOL    HW247671   3.804   0.784   4.517
12248SOL     OW47672   6.723   1.667   3.633
12248SOL    HW147673   6.666   1.601   3.585
12248SOL    HW247674   6.755   1.627   3.719
12249SOL     OW47675   3.706   9.012   3.759
12249SOL    HW147676   3.714   8.973   3.667
12249SOL    HW247677   3.616   8.989   3.797
12250SOL     OW47678   1.222   8.760   0.966
12250SOL    HW147679   1.313   8.750   1.008
12250SOL    HW247680   1.177   8.671   0.963
12251SOL     OW47681   5.138   1.208   0.409
12251SOL    HW147682   5.075   1.248   0.342
12251SOL    HW247683   5.185   1.281   0.459
12252SOL     OW47684   8.687   7.558   4.265
12252SOL    HW147685   8.754   7.581   4.335
12252SOL    HW247686   8.601   7.531   4.308
12253SOL     OW47687   4.529   4.145   2.507
12253SOL    HW147688   4.528   4.059   2.456
12253SOL    HW247689   4.620   4.161   2.544
12254SOL     OW47690   5.239   1.406   0.566
12254SOL    HW147691   5.288   1.352   0.634
12254SOL    HW247692   5.160   1.451   0.608
12255SOL     OW47693   2.038   5.126   0.946
12255SOL    HW147694   2.058   5.091   0.854
12255SOL    HW247695   1.948   5.169   0.947
12256SOL     OW47696   1.196   0.964   3.202
12256SOL    HW147697   1.248   1.039   3.242
12256SOL    HW247698   1.135   0.999   3.131
12257SOL     OW47699   3.020   9.271   2.310
12257SOL    HW147700   3.094   9.332   2.280
12257SOL    HW247701   2.986   9.219   2.232
12258SOL     OW47702   2.050   9.779   3.894
12258SOL    HW147703   1.999   9.728   3.963
12258SOL    HW247704   2.093   9.715   3.831
12259SOL     OW47705   9.865   9.149   4.372
12259SOL    HW147706   9.901   9.060   4.347
12259SOL    HW247707   9.862   9.208   4.291
12260SOL     OW47708   6.380   0.058   4.880
12260SOL    HW147709   6.282   0.078   4.878
12260SOL    HW247710   6.399   9.977   4.825
12261SOL     OW47711   2.807   2.575   3.029
12261SOL    HW147712   2.746   2.590   2.951
12261SOL    HW247713   2.777   2.631   3.106
12262SOL     OW47714   2.051   5.463   0.755
12262SOL    HW147715   1.990   5.394   0.715
12262SOL    HW247716   2.073   5.438   0.849
12263SOL     OW47717   2.152   2.393   4.625
12263SOL    HW147718   2.150   2.336   4.707
12263SOL    HW247719   2.246   2.423   4.608
12264SOL     OW47720   2.547   0.858   2.253
12264SOL    HW147721   2.603   0.781   2.284
12264SOL    HW247722   2.457   0.824   2.226
12265SOL     OW47723   8.170   8.641   2.202
12265SOL    HW147724   8.120   8.659   2.286
12265SOL    HW247725   8.239   8.570   2.219
12266SOL     OW47726   0.586   2.452   4.048
12266SOL    HW147727   0.633   2.446   3.960
12266SOL    HW247728   0.654   2.459   4.121
12267SOL     OW47729   2.174   4.263   1.852
12267SOL    HW147730   2.078   4.234   1.858
12267SOL    HW247731   2.180   4.361   1.870
12268SOL     OW47732   4.680   2.438   2.883
12268SOL    HW147733   4.744   2.462   2.809
12268SOL    HW247734   4.631   2.520   2.911
12269SOL     OW47735   2.581   6.024   4.914
12269SOL    HW147736   2.499   5.968   4.910
12269SOL    HW247737   2.660   5.972   4.882
12270SOL     OW47738   4.403   7.414   4.093
12270SOL    HW147739   4.341   7.335   4.095
12270SOL    HW247740   4.493   7.384   4.061
12271SOL     OW47741   0.241   2.253   3.096
12271SOL    HW147742   0.213   2.174   3.150
12271SOL    HW247743   0.329   2.287   3.128
12272SOL     OW47744   2.884   9.814   1.525
12272SOL    HW147745   2.959   9.880   1.530
12272SOL    HW247746   2.854   9.790   1.617
12273SOL     OW47747   9.131   8.697   2.453
12273SOL    HW147748   9.228   8.681   2.437
12273SOL    HW247749   9.118   8.738   2.544
12274SOL     OW47750   9.074   6.395   2.392
12274SOL    HW147751   9.059   6.480   2.342
12274SOL    HW247752   9.159   6.352   2.360
12275SOL     OW47753   4.780   8.661   0.651
12275SOL    HW147754   4.807   8.712   0.733
12275SOL    HW247755   4.778   8.723   0.573
12276SOL     OW47756   1.746   1.974   3.925
12276SOL    HW147757   1.790   2.064   3.926
12276SOL    HW247758   1.647   1.985   3.930
12277SOL     OW47759   0.983   9.101   0.089
12277SOL    HW147760   0.988   9.002   0.073
12277SOL    HW247761   1.073   9.134   0.117
12278SOL     OW47762   7.233   1.286   0.457
12278SOL    HW147763   7.177   1.293   0.540
12278SOL    HW247764   7.257   1.378   0.425
12279SOL     OW47765   0.872   8.881   0.676
12279SOL    HW147766   0.886   8.862   0.773
12279SOL    HW247767   0.775   8.900   0.659
12280SOL     OW47768   2.789   0.081   3.552
12280SOL    HW147769   2.742   0.006   3.600
12280SOL    HW247770   2.774   0.166   3.602
12281SOL     OW47771   3.165   3.902   4.530
12281SOL    HW147772   3.086   3.876   4.475
12281SOL    HW247773   3.202   3.822   4.577
12282SOL     OW47774   0.509   7.767   3.318
12282SOL    HW147775   0.553   7.851   3.286
12282SOL    HW247776   0.568   7.722   3.386
12283SOL     OW47777   2.095   7.631   0.375
12283SOL    HW147778   2.166   7.619   0.445
12283SOL    HW247779   2.125   7.701   0.310
12284SOL     OW47780   2.768   1.940   4.060
12284SOL    HW147781   2.763   1.876   4.136
12284SOL    HW247782   2.858   1.984   4.060
12285SOL     OW47783   5.023   8.302   5.310
12285SOL    HW147784   5.033   8.392   5.268
12285SOL    HW247785   4.940   8.258   5.277
12286SOL     OW47786   4.366   9.818   4.849
12286SOL    HW147787   4.329   9.774   4.767
12286SOL    HW247788   4.291   9.864   4.898
12287SOL     OW47789   7.261   9.781   3.561
12287SOL    HW147790   7.356   9.755   3.546
12287SOL    HW247791   7.229   9.746   3.649
12288SOL     OW47792   0.559   7.801   1.991
12288SOL    HW147793   0.658   7.783   1.987
12288SOL    HW247794   0.520   7.753   2.069
12289SOL     OW47795   4.154   7.726   4.805
12289SOL    HW147796   4.125   7.636   4.772
12289SOL    HW247797   4.174   7.719   4.903
12290SOL     OW47798   8.335   2.004   4.924
12290SOL    HW147799   8.342   1.904   4.921
12290SOL    HW247800   8.410   2.044   4.871
12291SOL     OW47801   3.049   6.828   1.926
12291SOL    HW147802   3.102   6.898   1.878
12291SOL    HW247803   2.966   6.868   1.964
12292SOL     OW47804   4.320   9.078   2.999
12292SOL    HW147805   4.238   9.064   2.943
12292SOL    HW247806   4.381   8.999   2.987
12293SOL     OW47807   9.898   1.127   3.057
12293SOL    HW147808   9.991   1.123   3.094
12293SOL    HW247809   9.859   1.035   3.053
12294SOL     OW47810   3.083   5.234   4.758
12294SOL    HW147811   3.112   5.329   4.773
12294SOL    HW247812   3.133   5.196   4.680
12295SOL     OW47813   3.593   4.706   2.028
12295SOL    HW147814   3.682   4.702   1.983
12295SOL    HW247815   3.522   4.683   1.962
12296SOL     OW47816   3.783   0.964   4.005
12296SOL    HW147817   3.873   1.006   4.019
12296SOL    HW247818   3.732   0.967   4.091
12297SOL     OW47819   9.949   9.343   0.823
12297SOL    HW147820   9.905   9.389   0.900
12297SOL    HW247821   9.880   9.316   0.756
12298SOL     OW47822   1.006   1.352   0.677
12298SOL    HW147823   0.947   1.391   0.748
12298SOL    HW247824   1.069   1.422   0.644
12299SOL     OW47825   3.788   3.468   1.228
12299SOL    HW147826   3.701   3.424   1.252
12299SOL    HW247827   3.826   3.422   1.148
12300SOL     OW47828   1.233   4.011   3.521
12300SOL    HW147829   1.267   4.096   3.560
12300SOL    HW247830   1.308   3.945   3.515
12301SOL     OW47831   0.136   7.786   4.176
12301SOL    HW147832   0.139   7.859   4.107
12301SOL    HW247833   0.079   7.711   4.143
12302SOL     OW47834   4.589   6.469   1.980
12302SOL    HW147835   4.676   6.452   2.027
12302SOL    HW247836   4.607   6.489   1.884
12303SOL     OW47837   4.539   8.977   2.691
12303SOL    HW147838   4.520   8.937   2.781
12303SOL    HW247839   4.474   8.941   2.625
12304SOL     OW47840   1.510   4.947   0.622
12304SOL    HW147841   1.443   5.005   0.668
12304SOL    HW247842   1.513   4.858   0.668
12305SOL     OW47843   0.378   4.731   2.022
12305SOL    HW147844   0.466   4.769   2.048
12305SOL    HW247845   0.326   4.708   2.104
12306SOL     OW47846   0.481   5.505   4.974
12306SOL    HW147847   0.521   5.444   5.043
12306SOL    HW247848   0.554   5.557   4.930
12307SOL     OW47849   5.677   2.821   3.707
12307SOL    HW147850   5.670   2.812   3.608
12307SOL    HW247851   5.769   2.853   3.731
12308SOL     OW47852   8.973   8.912   1.534
12308SOL    HW147853   8.890   8.881   1.486
12308SOL    HW247854   8.983   9.011   1.522
12309SOL     OW47855   8.340   6.259   1.310
12309SOL    HW147856   8.307   6.203   1.386
12309SOL    HW247857   8.323   6.211   1.223
12310SOL     OW47858   1.271   1.446   0.990
12310SOL    HW147859   1.278   1.383   1.068
12310SOL    HW247860   1.302   1.399   0.907
12311SOL     OW47861   7.332   2.227   3.623
12311SOL    HW147862   7.359   2.186   3.536
12311SOL    HW247863   7.262   2.170   3.666
12312SOL     OW47864   5.391   1.963   3.348
12312SOL    HW147865   5.430   1.874   3.374
12312SOL    HW247866   5.353   2.007   3.430
12313SOL     OW47867   1.356   1.150   3.333
12313SOL    HW147868   1.448   1.180   3.309
12313SOL    HW247869   1.360   1.092   3.415
12314SOL     OW47870   2.009   0.016   3.741
12314SOL    HW147871   1.964   9.988   3.656
12314SOL    HW247872   2.027   9.936   3.797
12315SOL     OW47873   1.002   4.837   2.269
12315SOL    HW147874   0.996   4.764   2.337
12315SOL    HW247875   0.969   4.923   2.308
12316SOL     OW47876   0.358   4.166   1.059
12316SOL    HW147877   0.364   4.266   1.062
12316SOL    HW247878   0.449   4.128   1.043
12317SOL     OW47879   5.156   0.195   3.125
12317SOL    HW147880   5.116   0.116   3.172
12317SOL    HW247881   5.158   0.178   3.026
12318SOL     OW47882   6.326   9.045   4.316
12318SOL    HW147883   6.386   9.125   4.308
12318SOL    HW247884   6.359   8.985   4.388
12319SOL     OW47885   2.443   9.343   1.513
12319SOL    HW147886   2.456   9.409   1.439
12319SOL    HW247887   2.423   9.392   1.598
12320SOL     OW47888   8.799   1.299   4.810
12320SOL    HW147889   8.876   1.265   4.755
12320SOL    HW247890   8.742   1.222   4.839
12321SOL     OW47891   1.531   1.492   4.121
12321SOL    HW147892   1.508   1.404   4.163
12321SOL    HW247893   1.596   1.479   4.047
12322SOL     OW47894   9.876   6.654   3.874
12322SOL    HW147895   9.971   6.646   3.904
12322SOL    HW247896   9.822   6.697   3.946
12323SOL     OW47897   2.148   8.742   1.006
12323SOL    HW147898   2.214   8.671   0.984
12323SOL    HW247899   2.121   8.790   0.923
12324SOL     OW47900   4.943   8.791   1.566
12324SOL    HW147901   4.919   8.731   1.642
12324SOL    HW247902   4.983   8.737   1.493
12325SOL     OW47903   2.282   9.094   0.263
12325SOL    HW147904   2.297   9.104   0.361
12325SOL    HW247905   2.184   9.077   0.246
12326SOL     OW47906   6.633   0.940   2.821
12326SOL    HW147907   6.684   0.925   2.737
12326SOL    HW247908   6.608   1.036   2.829
12327SOL     OW47909   8.002   6.557   2.570
12327SOL    HW147910   7.998   6.494   2.493
12327SOL    HW247911   8.034   6.508   2.651
12328SOL     OW47912   2.672   8.743   3.197
12328SOL    HW147913   2.590   8.714   3.148
12328SOL    HW247914   2.751   8.694   3.161
12329SOL     OW47915   1.779   7.564   2.101
12329SOL    HW147916   1.857   7.523   2.148
12329SOL    HW247917   1.756   7.509   2.020
12330SOL     OW47918   3.782   0.083   1.493
12330SOL    HW147919   3.736   0.047   1.575
12330SOL    HW247920   3.874   0.045   1.487
12331SOL     OW47921   8.271   4.271   2.757
12331SOL    HW147922   8.176   4.259   2.788
12331SOL    HW247923   8.301   4.364   2.778
12332SOL     OW47924   3.582   3.761   2.957
12332SOL    HW147925   3.638   3.736   3.036
12332SOL    HW247926   3.534   3.679   2.924
12333SOL     OW47927   9.142   9.739   4.737
12333SOL    HW147928   9.235   9.705   4.731
12333SOL    HW247929   9.102   9.745   4.645
12334SOL     OW47930   0.102   0.352   4.053
12334SOL    HW147931   0.026   0.328   4.114
12334SOL    HW247932   0.096   0.449   4.030
12335SOL     OW47933   1.644   0.442   2.633
12335SOL    HW147934   1.657   0.354   2.589
12335SOL    HW247935   1.719   0.459   2.697
12336SOL     OW47936   7.901   2.144   4.785
12336SOL    HW147937   7.868   2.210   4.852
12336SOL    HW247938   7.910   2.054   4.829
12337SOL     OW47939   1.971   1.504   2.734
12337SOL    HW147940   1.882   1.494   2.778
12337SOL    HW247941   2.027   1.423   2.752
12338SOL     OW47942   2.560   9.733   4.912
12338SOL    HW147943   2.612   9.784   4.980
12338SOL    HW247944   2.592   9.758   4.820
12339SOL     OW47945   6.612   4.374   0.615
12339SOL    HW147946   6.672   4.387   0.536
12339SOL    HW247947   6.666   4.372   0.699
12340SOL     OW47948   4.178   7.550   3.974
12340SOL    HW147949   4.226   7.607   3.907
12340SOL    HW247950   4.244   7.491   4.021
12341SOL     OW47951   3.094   9.592   3.596
12341SOL    HW147952   3.191   9.609   3.580
12341SOL    HW247953   3.040   9.651   3.535
12342SOL     OW47954   2.883   1.362   1.999
12342SOL    HW147955   2.979   1.387   2.014
12342SOL    HW247956   2.867   1.349   1.901
12343SOL     OW47957   4.436   4.369   3.706
12343SOL    HW147958   4.344   4.334   3.724
12343SOL    HW247959   4.499   4.293   3.689
12344SOL     OW47960   9.652   8.789   2.103
12344SOL    HW147961   9.574   8.728   2.089
12344SOL    HW247962   9.652   8.823   2.197
12345SOL     OW47963   3.590   5.572   3.707
12345SOL    HW147964   3.605   5.668   3.731
12345SOL    HW247965   3.566   5.520   3.789
12346SOL     OW47966   4.611   9.546   4.733
12346SOL    HW147967   4.649   9.632   4.698
12346SOL    HW247968   4.527   9.565   4.784
12347SOL     OW47969   0.595   8.239   0.279
12347SOL    HW147970   0.585   8.331   0.316
12347SOL    HW247971   0.688   8.206   0.295
12348SOL     OW47972   8.249   9.878   1.371
12348SOL    HW147973   8.244   9.975   1.398
12348SOL    HW247974   8.265   9.822   1.452
12349SOL     OW47975   9.775   4.456   2.866
12349SOL    HW147976   9.866   4.425   2.892
12349SOL    HW247977   9.735   4.391   2.801
12350SOL     OW47978   8.220   0.141   1.453
12350SOL    HW147979   8.235   0.140   1.552
12350SOL    HW247980   8.269   0.219   1.413
12351SOL     OW47981   2.878   4.836   3.543
12351SOL    HW147982   2.783   4.858   3.566
12351SOL    HW247983   2.927   4.920   3.521
12352SOL     OW47984   9.172   5.438   3.099
12352SOL    HW147985   9.131   5.347   3.101
12352SOL    HW247986   9.104   5.506   3.129
12353SOL     OW47987   3.575   1.075   1.829
12353SOL    HW147988   3.650   1.028   1.874
12353SOL    HW247989   3.563   1.039   1.737
12354SOL     OW47990   6.709   1.724   2.668
12354SOL    HW147991   6.681   1.743   2.762
12354SOL    HW247992   6.643   1.764   2.605
12355SOL     OW47993   9.757   4.808   2.442
12355SOL    HW147994   9.727   4.722   2.402
12355SOL    HW247995   9.746   4.882   2.375
12356SOL     OW47996   0.653   1.746   0.668
12356SOL    HW147997   0.615   1.833   0.699
12356SOL    HW247998   0.607   1.671   0.715
12357SOL     OW47999   8.546   9.120   0.379
12357SOL    HW148000   8.630   9.156   0.339
12357SOL    HW248001   8.473   9.188   0.371
12358SOL     OW48002   1.675   1.983   4.331
12358SOL    HW148003   1.668   1.967   4.430
12358SOL    HW248004   1.587   2.014   4.296
12359SOL     OW48005   9.799   6.085   3.623
12359SOL    HW148006   9.725   6.034   3.667
12359SOL    HW248007   9.846   6.027   3.557
12360SOL     OW48008   1.097   2.004   4.148
12360SOL    HW148009   1.004   1.976   4.170
12360SOL    HW248010   1.160   1.928   4.167
12361SOL     OW48011   1.493   2.931   0.303
12361SOL    HW148012   1.575   2.886   0.339
12361SOL    HW248013   1.429   2.861   0.270
12362SOL     OW48014   4.791   8.828   2.022
12362SOL    HW148015   4.878   8.799   2.063
12362SOL    HW248016   4.727   8.751   2.025
12363SOL     OW48017   1.100   0.416   1.099
12363SOL    HW148018   1.070   0.496   1.048
12363SOL    HW248019   1.027   0.388   1.162
12364SOL     OW48020   1.983   9.755   0.625
12364SOL    HW148021   1.950   9.838   0.669
12364SOL    HW248022   2.002   9.774   0.528
12365SOL     OW48023   7.870   2.753   0.779
12365SOL    HW148024   7.934   2.693   0.825
12365SOL    HW248025   7.827   2.815   0.845
12366SOL     OW48026   7.407   7.727   5.190
12366SOL    HW148027   7.377   7.823   5.193
12366SOL    HW248028   7.505   7.722   5.206
12367SOL     OW48029   2.681   7.692   0.440
12367SOL    HW148030   2.673   7.668   0.343
12367SOL    HW248031   2.591   7.717   0.476
12368SOL     OW48032   0.123   3.030   2.890
12368SOL    HW148033   0.125   2.981   2.803
12368SOL    HW248034   0.059   2.984   2.952
12369SOL     OW48035   1.128   2.653   4.460
12369SOL    HW148036   1.103   2.584   4.392
12369SOL    HW248037   1.084   2.739   4.437
12370SOL     OW48038   7.312   0.489   0.705
12370SOL    HW148039   7.277   0.400   0.677
12370SOL    HW248040   7.297   0.556   0.632
12371SOL     OW48041   8.493   3.980   3.497
12371SOL    HW148042   8.409   3.981   3.551
12371SOL    HW248043   8.505   3.890   3.455
12372SOL     OW48044   1.301   0.476   5.239
12372SOL    HW148045   1.317   0.470   5.338
12372SOL    HW248046   1.336   0.394   5.194
12373SOL     OW48047   0.446   7.288   1.019
12373SOL    HW148048   0.540   7.271   0.988
12373SOL    HW248049   0.411   7.206   1.064
12374SOL     OW48050   5.037   1.117   4.684
12374SOL    HW148051   4.961   1.052   4.675
12374SOL    HW248052   5.016   1.201   4.634
12375SOL     OW48053   1.974   2.760   2.762
12375SOL    HW148054   1.895   2.729   2.709
12375SOL    HW248055   2.037   2.683   2.775
12376SOL     OW48056   9.972   4.788   2.608
12376SOL    HW148057   9.899   4.806   2.542
12376SOL    HW248058   9.933   4.782   2.700
12377SOL     OW48059   3.788   0.773   5.191
12377SOL    HW148060   3.693   0.750   5.173
12377SOL    HW248061   3.841   0.690   5.202
12378SOL     OW48062   6.217   8.698   4.143
12378SOL    HW148063   6.132   8.647   4.129
12378SOL    HW248064   6.294   8.634   4.144
12379SOL     OW48065   2.906   7.377   4.508
12379SOL    HW148066   2.952   7.465   4.515
12379SOL    HW248067   2.893   7.353   4.412
12380SOL     OW48068   2.855   6.765   0.900
12380SOL    HW148069   2.915   6.837   0.866
12380SOL    HW248070   2.864   6.683   0.844
12381SOL     OW48071   8.392   6.316   2.478
12381SOL    HW148072   8.338   6.281   2.555
12381SOL    HW248073   8.383   6.254   2.400
12382SOL     OW48074   0.699   6.389   5.188
12382SOL    HW148075   0.764   6.458   5.219
12382SOL    HW248076   0.736   6.341   5.108
12383SOL     OW48077   9.994   0.276   4.837
12383SOL    HW148078   9.961   0.362   4.798
12383SOL    HW248079   0.062   0.297   4.908
12384SOL     OW48080   4.063   6.115   2.167
12384SOL    HW148081   3.965   6.132   2.153
12384SOL    HW248082   4.116   6.185   2.119
12385SOL     OW48083   8.016   9.938   2.480
12385SOL    HW148084   8.028   9.858   2.422
12385SOL    HW248085   7.920   9.967   2.477
12386SOL     OW48086   4.403   9.559   2.488
12386SOL    HW148087   4.467   9.612   2.543
12386SOL    HW248088   4.450   9.478   2.451
12387SOL     OW48089   9.000   6.326   3.165
12387SOL    HW148090   9.076   6.388   3.147
12387SOL    HW248091   8.943   6.363   3.238
12388SOL     OW48092   5.036   2.175   4.209
12388SOL    HW148093   5.024   2.139   4.117
12388SOL    HW248094   4.947   2.198   4.249
12389SOL     OW48095   8.184   3.704   1.498
12389SOL    HW148096   8.204   3.705   1.400
12389SOL    HW248097   8.215   3.617   1.537
12390SOL     OW48098   9.125   9.367   5.220
12390SOL    HW148099   9.225   9.361   5.221
12390SOL    HW248100   9.087   9.277   5.197
12391SOL     OW48101   9.840   3.887   0.680
12391SOL    HW148102   9.797   3.871   0.768
12391SOL    HW248103   9.781   3.945   0.624
12392SOL     OW48104   3.867   0.643   3.636
12392SOL    HW148105   3.813   0.683   3.709
12392SOL    HW248106   3.957   0.616   3.671
12393SOL     OW48107   9.126   2.541   3.138
12393SOL    HW148108   9.110   2.604   3.063
12393SOL    HW248109   9.224   2.532   3.154
12394SOL     OW48110   6.172   1.447   1.666
12394SOL    HW148111   6.208   1.536   1.694
12394SOL    HW248112   6.140   1.453   1.571
12395SOL     OW48113   0.820   3.686   3.003
12395SOL    HW148114   0.863   3.620   3.065
12395SOL    HW248115   0.830   3.778   3.039
12396SOL     OW48116   1.141   4.772   3.583
12396SOL    HW148117   1.143   4.850   3.645
12396SOL    HW248118   1.050   4.763   3.543
12397SOL     OW48119   6.013   2.701   4.206
12397SOL    HW148120   6.102   2.744   4.223
12397SOL    HW248121   5.940   2.769   4.215
12398SOL     OW48122   0.666   8.669   4.125
12398SOL    HW148123   0.659   8.745   4.191
12398SOL    HW248124   0.680   8.706   4.033
12399SOL     OW48125   9.383   7.710   4.113
12399SOL    HW148126   9.434   7.761   4.044
12399SOL    HW248127   9.400   7.749   4.203
12400SOL     OW48128   3.185   4.498   4.002
12400SOL    HW148129   3.161   4.486   3.906
12400SOL    HW248130   3.103   4.489   4.058
12401SOL     OW48131   4.542   8.495   4.429
12401SOL    HW148132   4.585   8.483   4.518
12401SOL    HW248133   4.482   8.417   4.411
12402SOL     OW48134   2.152   6.430   0.565
12402SOL    HW148135   2.183   6.440   0.659
12402SOL    HW248136   2.205   6.491   0.506
12403SOL     OW48137   1.100   4.036   1.247
12403SOL    HW148138   1.057   4.124   1.223
12403SOL    HW248139   1.148   4.045   1.334
12404SOL     OW48140   5.241   7.269   3.265
12404SOL    HW148141   5.208   7.346   3.210
12404SOL    HW248142   5.319   7.298   3.320
12405SOL     OW48143   8.205   1.952   4.500
12405SOL    HW148144   8.182   2.016   4.427
12405SOL    HW248145   8.196   1.998   4.588
12406SOL     OW48146   4.713   9.328   3.585
12406SOL    HW148147   4.699   9.255   3.518
12406SOL    HW248148   4.643   9.322   3.656
12407SOL     OW48149   3.547   1.172   3.953
12407SOL    HW148150   3.569   1.164   4.051
12407SOL    HW248151   3.512   1.085   3.920
12408SOL     OW48152   2.979   0.305   2.392
12408SOL    HW148153   3.063   0.356   2.373
12408SOL    HW248154   2.919   0.309   2.312
12409SOL     OW48155   5.423   1.780   4.972
12409SOL    HW148156   5.402   1.729   5.056
12409SOL    HW248157   5.463   1.719   4.905
12410SOL     OW48158   5.185   1.473   2.553
12410SOL    HW148159   5.175   1.398   2.618
12410SOL    HW248160   5.102   1.529   2.554
12411SOL     OW48161   0.104   1.231   3.776
12411SOL    HW148162   0.058   1.251   3.690
12411SOL    HW248163   0.036   1.218   3.848
12412SOL     OW48164   8.230   3.729   3.459
12412SOL    HW148165   8.217   3.808   3.518
12412SOL    HW248166   8.328   3.715   3.443
12413SOL     OW48167   9.449   8.353   4.865
12413SOL    HW148168   9.452   8.254   4.879
12413SOL    HW248169   9.532   8.383   4.817
12414SOL     OW48170   2.177   3.670   4.961
12414SOL    HW148171   2.237   3.613   5.018
12414SOL    HW248172   2.086   3.675   5.003
12415SOL     OW48173   8.788   1.873   4.144
12415SOL    HW148174   8.858   1.824   4.196
12415SOL    HW248175   8.784   1.968   4.176
12416SOL     OW48176   7.909   7.440   3.434
12416SOL    HW148177   7.998   7.479   3.410
12416SOL    HW248178   7.923   7.357   3.488
12417SOL     OW48179   1.638   3.434   0.390
12417SOL    HW148180   1.611   3.344   0.354
12417SOL    HW248181   1.731   3.428   0.426
12418SOL     OW48182   0.194   2.141   2.048
12418SOL    HW148183   0.143   2.064   2.010
12418SOL    HW248184   0.209   2.126   2.146
12419SOL     OW48185   8.352   0.464   4.301
12419SOL    HW148186   8.405   0.426   4.225
12419SOL    HW248187   8.371   0.561   4.311
12420SOL     OW48188   3.502   9.790   3.355
12420SOL    HW148189   3.519   9.863   3.421
12420SOL    HW248190   3.431   9.819   3.292
12421SOL     OW48191   8.381   9.342   0.387
12421SOL    HW148192   8.295   9.325   0.436
12421SOL    HW248193   8.425   9.423   0.426
12422SOL     OW48194   0.577   7.902   4.686
12422SOL    HW148195   0.654   7.860   4.639
12422SOL    HW248196   0.609   7.981   4.738
12423SOL     OW48197   7.207   7.192   3.554
12423SOL    HW148198   7.260   7.272   3.581
12423SOL    HW248199   7.207   7.184   3.454
12424SOL     OW48200   4.733   6.606   2.954
12424SOL    HW148201   4.774   6.685   2.907
12424SOL    HW248202   4.641   6.629   2.984
12425SOL     OW48203   1.248   3.478   3.545
12425SOL    HW148204   1.173   3.540   3.568
12425SOL    HW248205   1.272   3.423   3.625
12426SOL     OW48206   1.306   8.396   1.517
12426SOL    HW148207   1.292   8.361   1.610
12426SOL    HW248208   1.361   8.479   1.522
12427SOL     OW48209   6.288   1.336   5.035
12427SOL    HW148210   6.288   1.236   5.031
12427SOL    HW248211   6.197   1.369   5.058
12428SOL     OW48212   5.965   9.147   2.628
12428SOL    HW148213   6.061   9.122   2.640
12428SOL    HW248214   5.933   9.118   2.538
12429SOL     OW48215   4.181   9.468   1.692
12429SOL    HW148216   4.118   9.391   1.706
12429SOL    HW248217   4.259   9.459   1.754
12430SOL     OW48218   1.417   3.669   3.974
12430SOL    HW148219   1.407   3.723   3.890
12430SOL    HW248220   1.449   3.728   4.048
12431SOL     OW48221   2.713   5.504   0.229
12431SOL    HW148222   2.729   5.483   0.326
12431SOL    HW248223   2.615   5.514   0.213
12432SOL     OW48224   4.689   9.346   4.902
12432SOL    HW148225   4.647   9.414   4.842
12432SOL    HW248226   4.723   9.270   4.847
12433SOL     OW48227   3.429   8.849   0.179
12433SOL    HW148228   3.409   8.938   0.138
12433SOL    HW248229   3.344   8.809   0.214
12434SOL     OW48230   2.384   4.258   0.033
12434SOL    HW148231   2.337   4.175   0.062
12434SOL    HW248232   2.332   4.302   6.709
12435SOL     OW48233   4.694   3.445   4.239
12435SOL    HW148234   4.716   3.513   4.310
12435SOL    HW248235   4.704   3.486   4.149
12436SOL     OW48236   0.923   7.418   4.817
12436SOL    HW148237   0.911   7.330   4.771
12436SOL    HW248238   1.018   7.429   4.844
12437SOL     OW48239   0.188   9.727   3.464
12437SOL    HW148240   0.222   9.677   3.544
12437SOL    HW248241   0.257   9.729   3.393
12438SOL     OW48242   1.830   5.291   3.839
12438SOL    HW148243   1.789   5.301   3.749
12438SOL    HW248244   1.921   5.333   3.840
12439SOL     OW48245   4.119   1.697   2.440
12439SOL    HW148246   4.166   1.697   2.352
12439SOL    HW248247   4.078   1.607   2.456
12440SOL     OW48248   9.010   0.020   5.235
12440SOL    HW148249   8.980   0.096   5.177
12440SOL    HW248250   9.109   0.026   5.250
12441SOL     OW48251   5.381   7.041   2.196
12441SOL    HW148252   5.435   7.007   2.274
12441SOL    HW248253   5.401   7.137   2.181
12442SOL     OW48254   7.797   3.854   1.223
12442SOL    HW148255   7.727   3.906   1.272
12442SOL    HW248256   7.882   3.905   1.222
12443SOL     OW48257   1.454   4.024   3.983
12443SOL    HW148258   1.495   3.961   4.048
12443SOL    HW248259   1.366   4.056   4.018
12444SOL     OW48260   2.323   7.287   2.713
12444SOL    HW148261   2.319   7.387   2.717
12444SOL    HW248262   2.272   7.249   2.790
12445SOL     OW48263   0.166   8.555   4.556
12445SOL    HW148264   0.189   8.487   4.626
12445SOL    HW248265   0.120   8.633   4.598
12446SOL     OW48266   2.929   4.665   3.758
12446SOL    HW148267   2.843   4.640   3.802
12446SOL    HW248268   2.912   4.731   3.685
12447SOL     OW48269   4.223   1.904   2.888
12447SOL    HW148270   4.200   1.843   2.964
12447SOL    HW248271   4.238   1.851   2.805
12448SOL     OW48272   8.874   8.810   0.953
12448SOL    HW148273   8.793   8.847   0.908
12448SOL    HW248274   8.938   8.884   0.973
12449SOL     OW48275   2.955   2.045   3.404
12449SOL    HW148276   2.969   2.056   3.502
12449SOL    HW248277   3.041   2.020   3.360
12450SOL     OW48278   2.821   0.823   1.100
12450SOL    HW148279   2.828   0.818   1.001
12450SOL    HW248280   2.738   0.775   1.130
12451SOL     OW48281   2.483   8.914   0.214
12451SOL    HW148282   2.556   8.950   0.155
12451SOL    HW248283   2.411   8.982   0.223
12452SOL     OW48284   2.328   0.356   2.150
12452SOL    HW148285   2.316   0.259   2.130
12452SOL    HW248286   2.311   0.373   2.247
12453SOL     OW48287   7.702   7.869   3.544
12453SOL    HW148288   7.713   7.912   3.634
12453SOL    HW248289   7.627   7.913   3.495
12454SOL     OW48290   4.929   4.543   0.401
12454SOL    HW148291   4.854   4.477   0.405
12454SOL    HW248292   4.904   4.619   0.341
12455SOL     OW48293   3.851   0.292   4.687
12455SOL    HW148294   3.855   0.198   4.654
12455SOL    HW248295   3.887   0.353   4.617
12456SOL     OW48296   4.180   8.706   4.551
12456SOL    HW148297   4.087   8.672   4.568
12456SOL    HW248298   4.188   8.800   4.585
12457SOL     OW48299   9.955   5.479   4.392
12457SOL    HW148300   0.025   5.534   4.438
12457SOL    HW248301   9.956   5.498   4.294
12458SOL     OW48302   2.021   1.077   4.934
12458SOL    HW148303   2.085   1.154   4.936
12458SOL    HW248304   2.050   1.008   5.000
12459SOL     OW48305   9.881   0.462   1.842
12459SOL    HW148306   9.825   0.457   1.925
12459SOL    HW248307   9.824   0.446   1.762
12460SOL     OW48308   1.946   8.068   2.252
12460SOL    HW148309   1.923   8.029   2.342
12460SOL    HW248310   1.953   8.168   2.260
12461SOL     OW48311   3.704   9.474   0.919
12461SOL    HW148312   3.800   9.446   0.919
12461SOL    HW248313   3.648   9.401   0.881
12462SOL     OW48314   1.694   4.673   2.570
12462SOL    HW148315   1.646   4.715   2.493
12462SOL    HW248316   1.773   4.728   2.595
12463SOL     OW48317   1.874   2.207   4.907
12463SOL    HW148318   1.842   2.297   4.937
12463SOL    HW248319   1.969   2.214   4.876
12464SOL     OW48320   1.035   0.060   2.312
12464SOL    HW148321   0.982   9.977   2.296
12464SOL    HW248322   1.123   0.035   2.354
12465SOL     OW48323   9.499   9.902   4.677
12465SOL    HW148324   9.595   9.874   4.670
12465SOL    HW248325   9.443   9.823   4.704
12466SOL     OW48326   8.183   3.905   4.772
12466SOL    HW148327   8.210   3.837   4.704
12466SOL    HW248328   8.095   3.944   4.747
12467SOL     OW48329   9.518   0.553   2.964
12467SOL    HW148330   9.424   0.532   2.935
12467SOL    HW248331   9.559   0.472   3.006
12468SOL     OW48332   5.375   4.367   1.017
12468SOL    HW148333   5.280   4.366   0.987
12468SOL    HW248334   5.422   4.445   0.975
12469SOL     OW48335   9.712   6.708   3.274
12469SOL    HW148336   9.630   6.715   3.217
12469SOL    HW248337   9.688   6.669   3.363
12470SOL     OW48338   3.009   8.084   3.952
12470SOL    HW148339   2.923   8.038   3.972
12470SOL    HW248340   3.062   8.029   3.888
12471SOL     OW48341   0.350   9.092   5.045
12471SOL    HW148342   0.283   9.035   5.092
12471SOL    HW248343   0.436   9.042   5.034
12472SOL     OW48344   9.626   3.652   3.362
12472SOL    HW148345   9.640   3.626   3.457
12472SOL    HW248346   9.667   3.584   3.302
12473SOL     OW48347   0.635   4.817   2.083
12473SOL    HW148348   0.648   4.787   2.178
12473SOL    HW248349   0.715   4.790   2.029
12474SOL     OW48350   6.995   2.501   3.630
12474SOL    HW148351   7.031   2.463   3.544
12474SOL    HW248352   6.992   2.429   3.699
12475SOL     OW48353   9.129   7.365   2.950
12475SOL    HW148354   9.100   7.271   2.929
12475SOL    HW248355   9.092   7.392   3.039
12476SOL     OW48356   2.145   2.216   4.833
12476SOL    HW148357   2.210   2.240   4.905
12476SOL    HW248358   2.184   2.144   4.776
12477SOL     OW48359   2.322   7.402   1.509
12477SOL    HW148360   2.243   7.341   1.517
12477SOL    HW248361   2.403   7.357   1.545
12478SOL     OW48362   8.555   9.883   4.862
12478SOL    HW148363   8.499   9.907   4.783
12478SOL    HW248364   8.650   9.873   4.834
12479SOL     OW48365   5.756   0.749   4.114
12479SOL    HW148366   5.851   0.777   4.125
12479SOL    HW248367   5.741   0.714   4.022
12480SOL     OW48368   9.550   8.085   1.447
12480SOL    HW148369   9.612   8.024   1.397
12480SOL    HW248370   9.487   8.030   1.501
12481SOL     OW48371   2.953   5.910   1.238
12481SOL    HW148372   2.998   5.858   1.166
12481SOL    HW248373   2.945   5.853   1.320
12482SOL     OW48374   6.139   2.467   3.821
12482SOL    HW148375   6.238   2.463   3.807
12482SOL    HW248376   6.096   2.390   3.774
12483SOL     OW48377   4.966   9.059   1.010
12483SOL    HW148378   4.878   9.015   1.031
12483SOL    HW248379   4.988   9.124   1.083
12484SOL     OW48380   2.509   6.185   4.703
12484SOL    HW148381   2.495   6.282   4.722
12484SOL    HW248382   2.542   6.140   4.786
12485SOL     OW48383   3.534   0.485   3.071
12485SOL    HW148384   3.514   0.466   2.975
12485SOL    HW248385   3.482   0.566   3.100
12486SOL     OW48386   3.692   2.951   2.855
12486SOL    HW148387   3.689   3.050   2.871
12486SOL    HW248388   3.601   2.913   2.864
12487SOL     OW48389   2.214   2.933   3.461
12487SOL    HW148390   2.146   2.896   3.398
12487SOL    HW248391   2.195   2.899   3.553
12488SOL     OW48392   8.292   4.878   4.695
12488SOL    HW148393   8.384   4.894   4.660
12488SOL    HW248394   8.282   4.926   4.783
12489SOL     OW48395   2.284   1.922   2.657
12489SOL    HW148396   2.352   1.871   2.605
12489SOL    HW248397   2.330   1.993   2.711
12490SOL     OW48398   4.500   4.151   5.166
12490SOL    HW148399   4.490   4.205   5.082
12490SOL    HW248400   4.581   4.180   5.215
12491SOL     OW48401   9.674   7.487   3.519
12491SOL    HW148402   9.594   7.440   3.555
12491SOL    HW248403   9.718   7.539   3.592
12492SOL     OW48404   0.283   1.650   4.471
12492SOL    HW148405   0.190   1.619   4.449
12492SOL    HW248406   0.333   1.576   4.516
12493SOL     OW48407   0.470   7.234   1.959
12493SOL    HW148408   0.556   7.186   1.948
12493SOL    HW248409   0.437   7.265   1.870
12494SOL     OW48410   1.263   7.340   1.066
12494SOL    HW148411   1.308   7.341   1.155
12494SOL    HW248412   1.164   7.336   1.079
12495SOL     OW48413   8.663   5.271   2.516
12495SOL    HW148414   8.653   5.304   2.422
12495SOL    HW248415   8.689   5.174   2.515
12496SOL     OW48416   7.780   1.829   4.407
12496SOL    HW148417   7.715   1.812   4.481
12496SOL    HW248418   7.872   1.802   4.436
12497SOL     OW48419   2.843   3.005   4.726
12497SOL    HW148420   2.883   2.932   4.781
12497SOL    HW248421   2.811   3.078   4.786
12498SOL     OW48422   3.658   9.656   3.935
12498SOL    HW148423   3.731   9.588   3.944
12498SOL    HW248424   3.606   9.659   4.021
12499SOL     OW48425   7.079   9.967   3.031
12499SOL    HW148426   7.093   0.062   3.002
12499SOL    HW248427   6.986   9.938   3.005
12500SOL     OW48428   3.717   9.907   3.844
12500SOL    HW148429   3.741   9.894   3.748
12500SOL    HW248430   3.699   9.818   3.886
12501SOL     OW48431   2.447   0.794   2.949
12501SOL    HW148432   2.471   0.890   2.957
12501SOL    HW248433   2.525   0.743   2.910
12502SOL     OW48434   3.447   3.959   3.929
12502SOL    HW148435   3.414   3.903   3.853
12502SOL    HW248436   3.467   4.051   3.895
12503SOL     OW48437   8.001   1.336   5.069
12503SOL    HW148438   7.982   1.426   5.030
12503SOL    HW248439   8.022   1.272   4.995
12504SOL     OW48440   4.821   9.543   5.074
12504SOL    HW148441   4.773   9.499   4.998
12504SOL    HW248442   4.797   9.640   5.078
12505SOL     OW48443   7.968   3.859   3.849
12505SOL    HW148444   7.954   3.876   3.751
12505SOL    HW248445   7.938   3.767   3.872
12506SOL     OW48446   8.381   4.802   0.617
12506SOL    HW148447   8.400   4.793   0.714
12506SOL    HW248448   8.343   4.716   0.582
12507SOL     OW48449   4.004   5.110   2.664
12507SOL    HW148450   3.934   5.041   2.645
12507SOL    HW248451   4.015   5.120   2.763
12508SOL     OW48452   8.469   6.488   1.230
12508SOL    HW148453   8.427   6.403   1.263
12508SOL    HW248454   8.505   6.473   1.138
12509SOL     OW48455   9.222   3.653   1.407
12509SOL    HW148456   9.252   3.559   1.424
12509SOL    HW248457   9.133   3.667   1.450
12510SOL     OW48458   8.921   9.939   0.914
12510SOL    HW148459   8.844   9.945   0.851
12510SOL    HW248460   8.899   9.986   0.999
12511SOL     OW48461   8.657   8.948   0.849
12511SOL    HW148462   8.618   8.993   0.769
12511SOL    HW248463   8.664   9.013   0.924
12512SOL     OW48464   1.921   9.781   4.735
12512SOL    HW148465   1.981   9.720   4.789
12512SOL    HW248466   1.964   9.871   4.727
12513SOL     OW48467   8.197   6.756   3.460
12513SOL    HW148468   8.276   6.694   3.462
12513SOL    HW248469   8.215   6.836   3.517
12514SOL     OW48470   4.707   2.495   5.241
12514SOL    HW148471   4.750   2.405   5.229
12514SOL    HW248472   4.767   2.565   5.203
12515SOL     OW48473   5.549   8.535   2.501
12515SOL    HW148474   5.604   8.495   2.427
12515SOL    HW248475   5.605   8.599   2.553
12516SOL     OW48476   7.563   1.992   5.124
12516SOL    HW148477   7.523   2.063   5.182
12516SOL    HW248478   7.645   1.955   5.168
12517SOL     OW48479   4.191   1.493   4.975
12517SOL    HW148480   4.119   1.448   5.028
12517SOL    HW248481   4.221   1.575   5.023
12518SOL     OW48482   3.174   9.901   0.140
12518SOL    HW148483   3.088   9.877   0.185
12518SOL    HW248484   3.178   9.859   0.050
12519SOL     OW48485   8.788   0.692   4.309
12519SOL    HW148486   8.838   0.748   4.243
12519SOL    HW248487   8.789   0.735   4.399
12520SOL     OW48488   3.364   9.141   2.520
12520SOL    HW148489   3.270   9.115   2.497
12520SOL    HW248490   3.427   9.092   2.460
12521SOL     OW48491   1.358   1.926   0.461
12521SOL    HW148492   1.337   1.980   0.379
12521SOL    HW248493   1.276   1.915   0.517
12522SOL     OW48494   7.197   0.084   4.016
12522SOL    HW148495   7.125   0.055   3.953
12522SOL    HW248496   7.275   0.022   4.007
12523SOL     OW48497   6.958   0.330   3.831
12523SOL    HW148498   7.015   0.407   3.803
12523SOL    HW248499   6.889   0.362   3.897
12524SOL     OW48500   8.770   4.478   2.597
12524SOL    HW148501   8.758   4.406   2.666
12524SOL    HW248502   8.685   4.492   2.548
12525SOL     OW48503   1.211   9.105   2.794
12525SOL    HW148504   1.145   9.056   2.737
12525SOL    HW248505   1.264   9.168   2.737
12526SOL     OW48506   4.972   5.019   1.332
12526SOL    HW148507   5.023   4.938   1.359
12526SOL    HW248508   5.021   5.102   1.361
12527SOL     OW48509   0.604   4.079   4.913
12527SOL    HW148510   0.568   4.101   5.004
12527SOL    HW248511   0.628   3.982   4.909
12528SOL     OW48512   8.802   4.064   1.466
12528SOL    HW148513   8.794   4.146   1.409
12528SOL    HW248514   8.899   4.040   1.477
12529SOL     OW48515   7.635   9.946   0.978
12529SOL    HW148516   7.624   9.973   0.882
12529SOL    HW248517   7.719   9.894   0.988
12530SOL     OW48518   9.960   0.677   3.436
12530SOL    HW148519   9.947   0.770   3.402
12530SOL    HW248520   9.891   0.616   3.395
12531SOL     OW48521   3.464   6.377   4.901
12531SOL    HW148522   3.370   6.410   4.903
12531SOL    HW248523   3.508   6.403   4.815
12532SOL     OW48524   4.239   5.642   1.053
12532SOL    HW148525   4.299   5.565   1.073
12532SOL    HW248526   4.201   5.632   0.961
12533SOL     OW48527   8.486   6.798   1.056
12533SOL    HW148528   8.573   6.826   1.016
12533SOL    HW248529   8.415   6.799   0.985
12534SOL     OW48530   2.998   9.306   0.648
12534SOL    HW148531   3.029   9.371   0.717
12534SOL    HW248532   2.914   9.339   0.606
12535SOL     OW48533   9.387   1.353   1.484
12535SOL    HW148534   9.472   1.300   1.476
12535SOL    HW248535   9.407   1.450   1.479
12536SOL     OW48536   1.457   5.564   0.959
12536SOL    HW148537   1.472   5.661   0.944
12536SOL    HW248538   1.516   5.511   0.898
12537SOL     OW48539   8.271   1.885   0.077
12537SOL    HW148540   8.279   1.974   0.122
12537SOL    HW248541   8.300   1.893   6.730
12538SOL     OW48542   2.071   6.153   3.650
12538SOL    HW148543   2.029   6.119   3.734
12538SOL    HW248544   2.134   6.227   3.672
12539SOL     OW48545   2.818   7.101   0.637
12539SOL    HW148546   2.746   7.080   0.703
12539SOL    HW248547   2.801   7.190   0.596
12540SOL     OW48548   6.775   0.887   2.583
12540SOL    HW148549   6.842   0.823   2.619
12540SOL    HW248550   6.719   0.841   2.514
12541SOL     OW48551   1.438   0.913   4.694
12541SOL    HW148552   1.450   0.823   4.738
12541SOL    HW248553   1.526   0.943   4.657
12542SOL     OW48554   4.258   8.223   2.166
12542SOL    HW148555   4.253   8.190   2.260
12542SOL    HW248556   4.213   8.312   2.159
12543SOL     OW48557   2.657   5.554   3.566
12543SOL    HW148558   2.606   5.550   3.480
12543SOL    HW248559   2.612   5.497   3.634
12544SOL     OW48560   3.486   6.748   0.599
12544SOL    HW148561   3.555   6.748   0.526
12544SOL    HW248562   3.512   6.813   0.670
12545SOL     OW48563   8.551   3.789   1.793
12545SOL    HW148564   8.569   3.696   1.824
12545SOL    HW248565   8.455   3.812   1.810
12546SOL     OW48566   2.842   8.562   2.015
12546SOL    HW148567   2.776   8.627   1.976
12546SOL    HW248568   2.910   8.612   2.068
12547SOL     OW48569   7.140   1.748   0.494
12547SOL    HW148570   7.168   1.800   0.575
12547SOL    HW248571   7.075   1.801   0.441
12548SOL     OW48572   2.612   0.389   3.186
12548SOL    HW148573   2.668   0.346   3.257
12548SOL    HW248574   2.551   0.457   3.229
12549SOL     OW48575   4.832   4.732   0.227
12549SOL    HW148576   4.853   4.822   0.264
12549SOL    HW248577   4.734   4.715   0.235
12550SOL     OW48578   4.992   4.021   4.460
12550SOL    HW148579   5.077   3.996   4.506
12550SOL    HW248580   4.981   4.120   4.460
12551SOL     OW48581   0.070   7.951   2.486
12551SOL    HW148582   0.077   7.886   2.562
12551SOL    HW248583   9.974   7.959   2.459
12552SOL     OW48584   0.455   8.018   4.140
12552SOL    HW148585   0.421   8.019   4.046
12552SOL    HW248586   0.541   7.968   4.144
12553SOL     OW48587   2.237   9.782   3.258
12553SOL    HW148588   2.280   9.859   3.210
12553SOL    HW248589   2.258   9.697   3.210
12554SOL     OW48590   8.351   2.279   2.180
12554SOL    HW148591   8.392   2.296   2.091
12554SOL    HW248592   8.385   2.193   2.218
12555SOL     OW48593   1.881   3.093   3.564
12555SOL    HW148594   1.970   3.128   3.533
12555SOL    HW248595   1.823   3.170   3.590
12556SOL     OW48596   9.263   4.934   0.162
12556SOL    HW148597   9.285   4.838   0.148
12556SOL    HW248598   9.345   4.989   0.147
12557SOL     OW48599   0.690   0.603   4.049
12557SOL    HW148600   0.736   0.544   4.115
12557SOL    HW248601   0.752   0.625   3.974
12558SOL     OW48602   8.015   3.858   0.170
12558SOL    HW148603   8.111   3.830   0.176
12558SOL    HW248604   7.976   3.861   0.262
12559SOL     OW48605   4.407   3.910   3.557
12559SOL    HW148606   4.460   3.830   3.528
12559SOL    HW248607   4.468   3.974   3.603
12560SOL     OW48608   2.608   4.168   2.063
12560SOL    HW148609   2.546   4.190   1.988
12560SOL    HW248610   2.686   4.232   2.062
12561SOL     OW48611   4.834   5.136   2.555
12561SOL    HW148612   4.803   5.066   2.490
12561SOL    HW248613   4.845   5.094   2.645
12562SOL     OW48614   0.567   2.869   4.255
12562SOL    HW148615   0.519   2.786   4.228
12562SOL    HW248616   0.561   2.881   4.354
12563SOL     OW48617   4.624   7.793   3.462
12563SOL    HW148618   4.661   7.726   3.528
12563SOL    HW248619   4.613   7.749   3.373
12564SOL     OW48620   5.758   9.103   3.159
12564SOL    HW148621   5.800   9.026   3.111
12564SOL    HW248622   5.714   9.163   3.094
12565SOL     OW48623   9.438   2.838   1.870
12565SOL    HW148624   9.504   2.777   1.827
12565SOL    HW248625   9.345   2.809   1.846
12566SOL     OW48626   8.502   0.081   4.071
12566SOL    HW148627   8.508   0.181   4.071
12566SOL    HW248628   8.544   0.045   4.154
12567SOL     OW48629   2.552   8.492   0.205
12567SOL    HW148630   2.640   8.476   0.161
12567SOL    HW248631   2.495   8.411   0.196
12568SOL     OW48632   0.915   1.948   4.469
12568SOL    HW148633   0.919   1.851   4.491
12568SOL    HW248634   0.888   1.960   4.374
12569SOL     OW48635   8.108   6.957   4.053
12569SOL    HW148636   8.105   7.053   4.078
12569SOL    HW248637   8.171   6.944   3.977
12570SOL     OW48638   0.758   6.517   0.430
12570SOL    HW148639   0.661   6.536   0.420
12570SOL    HW248640   0.770   6.423   0.465
12571SOL     OW48641   6.274   7.571   4.337
12571SOL    HW148642   6.331   7.520   4.401
12571SOL    HW248643   6.228   7.646   4.386
12572SOL     OW48644   9.295   1.126   0.540
12572SOL    HW148645   9.332   1.049   0.593
12572SOL    HW248646   9.302   1.107   0.443
12573SOL     OW48647   4.436   3.360   4.317
12573SOL    HW148648   4.525   3.395   4.286
12573SOL    HW248649   4.401   3.295   4.250
12574SOL     OW48650   1.312   7.242   4.446
12574SOL    HW148651   1.404   7.213   4.471
12574SOL    HW248652   1.316   7.304   4.368
12575SOL     OW48653   1.383   2.429   0.965
12575SOL    HW148654   1.459   2.365   0.952
12575SOL    HW248655   1.319   2.420   0.889
12576SOL     OW48656   3.808   2.874   1.601
12576SOL    HW148657   3.835   2.787   1.561
12576SOL    HW248658   3.792   2.863   1.699
12577SOL     OW48659   4.884   1.633   3.923
12577SOL    HW148660   4.947   1.585   3.984
12577SOL    HW248661   4.846   1.713   3.971
12578SOL     OW48662   8.470   1.465   3.671
12578SOL    HW148663   8.496   1.422   3.758
12578SOL    HW248664   8.428   1.396   3.612
12579SOL     OW48665   1.580   5.041   4.787
12579SOL    HW148666   1.533   4.962   4.747
12579SOL    HW248667   1.539   5.125   4.752
12580SOL     OW48668   9.070   6.203   0.784
12580SOL    HW148669   9.062   6.197   0.684
12580SOL    HW248670   9.140   6.270   0.808
12581SOL     OW48671   0.983   8.749   1.582
12581SOL    HW148672   0.889   8.738   1.613
12581SOL    HW248673   1.040   8.678   1.624
12582SOL     OW48674   7.705   9.904   4.440
12582SOL    HW148675   7.804   9.915   4.431
12582SOL    HW248676   7.680   9.810   4.417
12583SOL     OW48677   4.508   8.877   0.663
12583SOL    HW148678   4.467   8.786   0.672
12583SOL    HW248679   4.509   8.904   0.567
12584SOL     OW48680   8.708   6.650   1.756
12584SOL    HW148681   8.631   6.706   1.787
12584SOL    HW248682   8.788   6.708   1.742
12585SOL     OW48683   8.240   9.335   3.010
12585SOL    HW148684   8.151   9.301   2.979
12585SOL    HW248685   8.266   9.414   2.956
12586SOL     OW48686   9.346   7.592   2.039
12586SOL    HW148687   9.253   7.613   2.008
12586SOL    HW248688   9.366   7.644   2.122
12587SOL     OW48689   1.406   2.037   3.362
12587SOL    HW148690   1.456   2.060   3.445
12587SOL    HW248691   1.395   1.938   3.356
12588SOL     OW48692   2.798   0.262   3.345
12588SOL    HW148693   2.871   0.313   3.391
12588SOL    HW248694   2.778   0.179   3.397
12589SOL     OW48695   3.267   4.340   4.765
12589SOL    HW148696   3.298   4.307   4.854
12589SOL    HW248697   3.220   4.428   4.777
12590SOL     OW48698   9.503   0.298   0.586
12590SOL    HW148699   9.591   0.252   0.599
12590SOL    HW248700   9.435   0.258   0.648
12591SOL     OW48701   0.683   4.897   0.938
12591SOL    HW148702   0.631   4.944   1.010
12591SOL    HW248703   0.718   4.810   0.973
12592SOL     OW48704   4.781   1.753   3.694
12592SOL    HW148705   4.838   1.708   3.763
12592SOL    HW248706   4.690   1.710   3.693
12593SOL     OW48707   3.777   4.452   1.107
12593SOL    HW148708   3.794   4.401   1.022
12593SOL    HW248709   3.798   4.549   1.092
12594SOL     OW48710   4.779   1.736   3.035
12594SOL    HW148711   4.860   1.791   3.054
12594SOL    HW248712   4.767   1.668   3.107
12595SOL     OW48713   1.002   9.554   0.927
12595SOL    HW148714   0.951   9.559   0.842
12595SOL    HW248715   0.939   9.533   1.002
12596SOL     OW48716   3.827   1.044   1.566
12596SOL    HW148717   3.838   1.143   1.553
12596SOL    HW248718   3.889   1.013   1.638
12597SOL     OW48719   2.149   2.125   2.925
12597SOL    HW148720   2.181   2.078   3.008
12597SOL    HW248721   2.225   2.134   2.861
12598SOL     OW48722   3.983   4.660   4.901
12598SOL    HW148723   3.940   4.731   4.957
12598SOL    HW248724   3.955   4.671   4.806
12599SOL     OW48725   0.729   0.272   3.442
12599SOL    HW148726   0.799   0.341   3.426
12599SOL    HW248727   0.749   0.221   3.526
12600SOL     OW48728   0.982   3.888   3.513
12600SOL    HW148729   1.069   3.934   3.528
12600SOL    HW248730   0.906   3.952   3.527
12601SOL     OW48731   7.598   3.608   1.641
12601SOL    HW148732   7.661   3.548   1.593
12601SOL    HW248733   7.504   3.584   1.618
12602SOL     OW48734   1.589   8.615   4.143
12602SOL    HW148735   1.498   8.657   4.139
12602SOL    HW248736   1.618   8.592   4.050
12603SOL     OW48737   7.655   9.905   3.412
12603SOL    HW148738   7.632   9.955   3.496
12603SOL    HW248739   7.659   9.807   3.432
12604SOL     OW48740   2.681   5.084   3.238
12604SOL    HW148741   2.751   5.013   3.226
12604SOL    HW248742   2.715   5.171   3.200
12605SOL     OW48743   0.995   7.846   3.539
12605SOL    HW148744   0.964   7.908   3.466
12605SOL    HW248745   0.988   7.751   3.507
12606SOL     OW48746   4.982   0.195   1.482
12606SOL    HW148747   5.081   0.204   1.493
12606SOL    HW248748   4.961   0.166   1.388
12607SOL     OW48749   7.465   0.994   4.188
12607SOL    HW148750   7.538   1.061   4.201
12607SOL    HW248751   7.473   0.922   4.256
12608SOL     OW48752   7.879   0.609   1.001
12608SOL    HW148753   7.967   0.575   0.967
12608SOL    HW248754   7.895   0.690   1.057
12609SOL     OW48755   1.498   6.406   1.636
12609SOL    HW148756   1.425   6.391   1.702
12609SOL    HW248757   1.525   6.318   1.596
12610SOL     OW48758   1.730   4.924   1.840
12610SOL    HW148759   1.759   4.854   1.905
12610SOL    HW248760   1.637   4.905   1.809
12611SOL     OW48761   4.889   5.243   3.266
12611SOL    HW148762   4.924   5.337   3.271
12611SOL    HW248763   4.966   5.179   3.273
12612SOL     OW48764   5.481   1.365   3.703
12612SOL    HW148765   5.550   1.394   3.637
12612SOL    HW248766   5.519   1.368   3.795
12613SOL     OW48767   6.084   9.692   3.311
12613SOL    HW148768   6.045   9.619   3.368
12613SOL    HW248769   6.172   9.720   3.348
12614SOL     OW48770   8.043   1.585   2.735
12614SOL    HW148771   7.968   1.580   2.668
12614SOL    HW248772   8.033   1.510   2.801
12615SOL     OW48773   9.638   2.838   4.944
12615SOL    HW148774   9.660   2.857   5.040
12615SOL    HW248775   9.717   2.859   4.887
12616SOL     OW48776   0.263   5.553   2.540
12616SOL    HW148777   0.176   5.569   2.493
12616SOL    HW248778   0.257   5.470   2.595
12617SOL     OW48779   2.897   6.137   1.090
12617SOL    HW148780   2.918   6.053   1.140
12617SOL    HW248781   2.798   6.153   1.091
12618SOL     OW48782   1.224   3.969   2.623
12618SOL    HW148783   1.150   4.021   2.581
12618SOL    HW248784   1.248   3.891   2.564
12619SOL     OW48785   7.610   7.276   3.020
12619SOL    HW148786   7.645   7.327   3.099
12619SOL    HW248787   7.646   7.183   3.022
12620SOL     OW48788   8.875   7.895   4.626
12620SOL    HW148789   8.967   7.932   4.636
12620SOL    HW248790   8.832   7.888   4.717
12621SOL     OW48791   4.815   2.812   2.783
12621SOL    HW148792   4.806   2.899   2.831
12621SOL    HW248793   4.725   2.780   2.754
12622SOL     OW48794   2.258   5.438   3.734
12622SOL    HW148795   2.196   5.433   3.812
12622SOL    HW248796   2.353   5.439   3.766
12623SOL     OW48797   6.427   8.510   4.154
12623SOL    HW148798   6.397   8.420   4.124
12623SOL    HW248799   6.466   8.504   4.246
12624SOL     OW48800   8.161   3.663   2.280
12624SOL    HW148801   8.097   3.713   2.222
12624SOL    HW248802   8.255   3.685   2.252
12625SOL     OW48803   0.648   2.530   2.808
12625SOL    HW148804   0.630   2.452   2.868
12625SOL    HW248805   0.574   2.596   2.814
12626SOL     OW48806   2.625   5.277   0.947
12626SOL    HW148807   2.716   5.262   0.985
12626SOL    HW248808   2.563   5.206   0.979
12627SOL     OW48809   0.561   5.105   0.791
12627SOL    HW148810   0.477   5.069   0.751
12627SOL    HW248811   0.610   5.030   0.837
12628SOL     OW48812   6.614   8.584   2.868
12628SOL    HW148813   6.713   8.576   2.873
12628SOL    HW248814   6.584   8.576   2.773
12629SOL     OW48815   0.449   6.704   4.287
12629SOL    HW148816   0.496   6.712   4.375
12629SOL    HW248817   0.433   6.607   4.266
12630SOL     OW48818   9.915   3.039   4.384
12630SOL    HW148819   9.944   3.123   4.429
12630SOL    HW248820   9.857   3.061   4.306
12631SOL     OW48821   2.676   9.202   0.996
12631SOL    HW148822   2.584   9.242   0.995
12631SOL    HW248823   2.703   9.183   1.090
12632SOL     OW48824   4.648   3.005   2.010
12632SOL    HW148825   4.619   3.086   2.062
12632SOL    HW248826   4.642   2.924   2.069
12633SOL     OW48827   0.848   7.933   2.863
12633SOL    HW148828   0.894   7.861   2.811
12633SOL    HW248829   0.797   7.991   2.800
12634SOL     OW48830   6.529   1.505   2.898
12634SOL    HW148831   6.580   1.591   2.895
12634SOL    HW248832   6.442   1.519   2.944
12635SOL     OW48833   2.970   6.368   4.968
12635SOL    HW148834   2.944   6.297   5.034
12635SOL    HW248835   2.974   6.328   4.876
12636SOL     OW48836   8.961   7.277   4.045
12636SOL    HW148837   8.894   7.350   4.029
12636SOL    HW248838   9.050   7.317   4.066
12637SOL     OW48839   0.669   9.822   4.607
12637SOL    HW148840   0.721   9.754   4.658
12637SOL    HW248841   0.720   9.907   4.603
12638SOL     OW48842   1.374   2.130   1.641
12638SOL    HW148843   1.382   2.205   1.575
12638SOL    HW248844   1.327   2.163   1.723
12639SOL     OW48845   5.751   7.698   2.645
12639SOL    HW148846   5.666   7.749   2.634
12639SOL    HW248847   5.759   7.665   2.739
12640SOL     OW48848   3.497   1.233   4.695
12640SOL    HW148849   3.439   1.299   4.648
12640SOL    HW248850   3.453   1.144   4.697
12641SOL     OW48851   8.744   8.554   0.123
12641SOL    HW148852   8.773   8.473   0.073
12641SOL    HW248853   8.816   8.581   0.188
12642SOL     OW48854   1.492   9.917   3.208
12642SOL    HW148855   1.572   9.859   3.198
12642SOL    HW248856   1.482   9.944   3.303
12643SOL     OW48857   7.713   0.257   2.048
12643SOL    HW148858   7.786   0.196   2.079
12643SOL    HW248859   7.667   0.296   2.128
12644SOL     OW48860   8.776   2.261   1.142
12644SOL    HW148861   8.830   2.331   1.189
12644SOL    HW248862   8.789   2.173   1.188
12645SOL     OW48863   8.507   6.487   0.066
12645SOL    HW148864   8.560   6.540   0.132
12645SOL    HW248865   8.471   6.405   0.110
12646SOL     OW48866   1.106   8.557   1.739
12646SOL    HW148867   1.027   8.521   1.788
12646SOL    HW248868   1.172   8.483   1.723
12647SOL     OW48869   9.999   3.172   1.672
12647SOL    HW148870   9.909   3.208   1.648
12647SOL    HW248871   0.007   3.164   1.771
12648SOL     OW48872   4.158   9.575   0.802
12648SOL    HW148873   4.213   9.497   0.776
12648SOL    HW248874   4.218   9.651   0.830
12649SOL     OW48875   1.735   7.400   1.886
12649SOL    HW148876   1.695   7.470   1.826
12649SOL    HW248877   1.816   7.361   1.841
12650SOL     OW48878   9.767   7.637   2.299
12650SOL    HW148879   9.839   7.576   2.267
12650SOL    HW248880   9.743   7.702   2.228
12651SOL     OW48881   4.376   5.871   1.134
12651SOL    HW148882   4.340   5.959   1.102
12651SOL    HW248883   4.315   5.797   1.104
12652SOL     OW48884   4.326   5.968   3.027
12652SOL    HW148885   4.375   6.050   3.057
12652SOL    HW248886   4.341   5.954   2.930
12653SOL     OW48887   0.954   2.375   3.227
12653SOL    HW148888   0.951   2.455   3.167
12653SOL    HW248889   0.967   2.293   3.172
12654SOL     OW48890   9.647   7.623   0.806
12654SOL    HW148891   9.662   7.679   0.724
12654SOL    HW248892   9.548   7.617   0.824
12655SOL     OW48893   4.388   3.712   0.651
12655SOL    HW148894   4.451   3.763   0.709
12655SOL    HW248895   4.294   3.728   0.680
12656SOL     OW48896   0.892   8.380   3.751
12656SOL    HW148897   0.981   8.342   3.725
12656SOL    HW248898   0.896   8.411   3.846
12657SOL     OW48899   3.269   7.396   0.539
12657SOL    HW148900   3.219   7.447   0.609
12657SOL    HW248901   3.347   7.350   0.580
12658SOL     OW48902   3.237   5.658   4.383
12658SOL    HW148903   3.215   5.679   4.288
12658SOL    HW248904   3.256   5.743   4.433
12659SOL     OW48905   1.895   8.652   1.382
12659SOL    HW148906   1.947   8.719   1.329
12659SOL    HW248907   1.941   8.635   1.469
12660SOL     OW48908   3.388   9.903   5.253
12660SOL    HW148909   3.370   9.879   5.348
12660SOL    HW248910   3.405   9.819   5.201
12661SOL     OW48911   7.650   0.047   1.883
12661SOL    HW148912   7.731   0.039   1.826
12661SOL    HW248913   7.657   0.129   1.940
12662SOL     OW48914   9.118   4.064   1.050
12662SOL    HW148915   9.190   4.132   1.066
12662SOL    HW248916   9.127   3.990   1.117
12663SOL     OW48917   9.792   8.427   1.766
12663SOL    HW148918   9.775   8.522   1.742
12663SOL    HW248919   9.729   8.368   1.714
12664SOL     OW48920   2.686   5.160   1.330
12664SOL    HW148921   2.586   5.165   1.335
12664SOL    HW248922   2.725   5.232   1.387
12665SOL     OW48923   0.952   3.139   0.152
12665SOL    HW148924   0.999   3.050   0.153
12665SOL    HW248925   1.005   3.204   0.207
12666SOL     OW48926   4.730   8.927   1.048
12666SOL    HW148927   4.726   8.827   1.047
12666SOL    HW248928   4.640   8.964   1.024
12667SOL     OW48929   8.946   0.063   4.642
12667SOL    HW148930   8.914   0.154   4.671
12667SOL    HW248931   9.046   0.061   4.645
12668SOL     OW48932   9.710   1.289   3.186
12668SOL    HW148933   9.741   1.380   3.215
12668SOL    HW248934   9.782   1.245   3.133
12669SOL     OW48935   3.184   0.176   4.501
12669SOL    HW148936   3.206   0.267   4.467
12669SOL    HW248937   3.266   0.121   4.505
12670SOL     OW48938   9.098   0.571   1.027
12670SOL    HW148939   9.036   0.592   0.952
12670SOL    HW248940   9.143   0.483   1.010
12671SOL     OW48941   4.586   4.024   1.301
12671SOL    HW148942   4.546   3.957   1.363
12671SOL    HW248943   4.645   4.086   1.354
12672SOL     OW48944   7.940   1.888   4.875
12672SOL    HW148945   7.976   1.817   4.815
12672SOL    HW248946   7.982   1.881   4.965
12673SOL     OW48947   8.315   1.844   3.759
12673SOL    HW148948   8.282   1.787   3.835
12673SOL    HW248949   8.398   1.803   3.721
12674SOL     OW48950   8.401   9.394   2.193
12674SOL    HW148951   8.408   9.491   2.219
12674SOL    HW248952   8.361   9.387   2.102
12675SOL     OW48953   3.876   9.196   3.889
12675SOL    HW148954   3.845   9.290   3.902
12675SOL    HW248955   3.809   9.146   3.834
12676SOL     OW48956   0.378   7.522   1.146
12676SOL    HW148957   0.278   7.525   1.146
12676SOL    HW248958   0.409   7.443   1.094
12677SOL     OW48959   1.836   6.881   0.505
12677SOL    HW148960   1.816   6.948   0.576
12677SOL    HW248961   1.767   6.887   0.433
12678SOL     OW48962   3.050   3.204   4.259
12678SOL    HW148963   3.061   3.174   4.354
12678SOL    HW248964   3.038   3.303   4.256
12679SOL     OW48965   7.441   8.352   3.925
12679SOL    HW148966   7.409   8.261   3.951
12679SOL    HW248967   7.444   8.411   4.005
12680SOL     OW48968   2.616   3.983   4.460
12680SOL    HW148969   2.615   3.885   4.481
12680SOL    HW248970   2.613   3.996   4.361
12681SOL     OW48971   1.653   6.357   0.279
12681SOL    HW148972   1.698   6.270   0.261
12681SOL    HW248973   1.561   6.355   0.241
12682SOL     OW48974   2.007   6.125   2.140
12682SOL    HW148975   2.104   6.113   2.163
12682SOL    HW248976   1.964   6.036   2.129
12683SOL     OW48977   5.727   8.251   2.812
12683SOL    HW148978   5.629   8.259   2.793
12683SOL    HW248979   5.748   8.158   2.841
12684SOL     OW48980   8.355   0.551   3.454
12684SOL    HW148981   8.284   0.482   3.467
12684SOL    HW248982   8.380   0.555   3.357
12685SOL     OW48983   9.681   8.127   5.083
12685SOL    HW148984   9.727   8.209   5.050
12685SOL    HW248985   9.749   8.054   5.097
12686SOL     OW48986   4.662   6.353   2.886
12686SOL    HW148987   4.722   6.288   2.933
12686SOL    HW248988   4.689   6.447   2.910
12687SOL     OW48989   4.648   4.411   0.144
12687SOL    HW148990   4.609   4.497   0.176
12687SOL    HW248991   4.735   4.429   0.098
12688SOL     OW48992   8.765   2.211   1.498
12688SOL    HW148993   8.801   2.155   1.423
12688SOL    HW248994   8.683   2.168   1.536
12689SOL     OW48995   4.671   1.425   2.138
12689SOL    HW148996   4.699   1.448   2.232
12689SOL    HW248997   4.752   1.418   2.080
12690SOL     OW48998   6.800   0.799   1.673
12690SOL    HW148999   6.728   0.753   1.726
12690SOL    HW249000   6.887   0.751   1.688
12691SOL     OW49001   2.644   8.983   1.376
12691SOL    HW149002   2.609   8.929   1.300
12691SOL    HW249003   2.698   9.060   1.341
12692SOL     OW49004   3.143   2.713   1.611
12692SOL    HW149005   3.154   2.812   1.602
12692SOL    HW249006   3.068   2.682   1.552
12693SOL     OW49007   7.061   2.238   4.804
12693SOL    HW149008   6.977   2.206   4.848
12693SOL    HW249009   7.124   2.161   4.793
12694SOL     OW49010   1.672   1.739   1.619
12694SOL    HW149011   1.604   1.717   1.549
12694SOL    HW249012   1.645   1.824   1.666
12695SOL     OW49013   0.675   5.637   4.836
12695SOL    HW149014   0.645   5.661   4.743
12695SOL    HW249015   0.760   5.584   4.831
12696SOL     OW49016   0.440   2.651   4.173
12696SOL    HW149017   0.340   2.643   4.167
12696SOL    HW249018   0.483   2.579   4.119
12697SOL     OW49019   5.036   0.222   2.420
12697SOL    HW149020   5.028   0.279   2.502
12697SOL    HW249021   5.000   0.131   2.439
12698SOL     OW49022   4.145   9.587   0.354
12698SOL    HW149023   4.216   9.655   0.370
12698SOL    HW249024   4.153   9.513   0.420
12699SOL     OW49025   3.752   5.400   3.136
12699SOL    HW149026   3.810   5.476   3.165
12699SOL    HW249027   3.668   5.436   3.096
12700SOL     OW49028   1.331   2.555   2.927
12700SOL    HW149029   1.324   2.620   2.852
12700SOL    HW249030   1.241   2.540   2.968
12701SOL     OW49031   4.305   1.120   3.771
12701SOL    HW149032   4.343   1.105   3.862
12701SOL    HW249033   4.270   1.213   3.764
12702SOL     OW49034   2.008   7.377   0.341
12702SOL    HW149035   2.092   7.323   0.331
12702SOL    HW249036   2.032   7.474   0.351
12703SOL     OW49037   8.752   0.708   5.070
12703SOL    HW149038   8.711   0.631   5.120
12703SOL    HW249039   8.850   0.694   5.061
12704SOL     OW49040   8.438   5.026   5.321
12704SOL    HW149041   8.390   5.038   5.408
12704SOL    HW249042   8.487   5.110   5.298
12705SOL     OW49043   7.855   4.708   0.629
12705SOL    HW149044   7.861   4.796   0.582
12705SOL    HW249045   7.777   4.656   0.593
12706SOL     OW49046   3.050   7.994   4.746
12706SOL    HW149047   3.121   7.936   4.787
12706SOL    HW249048   3.094   8.069   4.695
12707SOL     OW49049   1.939   6.617   5.175
12707SOL    HW149050   1.965   6.619   5.271
12707SOL    HW249051   1.898   6.528   5.153
12708SOL     OW49052   1.940   8.008   4.735
12708SOL    HW149053   1.865   7.971   4.680
12708SOL    HW249054   1.916   8.002   4.832
12709SOL     OW49055   0.508   4.575   3.989
12709SOL    HW149056   0.602   4.558   4.019
12709SOL    HW249057   0.448   4.582   4.069
12710SOL     OW49058   7.638   7.360   4.965
12710SOL    HW149059   7.671   7.443   4.920
12710SOL    HW249060   7.539   7.365   4.975
12711SOL     OW49061   4.835   0.630   1.696
12711SOL    HW149062   4.925   0.665   1.670
12711SOL    HW249063   4.837   0.530   1.693
12712SOL     OW49064   9.964   1.749   3.320
12712SOL    HW149065   0.056   1.745   3.282
12712SOL    HW249066   9.958   1.827   3.383
12713SOL     OW49067   3.793   0.321   4.276
12713SOL    HW149068   3.873   0.305   4.219
12713SOL    HW249069   3.821   0.367   4.361
12714SOL     OW49070   0.828   7.327   3.389
12714SOL    HW149071   0.740   7.356   3.425
12714SOL    HW249072   0.825   7.326   3.289
12715SOL     OW49073   4.137   8.918   3.332
12715SOL    HW149074   4.130   8.933   3.431
12715SOL    HW249075   4.224   8.875   3.311
12716SOL     OW49076   4.896   9.362   3.232
12716SOL    HW149077   4.865   9.420   3.307
12716SOL    HW249078   4.978   9.312   3.261
12717SOL     OW49079   3.577   3.527   1.694
12717SOL    HW149080   3.540   3.568   1.610
12717SOL    HW249081   3.676   3.514   1.683
12718SOL     OW49082   9.464   7.220   1.847
12718SOL    HW149083   9.424   7.163   1.775
12718SOL    HW249084   9.391   7.256   1.905
12719SOL     OW49085   1.385   8.215   4.695
12719SOL    HW149086   1.338   8.127   4.688
12719SOL    HW249087   1.329   8.286   4.654
12720SOL     OW49088   0.700   3.623   0.251
12720SOL    HW149089   0.680   3.542   0.306
12720SOL    HW249090   0.779   3.604   0.192
12721SOL     OW49091   2.556   6.629   4.084
12721SOL    HW149092   2.576   6.532   4.083
12721SOL    HW249093   2.619   6.677   4.023
12722SOL     OW49094   0.887   2.277   1.018
12722SOL    HW149095   0.860   2.192   0.971
12722SOL    HW249096   0.956   2.256   1.087
12723SOL     OW49097   1.130   3.811   3.814
12723SOL    HW149098   1.096   3.747   3.744
12723SOL    HW249099   1.226   3.831   3.797
12724SOL     OW49100   7.941   2.534   1.644
12724SOL    HW149101   7.925   2.603   1.714
12724SOL    HW249102   7.913   2.444   1.680
12725SOL     OW49103   6.202   7.904   2.899
12725SOL    HW149104   6.115   7.890   2.853
12725SOL    HW249105   6.188   7.960   2.981
12726SOL     OW49106   4.846   7.832   2.412
12726SOL    HW149107   4.944   7.849   2.406
12726SOL    HW249108   4.825   7.785   2.498
12727SOL     OW49109   7.298   2.830   1.104
12727SOL    HW149110   7.249   2.792   1.182
12727SOL    HW249111   7.367   2.764   1.073
12728SOL     OW49112   9.674   4.949   1.106
12728SOL    HW149113   9.703   5.038   1.071
12728SOL    HW249114   9.679   4.882   1.032
12729SOL     OW49115   8.809   2.137   2.277
12729SOL    HW149116   8.749   2.074   2.228
12729SOL    HW249117   8.843   2.093   2.360
12730SOL     OW49118   7.142   1.616   0.172
12730SOL    HW149119   7.213   1.567   0.223
12730SOL    HW249120   7.054   1.569   0.184
12731SOL     OW49121   2.545   5.637   1.573
12731SOL    HW149122   2.464   5.588   1.539
12731SOL    HW249123   2.619   5.628   1.507
12732SOL     OW49124   2.911   1.884   5.227
12732SOL    HW149125   2.998   1.918   5.189
12732SOL    HW249126   2.915   1.888   5.327
12733SOL     OW49127   0.410   2.201   0.183
12733SOL    HW149128   0.413   2.186   0.084
12733SOL    HW249129   0.335   2.264   0.204
12734SOL     OW49130   8.686   3.558   1.905
12734SOL    HW149131   8.710   3.474   1.855
12734SOL    HW249132   8.705   3.546   2.002
12735SOL     OW49133   3.763   3.476   4.644
12735SOL    HW149134   3.797   3.448   4.734
12735SOL    HW249135   3.837   3.520   4.593
12736SOL     OW49136   2.856   1.083   0.441
12736SOL    HW149137   2.945   1.051   0.474
12736SOL    HW249138   2.792   1.090   0.517
12737SOL     OW49139   4.319   4.924   1.103
12737SOL    HW149140   4.356   4.932   1.011
12737SOL    HW249141   4.243   4.858   1.103
12738SOL     OW49142   7.695   3.868   1.608
12738SOL    HW149143   7.645   3.782   1.620
12738SOL    HW249144   7.793   3.851   1.614
12739SOL     OW49145   9.040   9.586   2.159
12739SOL    HW149146   8.967   9.522   2.183
12739SOL    HW249147   9.113   9.537   2.111
12740SOL     OW49148   2.661   5.161   0.327
12740SOL    HW149149   2.683   5.165   0.230
12740SOL    HW249150   2.712   5.086   0.369
12741SOL     OW49151   9.442   6.713   1.350
12741SOL    HW149152   9.494   6.676   1.426
12741SOL    HW249153   9.344   6.700   1.367
12742SOL     OW49154   5.138   1.862   3.658
12742SOL    HW149155   5.054   1.909   3.685
12742SOL    HW249156   5.172   1.807   3.734
12743SOL     OW49157   6.086   8.278   4.478
12743SOL    HW149158   6.036   8.214   4.420
12743SOL    HW249159   6.184   8.269   4.460
12744SOL     OW49160   5.584   8.232   5.294
12744SOL    HW149161   5.485   8.242   5.285
12744SOL    HW249162   5.610   8.240   5.391
12745SOL     OW49163   8.693   4.378   1.550
12745SOL    HW149164   8.740   4.353   1.465
12745SOL    HW249165   8.599   4.405   1.529
12746SOL     OW49166   2.057   5.138   0.133
12746SOL    HW149167   2.052   5.165   0.037
12746SOL    HW249168   2.018   5.047   0.144
12747SOL     OW49169   1.315   9.785   2.194
12747SOL    HW149170   1.242   9.719   2.214
12747SOL    HW249171   1.351   9.768   2.102
12748SOL     OW49172   0.020   4.333   2.912
12748SOL    HW149173   0.059   4.318   3.003
12748SOL    HW249174   0.006   4.244   2.867
12749SOL     OW49175   5.029   0.922   6.748
12749SOL    HW149176   5.048   1.000   6.688
12749SOL    HW249177   5.070   0.939   0.089
12750SOL     OW49178   0.500   0.622   2.608
12750SOL    HW149179   0.424   0.614   2.544
12750SOL    HW249180   0.507   0.539   2.662
12751SOL     OW49181   7.645   0.248   1.577
12751SOL    HW149182   7.583   0.323   1.553
12751SOL    HW249183   7.724   0.285   1.626
12752SOL     OW49184   9.281   2.572   2.023
12752SOL    HW149185   9.345   2.507   1.983
12752SOL    HW249186   9.225   2.527   2.092
12753SOL     OW49187   9.954   1.922   4.959
12753SOL    HW149188   9.990   2.012   4.934
12753SOL    HW249189   9.949   1.864   4.877
12754SOL     OW49190   8.697   0.461   2.905
12754SOL    HW149191   8.719   0.450   3.002
12754SOL    HW249192   8.721   0.553   2.875
12755SOL     OW49193   7.899   1.154   0.711
12755SOL    HW149194   7.832   1.111   0.772
12755SOL    HW249195   7.864   1.153   0.617
12756SOL     OW49196   3.021   5.225   3.687
12756SOL    HW149197   2.975   5.311   3.668
12756SOL    HW249198   2.994   5.157   3.619
12757SOL     OW49199   3.435   4.892   3.827
12757SOL    HW149200   3.350   4.839   3.828
12757SOL    HW249201   3.482   4.877   3.739
12758SOL     OW49202   7.872   2.787   2.254
12758SOL    HW149203   7.813   2.782   2.334
12758SOL    HW249204   7.841   2.859   2.193
12759SOL     OW49205   0.009   7.034   2.753
12759SOL    HW149206   9.921   7.052   2.796
12759SOL    HW249207   0.040   7.117   2.706
12760SOL     OW49208   8.810   7.685   2.258
12760SOL    HW149209   8.881   7.617   2.275
12760SOL    HW249210   8.846   7.776   2.277
12761SOL     OW49211   2.823   1.914   0.473
12761SOL    HW149212   2.812   1.934   0.571
12761SOL    HW249213   2.751   1.961   0.422
12762SOL     OW49214   9.078   6.856   2.712
12762SOL    HW149215   9.017   6.821   2.783
12762SOL    HW249216   9.151   6.790   2.694
12763SOL     OW49217   2.461   4.347   3.770
12763SOL    HW149218   2.383   4.293   3.740
12763SOL    HW249219   2.430   4.433   3.810
12764SOL     OW49220   9.424   2.791   1.395
12764SOL    HW149221   9.364   2.843   1.335
12764SOL    HW249222   9.369   2.727   1.449
12765SOL     OW49223   0.831   9.577   4.159
12765SOL    HW149224   0.902   9.628   4.208
12765SOL    HW249225   0.751   9.635   4.146
12766SOL     OW49226   1.733   9.692   5.097
12766SOL    HW149227   1.832   9.685   5.108
12766SOL    HW249228   1.688   9.619   5.147
12767SOL     OW49229   3.989   6.651   0.968
12767SOL    HW149230   4.002   6.750   0.967
12767SOL    HW249231   4.076   6.607   0.991
12768SOL     OW49232   4.807   1.616   5.070
12768SOL    HW149233   4.813   1.613   4.970
12768SOL    HW249234   4.895   1.592   5.110
12769SOL     OW49235   4.622   8.529   1.262
12769SOL    HW149236   4.538   8.560   1.305
12769SOL    HW249237   4.691   8.510   1.331
12770SOL     OW49238   6.786   1.173   5.136
12770SOL    HW149239   6.769   1.235   5.213
12770SOL    HW249240   6.840   1.221   5.067
12771SOL     OW49241   2.691   3.892   2.532
12771SOL    HW149242   2.666   3.870   2.626
12771SOL    HW249243   2.649   3.826   2.470
12772SOL     OW49244   1.177   2.227   2.206
12772SOL    HW149245   1.082   2.248   2.230
12772SOL    HW249246   1.210   2.153   2.264
12773SOL     OW49247   3.172   5.273   3.048
12773SOL    HW149248   3.110   5.195   3.041
12773SOL    HW249249   3.208   5.277   3.141
12774SOL     OW49250   6.516   0.259   2.749
12774SOL    HW149251   6.582   0.295   2.814
12774SOL    HW249252   6.482   0.170   2.781
12775SOL     OW49253   9.322   4.242   1.094
12775SOL    HW149254   9.329   4.294   1.179
12775SOL    HW249255   9.410   4.199   1.073
12776SOL     OW49256   3.783   4.160   3.977
12776SOL    HW149257   3.810   4.252   4.006
12776SOL    HW249258   3.780   4.157   3.877
12777SOL     OW49259   2.801   8.885   1.583
12777SOL    HW149260   2.739   8.909   1.508
12777SOL    HW249261   2.770   8.928   1.667
12778SOL     OW49262   1.389   0.525   2.689
12778SOL    HW149263   1.357   0.502   2.781
12778SOL    HW249264   1.481   0.490   2.675
12779SOL     OW49265   2.142   4.477   0.299
12779SOL    HW149266   2.074   4.435   0.239
12779SOL    HW249267   2.101   4.494   0.389
12780SOL     OW49268   8.661   0.833   3.463
12780SOL    HW149269   8.665   0.775   3.382
12780SOL    HW249270   8.662   0.929   3.435
12781SOL     OW49271   8.290   9.518   0.194
12781SOL    HW149272   8.323   9.440   0.246
12781SOL    HW249273   8.365   9.583   0.179
12782SOL     OW49274   8.037   1.489   3.497
12782SOL    HW149275   7.971   1.416   3.479
12782SOL    HW249276   8.109   1.487   3.428
12783SOL     OW49277   0.268   4.985   2.809
12783SOL    HW149278   0.340   5.044   2.847
12783SOL    HW249279   0.278   4.893   2.846
12784SOL     OW49280   7.975   7.373   5.145
12784SOL    HW149281   8.024   7.347   5.229
12784SOL    HW249282   7.908   7.303   5.123
12785SOL     OW49283   1.248   0.712   0.364
12785SOL    HW149284   1.328   0.660   0.337
12785SOL    HW249285   1.267   0.762   0.448
12786SOL     OW49286   1.805   2.172   1.585
12786SOL    HW149287   1.818   2.248   1.649
12786SOL    HW249288   1.877   2.104   1.599
12787SOL     OW49289   0.561   8.874   0.173
12787SOL    HW149290   0.639   8.935   0.187
12787SOL    HW249291   0.476   8.925   0.185
12788SOL     OW49292   9.363   5.971   1.645
12788SOL    HW149293   9.445   5.973   1.703
12788SOL    HW249294   9.383   6.017   1.558
12789SOL     OW49295   2.586   2.138   3.997
12789SOL    HW149296   2.564   2.125   3.901
12789SOL    HW249297   2.652   2.069   4.026
12790SOL     OW49298   6.921   8.092   2.203
12790SOL    HW149299   6.890   8.003   2.237
12790SOL    HW249300   6.852   8.130   2.142
12791SOL     OW49301   0.704   5.816   4.138
12791SOL    HW149302   0.714   5.778   4.230
12791SOL    HW249303   0.616   5.863   4.131
12792SOL     OW49304   1.902   9.443   1.681
12792SOL    HW149305   1.845   9.366   1.652
12792SOL    HW249306   1.906   9.445   1.781
12793SOL     OW49307   0.502   0.091   1.961
12793SOL    HW149308   0.536   0.141   1.881
12793SOL    HW249309   0.535   9.997   1.959
12794SOL     OW49310   2.555   6.628   0.135
12794SOL    HW149311   2.622   6.556   0.153
12794SOL    HW249312   2.591   6.692   0.067
12795SOL     OW49313   8.005   2.609   2.878
12795SOL    HW149314   8.087   2.591   2.823
12795SOL    HW249315   7.981   2.526   2.928
12796SOL     OW49316   0.479   6.198   5.231
12796SOL    HW149317   0.555   6.250   5.268
12796SOL    HW249318   0.489   6.189   5.132
12797SOL     OW49319   9.062   2.366   4.390
12797SOL    HW149320   9.119   2.442   4.359
12797SOL    HW249321   9.029   2.315   4.310
12798SOL     OW49322   1.559   1.240   0.436
12798SOL    HW149323   1.502   1.315   0.470
12798SOL    HW249324   1.507   1.187   0.369
12799SOL     OW49325   2.219   2.893   4.881
12799SOL    HW149326   2.137   2.839   4.864
12799SOL    HW249327   2.197   2.990   4.874
12800SOL     OW49328   4.356   2.865   2.573
12800SOL    HW149329   4.264   2.826   2.566
12800SOL    HW249330   4.354   2.942   2.636
12801SOL     OW49331   0.050   7.796   0.818
12801SOL    HW149332   0.004   7.707   0.812
12801SOL    HW249333   9.987   7.864   0.855
12802SOL     OW49334   1.186   0.924   0.198
12802SOL    HW149335   1.118   0.975   0.251
12802SOL    HW249336   1.201   0.835   0.241
12803SOL     OW49337   2.379   9.675   0.189
12803SOL    HW149338   2.462   9.626   0.163
12803SOL    HW249339   2.298   9.623   0.160
12804SOL     OW49340   2.038   9.145   3.077
12804SOL    HW149341   1.943   9.145   3.045
12804SOL    HW249342   2.063   9.236   3.108
12805SOL     OW49343   2.762   5.275   2.599
12805SOL    HW149344   2.666   5.303   2.597
12805SOL    HW249345   2.820   5.355   2.615
12806SOL     OW49346   9.291   6.220   3.764
12806SOL    HW149347   9.201   6.227   3.721
12806SOL    HW249348   9.289   6.149   3.834
12807SOL     OW49349   7.178   2.712   5.054
12807SOL    HW149350   7.214   2.803   5.075
12807SOL    HW249351   7.097   2.695   5.110
12808SOL     OW49352   8.842   9.541   3.682
12808SOL    HW149353   8.913   9.554   3.612
12808SOL    HW249354   8.789   9.459   3.660
12809SOL     OW49355   3.129   9.463   1.437
12809SOL    HW149356   3.034   9.491   1.426
12809SOL    HW249357   3.161   9.485   1.529
12810SOL     OW49358   9.564   8.482   3.634
12810SOL    HW149359   9.475   8.489   3.678
12810SOL    HW249360   9.636   8.489   3.703
12811SOL     OW49361   3.820   9.282   2.116
12811SOL    HW149362   3.766   9.328   2.187
12811SOL    HW249363   3.918   9.291   2.137
12812SOL     OW49364   4.842   2.450   2.650
12812SOL    HW149365   4.830   2.352   2.632
12812SOL    HW249366   4.782   2.502   2.589
12813SOL     OW49367   1.269   4.407   2.289
12813SOL    HW149368   1.174   4.395   2.259
12813SOL    HW249369   1.330   4.382   2.214
12814SOL     OW49370   8.910   3.434   2.966
12814SOL    HW149371   8.970   3.430   3.046
12814SOL    HW249372   8.865   3.523   2.962
12815SOL     OW49373   3.236   8.822   2.437
12815SOL    HW149374   3.183   8.907   2.437
12815SOL    HW249375   3.289   8.816   2.352
12816SOL     OW49376   2.970   0.800   4.196
12816SOL    HW149377   2.899   0.838   4.137
12816SOL    HW249378   3.023   0.875   4.237
12817SOL     OW49379   7.716   2.892   0.442
12817SOL    HW149380   7.628   2.854   0.469
12817SOL    HW249381   7.729   2.981   0.485
12818SOL     OW49382   1.007   1.045   0.372
12818SOL    HW149383   0.930   0.984   0.355
12818SOL    HW249384   1.019   1.058   0.470
12819SOL     OW49385   8.366   5.695   3.631
12819SOL    HW149386   8.461   5.663   3.622
12819SOL    HW249387   8.307   5.619   3.655
12820SOL     OW49388   0.561   6.989   4.603
12820SOL    HW149389   0.610   7.071   4.572
12820SOL    HW249390   0.487   7.016   4.665
12821SOL     OW49391   2.913   7.129   5.223
12821SOL    HW149392   2.989   7.090   5.170
12821SOL    HW249393   2.934   7.224   5.245
12822SOL     OW49394   2.590   8.307   1.696
12822SOL    HW149395   2.524   8.379   1.672
12822SOL    HW249396   2.682   8.342   1.683
12823SOL     OW49397   4.696   1.713   1.195
12823SOL    HW149398   4.712   1.726   1.293
12823SOL    HW249399   4.675   1.617   1.177
12824SOL     OW49400   4.303   6.080   1.874
12824SOL    HW149401   4.236   6.057   1.804
12824SOL    HW249402   4.270   6.158   1.928
12825SOL     OW49403   8.821   5.934   3.432
12825SOL    HW149404   8.810   5.997   3.509
12825SOL    HW249405   8.862   5.982   3.355
12826SOL     OW49406   2.037   7.219   4.206
12826SOL    HW149407   2.125   7.207   4.160
12826SOL    HW249408   2.050   7.269   4.291
12827SOL     OW49409   3.865   1.978   2.776
12827SOL    HW149410   3.795   2.029   2.826
12827SOL    HW249411   3.946   2.035   2.764
12828SOL     OW49412   0.146   9.674   2.587
12828SOL    HW149413   0.245   9.667   2.572
12828SOL    HW249414   0.105   9.729   2.514
12829SOL     OW49415   1.413   8.485   2.021
12829SOL    HW149416   1.467   8.405   2.046
12829SOL    HW249417   1.316   8.461   2.021
12830SOL     OW49418   9.069   4.521   4.684
12830SOL    HW149419   9.035   4.447   4.742
12830SOL    HW249420   9.092   4.600   4.739
12831SOL     OW49421   1.670   3.800   4.882
12831SOL    HW149422   1.654   3.799   4.784
12831SOL    HW249423   1.611   3.869   4.925
12832SOL     OW49424   0.561   6.144   1.468
12832SOL    HW149425   0.526   6.236   1.483
12832SOL    HW249426   0.492   6.077   1.495
12833SOL     OW49427   3.714   1.727   2.210
12833SOL    HW149428   3.692   1.795   2.280
12833SOL    HW249429   3.781   1.663   2.247
12834SOL     OW49430   0.068   7.524   0.548
12834SOL    HW149431   0.159   7.485   0.565
12834SOL    HW249432   0.024   7.544   0.635
12835SOL     OW49433   1.474   2.317   1.978
12835SOL    HW149434   1.395   2.280   1.929
12835SOL    HW249435   1.442   2.369   2.057
12836SOL     OW49436   5.764   0.896   1.812
12836SOL    HW149437   5.845   0.932   1.858
12836SOL    HW249438   5.693   0.967   1.808
12837SOL     OW49439   8.482   8.916   1.843
12837SOL    HW149440   8.414   8.937   1.772
12837SOL    HW249441   8.554   8.985   1.842
12838SOL     OW49442   0.847   8.152   0.348
12838SOL    HW149443   0.844   8.199   0.436
12838SOL    HW249444   0.935   8.169   0.304
12839SOL     OW49445   2.572   6.056   2.801
12839SOL    HW149446   2.611   6.146   2.778
12839SOL    HW249447   2.490   6.068   2.856
12840SOL     OW49448   5.733   5.405   1.060
12840SOL    HW149449   5.758   5.501   1.069
12840SOL    HW249450   5.797   5.360   0.997
12841SOL     OW49451   1.802   1.354   3.450
12841SOL    HW149452   1.892   1.337   3.410
12841SOL    HW249453   1.776   1.450   3.435
12842SOL     OW49454   9.938   1.028   1.551
12842SOL    HW149455   0.022   0.975   1.536
12842SOL    HW249456   9.929   1.098   1.481
12843SOL     OW49457   1.275   3.734   2.447
12843SOL    HW149458   1.363   3.696   2.418
12843SOL    HW249459   1.211   3.659   2.464
12844SOL     OW49460   9.940   4.453   1.794
12844SOL    HW149461   9.960   4.549   1.814
12844SOL    HW249462   0.014   4.396   1.830
12845SOL     OW49463   4.610   3.937   0.528
12845SOL    HW149464   4.664   3.902   0.604
12845SOL    HW249465   4.669   3.988   0.465
12846SOL     OW49466   3.648   5.497   4.875
12846SOL    HW149467   3.622   5.568   4.810
12846SOL    HW249468   3.740   5.464   4.854
12847SOL     OW49469   7.830   3.138   3.946
12847SOL    HW149470   7.914   3.128   3.892
12847SOL    HW249471   7.772   3.207   3.904
12848SOL     OW49472   3.197   8.335   4.866
12848SOL    HW149473   3.171   8.275   4.942
12848SOL    HW249474   3.213   8.281   4.784
12849SOL     OW49475   3.394   0.367   3.714
12849SOL    HW149476   3.391   0.332   3.621
12849SOL    HW249477   3.326   0.439   3.725
12850SOL     OW49478   8.299   4.984   1.908
12850SOL    HW149479   8.286   4.896   1.863
12850SOL    HW249480   8.396   4.999   1.924
12851SOL     OW49481   5.641   8.500   3.240
12851SOL    HW149482   5.710   8.549   3.293
12851SOL    HW249483   5.684   8.455   3.162
12852SOL     OW49484   7.477   6.519   5.125
12852SOL    HW149485   7.407   6.493   5.191
12852SOL    HW249486   7.548   6.448   5.121
12853SOL     OW49487   3.551   3.526   0.781
12853SOL    HW149488   3.523   3.496   0.873
12853SOL    HW249489   3.514   3.617   0.764
12854SOL     OW49490   7.500   1.939   4.091
12854SOL    HW149491   7.583   1.885   4.074
12854SOL    HW249492   7.466   1.919   4.183
12855SOL     OW49493   2.070   9.429   2.568
12855SOL    HW149494   2.033   9.409   2.477
12855SOL    HW249495   2.015   9.500   2.611
12856SOL     OW49496   1.003   5.388   4.359
12856SOL    HW149497   1.057   5.378   4.275
12856SOL    HW249498   1.013   5.482   4.393
12857SOL     OW49499   4.107   5.484   1.478
12857SOL    HW149500   4.182   5.420   1.459
12857SOL    HW249501   4.141   5.557   1.538
12858SOL     OW49502   0.679   2.367   1.806
12858SOL    HW149503   0.647   2.353   1.712
12858SOL    HW249504   0.717   2.281   1.841
12859SOL     OW49505   2.079   9.579   4.335
12859SOL    HW149506   2.033   9.610   4.252
12859SOL    HW249507   2.017   9.587   4.413
12860SOL     OW49508   8.405   6.581   3.459
12860SOL    HW149509   8.379   6.524   3.381
12860SOL    HW249510   8.429   6.522   3.536
12861SOL     OW49511   7.213   0.963   1.799
12861SOL    HW149512   7.162   1.047   1.787
12861SOL    HW249513   7.303   0.972   1.757
12862SOL     OW49514   7.241   9.601   2.536
12862SOL    HW149515   7.296   9.519   2.550
12862SOL    HW249516   7.144   9.578   2.544
12863SOL     OW49517   8.430   7.171   2.195
12863SOL    HW149518   8.361   7.111   2.236
12863SOL    HW249519   8.442   7.252   2.253
12864SOL     OW49520   5.206   9.570   2.963
12864SOL    HW149521   5.295   9.600   2.928
12864SOL    HW249522   5.213   9.476   2.996
12865SOL     OW49523   1.092   2.518   1.565
12865SOL    HW149524   1.024   2.591   1.578
12865SOL    HW249525   1.051   2.430   1.588
12866SOL     OW49526   7.152   8.018   4.110
12866SOL    HW149527   7.181   7.988   4.200
12866SOL    HW249528   7.072   7.967   4.081
12867SOL     OW49529   1.865   0.806   1.723
12867SOL    HW149530   1.871   0.904   1.702
12867SOL    HW249531   1.792   0.766   1.667
12868SOL     OW49532   4.099   0.018   1.895
12868SOL    HW149533   4.151   0.073   1.960
12868SOL    HW249534   4.093   0.066   1.808
12869SOL     OW49535   4.879   0.200   0.500
12869SOL    HW149536   4.857   0.106   0.525
12869SOL    HW249537   4.893   0.255   0.582
12870SOL     OW49538   1.946   1.637   0.579
12870SOL    HW149539   1.896   1.562   0.622
12870SOL    HW249540   2.044   1.627   0.597
12871SOL     OW49541   8.061   8.084   3.992
12871SOL    HW149542   8.115   8.003   3.969
12871SOL    HW249543   7.968   8.056   4.016
12872SOL     OW49544   4.961   1.240   4.289
12872SOL    HW149545   4.976   1.274   4.382
12872SOL    HW249546   4.874   1.274   4.254
12873SOL     OW49547   4.717   3.998   4.497
12873SOL    HW149548   4.816   3.994   4.484
12873SOL    HW249549   4.692   3.941   4.575
12874SOL     OW49550   9.073   0.689   2.691
12874SOL    HW149551   9.173   0.698   2.681
12874SOL    HW249552   9.034   0.780   2.705
12875SOL     OW49553   0.110   2.938   0.780
12875SOL    HW149554   0.157   2.969   0.862
12875SOL    HW249555   0.038   3.003   0.756
12876SOL     OW49556   0.562   3.307   1.689
12876SOL    HW149557   0.517   3.320   1.777
12876SOL    HW249558   0.623   3.384   1.671
12877SOL     OW49559   2.147   6.768   0.796
12877SOL    HW149560   2.150   6.669   0.806
12877SOL    HW249561   2.218   6.809   0.853
12878SOL     OW49562   0.533   9.240   0.236
12878SOL    HW149563   0.620   9.191   0.232
12878SOL    HW249564   0.549   9.336   0.258
12879SOL     OW49565   5.398   9.578   4.226
12879SOL    HW149566   5.403   9.593   4.127
12879SOL    HW249567   5.371   9.484   4.244
12880SOL     OW49568   0.512   6.779   1.309
12880SOL    HW149569   0.521   6.867   1.357
12880SOL    HW249570   0.522   6.704   1.374
12881SOL     OW49571   9.803   1.940   3.836
12881SOL    HW149572   9.781   1.947   3.738
12881SOL    HW249573   9.858   2.020   3.863
12882SOL     OW49574   3.215   3.782   1.326
12882SOL    HW149575   3.256   3.801   1.238
12882SOL    HW249576   3.226   3.685   1.349
12883SOL     OW49577   1.845   2.378   0.374
12883SOL    HW149578   1.796   2.327   0.303
12883SOL    HW249579   1.836   2.331   0.462
12884SOL     OW49580   4.423   2.954   0.437
12884SOL    HW149581   4.434   3.039   0.385
12884SOL    HW249582   4.501   2.895   0.421
12885SOL     OW49583   3.644   6.117   0.829
12885SOL    HW149584   3.572   6.120   0.899
12885SOL    HW249585   3.733   6.129   0.873
12886SOL     OW49586   0.979   1.301   2.918
12886SOL    HW149587   1.028   1.362   2.855
12886SOL    HW249588   0.977   1.342   3.009
12887SOL     OW49589   2.853   7.741   1.705
12887SOL    HW149590   2.758   7.768   1.690
12887SOL    HW249591   2.869   7.651   1.664
12888SOL     OW49592   6.035   9.621   1.887
12888SOL    HW149593   5.988   9.540   1.853
12888SOL    HW249594   5.967   9.689   1.915
12889SOL     OW49595   0.531   2.192   3.623
12889SOL    HW149596   0.477   2.204   3.540
12889SOL    HW249597   0.480   2.136   3.688
12890SOL     OW49598   5.311   8.833   4.728
12890SOL    HW149599   5.396   8.851   4.680
12890SOL    HW249600   5.323   8.852   4.825
12891SOL     OW49601   2.180   7.460   4.005
12891SOL    HW149602   2.083   7.436   4.008
12891SOL    HW249603   2.201   7.520   4.083
12892SOL     OW49604   2.788   3.103   4.237
12892SOL    HW149605   2.752   3.113   4.330
12892SOL    HW249606   2.885   3.128   4.237
12893SOL     OW49607   0.785   6.836   2.781
12893SOL    HW149608   0.700   6.785   2.794
12893SOL    HW249609   0.848   6.817   2.856
12894SOL     OW49610   3.132   2.009   5.131
12894SOL    HW149611   3.209   1.984   5.072
12894SOL    HW249612   3.126   2.109   5.138
12895SOL     OW49613   0.659   1.392   1.385
12895SOL    HW149614   0.685   1.477   1.339
12895SOL    HW249615   0.614   1.414   1.472
12896SOL     OW49616   3.241   0.930   1.759
12896SOL    HW149617   3.260   0.995   1.685
12896SOL    HW249618   3.242   0.978   1.847
12897SOL     OW49619   1.624   3.111   4.966
12897SOL    HW149620   1.577   3.178   4.909
12897SOL    HW249621   1.602   3.126   5.062
12898SOL     OW49622   6.153   8.068   5.087
12898SOL    HW149623   6.239   8.039   5.045
12898SOL    HW249624   6.085   8.083   5.015
12899SOL     OW49625   9.776   7.901   3.675
12899SOL    HW149626   9.750   7.967   3.746
12899SOL    HW249627   9.865   7.927   3.636
12900SOL     OW49628   0.056   4.796   1.118
12900SOL    HW149629   0.050   4.896   1.110
12900SOL    HW249630   0.115   4.772   1.195
12901SOL     OW49631   6.380   1.271   3.468
12901SOL    HW149632   6.406   1.231   3.555
12901SOL    HW249633   6.385   1.202   3.396
12902SOL     OW49634   2.921   9.134   2.098
12902SOL    HW149635   2.919   9.171   2.006
12902SOL    HW249636   2.828   9.114   2.129
12903SOL     OW49637   3.738   5.338   2.035
12903SOL    HW149638   3.647   5.363   2.067
12903SOL    HW249639   3.750   5.239   2.043
12904SOL     OW49640   8.433   0.392   4.551
12904SOL    HW149641   8.355   0.373   4.610
12904SOL    HW249642   8.400   0.424   4.462
12905SOL     OW49643   9.755   9.368   1.271
12905SOL    HW149644   9.776   9.422   1.353
12905SOL    HW249645   9.657   9.373   1.252
12906SOL     OW49646   7.585   4.456   1.229
12906SOL    HW149647   7.609   4.525   1.296
12906SOL    HW249648   7.486   4.444   1.228
12907SOL     OW49649   1.529   6.390   3.899
12907SOL    HW149650   1.446   6.404   3.845
12907SOL    HW249651   1.572   6.478   3.917
12908SOL     OW49652   9.620   9.532   5.022
12908SOL    HW149653   9.682   9.462   5.058
12908SOL    HW249654   9.542   9.487   4.977
12909SOL     OW49655   9.536   5.611   4.083
12909SOL    HW149656   9.439   5.591   4.072
12909SOL    HW249657   9.587   5.524   4.088
12910SOL     OW49658   2.511   0.704   4.923
12910SOL    HW149659   2.499   0.659   4.835
12910SOL    HW249660   2.607   0.731   4.934
12911SOL     OW49661   1.034   6.326   4.014
12911SOL    HW149662   0.992   6.282   3.934
12911SOL    HW249663   0.964   6.378   4.063
12912SOL     OW49664   2.268   0.729   0.439
12912SOL    HW149665   2.324   0.811   0.449
12912SOL    HW249666   2.253   0.688   0.529
12913SOL     OW49667   3.496   4.213   3.842
12913SOL    HW149668   3.437   4.263   3.779
12913SOL    HW249669   3.588   4.208   3.805
12914SOL     OW49670   1.636   8.563   3.876
12914SOL    HW149671   1.692   8.631   3.829
12914SOL    HW249672   1.658   8.472   3.842
12915SOL     OW49673   8.990   5.275   4.237
12915SOL    HW149674   8.960   5.273   4.332
12915SOL    HW249675   9.088   5.291   4.233
12916SOL     OW49676   8.307   1.068   0.725
12916SOL    HW149677   8.365   1.140   0.764
12916SOL    HW249678   8.342   1.041   0.635
12917SOL     OW49679   8.234   5.870   0.978
12917SOL    HW149680   8.198   5.904   0.891
12917SOL    HW249681   8.301   5.798   0.960
12918SOL     OW49682   2.049   4.938   3.254
12918SOL    HW149683   2.077   4.910   3.346
12918SOL    HW249684   1.963   4.988   3.260
12919SOL     OW49685   9.164   3.834   2.063
12919SOL    HW149686   9.252   3.802   2.097
12919SOL    HW249687   9.132   3.772   1.991
12920SOL     OW49688   1.027   9.729   3.917
12920SOL    HW149689   0.932   9.704   3.897
12920SOL    HW249690   1.035   9.828   3.923
12921SOL     OW49691   6.776   9.365   3.328
12921SOL    HW149692   6.842   9.337   3.397
12921SOL    HW249693   6.819   9.429   3.265
12922SOL     OW49694   8.481   0.686   2.750
12922SOL    HW149695   8.468   0.587   2.741
12922SOL    HW249696   8.574   0.705   2.779
12923SOL     OW49697   5.420   1.728   2.669
12923SOL    HW149698   5.393   1.775   2.585
12923SOL    HW249699   5.460   1.639   2.645
12924SOL     OW49700   8.906   4.690   4.524
12924SOL    HW149701   8.821   4.639   4.536
12924SOL    HW249702   8.983   4.637   4.559
12925SOL     OW49703   8.993   3.718   2.725
12925SOL    HW149704   9.033   3.717   2.817
12925SOL    HW249705   8.905   3.670   2.726
12926SOL     OW49706   1.224   3.680   4.462
12926SOL    HW149707   1.285   3.610   4.425
12926SOL    HW249708   1.182   3.648   4.546
12927SOL     OW49709   5.053   2.570   4.349
12927SOL    HW149710   5.105   2.484   4.347
12927SOL    HW249711   5.066   2.615   4.437
12928SOL     OW49712   6.305   8.898   2.852
12928SOL    HW149713   6.392   8.932   2.886
12928SOL    HW249714   6.248   8.869   2.928
12929SOL     OW49715   9.226   1.582   2.910
12929SOL    HW149716   9.222   1.611   3.006
12929SOL    HW249717   9.277   1.496   2.903
12930SOL     OW49718   1.320   0.549   2.423
12930SOL    HW149719   1.294   0.459   2.387
12930SOL    HW249720   1.327   0.545   2.522
12931SOL     OW49721   0.210   7.476   1.751
12931SOL    HW149722   0.191   7.522   1.665
12931SOL    HW249723   0.266   7.395   1.734
12932SOL     OW49724   3.902   0.039   3.415
12932SOL    HW149725   3.995   0.005   3.427
12932SOL    HW249726   3.891   0.072   3.321
12933SOL     OW49727   0.941   0.925   1.953
12933SOL    HW149728   0.980   1.013   1.979
12933SOL    HW249729   0.950   0.912   1.854
12934SOL     OW49730   0.779   8.703   4.440
12934SOL    HW149731   0.726   8.769   4.387
12934SOL    HW249732   0.719   8.627   4.468
12935SOL     OW49733   1.632   7.483   5.209
12935SOL    HW149734   1.533   7.477   5.194
12935SOL    HW249735   1.675   7.396   5.186
12936SOL     OW49736   4.013   2.971   0.527
12936SOL    HW149737   3.949   3.029   0.578
12936SOL    HW249738   4.023   2.883   0.575
12937SOL     OW49739   7.516   2.625   2.588
12937SOL    HW149740   7.472   2.586   2.507
12937SOL    HW249741   7.546   2.551   2.648
12938SOL     OW49742   0.363   2.666   0.827
12938SOL    HW149743   0.434   2.658   0.757
12938SOL    HW249744   0.281   2.617   0.796
12939SOL     OW49745   4.592   0.307   4.580
12939SOL    HW149746   4.540   0.225   4.607
12939SOL    HW249747   4.596   0.313   4.481
12940SOL     OW49748   0.431   9.420   1.601
12940SOL    HW149749   0.380   9.490   1.651
12940SOL    HW249750   0.516   9.399   1.650
12941SOL     OW49751   0.437   0.701   1.639
12941SOL    HW149752   0.445   0.727   1.543
12941SOL    HW249753   0.509   0.746   1.692
12942SOL     OW49754   3.586   1.903   4.845
12942SOL    HW149755   3.672   1.871   4.807
12942SOL    HW249756   3.556   1.842   4.917
12943SOL     OW49757   9.927   5.942   4.889
12943SOL    HW149758   9.889   5.981   4.973
12943SOL    HW249759   0.021   5.912   4.905
12944SOL     OW49760   8.683   8.720   0.648
12944SOL    HW149761   8.664   8.779   0.726
12944SOL    HW249762   8.660   8.769   0.564
12945SOL     OW49763   4.217   0.432   0.966
12945SOL    HW149764   4.169   0.506   1.012
12945SOL    HW249765   4.266   0.376   1.034
12946SOL     OW49766   9.692   7.792   4.296
12946SOL    HW149767   9.598   7.797   4.328
12946SOL    HW249768   9.749   7.749   4.365
12947SOL     OW49769   3.284   5.599   3.498
12947SOL    HW149770   3.285   5.589   3.598
12947SOL    HW249771   3.358   5.545   3.458
12948SOL     OW49772   2.459   2.866   4.745
12948SOL    HW149773   2.476   2.957   4.708
12948SOL    HW249774   2.374   2.867   4.798
12949SOL     OW49775   1.579   1.547   2.120
12949SOL    HW149776   1.563   1.476   2.051
12949SOL    HW249777   1.515   1.535   2.196
12950SOL     OW49778   7.256   9.039   3.408
12950SOL    HW149779   7.174   9.021   3.353
12950SOL    HW249780   7.338   9.021   3.354
12951SOL     OW49781   0.706   6.721   0.726
12951SOL    HW149782   0.625   6.778   0.740
12951SOL    HW249783   0.743   6.736   0.635
12952SOL     OW49784   2.093   1.899   1.871
12952SOL    HW149785   2.055   1.814   1.908
12952SOL    HW249786   2.178   1.879   1.823
12953SOL     OW49787   8.576   0.471   1.869
12953SOL    HW149788   8.614   0.394   1.818
12953SOL    HW249789   8.540   0.439   1.956
12954SOL     OW49790   4.309   9.352   0.054
12954SOL    HW149791   4.304   9.279   6.735
12954SOL    HW249792   4.217   9.389   0.070
12955SOL     OW49793   1.558   2.185   4.640
12955SOL    HW149794   1.587   2.093   4.613
12955SOL    HW249795   1.465   2.201   4.607
12956SOL     OW49796   8.822   6.395   4.180
12956SOL    HW149797   8.901   6.383   4.120
12956SOL    HW249798   8.812   6.492   4.203
12957SOL     OW49799   0.900   5.996   1.934
12957SOL    HW149800   0.841   6.069   1.970
12957SOL    HW249801   0.996   6.020   1.952
12958SOL     OW49802   4.707   4.781   2.068
12958SOL    HW149803   4.741   4.772   1.974
12958SOL    HW249804   4.625   4.839   2.069
12959SOL     OW49805   4.194   5.327   2.879
12959SOL    HW149806   4.235   5.320   2.788
12959SOL    HW249807   4.244   5.395   2.933
12960SOL     OW49808   0.374   5.529   3.913
12960SOL    HW149809   0.390   5.476   3.996
12960SOL    HW249810   0.407   5.477   3.834
12961SOL     OW49811   4.038   7.898   2.326
12961SOL    HW149812   4.128   7.861   2.348
12961SOL    HW249813   4.015   7.876   2.231
12962SOL     OW49814   6.395   9.305   3.017
12962SOL    HW149815   6.486   9.281   3.051
12962SOL    HW249816   6.389   9.281   2.920
12963SOL     OW49817   8.880   4.858   1.234
12963SOL    HW149818   8.830   4.772   1.234
12963SOL    HW249819   8.968   4.845   1.188
12964SOL     OW49820   0.764   9.700   3.851
12964SOL    HW149821   0.698   9.626   3.861
12964SOL    HW249822   0.718   9.783   3.820
12965SOL     OW49823   7.094   2.040   4.206
12965SOL    HW149824   7.124   2.122   4.253
12965SOL    HW249825   7.031   1.989   4.264
12966SOL     OW49826   4.069   9.023   1.353
12966SOL    HW149827   3.971   9.004   1.352
12966SOL    HW249828   4.104   9.012   1.446
12967SOL     OW49829   8.700   9.079   4.949
12967SOL    HW149830   8.799   9.067   4.949
12967SOL    HW249831   8.677   9.166   4.906
12968SOL     OW49832   1.668   5.629   0.585
12968SOL    HW149833   1.595   5.694   0.606
12968SOL    HW249834   1.757   5.675   0.592
12969SOL     OW49835   9.154   2.891   3.343
12969SOL    HW149836   9.117   2.878   3.436
12969SOL    HW249837   9.078   2.895   3.278
12970SOL     OW49838   0.150   0.711   2.996
12970SOL    HW149839   0.132   0.756   2.908
12970SOL    HW249840   0.064   0.675   3.033
12971SOL     OW49841   4.627   2.776   0.382
12971SOL    HW149842   4.676   2.774   0.295
12971SOL    HW249843   4.605   2.683   0.410
12972SOL     OW49844   3.554   6.759   3.555
12972SOL    HW149845   3.472   6.810   3.532
12972SOL    HW249846   3.611   6.812   3.618
12973SOL     OW49847   9.684   4.790   0.867
12973SOL    HW149848   9.783   4.797   0.862
12973SOL    HW249849   9.650   4.737   0.788
12974SOL     OW49850   0.399   0.787   2.803
12974SOL    HW149851   0.442   0.742   2.726
12974SOL    HW249852   0.396   0.725   2.881
12975SOL     OW49853   7.237   0.909   0.139
12975SOL    HW149854   7.202   0.991   0.184
12975SOL    HW249855   7.231   0.921   0.040
12976SOL     OW49856   7.636   1.009   3.266
12976SOL    HW149857   7.571   1.077   3.302
12976SOL    HW249858   7.719   1.011   3.322
12977SOL     OW49859   2.716   1.921   4.786
12977SOL    HW149860   2.776   1.956   4.858
12977SOL    HW249861   2.635   1.979   4.779
12978SOL     OW49862   2.861   2.408   0.588
12978SOL    HW149863   2.847   2.379   0.683
12978SOL    HW249864   2.912   2.338   0.539
12979SOL     OW49865   2.357   5.743   5.140
12979SOL    HW149866   2.335   5.812   5.210
12979SOL    HW249867   2.283   5.675   5.137
12980SOL     OW49868   2.191   5.744   1.933
12980SOL    HW149869   2.206   5.752   2.032
12980SOL    HW249870   2.277   5.761   1.885
12981SOL     OW49871   4.926   5.464   2.856
12981SOL    HW149872   5.024   5.461   2.841
12981SOL    HW249873   4.898   5.558   2.877
12982SOL     OW49874   6.942   4.582   0.575
12982SOL    HW149875   6.869   4.628   0.627
12982SOL    HW249876   6.982   4.510   0.632
12983SOL     OW49877   7.082   8.197   3.081
12983SOL    HW149878   7.099   8.291   3.111
12983SOL    HW249879   7.106   8.134   3.154
12984SOL     OW49880   1.738   7.588   1.489
12984SOL    HW149881   1.684   7.508   1.461
12984SOL    HW249882   1.828   7.584   1.445
12985SOL     OW49883   3.185   9.069   0.995
12985SOL    HW149884   3.096   9.034   1.023
12985SOL    HW249885   3.192   9.166   1.020
12986SOL     OW49886   4.086   8.352   4.042
12986SOL    HW149887   3.997   8.392   4.022
12986SOL    HW249888   4.117   8.383   4.132
12987SOL     OW49889   4.262   4.075   1.022
12987SOL    HW149890   4.193   4.014   0.985
12987SOL    HW249891   4.340   4.081   0.959
12988SOL     OW49892   5.966   1.677   1.746
12988SOL    HW149893   6.064   1.690   1.728
12988SOL    HW249894   5.944   1.713   1.837
12989SOL     OW49895   3.775   2.848   1.877
12989SOL    HW149896   3.795   2.943   1.903
12989SOL    HW249897   3.811   2.786   1.946
12990SOL     OW49898   7.265   0.106   4.689
12990SOL    HW149899   7.287   0.196   4.727
12990SOL    HW249900   7.315   0.035   4.738
12991SOL     OW49901   0.162   2.825   0.092
12991SOL    HW149902   0.115   2.894   0.037
12991SOL    HW249903   0.260   2.844   0.093
12992SOL     OW49904   3.436   1.832   4.183
12992SOL    HW149905   3.381   1.804   4.104
12992SOL    HW249906   3.446   1.932   4.183
12993SOL     OW49907   0.938   8.983   3.153
12993SOL    HW149908   0.974   9.006   3.243
12993SOL    HW249909   0.956   9.059   3.090
12994SOL     OW49910   9.969   8.223   1.014
12994SOL    HW149911   0.069   8.214   1.014
12994SOL    HW249912   9.945   8.319   1.029
12995SOL     OW49913   4.204   5.260   5.053
12995SOL    HW149914   4.259   5.239   5.134
12995SOL    HW249915   4.264   5.281   4.976
12996SOL     OW49916   9.952   2.895   3.070
12996SOL    HW149917   9.857   2.871   3.053
12996SOL    HW249918   9.960   2.946   3.155
12997SOL     OW49919   3.076   5.365   0.819
12997SOL    HW149920   3.156   5.366   0.878
12997SOL    HW249921   3.105   5.356   0.723
12998SOL     OW49922   7.027   3.208   0.411
12998SOL    HW149923   7.078   3.122   0.418
12998SOL    HW249924   6.992   3.234   0.501
12999SOL     OW49925   3.473   3.861   1.642
12999SOL    HW149926   3.482   3.820   1.732
12999SOL    HW249927   3.467   3.790   1.572
13000SOL     OW49928   1.633   6.390   4.387
13000SOL    HW149929   1.732   6.384   4.372
13000SOL    HW249930   1.585   6.373   4.301
13001SOL     OW49931   4.793   3.809   0.705
13001SOL    HW149932   4.776   3.717   0.670
13001SOL    HW249933   4.892   3.825   0.709
13002SOL     OW49934   5.177   2.486   3.195
13002SOL    HW149935   5.169   2.402   3.249
13002SOL    HW249936   5.256   2.539   3.227
13003SOL     OW49937   0.068   8.686   4.905
13003SOL    HW149938   0.008   8.739   4.964
13003SOL    HW249939   0.060   8.719   4.811
13004SOL     OW49940   6.628   8.810   4.777
13004SOL    HW149941   6.635   8.711   4.780
13004SOL    HW249942   6.707   8.848   4.729
13005SOL     OW49943   1.117   0.390   4.852
13005SOL    HW149944   1.133   0.293   4.870
13005SOL    HW249945   1.124   0.442   4.938
13006SOL     OW49946   3.368   8.714   4.691
13006SOL    HW149947   3.348   8.678   4.782
13006SOL    HW249948   3.361   8.641   4.623
13007SOL     OW49949   8.745   8.234   2.091
13007SOL    HW149950   8.839   8.249   2.060
13007SOL    HW249951   8.722   8.137   2.081
13008SOL     OW49952   5.833   9.962   2.444
13008SOL    HW149953   5.826   9.946   2.542
13008SOL    HW249954   5.903   9.901   2.405
13009SOL     OW49955   0.171   0.869   1.547
13009SOL    HW149956   0.178   0.778   1.588
13009SOL    HW249957   0.247   0.926   1.579
13010SOL     OW49958   6.162   0.382   3.900
13010SOL    HW149959   6.131   0.465   3.855
13010SOL    HW249960   6.258   0.391   3.926
13011SOL     OW49961   1.931   5.240   0.622
13011SOL    HW149962   1.944   5.267   0.527
13011SOL    HW249963   1.995   5.166   0.645
13012SOL     OW49964   8.038   8.992   4.094
13012SOL    HW149965   8.124   8.953   4.125
13012SOL    HW249966   8.029   8.981   3.995
13013SOL     OW49967   5.070   9.984   3.530
13013SOL    HW149968   5.074   9.985   3.430
13013SOL    HW249969   4.975   9.981   3.561
13014SOL     OW49970   5.744   9.936   2.174
13014SOL    HW149971   5.759   9.952   2.272
13014SOL    HW249972   5.659   9.980   2.146
13015SOL     OW49973   8.596   0.024   1.350
13015SOL    HW149974   8.558   0.101   1.301
13015SOL    HW249975   8.611   9.948   1.287
13016SOL     OW49976   0.847   3.477   1.217
13016SOL    HW149977   0.763   3.527   1.239
13016SOL    HW249978   0.859   3.401   1.281
13017SOL     OW49979   7.133   0.643   0.168
13017SOL    HW149980   7.175   0.732   0.154
13017SOL    HW249981   7.204   0.574   0.184
13018SOL     OW49982   0.055   5.160   2.819
13018SOL    HW149983   0.124   5.089   2.807
13018SOL    HW249984   0.028   5.164   2.915
13019SOL     OW49985   4.336   4.449   3.052
13019SOL    HW149986   4.365   4.470   2.958
13019SOL    HW249987   4.349   4.530   3.109
13020SOL     OW49988   2.818   7.165   2.857
13020SOL    HW149989   2.751   7.131   2.923
13020SOL    HW249990   2.821   7.265   2.861
13021SOL     OW49991   7.681   8.687   4.900
13021SOL    HW149992   7.599   8.741   4.923
13021SOL    HW249993   7.698   8.621   4.973
13022SOL     OW49994   1.924   4.822   2.653
13022SOL    HW149995   1.921   4.921   2.644
13022SOL    HW249996   1.970   4.797   2.738
13023SOL     OW49997   7.876   2.287   1.754
13023SOL    HW149998   7.883   2.289   1.854
13023SOL    HW249999   7.813   2.214   1.727
13024SOL     OW50000   1.988   6.355   1.717
13024SOL    HW150001   1.923   6.353   1.641
13024SOL    HW250002   2.043   6.438   1.712
13025SOL     OW50003   1.675   3.594   0.168
13025SOL    HW150004   1.661   3.540   0.251
13025SOL    HW250005   1.758   3.650   0.180
13026SOL     OW50006   3.076   6.433   4.149
13026SOL    HW150007   3.040   6.437   4.056
13026SOL    HW250008   3.152   6.368   4.153
13027SOL     OW50009   0.652   8.844   2.979
13027SOL    HW150010   0.556   8.868   2.966
13027SOL    HW250011   0.675   8.848   3.076
13028SOL     OW50012   1.595   1.798   3.639
13028SOL    HW150013   1.555   1.706   3.645
13028SOL    HW250014   1.688   1.796   3.677
13029SOL     OW50015   3.002   7.612   1.903
13029SOL    HW150016   2.952   7.673   1.842
13029SOL    HW250017   2.952   7.603   1.989
13030SOL     OW50018   5.237   1.273   0.983
13030SOL    HW150019   5.139   1.282   0.965
13030SOL    HW250020   5.251   1.238   1.075
13031SOL     OW50021   2.430   1.469   3.458
13031SOL    HW150022   2.445   1.396   3.390
13031SOL    HW250023   2.510   1.475   3.518
13032SOL     OW50024   3.400   7.953   0.895
13032SOL    HW150025   3.407   8.038   0.947
13032SOL    HW250026   3.398   7.875   0.958
13033SOL     OW50027   0.372   1.049   1.624
13033SOL    HW150028   0.345   1.103   1.544
13033SOL    HW250029   0.466   1.073   1.649
13034SOL     OW50030   4.384   2.885   1.247
13034SOL    HW150031   4.355   2.809   1.189
13034SOL    HW250032   4.481   2.904   1.230
13035SOL     OW50033   7.091   2.395   3.396
13035SOL    HW150034   7.012   2.383   3.335
13035SOL    HW250035   7.166   2.437   3.345
13036SOL     OW50036   9.043   7.586   3.142
13036SOL    HW150037   8.991   7.663   3.178
13036SOL    HW250038   9.114   7.619   3.079
13037SOL     OW50039   7.447   2.563   3.461
13037SOL    HW150040   7.477   2.658   3.452
13037SOL    HW250041   7.422   2.544   3.556
13038SOL     OW50042   4.636   9.861   3.237
13038SOL    HW150043   4.679   9.951   3.239
13038SOL    HW250044   4.707   9.790   3.247
13039SOL     OW50045   0.694   3.260   4.195
13039SOL    HW150046   0.769   3.326   4.201
13039SOL    HW250047   0.653   3.263   4.104
13040SOL     OW50048   0.862   9.844   2.271
13040SOL    HW150049   0.781   9.893   2.302
13040SOL    HW250050   0.854   9.824   2.173
13041SOL     OW50051   3.133   0.637   3.080
13041SOL    HW150052   3.227   0.658   3.106
13041SOL    HW250053   3.133   0.581   2.997
13042SOL     OW50054   4.101   2.781   2.492
13042SOL    HW150055   4.041   2.739   2.561
13042SOL    HW250056   4.122   2.714   2.421
13043SOL     OW50057   4.193   6.734   2.012
13043SOL    HW150058   4.250   6.655   2.033
13043SOL    HW250059   4.097   6.707   2.011
13044SOL     OW50060   0.608   2.309   1.284
13044SOL    HW150061   0.671   2.373   1.241
13044SOL    HW250062   0.514   2.336   1.263
13045SOL     OW50063   2.987   8.885   4.701
13045SOL    HW150064   2.963   8.829   4.622
13045SOL    HW250065   2.914   8.950   4.719
13046SOL     OW50066   2.351   9.034   1.090
13046SOL    HW150067   2.424   8.970   1.113
13046SOL    HW250068   2.290   9.045   1.169
13047SOL     OW50069   2.763   2.755   1.943
13047SOL    HW150070   2.826   2.772   2.019
13047SOL    HW250071   2.745   2.841   1.895
13048SOL     OW50072   3.445   8.192   2.863
13048SOL    HW150073   3.516   8.230   2.922
13048SOL    HW250074   3.423   8.257   2.790
13049SOL     OW50075   2.079   6.702   3.114
13049SOL    HW150076   2.051   6.797   3.132
13049SOL    HW250077   2.125   6.697   3.026
13050SOL     OW50078   4.413   8.699   4.942
13050SOL    HW150079   4.330   8.745   4.911
13050SOL    HW250080   4.401   8.673   5.038
13051SOL     OW50081   1.287   7.627   2.836
13051SOL    HW150082   1.323   7.625   2.742
13051SOL    HW250083   1.197   7.583   2.838
13052SOL     OW50084   8.335   3.565   3.060
13052SOL    HW150085   8.254   3.519   3.025
13052SOL    HW250086   8.358   3.528   3.150
13053SOL     OW50087   6.581   0.545   3.075
13053SOL    HW150088   6.561   0.501   3.163
13053SOL    HW250089   6.496   0.572   3.031
13054SOL     OW50090   1.458   3.406   3.048
13054SOL    HW150091   1.397   3.336   3.011
13054SOL    HW250092   1.450   3.489   2.994
13055SOL     OW50093   9.686   0.130   4.603
13055SOL    HW150094   9.612   0.071   4.637
13055SOL    HW250095   9.773   0.100   4.642
13056SOL     OW50096   1.413   8.850   4.446
13056SOL    HW150097   1.377   8.760   4.423
13056SOL    HW250098   1.494   8.841   4.505
13057SOL     OW50099   7.730   1.029   0.900
13057SOL    HW150100   7.650   1.067   0.852
13057SOL    HW250101   7.713   0.934   0.922
13058SOL     OW50102   1.916   9.311   3.500
13058SOL    HW150103   2.011   9.303   3.469
13058SOL    HW250104   1.913   9.363   3.585
13059SOL     OW50105   5.189   2.185   2.879
13059SOL    HW150106   5.149   2.277   2.889
13059SOL    HW250107   5.239   2.162   2.963
13060SOL     OW50108   8.406   3.228   0.888
13060SOL    HW150109   8.349   3.172   0.828
13060SOL    HW250110   8.427   3.177   0.971
13061SOL     OW50111   5.024   8.257   2.902
13061SOL    HW150112   4.975   8.272   2.988
13061SOL    HW250113   4.974   8.301   2.827
13062SOL     OW50114   8.259   0.711   4.749
13062SOL    HW150115   8.258   0.731   4.847
13062SOL    HW250116   8.246   0.613   4.735
13063SOL     OW50117   2.009   2.000   1.625
13063SOL    HW150118   2.031   1.961   1.714
13063SOL    HW250119   2.091   2.040   1.585
13064SOL     OW50120   9.448   5.448   3.808
13064SOL    HW150121   9.379   5.517   3.785
13064SOL    HW250122   9.468   5.392   3.728
13065SOL     OW50123   0.149   7.956   5.098
13065SOL    HW150124   0.218   7.911   5.041
13065SOL    HW250125   0.189   8.039   5.137
13066SOL     OW50126   7.314   7.784   4.536
13066SOL    HW150127   7.376   7.728   4.591
13066SOL    HW250128   7.256   7.839   4.596
13067SOL     OW50129   0.899   6.822   0.060
13067SOL    HW150130   0.962   6.746   0.074
13067SOL    HW250131   0.911   6.890   0.132
13068SOL     OW50132   3.266   8.848   3.648
13068SOL    HW150133   3.297   8.908   3.574
13068SOL    HW250134   3.167   8.854   3.656
13069SOL     OW50135   8.546   8.034   1.034
13069SOL    HW150136   8.595   7.992   0.957
13069SOL    HW250137   8.462   7.983   1.051
13070SOL     OW50138   4.548   3.189   5.164
13070SOL    HW150139   4.505   3.146   5.244
13070SOL    HW250140   4.646   3.199   5.181
13071SOL     OW50141   3.952   6.500   4.218
13071SOL    HW150142   3.971   6.562   4.294
13071SOL    HW250143   3.855   6.504   4.194
13072SOL     OW50144   8.733   7.366   2.952
13072SOL    HW150145   8.650   7.392   3.001
13072SOL    HW250146   8.777   7.289   3.000
13073SOL     OW50147   0.473   4.025   0.258
13073SOL    HW150148   0.387   4.064   0.292
13073SOL    HW250149   0.545   4.094   0.264
13074SOL     OW50150   1.327   3.428   2.269
13074SOL    HW150151   1.339   3.378   2.355
13074SOL    HW250152   1.390   3.507   2.268
13075SOL     OW50153   3.991   1.196   1.182
13075SOL    HW150154   3.907   1.249   1.167
13075SOL    HW250155   4.069   1.258   1.181
13076SOL     OW50156   1.393   9.799   4.915
13076SOL    HW150157   1.398   9.757   5.006
13076SOL    HW250158   1.485   9.811   4.879
13077SOL     OW50159   3.668   5.118   2.985
13077SOL    HW150160   3.735   5.190   2.969
13077SOL    HW250161   3.628   5.129   3.076
13078SOL     OW50162   8.014   0.293   0.250
13078SOL    HW150163   8.077   0.227   0.208
13078SOL    HW250164   8.048   0.386   0.234
13079SOL     OW50165   8.850   0.668   0.344
13079SOL    HW150166   8.838   0.756   0.391
13079SOL    HW250167   8.798   0.598   0.393
13080SOL     OW50168   9.523   4.140   0.139
13080SOL    HW150169   9.579   4.062   0.113
13080SOL    HW250170   9.514   4.203   0.062
13081SOL     OW50171   1.098   8.798   3.005
13081SOL    HW150172   1.033   8.851   3.060
13081SOL    HW250173   1.054   8.769   2.920
13082SOL     OW50174   5.100   1.857   5.183
13082SOL    HW150175   5.082   1.768   5.141
13082SOL    HW250176   5.014   1.896   5.215
13083SOL     OW50177   1.288   1.415   2.999
13083SOL    HW150178   1.240   1.456   2.922
13083SOL    HW250179   1.266   1.318   3.004
13084SOL     OW50180   4.080   0.164   1.661
13084SOL    HW150181   4.066   0.094   1.591
13084SOL    HW250182   4.010   0.235   1.652
13085SOL     OW50183   2.518   2.660   0.424
13085SOL    HW150184   2.485   2.623   0.511
13085SOL    HW250185   2.446   2.714   0.381
13086SOL     OW50186   6.518   7.886   4.122
13086SOL    HW150187   6.526   7.796   4.079
13086SOL    HW250188   6.427   7.897   4.162
13087SOL     OW50189   4.177   8.486   2.140
13087SOL    HW150190   4.222   8.573   2.161
13087SOL    HW250191   4.089   8.503   2.097
13088SOL     OW50192   4.238   4.548   0.846
13088SOL    HW150193   4.290   4.468   0.818
13088SOL    HW250194   4.232   4.551   0.945
13089SOL     OW50195   4.647   8.001   1.766
13089SOL    HW150196   4.635   8.091   1.806
13089SOL    HW250197   4.647   8.009   1.666
13090SOL     OW50198   1.286   8.804   2.561
13090SOL    HW150199   1.305   8.712   2.526
13090SOL    HW250200   1.221   8.798   2.636
13091SOL     OW50201   8.958   1.396   4.130
13091SOL    HW150202   8.900   1.355   4.200
13091SOL    HW250203   8.911   1.393   4.042
13092SOL     OW50204   3.080   4.963   3.926
13092SOL    HW150205   3.085   5.053   3.882
13092SOL    HW250206   3.127   4.896   3.870
13093SOL     OW50207   4.999   8.214   1.867
13093SOL    HW150208   4.972   8.181   1.776
13093SOL    HW250209   4.943   8.169   1.937
13094SOL     OW50210   1.556   7.526   4.310
13094SOL    HW150211   1.471   7.479   4.287
13094SOL    HW250212   1.597   7.564   4.226
13095SOL     OW50213   7.317   9.407   3.265
13095SOL    HW150214   7.296   9.380   3.359
13095SOL    HW250215   7.264   9.351   3.201
13096SOL     OW50216   2.093   9.433   5.169
13096SOL    HW150217   2.077   9.532   5.167
13096SOL    HW250218   2.191   9.416   5.180
13097SOL     OW50219   7.610   8.247   3.724
13097SOL    HW150220   7.539   8.237   3.655
13097SOL    HW250221   7.572   8.293   3.804
13098SOL     OW50222   3.853   9.710   4.972
13098SOL    HW150223   3.881   9.806   4.964
13098SOL    HW250224   3.826   9.691   5.066
13099SOL     OW50225   0.574   8.464   3.353
13099SOL    HW150226   0.553   8.493   3.446
13099SOL    HW250227   0.666   8.494   3.329
13100SOL     OW50228   8.455   5.609   0.361
13100SOL    HW150229   8.485   5.704   0.351
13100SOL    HW250230   8.516   5.549   0.309
13101SOL     OW50231   1.631   9.818   1.185
13101SOL    HW150232   1.638   9.802   1.086
13101SOL    HW250233   1.697   9.889   1.212
13102SOL     OW50234   9.674   4.512   3.537
13102SOL    HW150235   9.643   4.588   3.594
13102SOL    HW250236   9.612   4.503   3.459
13103SOL     OW50237   0.582   5.959   3.584
13103SOL    HW150238   0.644   5.899   3.634
13103SOL    HW250239   0.488   5.926   3.594
13104SOL     OW50240   4.654   4.772   0.489
13104SOL    HW150241   4.593   4.843   0.524
13104SOL    HW250242   4.746   4.786   0.526
13105SOL     OW50243   4.618   8.465   0.551
13105SOL    HW150244   4.688   8.525   0.590
13105SOL    HW250245   4.605   8.386   0.611
13106SOL     OW50246   4.542   1.541   5.138
13106SOL    HW150247   4.511   1.453   5.101
13106SOL    HW250248   4.639   1.553   5.118
13107SOL     OW50249   4.171   2.844   0.102
13107SOL    HW150250   4.173   2.912   0.176
13107SOL    HW250251   4.106   2.772   0.125
13108SOL     OW50252   9.357   7.582   2.736
13108SOL    HW150253   9.304   7.601   2.819
13108SOL    HW250254   9.332   7.493   2.699
13109SOL     OW50255   1.224   9.528   4.397
13109SOL    HW150256   1.193   9.481   4.315
13109SOL    HW250257   1.144   9.555   4.452
13110SOL     OW50258   3.928   4.276   0.648
13110SOL    HW150259   4.025   4.249   0.643
13110SOL    HW250260   3.893   4.288   0.555
13111SOL     OW50261   9.890   6.538   2.801
13111SOL    HW150262   9.861   6.455   2.754
13111SOL    HW250263   9.986   6.531   2.826
13112SOL     OW50264   2.839   3.637   0.968
13112SOL    HW150265   2.834   3.737   0.971
13112SOL    HW250266   2.747   3.600   0.953
13113SOL     OW50267   2.037   4.520   0.547
13113SOL    HW150268   1.950   4.569   0.541
13113SOL    HW250269   2.047   4.482   0.640
13114SOL     OW50270   0.927   6.465   2.115
13114SOL    HW150271   0.973   6.549   2.084
13114SOL    HW250272   0.840   6.489   2.158
13115SOL     OW50273   4.403   9.914   2.077
13115SOL    HW150274   4.438   9.927   1.984
13115SOL    HW250275   4.324   9.853   2.075
13116SOL     OW50276   8.026   2.148   2.460
13116SOL    HW150277   8.055   2.222   2.521
13116SOL    HW250278   8.052   2.171   2.366
13117SOL     OW50279   1.689   8.915   0.656
13117SOL    HW150280   1.740   8.974   0.593
13117SOL    HW250281   1.643   8.972   0.724
13118SOL     OW50282   7.599   0.489   3.726
13118SOL    HW150283   7.591   0.420   3.798
13118SOL    HW250284   7.666   0.458   3.658
13119SOL     OW50285   3.370   3.292   2.310
13119SOL    HW150286   3.464   3.282   2.277
13119SOL    HW250287   3.350   3.389   2.324
13120SOL     OW50288   0.372   5.119   3.809
13120SOL    HW150289   0.391   5.164   3.722
13120SOL    HW250290   0.300   5.050   3.797
13121SOL     OW50291   3.925   5.680   3.154
13121SOL    HW150292   3.973   5.766   3.143
13121SOL    HW250293   3.894   5.647   3.065
13122SOL     OW50294   3.202   4.504   2.147
13122SOL    HW150295   3.251   4.431   2.194
13122SOL    HW250296   3.251   4.591   2.158
13123SOL     OW50297   1.292   5.370   1.364
13123SOL    HW150298   1.297   5.291   1.425
13123SOL    HW250299   1.315   5.453   1.416
13124SOL     OW50300   3.050   0.604   3.342
13124SOL    HW150301   3.082   0.615   3.248
13124SOL    HW250302   3.118   0.642   3.405
13125SOL     OW50303   0.437   0.420   5.047
13125SOL    HW150304   0.443   0.321   5.053
13125SOL    HW250305   0.486   0.462   5.124
13126SOL     OW50306   2.934   0.418   2.644
13126SOL    HW150307   2.949   0.377   2.555
13126SOL    HW250308   2.883   0.503   2.634
13127SOL     OW50309   0.606   1.394   4.294
13127SOL    HW150310   0.539   1.467   4.278
13127SOL    HW250311   0.560   1.316   4.337
13128SOL     OW50312   0.215   0.850   1.274
13128SOL    HW150313   0.158   0.785   1.223
13128SOL    HW250314   0.181   0.857   1.368
13129SOL     OW50315   1.156   8.582   0.685
13129SOL    HW150316   1.121   8.661   0.635
13129SOL    HW250317   1.120   8.583   0.778
13130SOL     OW50318   1.958   0.830   3.016
13130SOL    HW150319   1.872   0.812   2.968
13130SOL    HW250320   2.034   0.827   2.951
13131SOL     OW50321   0.020   2.499   3.272
13131SOL    HW150322   0.014   2.461   3.364
13131SOL    HW250323   9.928   2.506   3.232
13132SOL     OW50324   1.192   1.179   3.707
13132SOL    HW150325   1.094   1.178   3.689
13132SOL    HW250326   1.214   1.113   3.779
13133SOL     OW50327   8.491   5.625   4.410
13133SOL    HW150328   8.572   5.587   4.456
13133SOL    HW250329   8.431   5.667   4.477
13134SOL     OW50330   2.305   9.714   4.738
13134SOL    HW150331   2.400   9.692   4.760
13134SOL    HW250332   2.295   9.729   4.640
13135SOL     OW50333   5.424   2.507   3.503
13135SOL    HW150334   5.502   2.447   3.517
13135SOL    HW250335   5.380   2.525   3.591
13136SOL     OW50336   2.575   2.730   0.809
13136SOL    HW150337   2.549   2.818   0.770
13136SOL    HW250338   2.534   2.656   0.755
13137SOL     OW50339   4.382   0.049   1.068
13137SOL    HW150340   4.355   0.039   0.972
13137SOL    HW250341   4.363   0.142   1.099
13138SOL     OW50342   7.880   6.884   3.921
13138SOL    HW150343   7.913   6.880   3.826
13138SOL    HW250344   7.956   6.907   3.982
13139SOL     OW50345   8.004   8.962   3.817
13139SOL    HW150346   8.001   9.051   3.772
13139SOL    HW250347   7.928   8.906   3.784
13140SOL     OW50348   0.587   5.705   4.583
13140SOL    HW150349   0.645   5.695   4.503
13140SOL    HW250350   0.512   5.639   4.579
13141SOL     OW50351   3.028   5.875   3.542
13141SOL    HW150352   2.971   5.837   3.470
13141SOL    HW250353   3.123   5.883   3.510
13142SOL     OW50354   9.642   9.160   4.950
13142SOL    HW150355   9.642   9.223   4.872
13142SOL    HW250356   9.677   9.071   4.921
13143SOL     OW50357   3.303   6.273   4.168
13143SOL    HW150358   3.353   6.323   4.098
13143SOL    HW250359   3.365   6.247   4.242
13144SOL     OW50360   9.707   7.428   0.148
13144SOL    HW150361   9.803   7.430   0.120
13144SOL    HW250362   9.694   7.485   0.229
13145SOL     OW50363   8.217   0.694   2.439
13145SOL    HW150364   8.286   0.752   2.482
13145SOL    HW250365   8.258   0.643   2.364
13146SOL     OW50366   1.337   5.803   1.278
13146SOL    HW150367   1.283   5.882   1.308
13146SOL    HW250368   1.286   5.752   1.209
13147SOL     OW50369   4.258   4.670   4.849
13147SOL    HW150370   4.315   4.632   4.922
13147SOL    HW250371   4.163   4.672   4.878
13148SOL     OW50372   2.892   3.312   0.145
13148SOL    HW150373   2.856   3.313   0.052
13148SOL    HW250374   2.900   3.217   0.177
13149SOL     OW50375   9.499   2.441   1.909
13149SOL    HW150376   9.579   2.501   1.920
13149SOL    HW250377   9.478   2.431   1.812
13150SOL     OW50378   0.653   3.318   0.972
13150SOL    HW150379   0.748   3.344   0.955
13150SOL    HW250380   0.650   3.222   1.001
13151SOL     OW50381   4.779   4.187   2.634
13151SOL    HW150382   4.830   4.107   2.602
13151SOL    HW250383   4.786   4.193   2.734
13152SOL     OW50384   4.055   0.360   2.028
13152SOL    HW150385   4.073   0.414   1.946
13152SOL    HW250386   4.127   0.291   2.039
13153SOL     OW50387   2.346   2.965   4.391
13153SOL    HW150388   2.360   2.968   4.292
13153SOL    HW250389   2.375   2.876   4.426
13154SOL     OW50390   8.407   3.461   3.307
13154SOL    HW150391   8.462   3.397   3.253
13154SOL    HW250392   8.337   3.410   3.357
13155SOL     OW50393   0.606   1.205   3.042
13155SOL    HW150394   0.670   1.169   3.110
13155SOL    HW250395   0.538   1.135   3.020
13156SOL     OW50396   7.772   0.425   2.755
13156SOL    HW150397   7.770   0.507   2.699
13156SOL    HW250398   7.730   0.444   2.844
13157SOL     OW50399   6.202   7.707   2.522
13157SOL    HW150400   6.253   7.661   2.449
13157SOL    HW250401   6.104   7.696   2.506
13158SOL     OW50402   0.245   0.150   0.939
13158SOL    HW150403   0.237   0.223   0.871
13158SOL    HW250404   0.311   0.177   1.009
13159SOL     OW50405   6.399   1.758   3.826
13159SOL    HW150406   6.411   1.659   3.820
13159SOL    HW250407   6.383   1.783   3.921
13160SOL     OW50408   0.617   0.757   1.848
13160SOL    HW150409   0.568   0.776   1.933
13160SOL    HW250410   0.668   0.672   1.858
13161SOL     OW50411   9.671   0.084   1.214
13161SOL    HW150412   9.587   0.134   1.193
13161SOL    HW250413   9.670   0.056   1.310
13162SOL     OW50414   0.627   8.408   0.669
13162SOL    HW150415   0.651   8.470   0.744
13162SOL    HW250416   0.709   8.356   0.642
13163SOL     OW50417   7.184   1.095   2.974
13163SOL    HW150418   7.101   1.149   2.987
13163SOL    HW250419   7.264   1.154   2.983
13164SOL     OW50420   9.062   6.751   1.073
13164SOL    HW150421   9.047   6.659   1.110
13164SOL    HW250422   9.001   6.815   1.119
13165SOL     OW50423   5.385   7.454   2.443
13165SOL    HW150424   5.483   7.471   2.447
13165SOL    HW250425   5.338   7.518   2.504
13166SOL     OW50426   0.234   1.141   1.845
13166SOL    HW150427   0.284   1.087   1.777
13166SOL    HW250428   0.299   1.180   1.910
13167SOL     OW50429   7.062   3.069   0.816
13167SOL    HW150430   7.052   2.983   0.767
13167SOL    HW250431   7.024   3.143   0.761
13168SOL     OW50432   9.445   7.018   3.262
13168SOL    HW150433   9.405   6.944   3.316
13168SOL    HW250434   9.397   7.026   3.175
13169SOL     OW50435   9.640   7.366   1.209
13169SOL    HW150436   9.642   7.452   1.159
13169SOL    HW250437   9.582   7.375   1.290
13170SOL     OW50438   0.723   0.915   2.128
13170SOL    HW150439   0.794   0.922   2.057
13170SOL    HW250440   0.715   0.819   2.157
13171SOL     OW50441   9.444   5.122   4.367
13171SOL    HW150442   9.500   5.198   4.401
13171SOL    HW250443   9.490   5.079   4.289
13172SOL     OW50444   4.567   4.648   0.262
13172SOL    HW150445   4.468   4.640   0.253
13172SOL    HW250446   4.589   4.685   0.353
13173SOL     OW50447   2.486   2.205   1.517
13173SOL    HW150448   2.560   2.164   1.464
13173SOL    HW250449   2.502   2.303   1.528
13174SOL     OW50450   2.686   7.947   5.027
13174SOL    HW150451   2.717   7.854   5.047
13174SOL    HW250452   2.757   7.996   4.977
13175SOL     OW50453   3.077   5.055   0.580
13175SOL    HW150454   3.084   5.146   0.620
13175SOL    HW250455   3.059   5.063   0.482
13176SOL     OW50456   2.596   0.702   1.198
13176SOL    HW150457   2.550   0.761   1.264
13176SOL    HW250458   2.528   0.643   1.154
13177SOL     OW50459   8.126   2.485   1.945
13177SOL    HW150460   8.192   2.477   1.870
13177SOL    HW250461   8.127   2.579   1.980
13178SOL     OW50462   9.299   7.103   4.955
13178SOL    HW150463   9.291   7.029   4.888
13178SOL    HW250464   9.387   7.094   5.003
13179SOL     OW50465   7.670   3.603   1.272
13179SOL    HW150466   7.729   3.682   1.251
13179SOL    HW250467   7.575   3.632   1.273
13180SOL     OW50468   5.445   4.966   0.565
13180SOL    HW150469   5.443   5.031   0.489
13180SOL    HW250470   5.351   4.949   0.597
13181SOL     OW50471   0.006   2.883   2.058
13181SOL    HW150472   9.930   2.864   1.996
13181SOL    HW250473   0.054   2.798   2.079
13182SOL     OW50474   4.285   6.898   2.212
13182SOL    HW150475   4.245   6.836   2.145
13182SOL    HW250476   4.371   6.934   2.177
13183SOL     OW50477   0.959   2.250   0.522
13183SOL    HW150478   0.936   2.193   0.442
13183SOL    HW250479   0.999   2.192   0.593
13184SOL     OW50480   1.012   8.962   2.661
13184SOL    HW150481   1.032   8.866   2.680
13184SOL    HW250482   0.931   8.990   2.712
13185SOL     OW50483   7.780   5.601   0.735
13185SOL    HW150484   7.682   5.607   0.715
13185SOL    HW250485   7.803   5.667   0.807
13186SOL     OW50486   9.117   1.812   0.288
13186SOL    HW150487   9.183   1.886   0.294
13186SOL    HW250488   9.148   1.746   0.220
13187SOL     OW50489   1.170   3.467   2.968
13187SOL    HW150490   1.144   3.522   2.889
13187SOL    HW250491   1.199   3.376   2.937
13188SOL     OW50492   0.461   0.516   1.216
13188SOL    HW150493   0.420   0.449   1.154
13188SOL    HW250494   0.511   0.468   1.288
13189SOL     OW50495   0.643   4.722   2.348
13189SOL    HW150496   0.642   4.622   2.340
13189SOL    HW250497   0.690   4.748   2.432
13190SOL     OW50498   8.049   7.740   3.157
13190SOL    HW150499   7.973   7.777   3.211
13190SOL    HW250500   8.020   7.729   3.062
13191SOL     OW50501   6.332   0.829   0.926
13191SOL    HW150502   6.430   0.833   0.907
13191SOL    HW250503   6.285   0.900   0.873
13192SOL     OW50504   0.299   0.940   4.754
13192SOL    HW150505   0.240   0.958   4.676
13192SOL    HW250506   0.353   1.022   4.774
13193SOL     OW50507   8.015   9.934   0.809
13193SOL    HW150508   7.963   0.009   0.769
13193SOL    HW250509   7.955   9.877   0.865
13194SOL     OW50510   9.310   4.092   5.072
13194SOL    HW150511   9.389   4.121   5.125
13194SOL    HW250512   9.228   4.140   5.106
13195SOL     OW50513   3.193   8.195   4.620
13195SOL    HW150514   3.242   8.127   4.565
13195SOL    HW250515   3.167   8.272   4.562
13196SOL     OW50516   1.649   0.131   4.478
13196SOL    HW150517   1.644   0.141   4.379
13196SOL    HW250518   1.587   0.198   4.521
13197SOL     OW50519   9.170   1.052   3.897
13197SOL    HW150520   9.146   0.981   3.963
13197SOL    HW250521   9.264   1.082   3.914
13198SOL     OW50522   0.067   0.051   2.031
13198SOL    HW150523   9.985   0.102   2.007
13198SOL    HW250524   0.042   9.969   2.082
13199SOL     OW50525   1.878   8.282   3.393
13199SOL    HW150526   1.905   8.267   3.488
13199SOL    HW250527   1.918   8.366   3.359
13200SOL     OW50528   0.822   8.714   2.040
13200SOL    HW150529   0.908   8.750   2.003
13200SOL    HW250530   0.817   8.732   2.138
13201SOL     OW50531   3.521   3.262   0.135
13201SOL    HW150532   3.612   3.260   0.093
13201SOL    HW250533   3.478   3.350   0.116
13202SOL     OW50534   9.153   7.462   3.763
13202SOL    HW150535   9.175   7.369   3.736
13202SOL    HW250536   9.237   7.515   3.773
13203SOL     OW50537   1.118   7.042   4.494
13203SOL    HW150538   1.051   7.075   4.561
13203SOL    HW250539   1.183   7.115   4.473
13204SOL     OW50540   0.984   8.265   0.915
13204SOL    HW150541   0.957   8.186   0.859
13204SOL    HW250542   1.074   8.248   0.955
13205SOL     OW50543   9.447   0.639   1.548
13205SOL    HW150544   9.415   0.729   1.519
13205SOL    HW250545   9.547   0.641   1.556
13206SOL     OW50546   7.539   4.953   0.483
13206SOL    HW150547   7.464   4.900   0.444
13206SOL    HW250548   7.519   5.051   0.472
13207SOL     OW50549   2.744   0.324   3.679
13207SOL    HW150550   2.698   0.402   3.637
13207SOL    HW250551   2.679   0.275   3.737
13208SOL     OW50552   7.580   0.345   0.388
13208SOL    HW150553   7.636   0.403   0.448
13208SOL    HW250554   7.639   0.289   0.330
13209SOL     OW50555   7.992   2.894   3.514
13209SOL    HW150556   7.988   2.993   3.520
13209SOL    HW250557   7.935   2.853   3.586
13210SOL     OW50558   2.382   4.440   4.199
13210SOL    HW150559   2.460   4.385   4.170
13210SOL    HW250560   2.297   4.390   4.180
13211SOL     OW50561   8.367   9.677   3.945
13211SOL    HW150562   8.424   9.756   3.925
13211SOL    HW250563   8.276   9.691   3.906
13212SOL     OW50564   0.999   4.826   2.791
13212SOL    HW150565   0.959   4.795   2.706
13212SOL    HW250566   1.082   4.774   2.811
13213SOL     OW50567   2.877   4.155   1.706
13213SOL    HW150568   2.902   4.236   1.653
13213SOL    HW250569   2.778   4.142   1.703
13214SOL     OW50570   8.301   4.423   3.728
13214SOL    HW150571   8.295   4.498   3.794
13214SOL    HW250572   8.377   4.439   3.666
13215SOL     OW50573   8.882   2.385   5.107
13215SOL    HW150574   8.839   2.473   5.088
13215SOL    HW250575   8.820   2.311   5.080
13216SOL     OW50576   5.077   0.405   1.894
13216SOL    HW150577   5.007   0.389   1.825
13216SOL    HW250578   5.104   0.501   1.893
13217SOL     OW50579   1.016   0.523   1.874
13217SOL    HW150580   1.036   0.428   1.896
13217SOL    HW250581   1.015   0.577   1.958
13218SOL     OW50582   0.272   3.036   4.940
13218SOL    HW150583   0.300   3.129   4.966
13218SOL    HW250584   0.349   2.974   4.954
13219SOL     OW50585   9.032   6.316   4.017
13219SOL    HW150586   9.001   6.223   4.000
13219SOL    HW250587   9.129   6.315   4.042
13220SOL     OW50588   6.622   8.782   4.368
13220SOL    HW150589   6.620   8.830   4.280
13220SOL    HW250590   6.544   8.811   4.424
13221SOL     OW50591   3.423   7.021   2.326
13221SOL    HW150592   3.323   7.024   2.314
13221SOL    HW250593   3.452   6.927   2.340
13222SOL     OW50594   8.809   7.434   2.594
13222SOL    HW150595   8.854   7.463   2.679
13222SOL    HW250596   8.751   7.507   2.559
13223SOL     OW50597   9.726   5.026   2.273
13223SOL    HW150598   9.709   5.109   2.326
13223SOL    HW250599   9.801   5.042   2.209
13224SOL     OW50600   7.892   0.043   5.135
13224SOL    HW150601   7.864   0.105   5.061
13224SOL    HW250602   7.971   0.081   5.182
13225SOL     OW50603   1.478   7.566   0.162
13225SOL    HW150604   1.576   7.552   0.172
13225SOL    HW250605   1.455   7.574   0.065
13226SOL     OW50606   0.475   3.935   4.424
13226SOL    HW150607   0.429   4.020   4.450
13226SOL    HW250608   0.500   3.884   4.506
13227SOL     OW50609   1.192   4.595   0.715
13227SOL    HW150610   1.204   4.563   0.621
13227SOL    HW250611   1.257   4.548   0.775
13228SOL     OW50612   1.894   0.386   1.577
13228SOL    HW150613   1.890   0.421   1.671
13228SOL    HW250614   1.989   0.364   1.555
13229SOL     OW50615   4.480   8.775   4.456
13229SOL    HW150616   4.503   8.785   4.553
13229SOL    HW250617   4.493   8.680   4.428
13230SOL     OW50618   1.821   4.976   4.678
13230SOL    HW150619   1.736   5.000   4.726
13230SOL    HW250620   1.898   4.984   4.741
13231SOL     OW50621   4.075   4.785   1.069
13231SOL    HW150622   3.982   4.748   1.071
13231SOL    HW250623   4.073   4.877   1.031
13232SOL     OW50624   0.370   0.045   3.721
13232SOL    HW150625   0.355   0.088   3.632
13232SOL    HW250626   0.301   0.077   3.786
13233SOL     OW50627   2.522   6.319   3.331
13233SOL    HW150628   2.586   6.285   3.262
13233SOL    HW250629   2.429   6.314   3.294
13234SOL     OW50630   8.010   6.555   4.954
13234SOL    HW150631   8.020   6.533   4.857
13234SOL    HW250632   8.044   6.648   4.971
13235SOL     OW50633   3.877   7.119   1.090
13235SOL    HW150634   3.858   7.216   1.070
13235SOL    HW250635   3.808   7.085   1.155
13236SOL     OW50636   1.369   6.036   2.156
13236SOL    HW150637   1.308   6.034   2.236
13236SOL    HW250638   1.428   6.116   2.161
13237SOL     OW50639   9.159   9.092   2.689
13237SOL    HW150640   9.135   8.995   2.686
13237SOL    HW250641   9.176   9.119   2.784
13238SOL     OW50642   0.706   8.067   1.727
13238SOL    HW150643   0.744   8.056   1.819
13238SOL    HW250644   0.777   8.103   1.666
13239SOL     OW50645   6.176   1.611   4.713
13239SOL    HW150646   6.118   1.531   4.726
13239SOL    HW250647   6.194   1.623   4.615
13240SOL     OW50648   0.620   7.048   3.967
13240SOL    HW150649   0.568   7.107   4.029
13240SOL    HW250650   0.683   6.992   4.020
13241SOL     OW50651   0.914   7.557   4.167
13241SOL    HW150652   0.888   7.596   4.079
13241SOL    HW250653   0.945   7.463   4.154
13242SOL     OW50654   9.013   3.547   2.295
13242SOL    HW150655   9.086   3.515   2.235
13242SOL    HW250656   9.046   3.549   2.389
13243SOL     OW50657   2.272   1.229   4.977
13243SOL    HW150658   2.309   1.173   4.902
13243SOL    HW250659   2.274   1.176   5.062
13244SOL     OW50660   5.581   0.643   4.735
13244SOL    HW150661   5.549   0.597   4.818
13244SOL    HW250662   5.615   0.734   4.758
13245SOL     OW50663   1.517   0.131   2.000
13245SOL    HW150664   1.609   0.158   1.973
13245SOL    HW250665   1.478   0.200   2.060
13246SOL     OW50666   2.321   7.530   2.062
13246SOL    HW150667   2.255   7.468   2.019
13246SOL    HW250668   2.282   7.622   2.067
13247SOL     OW50669   7.734   2.314   3.143
13247SOL    HW150670   7.690   2.246   3.085
13247SOL    HW250671   7.673   2.336   3.220
13248SOL     OW50672   7.538   2.854   4.484
13248SOL    HW150673   7.590   2.897   4.410
13248SOL    HW250674   7.441   2.852   4.460
13249SOL     OW50675   2.571   1.844   3.887
13249SOL    HW150676   2.654   1.868   3.937
13249SOL    HW250677   2.496   1.830   3.951
13250SOL     OW50678   2.978   6.064   2.039
13250SOL    HW150679   3.001   6.020   2.126
13250SOL    HW250680   3.062   6.090   1.991
13251SOL     OW50681   3.601   6.047   4.706
13251SOL    HW150682   3.657   6.127   4.724
13251SOL    HW250683   3.645   5.990   4.636
13252SOL     OW50684   1.416   0.761   1.013
13252SOL    HW150685   1.447   0.728   0.924
13252SOL    HW250686   1.388   0.683   1.070
13253SOL     OW50687   1.754   3.666   3.768
13253SOL    HW150688   1.794   3.755   3.791
13253SOL    HW250689   1.792   3.596   3.829
13254SOL     OW50690   1.778   8.083   2.031
13254SOL    HW150691   1.768   7.993   1.988
13254SOL    HW250692   1.839   8.075   2.109
13255SOL     OW50693   6.182   9.332   2.197
13255SOL    HW150694   6.259   9.333   2.133
13255SOL    HW250695   6.203   9.388   2.277
13256SOL     OW50696   3.781   7.908   2.782
13256SOL    HW150697   3.836   7.857   2.848
13256SOL    HW250698   3.811   7.886   2.689
13257SOL     OW50699   2.983   2.219   0.437
13257SOL    HW150700   2.957   2.249   0.346
13257SOL    HW250701   3.028   2.130   0.432
13258SOL     OW50702   1.208   5.333   2.594
13258SOL    HW150703   1.239   5.358   2.502
13258SOL    HW250704   1.176   5.238   2.594
13259SOL     OW50705   1.500   4.706   0.749
13259SOL    HW150706   1.421   4.671   0.798
13259SOL    HW250707   1.560   4.630   0.724
13260SOL     OW50708   4.657   8.238   1.914
13260SOL    HW150709   4.591   8.277   1.978
13260SOL    HW250710   4.732   8.196   1.966
13261SOL     OW50711   9.680   3.076   0.848
13261SOL    HW150712   9.768   3.086   0.802
13261SOL    HW250713   9.615   3.140   0.808
13262SOL     OW50714   7.386   8.002   5.191
13262SOL    HW150715   7.339   8.086   5.165
13262SOL    HW250716   7.477   8.000   5.148
13263SOL     OW50717   7.373   3.112   0.043
13263SOL    HW150718   7.472   3.103   0.032
13263SOL    HW250719   7.330   3.118   6.701
13264SOL     OW50720   1.021   7.116   3.370
13264SOL    HW150721   1.003   7.058   3.449
13264SOL    HW250722   0.960   7.195   3.372
13265SOL     OW50723   1.107   4.836   4.682
13265SOL    HW150724   1.090   4.863   4.777
13265SOL    HW250725   1.171   4.759   4.681
13266SOL     OW50726   4.433   8.688   4.094
13266SOL    HW150727   4.377   8.668   4.013
13266SOL    HW250728   4.374   8.698   4.174
13267SOL     OW50729   9.694   4.839   3.242
13267SOL    HW150730   9.605   4.794   3.247
13267SOL    HW250731   9.682   4.938   3.252
13268SOL     OW50732   1.474   6.823   1.729
13268SOL    HW150733   1.522   6.909   1.740
13268SOL    HW250734   1.538   6.753   1.698
13269SOL     OW50735   9.469   1.427   4.275
13269SOL    HW150736   9.419   1.366   4.213
13269SOL    HW250737   9.504   1.374   4.352
13270SOL     OW50738   2.274   0.101   2.056
13270SOL    HW150739   2.349   0.106   1.989
13270SOL    HW250740   2.187   0.110   2.008
13271SOL     OW50741   8.010   2.802   4.202
13271SOL    HW150742   8.037   2.818   4.107
13271SOL    HW250743   7.923   2.753   4.203
13272SOL     OW50744   9.797   0.754   0.594
13272SOL    HW150745   9.741   0.680   0.558
13272SOL    HW250746   9.873   0.716   0.647
13273SOL     OW50747   0.030   6.929   4.148
13273SOL    HW150748   0.124   6.895   4.153
13273SOL    HW250749   0.005   6.945   4.053
13274SOL     OW50750   1.542   4.223   1.749
13274SOL    HW150751   1.516   4.206   1.844
13274SOL    HW250752   1.566   4.319   1.738
13275SOL     OW50753   8.724   2.463   4.792
13275SOL    HW150754   8.749   2.513   4.875
13275SOL    HW250755   8.799   2.468   4.726
13276SOL     OW50756   9.976   8.327   0.395
13276SOL    HW150757   9.965   8.232   0.425
13276SOL    HW250758   0.012   8.328   0.302
13277SOL     OW50759   4.255   8.870   0.268
13277SOL    HW150760   4.233   8.803   0.338
13277SOL    HW250761   4.328   8.835   0.210
13278SOL     OW50762   9.988   3.461   2.308
13278SOL    HW150763   0.035   3.516   2.239
13278SOL    HW250764   9.925   3.519   2.359
13279SOL     OW50765   3.528   7.751   4.253
13279SOL    HW150766   3.620   7.788   4.249
13279SOL    HW250767   3.475   7.782   4.173
13280SOL     OW50768   7.253   0.437   5.145
13280SOL    HW150769   7.329   0.378   5.117
13280SOL    HW250770   7.277   0.486   5.228
13281SOL     OW50771   1.000   3.674   4.298
13281SOL    HW150772   1.081   3.684   4.357
13281SOL    HW250773   1.027   3.684   4.202
13282SOL     OW50774   3.170   9.869   0.666
13282SOL    HW150775   3.262   9.829   0.658
13282SOL    HW250776   3.150   9.925   0.586
13283SOL     OW50777   3.118   3.542   3.548
13283SOL    HW150778   3.198   3.489   3.576
13283SOL    HW250779   3.061   3.562   3.628
13284SOL     OW50780   4.542   8.274   4.036
13284SOL    HW150781   4.614   8.223   4.082
13284SOL    HW250782   4.569   8.370   4.029
13285SOL     OW50783   0.622   0.063   3.044
13285SOL    HW150784   0.573   9.997   2.987
13285SOL    HW250785   0.591   0.055   3.139
13286SOL     OW50786   7.101   4.028   0.353
13286SOL    HW150787   7.018   4.077   0.380
13286SOL    HW250788   7.082   3.930   0.351
13287SOL     OW50789   0.928   2.759   1.987
13287SOL    HW150790   0.918   2.678   1.928
13287SOL    HW250791   0.842   2.777   2.034
13288SOL     OW50792   1.714   9.195   4.753
13288SOL    HW150793   1.780   9.170   4.823
13288SOL    HW250794   1.760   9.243   4.678
13289SOL     OW50795   4.045   4.678   0.706
13289SOL    HW150796   4.070   4.775   0.711
13289SOL    HW250797   4.110   4.624   0.760
13290SOL     OW50798   9.146   1.904   2.003
13290SOL    HW150799   9.098   1.900   2.090
13290SOL    HW250800   9.185   1.995   1.990
13291SOL     OW50801   4.925   7.865   4.102
13291SOL    HW150802   4.907   7.833   4.010
13291SOL    HW250803   4.870   7.812   4.167
13292SOL     OW50804   2.436   8.595   4.994
13292SOL    HW150805   2.370   8.525   5.022
13292SOL    HW250806   2.510   8.601   5.061
13293SOL     OW50807   8.291   5.957   3.654
13293SOL    HW150808   8.252   5.994   3.570
13293SOL    HW250809   8.308   5.859   3.642
13294SOL     OW50810   9.709   5.995   2.213
13294SOL    HW150811   9.700   6.025   2.308
13294SOL    HW250812   9.628   5.943   2.186
13295SOL     OW50813   9.732   1.650   2.180
13295SOL    HW150814   9.818   1.605   2.206
13295SOL    HW250815   9.655   1.593   2.208
13296SOL     OW50816   0.524   7.007   3.713
13296SOL    HW150817   0.458   7.075   3.682
13296SOL    HW250818   0.552   7.028   3.807
13297SOL     OW50819   4.733   1.063   0.422
13297SOL    HW150820   4.818   1.011   0.420
13297SOL    HW250821   4.743   1.142   0.482
13298SOL     OW50822   7.297   1.862   3.655
13298SOL    HW150823   7.381   1.890   3.609
13298SOL    HW250824   7.317   1.833   3.748
13299SOL     OW50825   1.797   7.990   3.721
13299SOL    HW150826   1.704   7.955   3.733
13299SOL    HW250827   1.844   7.938   3.650
13300SOL     OW50828   9.077   5.753   3.561
13300SOL    HW150829   9.115   5.840   3.529
13300SOL    HW250830   9.037   5.703   3.484
13301SOL     OW50831   4.078   0.598   0.672
13301SOL    HW150832   4.052   0.682   0.624
13301SOL    HW250833   4.115   0.621   0.762
13302SOL     OW50834   3.699   0.099   0.352
13302SOL    HW150835   3.766   0.110   0.425
13302SOL    HW250836   3.729   0.027   0.290
13303SOL     OW50837   8.300   2.119   0.210
13303SOL    HW150838   8.232   2.138   0.281
13303SOL    HW250839   8.319   2.203   0.159
13304SOL     OW50840   7.191   8.223   4.643
13304SOL    HW150841   7.250   8.262   4.714
13304SOL    HW250842   7.194   8.123   4.649
13305SOL     OW50843   2.948   5.804   3.036
13305SOL    HW150844   2.923   5.823   3.131
13305SOL    HW250845   2.877   5.842   2.976
13306SOL     OW50846   9.178   9.172   2.956
13306SOL    HW150847   9.083   9.201   2.945
13306SOL    HW250848   9.181   9.079   2.993
13307SOL     OW50849   9.396   9.332   5.200
13307SOL    HW150850   9.473   9.354   5.259
13307SOL    HW250851   9.402   9.237   5.171
13308SOL     OW50852   2.076   7.662   3.032
13308SOL    HW150853   2.159   7.689   3.080
13308SOL    HW250854   2.099   7.594   2.962
13309SOL     OW50855   4.451   1.292   0.741
13309SOL    HW150856   4.514   1.222   0.774
13309SOL    HW250857   4.418   1.268   0.649
13310SOL     OW50858   9.804   2.407   4.713
13310SOL    HW150859   9.754   2.412   4.800
13310SOL    HW250860   9.902   2.413   4.730
13311SOL     OW50861   1.290   1.369   2.499
13311SOL    HW150862   1.351   1.290   2.496
13311SOL    HW250863   1.199   1.339   2.530
13312SOL     OW50864   9.363   0.707   2.617
13312SOL    HW150865   9.449   0.684   2.663
13312SOL    HW250866   9.356   0.653   2.533
13313SOL     OW50867   2.866   3.706   2.956
13313SOL    HW150868   2.942   3.644   2.939
13313SOL    HW250869   2.882   3.756   3.041
13314SOL     OW50870   2.830   6.124   0.519
13314SOL    HW150871   2.852   6.077   0.434
13314SOL    HW250872   2.785   6.061   0.582
13315SOL     OW50873   2.851   6.184   5.219
13315SOL    HW150874   2.946   6.163   5.197
13315SOL    HW250875   2.842   6.194   5.318
13316SOL     OW50876   4.511   2.253   0.444
13316SOL    HW150877   4.520   2.212   0.534
13316SOL    HW250878   4.559   2.197   0.377
13317SOL     OW50879   7.617   0.726   3.383
13317SOL    HW150880   7.548   0.761   3.446
13317SOL    HW250881   7.631   0.792   3.309
13318SOL     OW50882   7.348   2.048   1.987
13318SOL    HW150883   7.403   2.005   1.915
13318SOL    HW250884   7.296   2.124   1.948
13319SOL     OW50885   7.470   4.341   0.837
13319SOL    HW150886   7.532   4.268   0.864
13319SOL    HW250887   7.445   4.330   0.741
13320SOL     OW50888   9.802   0.884   4.768
13320SOL    HW150889   9.761   0.794   4.781
13320SOL    HW250890   9.878   0.894   4.832
13321SOL     OW50891   9.311   4.789   1.305
13321SOL    HW150892   9.376   4.715   1.324
13321SOL    HW250893   9.261   4.811   1.388
13322SOL     OW50894   4.087   5.438   3.597
13322SOL    HW150895   4.089   5.479   3.506
13322SOL    HW250896   4.069   5.509   3.665
13323SOL     OW50897   0.565   0.354   1.411
13323SOL    HW150898   0.615   0.268   1.399
13323SOL    HW250899   0.586   0.393   1.501
13324SOL     OW50900   8.412   6.577   2.564
13324SOL    HW150901   8.405   6.484   2.526
13324SOL    HW250902   8.334   6.631   2.531
13325SOL     OW50903   1.279   3.350   3.793
13325SOL    HW150904   1.180   3.349   3.807
13325SOL    HW250905   1.321   3.272   3.838
13326SOL     OW50906   0.118   2.640   2.138
13326SOL    HW150907   0.159   2.577   2.073
13326SOL    HW250908   0.070   2.589   2.209
13327SOL     OW50909   7.743   7.971   2.450
13327SOL    HW150910   7.647   7.946   2.442
13327SOL    HW250911   7.786   7.969   2.359
13328SOL     OW50912   5.407   1.799   1.459
13328SOL    HW150913   5.374   1.866   1.392
13328SOL    HW250914   5.483   1.837   1.510
13329SOL     OW50915   8.366   6.831   1.605
13329SOL    HW150916   8.298   6.894   1.568
13329SOL    HW250917   8.336   6.737   1.588
13330SOL     OW50918   2.970   1.585   4.718
13330SOL    HW150919   2.991   1.526   4.796
13330SOL    HW250920   2.871   1.599   4.713
13331SOL     OW50921   0.507   9.328   4.067
13331SOL    HW150922   0.465   9.237   4.058
13331SOL    HW250923   0.505   9.357   4.162
13332SOL     OW50924   4.862   2.201   1.519
13332SOL    HW150925   4.806   2.210   1.436
13332SOL    HW250926   4.900   2.109   1.525
13333SOL     OW50927   0.128   1.502   1.089
13333SOL    HW150928   0.046   1.559   1.100
13333SOL    HW250929   0.205   1.546   1.134
13334SOL     OW50930   9.781   1.625   5.139
13334SOL    HW150931   9.861   1.684   5.150
13334SOL    HW250932   9.698   1.681   5.134
13335SOL     OW50933   0.135   0.101   3.279
13335SOL    HW150934   0.178   0.045   3.207
13335SOL    HW250935   0.096   0.041   3.349
13336SOL     OW50936   0.429   3.342   1.930
13336SOL    HW150937   0.474   3.393   2.004
13336SOL    HW250938   0.375   3.268   1.970
13337SOL     OW50939   0.179   9.418   2.682
13337SOL    HW150940   0.151   9.507   2.646
13337SOL    HW250941   0.099   9.369   2.717
13338SOL     OW50942   9.222   4.324   4.565
13338SOL    HW150943   9.241   4.268   4.645
13338SOL    HW250944   9.170   4.405   4.593
13339SOL     OW50945   3.999   1.453   2.507
13339SOL    HW150946   4.037   1.412   2.590
13339SOL    HW250947   3.907   1.487   2.525
13340SOL     OW50948   2.849   0.025   2.971
13340SOL    HW150949   2.764   0.058   3.011
13340SOL    HW250950   2.868   0.075   2.886
13341SOL     OW50951   5.981   0.367   3.130
13341SOL    HW150952   5.934   0.360   3.042
13341SOL    HW250953   5.919   0.408   3.197
13342SOL     OW50954   3.688   7.825   1.737
13342SOL    HW150955   3.637   7.905   1.766
13342SOL    HW250956   3.747   7.848   1.660
13343SOL     OW50957   9.877   9.017   2.612
13343SOL    HW150958   9.788   8.972   2.627
13343SOL    HW250959   9.866   9.116   2.619
13344SOL     OW50960   1.275   1.435   3.759
13344SOL    HW150961   1.251   1.341   3.734
13344SOL    HW250962   1.266   1.446   3.858
13345SOL     OW50963   2.898   2.936   3.111
13345SOL    HW150964   2.893   2.983   3.023
13345SOL    HW250965   2.905   3.004   3.184
13346SOL     OW50966   9.188   9.278   1.533
13346SOL    HW150967   9.101   9.237   1.508
13346SOL    HW250968   9.183   9.377   1.521
13347SOL     OW50969   8.500   0.012   2.426
13347SOL    HW150970   8.488   9.925   2.474
13347SOL    HW250971   8.551   0.075   2.484
13348SOL     OW50972   0.607   4.384   0.953
13348SOL    HW150973   0.597   4.419   0.860
13348SOL    HW250974   0.561   4.445   1.017
13349SOL     OW50975   0.199   7.337   5.119
13349SOL    HW150976   0.220   7.291   5.033
13349SOL    HW250977   0.169   7.430   5.100
13350SOL     OW50978   8.523   9.875   2.986
13350SOL    HW150979   8.468   9.957   2.999
13350SOL    HW250980   8.482   9.799   3.036
13351SOL     OW50981   3.726   6.764   3.328
13351SOL    HW150982   3.735   6.686   3.266
13351SOL    HW250983   3.661   6.741   3.401
13352SOL     OW50984   2.910   2.278   0.178
13352SOL    HW150985   2.992   2.292   0.122
13352SOL    HW250986   2.847   2.216   0.132
13353SOL     OW50987   0.341   8.011   2.905
13353SOL    HW150988   0.426   8.024   2.957
13353SOL    HW250989   0.278   7.953   2.957
13354SOL     OW50990   3.458   8.566   0.141
13354SOL    HW150991   3.481   8.547   0.236
13354SOL    HW250992   3.446   8.665   0.128
13355SOL     OW50993   0.564   3.233   3.954
13355SOL    HW150994   0.582   3.176   3.873
13355SOL    HW250995   0.484   3.290   3.937
13356SOL     OW50996   0.138   1.765   0.542
13356SOL    HW150997   0.079   1.819   0.482
13356SOL    HW250998   0.094   1.677   0.561
13357SOL     OW50999   1.436   3.261   1.114
13357SOL    HW151000   1.411   3.194   1.184
13357SOL    HW251001   1.369   3.258   1.040
13358SOL     OW51002   8.462   7.500   4.422
13358SOL    HW151003   8.498   7.433   4.488
13358SOL    HW251004   8.447   7.587   4.469
13359SOL     OW51005   3.329   4.963   1.585
13359SOL    HW151006   3.346   4.874   1.542
13359SOL    HW251007   3.306   5.030   1.515
13360SOL     OW51008   2.687   2.157   2.348
13360SOL    HW151009   2.776   2.112   2.349
13360SOL    HW251010   2.681   2.218   2.269
13361SOL     OW51011   4.448   2.127   3.690
13361SOL    HW151012   4.370   2.100   3.632
13361SOL    HW251013   4.505   2.192   3.640
13362SOL     OW51014   8.614   0.376   0.947
13362SOL    HW151015   8.573   0.335   1.029
13362SOL    HW251016   8.637   0.471   0.966
13363SOL     OW51017   1.293   9.995   3.823
13363SOL    HW151018   1.269   9.920   3.761
13363SOL    HW251019   1.332   0.070   3.770
13364SOL     OW51020   4.183   2.617   2.282
13364SOL    HW151021   4.155   2.523   2.260
13364SOL    HW251022   4.184   2.672   2.199
13365SOL     OW51023   8.793   6.278   2.997
13365SOL    HW151024   8.795   6.183   2.966
13365SOL    HW251025   8.872   6.295   3.056
13366SOL     OW51026   1.462   0.563   0.290
13366SOL    HW151027   1.523   0.608   0.226
13366SOL    HW251028   1.437   0.473   0.255
13367SOL     OW51029   9.318   3.892   4.738
13367SOL    HW151030   9.221   3.910   4.719
13367SOL    HW251031   9.326   3.805   4.787
13368SOL     OW51032   7.811   1.569   3.871
13368SOL    HW151033   7.903   1.549   3.903
13368SOL    HW251034   7.788   1.511   3.793
13369SOL     OW51035   2.979   6.081   3.715
13369SOL    HW151036   3.043   6.068   3.791
13369SOL    HW251037   2.988   6.005   3.651
13370SOL     OW51038   4.543   2.903   3.083
13370SOL    HW151039   4.541   2.994   3.043
13370SOL    HW251040   4.627   2.892   3.137
13371SOL     OW51041   1.536   6.188   2.641
13371SOL    HW151042   1.490   6.234   2.717
13371SOL    HW251043   1.476   6.118   2.602
13372SOL     OW51044   9.617   7.521   3.910
13372SOL    HW151045   9.659   7.583   3.976
13372SOL    HW251046   9.635   7.427   3.937
13373SOL     OW51047   4.416   5.551   0.612
13373SOL    HW151048   4.437   5.533   0.516
13373SOL    HW251049   4.357   5.632   0.618
13374SOL     OW51050   1.072   4.325   4.337
13374SOL    HW151051   1.015   4.365   4.409
13374SOL    HW251052   1.112   4.397   4.282
13375SOL     OW51053   8.653   8.526   2.598
13375SOL    HW151054   8.716   8.511   2.674
13375SOL    HW251055   8.643   8.441   2.546
13376SOL     OW51056   8.456   5.798   2.020
13376SOL    HW151057   8.490   5.887   2.052
13376SOL    HW251058   8.364   5.809   1.984
13377SOL     OW51059   2.047   4.614   4.058
13377SOL    HW151060   2.048   4.597   4.156
13377SOL    HW251061   2.109   4.551   4.012
13378SOL     OW51062   7.301   1.350   4.209
13378SOL    HW151063   7.250   1.269   4.238
13378SOL    HW251064   7.239   1.413   4.162
13379SOL     OW51065   4.584   3.386   1.973
13379SOL    HW151066   4.681   3.372   1.957
13379SOL    HW251067   4.549   3.317   2.036
13380SOL     OW51068   8.079   4.127   0.151
13380SOL    HW151069   8.048   4.032   0.149
13380SOL    HW251070   8.128   4.147   0.066
13381SOL     OW51071   7.211   0.853   2.333
13381SOL    HW151072   7.240   0.769   2.377
13381SOL    HW251073   7.196   0.924   2.402
13382SOL     OW51074   1.219   5.669   5.156
13382SOL    HW151075   1.306   5.685   5.109
13382SOL    HW251076   1.144   5.685   5.091
13383SOL     OW51077   4.451   0.305   3.165
13383SOL    HW151078   4.357   0.302   3.129
13383SOL    HW251079   4.454   0.256   3.252
13384SOL     OW51080   7.280   9.811   3.120
13384SOL    HW151081   7.350   9.873   3.153
13384SOL    HW251082   7.204   9.863   3.081
13385SOL     OW51083   9.875   7.634   1.242
13385SOL    HW151084   9.841   7.647   1.335
13385SOL    HW251085   9.798   7.624   1.180
13386SOL     OW51086   8.230   5.931   0.505
13386SOL    HW151087   8.319   5.898   0.537
13386SOL    HW251088   8.240   5.969   0.413
13387SOL     OW51089   9.689   7.381   4.278
13387SOL    HW151090   9.607   7.439   4.276
13387SOL    HW251091   9.667   7.292   4.317
13388SOL     OW51092   7.123   1.656   1.226
13388SOL    HW151093   7.051   1.674   1.159
13388SOL    HW251094   7.109   1.565   1.266
13389SOL     OW51095   0.150   0.114   3.910
13389SOL    HW151096   0.142   0.207   3.947
13389SOL    HW251097   0.112   0.049   3.975
13390SOL     OW51098   8.421   6.031   5.052
13390SOL    HW151099   8.348   5.995   5.110
13390SOL    HW251100   8.509   6.015   5.096
13391SOL     OW51101   1.199   3.124   2.140
13391SOL    HW151102   1.150   3.182   2.075
13391SOL    HW251103   1.248   3.181   2.205
13392SOL     OW51104   9.223   4.205   2.249
13392SOL    HW151105   9.219   4.124   2.308
13392SOL    HW251106   9.214   4.177   2.153
13393SOL     OW51107   1.940   5.308   4.169
13393SOL    HW151108   1.853   5.261   4.154
13393SOL    HW251109   2.011   5.242   4.194
13394SOL     OW51110   7.500   3.998   2.280
13394SOL    HW151111   7.468   3.916   2.233
13394SOL    HW251112   7.554   3.971   2.360
13395SOL     OW51113   2.547   8.096   0.125
13395SOL    HW151114   2.482   8.167   0.153
13395SOL    HW251115   2.515   8.007   0.158
13396SOL     OW51116   1.479   0.179   1.305
13396SOL    HW151117   1.455   0.273   1.326
13396SOL    HW251118   1.561   0.177   1.247
13397SOL     OW51119   8.004   4.313   4.435
13397SOL    HW151120   7.961   4.222   4.444
13397SOL    HW251121   7.944   4.381   4.476
13398SOL     OW51122   8.250   8.230   3.274
13398SOL    HW151123   8.152   8.240   3.258
13398SOL    HW251124   8.298   8.224   3.187
13399SOL     OW51125   8.776   9.904   3.318
13399SOL    HW151126   8.780   9.805   3.305
13399SOL    HW251127   8.682   9.931   3.337
13400SOL     OW51128   0.449   4.413   2.795
13400SOL    HW151129   0.361   4.459   2.790
13400SOL    HW251130   0.482   4.415   2.889
13401SOL     OW51131   8.393   8.659   4.258
13401SOL    HW151132   8.343   8.602   4.323
13401SOL    HW251133   8.487   8.671   4.289
13402SOL     OW51134   1.686   1.153   3.905
13402SOL    HW151135   1.750   1.088   3.864
13402SOL    HW251136   1.663   1.122   3.998
13403SOL     OW51137   7.218   7.071   4.707
13403SOL    HW151138   7.299   7.094   4.653
13403SOL    HW251139   7.223   6.976   4.737
13404SOL     OW51140   2.260   3.685   3.223
13404SOL    HW151141   2.347   3.735   3.226
13404SOL    HW251142   2.241   3.658   3.129
13405SOL     OW51143   9.119   9.006   0.366
13405SOL    HW151144   9.131   9.075   0.438
13405SOL    HW251145   9.196   8.943   0.367
13406SOL     OW51146   2.014   3.891   0.029
13406SOL    HW151147   1.967   3.841   0.102
13406SOL    HW251148   2.067   3.827   6.722
13407SOL     OW51149   6.332   0.297   1.597
13407SOL    HW151150   6.414   0.257   1.638
13407SOL    HW251151   6.322   0.264   1.503
13408SOL     OW51152   6.636   7.935   4.593
13408SOL    HW151153   6.668   7.847   4.558
13408SOL    HW251154   6.554   7.921   4.649
13409SOL     OW51155   3.671   2.987   3.953
13409SOL    HW151156   3.684   2.893   3.985
13409SOL    HW251157   3.608   3.035   4.014
13410SOL     OW51158   9.922   4.003   5.039
13410SOL    HW151159   9.862   4.034   4.965
13410SOL    HW251160   9.900   3.908   5.063
13411SOL     OW51161   1.432   2.183   4.889
13411SOL    HW151162   1.492   2.186   4.809
13411SOL    HW251163   1.482   2.212   4.970
13412SOL     OW51164   4.910   1.134   2.783
13412SOL    HW151165   4.891   1.151   2.880
13412SOL    HW251166   4.918   1.036   2.768
13413SOL     OW51167   7.055   4.388   0.738
13413SOL    HW151168   7.081   4.295   0.713
13413SOL    HW251169   7.136   4.445   0.743
13414SOL     OW51170   4.919   7.208   2.893
13414SOL    HW151171   4.976   7.140   2.939
13414SOL    HW251172   4.831   7.167   2.868
13415SOL     OW51173   1.127   0.509   2.981
13415SOL    HW151174   1.219   0.472   2.991
13415SOL    HW251175   1.065   0.463   3.045
13416SOL     OW51176   3.031   7.382   5.202
13416SOL    HW151177   3.119   7.428   5.217
13416SOL    HW251178   3.017   7.367   5.105
13417SOL     OW51179   1.102   0.065   0.781
13417SOL    HW151180   1.096   9.975   0.823
13417SOL    HW251181   1.011   0.094   0.750
13418SOL     OW51182   9.571   8.626   4.514
13418SOL    HW151183   9.571   8.555   4.584
13418SOL    HW251184   9.663   8.666   4.506
13419SOL     OW51185   9.085   3.305   2.601
13419SOL    HW151186   9.052   3.267   2.687
13419SOL    HW251187   9.172   3.262   2.577
13420SOL     OW51188   0.497   5.954   1.886
13420SOL    HW151189   0.399   5.940   1.875
13420SOL    HW251190   0.544   5.923   1.803
13421SOL     OW51191   4.746   4.188   1.446
13421SOL    HW151192   4.690   4.212   1.525
13421SOL    HW251193   4.798   4.268   1.416
13422SOL     OW51194   7.288   9.339   4.345
13422SOL    HW151195   7.329   9.390   4.420
13422SOL    HW251196   7.195   9.311   4.371
13423SOL     OW51197   0.740   3.527   1.645
13423SOL    HW151198   0.736   3.565   1.738
13423SOL    HW251199   0.822   3.472   1.634
13424SOL     OW51200   1.693   0.207   1.130
13424SOL    HW151201   1.633   0.215   1.050
13424SOL    HW251202   1.746   0.291   1.141
13425SOL     OW51203   5.874   9.613   2.200
13425SOL    HW151204   5.900   9.521   2.169
13425SOL    HW251205   5.854   9.670   2.120
13426SOL     OW51206   4.631   4.032   1.850
13426SOL    HW151207   4.567   3.963   1.817
13426SOL    HW251208   4.725   4.002   1.830
13427SOL     OW51209   0.103   3.542   1.446
13427SOL    HW151210   0.103   3.573   1.541
13427SOL    HW251211   0.016   3.497   1.426
13428SOL     OW51212   6.493   1.495   1.552
13428SOL    HW151213   6.492   1.494   1.652
13428SOL    HW251214   6.457   1.408   1.518
13429SOL     OW51215   4.233   0.409   3.467
13429SOL    HW151216   4.166   0.403   3.394
13429SOL    HW251217   4.309   0.346   3.448
13430SOL     OW51218   8.693   4.160   0.677
13430SOL    HW151219   8.633   4.233   0.646
13430SOL    HW251220   8.769   4.200   0.729
13431SOL     OW51221   2.457   4.542   2.581
13431SOL    HW151222   2.376   4.533   2.522
13431SOL    HW251223   2.450   4.626   2.635
13432SOL     OW51224   7.138   1.533   4.068
13432SOL    HW151225   7.122   1.510   3.972
13432SOL    HW251226   7.134   1.632   4.080
13433SOL     OW51227   9.772   6.304   4.538
13433SOL    HW151228   9.827   6.306   4.454
13433SOL    HW251229   9.821   6.251   4.608
13434SOL     OW51230   5.210   4.045   0.731
13434SOL    HW151231   5.209   4.011   0.825
13434SOL    HW251232   5.142   4.117   0.721
13435SOL     OW51233   3.461   4.497   5.101
13435SOL    HW151234   3.560   4.510   5.102
13435SOL    HW251235   3.416   4.582   5.126
13436SOL     OW51236   0.821   9.321   4.259
13436SOL    HW151237   0.828   9.260   4.180
13436SOL    HW251238   0.815   9.416   4.228
13437SOL     OW51239   3.508   2.157   2.186
13437SOL    HW151240   3.553   2.149   2.276
13437SOL    HW251241   3.415   2.190   2.199
13438SOL     OW51242   7.170   7.169   4.959
13438SOL    HW151243   7.190   7.141   4.865
13438SOL    HW251244   7.172   7.089   5.018
13439SOL     OW51245   1.388   0.246   5.118
13439SOL    HW151246   1.335   0.161   5.128
13439SOL    HW251247   1.419   0.254   5.023
13440SOL     OW51248   8.463   0.904   4.752
13440SOL    HW151249   8.382   0.845   4.750
13440SOL    HW251250   8.544   0.848   4.768
13441SOL     OW51251   1.941   5.507   3.306
13441SOL    HW151252   1.923   5.604   3.286
13441SOL    HW251253   1.991   5.500   3.392
13442SOL     OW51254   7.632   2.337   4.095
13442SOL    HW151255   7.727   2.315   4.116
13442SOL    HW251256   7.604   2.288   4.012
13443SOL     OW51257   2.265   2.004   0.889
13443SOL    HW151258   2.194   1.979   0.955
13443SOL    HW251259   2.248   2.097   0.855
13444SOL     OW51260   1.042   4.074   3.015
13444SOL    HW151261   1.083   4.069   3.106
13444SOL    HW251262   1.090   4.012   2.952
13445SOL     OW51263   0.423   0.820   4.974
13445SOL    HW151264   0.395   0.868   4.890
13445SOL    HW251265   0.343   0.804   5.031
13446SOL     OW51266   5.993   1.042   4.600
13446SOL    HW151267   5.923   1.103   4.565
13446SOL    HW251268   6.076   1.094   4.619
13447SOL     OW51269   7.847   5.803   0.904
13447SOL    HW151270   7.846   5.890   0.855
13447SOL    HW251271   7.900   5.812   0.988
13448SOL     OW51272   6.723   1.395   5.297
13448SOL    HW151273   6.650   1.396   5.229
13448SOL    HW251274   6.744   1.489   5.325
13449SOL     OW51275   8.865   0.322   4.727
13449SOL    HW151276   8.918   0.360   4.803
13449SOL    HW251277   8.773   0.361   4.728
13450SOL     OW51278   8.633   7.693   2.054
13450SOL    HW151279   8.699   7.688   2.128
13450SOL    HW251280   8.546   7.653   2.083
13451SOL     OW51281   4.314   0.026   0.788
13451SOL    HW151282   4.268   9.969   0.720
13451SOL    HW251283   4.286   0.121   0.775
13452SOL     OW51284   8.495   3.348   0.419
13452SOL    HW151285   8.451   3.419   0.474
13452SOL    HW251286   8.462   3.258   0.449
13453SOL     OW51287   5.138   9.956   0.884
13453SOL    HW151288   5.162   9.880   0.944
13453SOL    HW251289   5.219   0.014   0.871
13454SOL     OW51290   5.572   8.642   5.046
13454SOL    HW151291   5.657   8.605   5.083
13454SOL    HW251292   5.553   8.599   4.958
13455SOL     OW51293   9.229   0.478   3.619
13455SOL    HW151294   9.167   0.465   3.542
13455SOL    HW251295   9.242   0.390   3.666
13456SOL     OW51296   8.611   1.595   5.291
13456SOL    HW151297   8.613   1.499   5.264
13456SOL    HW251298   8.618   1.654   5.210
13457SOL     OW51299   3.988   9.723   3.326
13457SOL    HW151300   4.043   9.720   3.242
13457SOL    HW251301   4.033   9.783   3.392
13458SOL     OW51302   1.560   4.363   2.190
13458SOL    HW151303   1.610   4.442   2.153
13458SOL    HW251304   1.577   4.355   2.288
13459SOL     OW51305   7.187   8.588   4.784
13459SOL    HW151306   7.119   8.580   4.711
13459SOL    HW251307   7.208   8.684   4.799
13460SOL     OW51308   1.267   1.315   0.254
13460SOL    HW151309   1.171   1.330   0.274
13460SOL    HW251310   1.304   1.393   0.205
13461SOL     OW51311   8.385   3.048   1.372
13461SOL    HW151312   8.457   3.009   1.430
13461SOL    HW251313   8.309   2.983   1.366
13462SOL     OW51314   2.730   7.030   0.207
13462SOL    HW151315   2.802   6.999   0.269
13462SOL    HW251316   2.644   6.984   0.229
13463SOL     OW51317   5.365   9.475   5.279
13463SOL    HW151318   5.421   9.506   5.202
13463SOL    HW251319   5.290   9.539   5.293
13464SOL     OW51320   5.698   9.435   3.370
13464SOL    HW151321   5.761   9.361   3.395
13464SOL    HW251322   5.709   9.457   3.273
13465SOL     OW51323   2.898   1.307   2.392
13465SOL    HW151324   2.845   1.381   2.351
13465SOL    HW251325   2.963   1.346   2.458
13466SOL     OW51326   1.640   4.496   2.773
13466SOL    HW151327   1.714   4.510   2.840
13466SOL    HW251328   1.648   4.563   2.700
13467SOL     OW51329   1.244   4.530   0.442
13467SOL    HW151330   1.178   4.475   0.391
13467SOL    HW251331   1.220   4.626   0.434
13468SOL     OW51332   8.914   2.513   4.099
13468SOL    HW151333   8.991   2.567   4.066
13468SOL    HW251334   8.856   2.571   4.157
13469SOL     OW51335   8.126   8.043   2.652
13469SOL    HW151336   8.149   8.056   2.749
13469SOL    HW251337   8.116   8.133   2.608
13470SOL     OW51338   7.198   2.939   3.882
13470SOL    HW151339   7.140   2.896   3.951
13470SOL    HW251340   7.241   2.868   3.826
13471SOL     OW51341   7.648   5.688   5.195
13471SOL    HW151342   7.671   5.605   5.143
13471SOL    HW251343   7.676   5.676   5.291
13472SOL     OW51344   8.982   5.012   3.331
13472SOL    HW151345   8.925   4.977   3.256
13472SOL    HW251346   9.066   4.959   3.337
13473SOL     OW51347   1.585   7.102   1.465
13473SOL    HW151348   1.603   7.196   1.436
13473SOL    HW251349   1.654   7.041   1.426
13474SOL     OW51350   7.639   3.312   3.838
13474SOL    HW151351   7.555   3.263   3.815
13474SOL    HW251352   7.623   3.371   3.917
13475SOL     OW51353   7.730   2.110   1.192
13475SOL    HW151354   7.685   2.196   1.168
13475SOL    HW251355   7.715   2.042   1.120
13476SOL     OW51356   8.809   8.431   2.817
13476SOL    HW151357   8.891   8.380   2.793
13476SOL    HW251358   8.731   8.369   2.825
13477SOL     OW51359   8.877   3.192   3.517
13477SOL    HW151360   8.840   3.106   3.553
13477SOL    HW251361   8.954   3.221   3.574
13478SOL     OW51362   6.345   1.473   0.438
13478SOL    HW151363   6.319   1.503   0.529
13478SOL    HW251364   6.445   1.472   0.430
13479SOL     OW51365   5.764   1.518   1.662
13479SOL    HW151366   5.731   1.464   1.739
13479SOL    HW251367   5.839   1.577   1.692
13480SOL     OW51368   9.333   9.306   0.386
13480SOL    HW151369   9.270   9.265   0.452
13480SOL    HW251370   9.363   9.237   0.321
13481SOL     OW51371   5.975   7.668   4.005
13481SOL    HW151372   6.075   7.672   4.008
13481SOL    HW251373   5.944   7.655   3.911
13482SOL     OW51374   1.637   3.670   4.378
13482SOL    HW151375   1.667   3.576   4.393
13482SOL    HW251376   1.715   3.731   4.388
13483SOL     OW51377   2.020   9.310   0.255
13483SOL    HW151378   2.010   9.210   0.254
13483SOL    HW251379   2.067   9.337   0.340
13484SOL     OW51380   9.348   3.554   4.524
13484SOL    HW151381   9.438   3.591   4.548
13484SOL    HW251382   9.350   3.521   4.430
13485SOL     OW51383   5.354   8.915   3.401
13485SOL    HW151384   5.370   8.857   3.481
13485SOL    HW251385   5.433   8.975   3.388
13486SOL     OW51386   0.991   0.931   1.679
13486SOL    HW151387   1.036   0.842   1.670
13486SOL    HW251388   0.895   0.923   1.651
13487SOL     OW51389   9.555   9.173   2.688
13487SOL    HW151390   9.635   9.230   2.670
13487SOL    HW251391   9.522   9.190   2.781
13488SOL     OW51392   2.684   6.728   4.740
13488SOL    HW151393   2.663   6.636   4.770
13488SOL    HW251394   2.775   6.730   4.698
13489SOL     OW51395   4.049   2.636   1.125
13489SOL    HW151396   4.015   2.604   1.037
13489SOL    HW251397   3.976   2.686   1.173
13490SOL     OW51398   9.647   1.772   1.449
13490SOL    HW151399   9.724   1.729   1.496
13490SOL    HW251400   9.675   1.800   1.357
13491SOL     OW51401   6.837   2.048   2.006
13491SOL    HW151402   6.825   1.957   1.967
13491SOL    HW251403   6.893   2.104   1.944
13492SOL     OW51404   4.537   0.715   4.252
13492SOL    HW151405   4.487   0.733   4.167
13492SOL    HW251406   4.628   0.681   4.231
13493SOL     OW51407   4.565   4.724   5.187
13493SOL    HW151408   4.621   4.758   5.111
13493SOL    HW251409   4.598   4.765   5.273
13494SOL     OW51410   2.982   8.779   0.796
13494SOL    HW151411   2.981   8.872   0.761
13494SOL    HW251412   3.076   8.743   0.793
13495SOL     OW51413   8.302   0.708   4.039
13495SOL    HW151414   8.400   0.702   4.062
13495SOL    HW251415   8.272   0.803   4.048
13496SOL     OW51416   7.837   6.144   3.133
13496SOL    HW151417   7.872   6.202   3.060
13496SOL    HW251418   7.737   6.149   3.135
13497SOL     OW51419   2.302   4.556   3.025
13497SOL    HW151420   2.233   4.615   3.067
13497SOL    HW251421   2.391   4.601   3.030
13498SOL     OW51422   3.054   6.358   1.138
13498SOL    HW151423   2.989   6.283   1.125
13498SOL    HW251424   3.108   6.370   1.055
13499SOL     OW51425   0.447   9.498   3.137
13499SOL    HW151426   0.528   9.450   3.172
13499SOL    HW251427   0.401   9.440   3.069
13500SOL     OW51428   8.096   7.840   2.295
13500SOL    HW151429   8.021   7.901   2.268
13500SOL    HW251430   8.060   7.747   2.304
13501SOL     OW51431   5.564   4.423   0.241
13501SOL    HW151432   5.603   4.331   0.248
13501SOL    HW251433   5.562   4.466   0.331
13502SOL     OW51434   5.467   9.567   5.036
13502SOL    HW151435   5.456   9.650   4.982
13502SOL    HW251436   5.408   9.495   4.999
13503SOL     OW51437   1.608   6.450   2.578
13503SOL    HW151438   1.707   6.463   2.580
13503SOL    HW251439   1.587   6.353   2.584
13504SOL     OW51440   4.704   7.948   5.204
13504SOL    HW151441   4.677   7.944   5.300
13504SOL    HW251442   4.749   7.863   5.178
13505SOL     OW51443   2.386   6.280   3.950
13505SOL    HW151444   2.381   6.180   3.955
13505SOL    HW251445   2.473   6.311   3.988
13506SOL     OW51446   9.136   6.167   5.115
13506SOL    HW151447   9.199   6.228   5.068
13506SOL    HW251448   9.058   6.147   5.056
13507SOL     OW51449   9.304   7.104   4.488
13507SOL    HW151450   9.334   7.177   4.549
13507SOL    HW251451   9.372   7.030   4.488
13508SOL     OW51452   7.384   9.659   1.875
13508SOL    HW151453   7.347   9.604   1.799
13508SOL    HW251454   7.312   9.719   1.910
13509SOL     OW51455   0.475   2.123   2.267
13509SOL    HW151456   0.476   2.218   2.238
13509SOL    HW251457   0.382   2.096   2.293
13510SOL     OW51458   7.442   8.126   4.361
13510SOL    HW151459   7.351   8.086   4.369
13510SOL    HW251460   7.446   8.212   4.411
13511SOL     OW51461   4.606   5.557   2.603
13511SOL    HW151462   4.547   5.558   2.523
13511SOL    HW251463   4.681   5.493   2.588
13512SOL     OW51464   3.928   7.967   3.148
13512SOL    HW151465   3.832   7.994   3.157
13512SOL    HW251466   3.963   7.937   3.237
13513SOL     OW51467   3.562   1.899   1.741
13513SOL    HW151468   3.634   1.829   1.740
13513SOL    HW251469   3.541   1.924   1.835
13514SOL     OW51470   7.120   1.840   1.421
13514SOL    HW151471   7.124   1.775   1.345
13514SOL    HW251472   7.110   1.791   1.507
13515SOL     OW51473   3.540   9.991   3.539
13515SOL    HW151474   3.558   0.088   3.532
13515SOL    HW251475   3.623   9.943   3.566
13516SOL     OW51476   1.385   6.426   0.217
13516SOL    HW151477   1.317   6.413   0.145
13516SOL    HW251478   1.345   6.406   0.306
13517SOL     OW51479   7.974   6.857   5.213
13517SOL    HW151480   8.023   6.842   5.127
13517SOL    HW251481   8.023   6.812   5.287
13518SOL     OW51482   2.955   5.311   3.315
13518SOL    HW151483   2.969   5.406   3.341
13518SOL    HW251484   2.888   5.307   3.241
13519SOL     OW51485   8.541   6.815   3.487
13519SOL    HW151486   8.569   6.833   3.581
13519SOL    HW251487   8.490   6.729   3.483
13520SOL     OW51488   0.673   3.387   0.408
13520SOL    HW151489   0.670   3.311   0.343
13520SOL    HW251490   0.753   3.378   0.467
13521SOL     OW51491   5.257   7.368   2.738
13521SOL    HW151492   5.269   7.465   2.719
13521SOL    HW251493   5.161   7.343   2.724
13522SOL     OW51494   0.463   8.080   5.044
13522SOL    HW151495   0.405   8.117   5.117
13522SOL    HW251496   0.424   7.995   5.010
13523SOL     OW51497   8.683   4.524   4.556
13523SOL    HW151498   8.635   4.603   4.594
13523SOL    HW251499   8.685   4.450   4.624
13524SOL     OW51500   9.586   2.478   3.975
13524SOL    HW151501   9.514   2.510   4.037
13524SOL    HW251502   9.668   2.454   4.028
13525SOL     OW51503   7.869   5.983   4.272
13525SOL    HW151504   7.851   5.994   4.174
13525SOL    HW251505   7.837   6.065   4.320
13526SOL     OW51506   5.179   2.309   4.625
13526SOL    HW151507   5.192   2.321   4.527
13526SOL    HW251508   5.196   2.395   4.672
13527SOL     OW51509   3.410   4.930   0.155
13527SOL    HW151510   3.447   4.975   0.236
13527SOL    HW251511   3.421   4.990   0.076
13528SOL     OW51512   8.410   6.440   2.100
13528SOL    HW151513   8.436   6.389   2.018
13528SOL    HW251514   8.387   6.376   2.173
13529SOL     OW51515   0.591   4.465   0.690
13529SOL    HW151516   0.580   4.378   0.641
13529SOL    HW251517   0.537   4.536   0.644
13530SOL     OW51518   6.091   8.560   3.672
13530SOL    HW151519   6.175   8.529   3.716
13530SOL    HW251520   6.081   8.659   3.685
13531SOL     OW51521   0.795   2.658   0.489
13531SOL    HW151522   0.848   2.743   0.499
13531SOL    HW251523   0.808   2.622   0.397
13532SOL     OW51524   0.400   6.784   1.054
13532SOL    HW151525   0.314   6.733   1.043
13532SOL    HW251526   0.432   6.775   1.148
13533SOL     OW51527   4.560   8.082   4.752
13533SOL    HW151528   4.499   8.003   4.754
13533SOL    HW251529   4.557   8.129   4.840
13534SOL     OW51530   2.777   4.844   2.482
13534SOL    HW151531   2.860   4.843   2.538
13534SOL    HW251532   2.771   4.930   2.432
13535SOL     OW51533   2.956   6.532   2.815
13535SOL    HW151534   3.008   6.470   2.757
13535SOL    HW251535   2.933   6.487   2.901
13536SOL     OW51536   5.353   2.004   1.276
13536SOL    HW151537   5.359   2.084   1.335
13536SOL    HW251538   5.284   2.019   1.205
13537SOL     OW51539   3.201   7.019   1.785
13537SOL    HW151540   3.155   7.076   1.717
13537SOL    HW251541   3.260   7.076   1.841
13538SOL     OW51542   9.918   6.938   3.446
13538SOL    HW151543   9.875   6.879   3.515
13538SOL    HW251544   9.847   6.975   3.386
13539SOL     OW51545   9.812   3.840   3.279
13539SOL    HW151546   9.737   3.779   3.306
13539SOL    HW251547   9.804   3.928   3.325
13540SOL     OW51548   9.312   8.166   4.096
13540SOL    HW151549   9.263   8.253   4.097
13540SOL    HW251550   9.250   8.093   4.125
13541SOL     OW51551   2.533   5.528   2.356
13541SOL    HW151552   2.493   5.492   2.440
13541SOL    HW251553   2.575   5.617   2.375
13542SOL     OW51554   4.624   2.580   1.970
13542SOL    HW151555   4.542   2.625   1.934
13542SOL    HW251556   4.689   2.564   1.896
13543SOL     OW51557   4.895   2.285   0.830
13543SOL    HW151558   4.908   2.290   0.731
13543SOL    HW251559   4.804   2.317   0.854
13544SOL     OW51560   3.616   6.485   3.600
13544SOL    HW151561   3.590   6.581   3.586
13544SOL    HW251562   3.541   6.437   3.647
13545SOL     OW51563   5.685   2.257   3.827
13545SOL    HW151564   5.756   2.324   3.850
13545SOL    HW251565   5.722   2.165   3.836
13546SOL     OW51566   5.084   0.668   3.133
13546SOL    HW151567   5.104   0.747   3.192
13546SOL    HW251568   4.988   0.670   3.106
13547SOL     OW51569   0.335   5.729   0.300
13547SOL    HW151570   0.334   5.803   0.368
13547SOL    HW251571   0.424   5.730   0.253
13548SOL     OW51572   9.210   6.516   3.141
13548SOL    HW151573   9.297   6.495   3.097
13548SOL    HW251574   9.186   6.611   3.124
13549SOL     OW51575   2.124   7.193   1.537
13549SOL    HW151576   2.053   7.193   1.467
13549SOL    HW251577   2.189   7.119   1.519
13550SOL     OW51578   7.919   5.070   1.573
13550SOL    HW151579   7.954   5.151   1.528
13550SOL    HW251580   7.866   5.097   1.654
13551SOL     OW51581   2.374   5.850   4.886
13551SOL    HW151582   2.377   5.800   4.973
13551SOL    HW251583   2.279   5.876   4.866
13552SOL     OW51584   3.938   3.609   1.402
13552SOL    HW151585   4.021   3.558   1.427
13552SOL    HW251586   3.885   3.556   1.336
13553SOL     OW51587   2.360   1.056   4.784
13553SOL    HW151588   2.456   1.044   4.756
13553SOL    HW251589   2.325   0.968   4.818
13554SOL     OW51590   3.570   0.412   0.959
13554SOL    HW151591   3.490   0.415   0.899
13554SOL    HW251592   3.545   0.368   1.045
13555SOL     OW51593   3.342   3.196   4.242
13555SOL    HW151594   3.406   3.216   4.169
13555SOL    HW251595   3.249   3.193   4.206
13556SOL     OW51596   4.531   0.232   1.601
13556SOL    HW151597   4.446   0.278   1.627
13556SOL    HW251598   4.592   0.226   1.680
13557SOL     OW51599   2.034   1.306   4.251
13557SOL    HW151600   2.031   1.396   4.207
13557SOL    HW251601   2.077   1.315   4.342
13558SOL     OW51602   3.007   0.366   3.476
13558SOL    HW151603   3.038   0.452   3.435
13558SOL    HW251604   3.029   0.367   3.574
13559SOL     OW51605   8.101   6.432   2.787
13559SOL    HW151606   8.170   6.364   2.761
13559SOL    HW251607   8.141   6.496   2.853
13560SOL     OW51608   4.946   1.621   2.549
13560SOL    HW151609   4.888   1.588   2.475
13560SOL    HW251610   4.892   1.632   2.632
13561SOL     OW51611   3.604   4.413   4.406
13561SOL    HW151612   3.553   4.483   4.457
13561SOL    HW251613   3.660   4.360   4.470
13562SOL     OW51614   9.370   6.679   0.461
13562SOL    HW151615   9.306   6.651   0.533
13562SOL    HW251616   9.318   6.715   0.383
13563SOL     OW51617   8.255   9.260   5.041
13563SOL    HW151618   8.299   9.337   4.995
13563SOL    HW251619   8.273   9.176   4.990
13564SOL     OW51620   0.618   8.518   2.092
13564SOL    HW151621   0.559   8.484   2.019
13564SOL    HW251622   0.682   8.585   2.056
13565SOL     OW51623   3.725   7.528   4.038
13565SOL    HW151624   3.719   7.626   4.021
13565SOL    HW251625   3.633   7.488   4.037
13566SOL     OW51626   4.115   6.094   2.715
13566SOL    HW151627   4.087   6.035   2.639
13566SOL    HW251628   4.042   6.098   2.783
13567SOL     OW51629   9.195   9.856   3.925
13567SOL    HW151630   9.105   9.899   3.927
13567SOL    HW251631   9.263   9.923   3.894
13568SOL     OW51632   8.411   5.546   4.988
13568SOL    HW151633   8.344   5.619   4.981
13568SOL    HW251634   8.405   5.503   5.078
13569SOL     OW51635   8.235   0.070   5.051
13569SOL    HW151636   8.221   9.998   5.119
13569SOL    HW251637   8.184   0.152   5.077
13570SOL     OW51638   3.712   5.614   4.380
13570SOL    HW151639   3.621   5.584   4.410
13570SOL    HW251640   3.733   5.573   4.291
13571SOL     OW51641   1.082   2.971   0.894
13571SOL    HW151642   1.180   2.972   0.879
13571SOL    HW251643   1.049   2.877   0.897
13572SOL     OW51644   8.026   9.637   1.654
13572SOL    HW151645   8.015   9.559   1.591
13572SOL    HW251646   7.937   9.682   1.666
13573SOL     OW51647   2.103   6.925   4.772
13573SOL    HW151648   2.176   6.893   4.832
13573SOL    HW251649   2.097   7.025   4.777
13574SOL     OW51650   9.909   5.808   0.082
13574SOL    HW151651   9.970   5.753   0.139
13574SOL    HW251652   9.938   5.802   6.735
13575SOL     OW51653   6.751   8.353   3.140
13575SOL    HW151654   6.806   8.288   3.194
13575SOL    HW251655   6.706   8.304   3.066
13576SOL     OW51656   1.015   1.701   1.253
13576SOL    HW151657   1.106   1.711   1.292
13576SOL    HW251658   0.977   1.791   1.231
13577SOL     OW51659   2.134   2.818   3.703
13577SOL    HW151660   2.055   2.870   3.736
13577SOL    HW251661   2.132   2.726   3.742
13578SOL     OW51662   9.273   7.238   0.106
13578SOL    HW151663   9.371   7.234   0.122
13578SOL    HW251664   9.242   7.333   0.113
13579SOL     OW51665   0.022   1.699   0.185
13579SOL    HW151666   9.968   1.614   0.187
13579SOL    HW251667   0.115   1.678   0.153
13580SOL     OW51668   8.715   0.827   2.121
13580SOL    HW151669   8.760   0.761   2.061
13580SOL    HW251670   8.644   0.876   2.070
13581SOL     OW51671   2.282   6.607   4.478
13581SOL    HW151672   2.244   6.525   4.436
13581SOL    HW251673   2.263   6.686   4.420
13582SOL     OW51674   1.901   1.271   4.618
13582SOL    HW151675   1.981   1.303   4.568
13582SOL    HW251676   1.911   1.174   4.639
13583SOL     OW51677   5.014   9.183   2.968
13583SOL    HW151678   5.045   9.101   2.920
13583SOL    HW251679   5.090   9.223   3.019
13584SOL     OW51680   7.876   3.102   4.598
13584SOL    HW151681   7.897   3.016   4.551
13584SOL    HW251682   7.815   3.084   4.675
13585SOL     OW51683   2.835   3.969   4.043
13585SOL    HW151684   2.762   3.984   4.110
13585SOL    HW251685   2.919   4.015   4.074
13586SOL     OW51686   3.509   6.901   1.628
13586SOL    HW151687   3.436   6.853   1.677
13586SOL    HW251688   3.552   6.968   1.690
13587SOL     OW51689   1.768   0.184   3.075
13587SOL    HW151690   1.798   0.151   2.985
13587SOL    HW251691   1.781   0.283   3.081
13588SOL     OW51692   0.879   2.991   5.174
13588SOL    HW151693   0.933   3.058   5.122
13588SOL    HW251694   0.918   2.900   5.162
13589SOL     OW51695   0.155   7.258   2.628
13589SOL    HW151696   0.175   7.342   2.678
13589SOL    HW251697   0.241   7.211   2.607
13590SOL     OW51698   3.145   1.778   4.795
13590SOL    HW151699   3.077   1.714   4.759
13590SOL    HW251700   3.107   1.870   4.796
13591SOL     OW51701   8.874   8.244   4.585
13591SOL    HW151702   8.785   8.237   4.630
13591SOL    HW251703   8.946   8.249   4.654
13592SOL     OW51704   5.340   8.906   4.994
13592SOL    HW151705   5.377   8.988   5.036
13592SOL    HW251706   5.311   8.842   5.065
13593SOL     OW51707   9.929   3.533   3.479
13593SOL    HW151708   9.937   3.572   3.387
13593SOL    HW251709   9.951   3.436   3.476
13594SOL     OW51710   1.693   5.435   2.776
13594SOL    HW151711   1.605   5.388   2.766
13594SOL    HW251712   1.677   5.533   2.785
13595SOL     OW51713   8.071   3.088   3.814
13595SOL    HW151714   8.056   3.114   3.719
13595SOL    HW251715   8.153   3.133   3.849
13596SOL     OW51716   2.895   5.306   0.163
13596SOL    HW151717   2.852   5.233   0.110
13596SOL    HW251718   2.830   5.381   0.174
13597SOL     OW51719   7.010   1.504   0.485
13597SOL    HW151720   7.023   1.466   0.576
13597SOL    HW251721   7.057   1.592   0.478
13598SOL     OW51722   9.394   9.406   4.924
13598SOL    HW151723   9.375   9.398   5.022
13598SOL    HW251724   9.364   9.323   4.878
13599SOL     OW51725   0.087   5.706   0.746
13599SOL    HW151726   0.005   5.656   0.719
13599SOL    HW251727   0.068   5.804   0.744
13600SOL     OW51728   5.874   9.262   5.067
13600SOL    HW151729   5.905   9.233   5.158
13600SOL    HW251730   5.819   9.345   5.076
13601SOL     OW51731   9.548   6.597   1.584
13601SOL    HW151732   9.641   6.619   1.611
13601SOL    HW251733   9.535   6.498   1.588
13602SOL     OW51734   1.553   9.348   4.907
13602SOL    HW151735   1.602   9.286   4.845
13602SOL    HW251736   1.569   9.321   5.002
13603SOL     OW51737   5.539   1.165   5.157
13603SOL    HW151738   5.486   1.249   5.167
13603SOL    HW251739   5.481   1.086   5.176
13604SOL     OW51740   5.990   0.610   3.377
13604SOL    HW151741   5.912   0.586   3.320
13604SOL    HW251742   6.041   0.685   3.335
13605SOL     OW51743   7.182   9.534   1.701
13605SOL    HW151744   7.096   9.486   1.719
13605SOL    HW251745   7.163   9.628   1.675
13606SOL     OW51746   4.056   8.286   0.647
13606SOL    HW151747   4.019   8.193   0.648
13606SOL    HW251748   4.025   8.333   0.565
13607SOL     OW51749   9.903   1.264   1.381
13607SOL    HW151750   9.822   1.275   1.325
13607SOL    HW251751   9.984   1.261   1.323
13608SOL     OW51752   9.155   4.377   1.970
13608SOL    HW151753   9.058   4.386   1.951
13608SOL    HW251754   9.178   4.280   1.981
13609SOL     OW51755   8.093   8.556   3.215
13609SOL    HW151756   8.031   8.529   3.288
13609SOL    HW251757   8.098   8.656   3.210
13610SOL     OW51758   6.038   0.118   1.237
13610SOL    HW151759   5.988   0.166   1.164
13610SOL    HW251760   5.973   0.066   1.292
13611SOL     OW51761   3.028   1.555   1.106
13611SOL    HW151762   2.982   1.609   1.035
13611SOL    HW251763   3.073   1.476   1.064
13612SOL     OW51764   1.634   2.039   0.740
13612SOL    HW151765   1.556   1.982   0.766
13612SOL    HW251766   1.710   1.981   0.710
13613SOL     OW51767   9.030   7.186   4.960
13613SOL    HW151768   9.126   7.161   4.969
13613SOL    HW251769   8.975   7.130   5.022
13614SOL     OW51770   7.987   0.850   2.477
13614SOL    HW151771   8.071   0.799   2.458
13614SOL    HW251772   7.957   0.896   2.394
13615SOL     OW51773   3.439   5.846   1.087
13615SOL    HW151774   3.461   5.870   1.182
13615SOL    HW251775   3.492   5.765   1.060
13616SOL     OW51776   9.980   7.487   1.897
13616SOL    HW151777   9.961   7.393   1.927
13616SOL    HW251778   0.072   7.491   1.857
13617SOL     OW51779   4.732   4.596   1.226
13617SOL    HW151780   4.762   4.646   1.145
13617SOL    HW251781   4.634   4.575   1.219
13618SOL     OW51782   9.976   4.894   0.433
13618SOL    HW151783   9.993   4.828   0.506
13618SOL    HW251784   9.982   4.987   0.470
13619SOL     OW51785   9.636   8.985   0.337
13619SOL    HW151786   9.559   9.030   0.292
13619SOL    HW251787   9.607   8.949   0.425
13620SOL     OW51788   5.834   2.058   3.600
13620SOL    HW151789   5.734   2.055   3.606
13620SOL    HW251790   5.863   2.015   3.515
13621SOL     OW51791   8.384   8.939   2.165
13621SOL    HW151792   8.396   8.850   2.121
13621SOL    HW251793   8.421   9.011   2.106
13622SOL     OW51794   2.278   3.477   1.894
13622SOL    HW151795   2.327   3.527   1.823
13622SOL    HW251796   2.240   3.393   1.856
13623SOL     OW51797   1.173   5.152   0.142
13623SOL    HW151798   1.150   5.207   0.222
13623SOL    HW251799   1.228   5.206   0.078
13624SOL     OW51800   0.770   2.892   4.565
13624SOL    HW151801   0.730   2.983   4.577
13624SOL    HW251802   0.735   2.830   4.635
13625SOL     OW51803   0.811   9.496   1.111
13625SOL    HW151804   0.771   9.570   1.165
13625SOL    HW251805   0.768   9.410   1.136
13626SOL     OW51806   0.522   7.799   1.471
13626SOL    HW151807   0.600   7.736   1.469
13626SOL    HW251808   0.486   7.804   1.564
13627SOL     OW51809   9.387   5.251   3.994
13627SOL    HW151810   9.415   5.326   3.933
13627SOL    HW251811   9.316   5.198   3.949
13628SOL     OW51812   9.021   1.210   4.664
13628SOL    HW151813   9.016   1.110   4.673
13628SOL    HW251814   9.086   1.233   4.591
13629SOL     OW51815   2.854   8.114   4.889
13629SOL    HW151816   2.922   8.071   4.831
13629SOL    HW251817   2.782   8.154   4.832
13630SOL     OW51818   1.609   1.402   1.499
13630SOL    HW151819   1.517   1.436   1.515
13630SOL    HW251820   1.658   1.465   1.439
13631SOL     OW51821   2.380   6.777   2.390
13631SOL    HW151822   2.403   6.873   2.370
13631SOL    HW251823   2.281   6.767   2.392
13632SOL     OW51824   3.386   4.200   0.042
13632SOL    HW151825   3.296   4.157   0.041
13632SOL    HW251826   3.381   4.290   6.747
13633SOL     OW51827   2.918   1.258   4.426
13633SOL    HW151828   2.895   1.168   4.464
13633SOL    HW251829   2.844   1.287   4.365
13634SOL     OW51830   4.096   7.093   2.260
13634SOL    HW151831   4.162   7.018   2.254
13634SOL    HW251832   4.027   7.082   2.189
13635SOL     OW51833   0.655   8.298   1.516
13635SOL    HW151834   0.579   8.236   1.535
13635SOL    HW251835   0.739   8.245   1.505
13636SOL     OW51836   9.261   6.645   2.672
13636SOL    HW151837   9.359   6.663   2.681
13636SOL    HW251838   9.240   6.555   2.709
13637SOL     OW51839   3.426   2.704   1.577
13637SOL    HW151840   3.465   2.646   1.649
13637SOL    HW251841   3.330   2.722   1.597
13638SOL     OW51842   7.932   0.945   2.104
13638SOL    HW151843   7.840   0.982   2.095
13638SOL    HW251844   7.975   0.941   2.014
13639SOL     OW51845   2.558   9.706   1.525
13639SOL    HW151846   2.584   9.801   1.509
13639SOL    HW251847   2.563   9.685   1.623
13640SOL     OW51848   0.722   6.726   2.401
13640SOL    HW151849   0.715   6.665   2.322
13640SOL    HW251850   0.802   6.699   2.456
13641SOL     OW51851   3.128   0.494   2.835
13641SOL    HW151852   3.186   0.560   2.787
13641SOL    HW251853   3.055   0.464   2.774
13642SOL     OW51854   0.816   2.130   0.039
13642SOL    HW151855   0.740   2.073   0.070
13642SOL    HW251856   0.847   2.098   6.698
13643SOL     OW51857   4.338   6.367   2.422
13643SOL    HW151858   4.377   6.456   2.399
13643SOL    HW251859   4.372   6.298   2.358
13644SOL     OW51860   8.281   6.768   4.576
13644SOL    HW151861   8.189   6.791   4.543
13644SOL    HW251862   8.347   6.831   4.537
13645SOL     OW51863   4.328   2.552   3.413
13645SOL    HW151864   4.412   2.594   3.446
13645SOL    HW251865   4.333   2.541   3.313
13646SOL     OW51866   2.068   8.206   0.925
13646SOL    HW151867   2.006   8.238   0.854
13646SOL    HW251868   2.026   8.129   0.974
13647SOL     OW51869   2.135   2.361   1.213
13647SOL    HW151870   2.073   2.389   1.139
13647SOL    HW251871   2.229   2.366   1.180
13648SOL     OW51872   9.493   9.345   1.194
13648SOL    HW151873   9.498   9.254   1.153
13648SOL    HW251874   9.469   9.412   1.124
13649SOL     OW51875   9.790   2.397   1.041
13649SOL    HW151876   9.788   2.468   1.111
13649SOL    HW251877   9.732   2.424   0.964
13650SOL     OW51878   2.584   2.624   2.390
13650SOL    HW151879   2.670   2.624   2.443
13650SOL    HW251880   2.605   2.618   2.293
13651SOL     OW51881   4.815   7.711   5.131
13651SOL    HW151882   4.908   7.702   5.168
13651SOL    HW251883   4.813   7.676   5.037
13652SOL     OW51884   6.993   7.782   3.115
13652SOL    HW151885   6.916   7.737   3.159
13652SOL    HW251886   7.015   7.736   3.029
13653SOL     OW51887   9.678   8.565   1.440
13653SOL    HW151888   9.751   8.511   1.397
13653SOL    HW251889   9.686   8.660   1.412
13654SOL     OW51890   1.554   6.236   2.144
13654SOL    HW151891   1.638   6.223   2.198
13654SOL    HW251892   1.578   6.270   2.053
13655SOL     OW51893   0.829   5.239   3.398
13655SOL    HW151894   0.885   5.252   3.316
13655SOL    HW251895   0.771   5.319   3.411
13656SOL     OW51896   7.454   7.754   3.230
13656SOL    HW151897   7.459   7.660   3.264
13656SOL    HW251898   7.531   7.770   3.168
13657SOL     OW51899   2.143   7.024   2.325
13657SOL    HW151900   2.242   7.031   2.306
13657SOL    HW251901   2.119   6.929   2.341
13658SOL     OW51902   6.199   1.674   4.447
13658SOL    HW151903   6.114   1.650   4.399
13658SOL    HW251904   6.198   1.771   4.471
13659SOL     OW51905   6.407   7.900   4.747
13659SOL    HW151906   6.408   7.934   4.841
13659SOL    HW251907   6.359   7.812   4.743
13660SOL     OW51908   1.735   4.687   0.264
13660SOL    HW151909   1.796   4.758   0.228
13660SOL    HW251910   1.727   4.613   0.197
13661SOL     OW51911   1.433   7.911   3.451
13661SOL    HW151912   1.419   7.837   3.517
13661SOL    HW251913   1.531   7.917   3.429
13662SOL     OW51914   0.580   8.942   5.013
13662SOL    HW151915   0.612   8.847   5.021
13662SOL    HW251916   0.638   8.991   4.947
13663SOL     OW51917   3.320   6.920   3.512
13663SOL    HW151918   3.251   6.899   3.442
13663SOL    HW251919   3.352   7.014   3.499
13664SOL     OW51920   2.846   6.092   1.430
13664SOL    HW151921   2.891   6.047   1.352
13664SOL    HW251922   2.751   6.062   1.436
13665SOL     OW51923   3.551   2.335   5.049
13665SOL    HW151924   3.618   2.268   5.017
13665SOL    HW251925   3.471   2.333   4.988
13666SOL     OW51926   4.469   4.511   1.191
13666SOL    HW151927   4.487   4.414   1.180
13666SOL    HW251928   4.373   4.530   1.173
13667SOL     OW51929   2.696   3.408   5.195
13667SOL    HW151930   2.796   3.408   5.194
13667SOL    HW251931   2.661   3.498   5.169
13668SOL     OW51932   8.383   2.659   1.296
13668SOL    HW151933   8.309   2.725   1.311
13668SOL    HW251934   8.387   2.635   1.199
13669SOL     OW51935   4.796   9.948   0.586
13669SOL    HW151936   4.848   9.883   0.642
13669SOL    HW251937   4.716   9.978   0.637
13670SOL     OW51938   2.766   7.275   2.586
13670SOL    HW151939   2.784   7.184   2.622
13670SOL    HW251940   2.789   7.344   2.655
13671SOL     OW51941   9.285   8.172   6.730
13671SOL    HW151942   9.309   8.265   0.010
13671SOL    HW251943   9.201   8.174   6.677
13672SOL     OW51944   2.807   4.706   0.841
13672SOL    HW151945   2.882   4.764   0.809
13672SOL    HW251946   2.732   4.709   0.775
13673SOL     OW51947   9.700   1.724   3.030
13673SOL    HW151948   9.782   1.781   3.022
13673SOL    HW251949   9.668   1.700   2.939
13674SOL     OW51950   7.757   2.150   2.496
13674SOL    HW151951   7.857   2.144   2.487
13674SOL    HW251952   7.723   2.230   2.449
13675SOL     OW51953   4.692   2.213   1.303
13675SOL    HW151954   4.632   2.173   1.371
13675SOL    HW251955   4.670   2.176   1.212
13676SOL     OW51956   2.334   9.987   1.588
13676SOL    HW151957   2.343   9.954   1.495
13676SOL    HW251958   2.238   0.009   1.607
13677SOL     OW51959   7.585   0.050   3.632
13677SOL    HW151960   7.665   0.102   3.662
13677SOL    HW251961   7.513   0.113   3.604
13678SOL     OW51962   4.868   9.345   0.451
13678SOL    HW151963   4.860   9.305   0.359
13678SOL    HW251964   4.936   9.295   0.503
13679SOL     OW51965   9.703   7.901   1.315
13679SOL    HW151966   9.786   7.921   1.262
13679SOL    HW251967   9.722   7.826   1.378
13680SOL     OW51968   8.345   0.968   6.745
13680SOL    HW151969   8.434   0.944   0.036
13680SOL    HW251970   8.353   1.055   6.696
13681SOL     OW51971   8.578   7.069   0.298
13681SOL    HW151972   8.559   7.148   0.240
13681SOL    HW251973   8.498   7.008   0.300
13682SOL     OW51974   9.535   0.604   3.405
13682SOL    HW151975   9.511   0.613   3.502
13682SOL    HW251976   9.495   0.681   3.354
13683SOL     OW51977   5.634   1.284   2.631
13683SOL    HW151978   5.578   1.203   2.647
13683SOL    HW251979   5.727   1.255   2.608
13684SOL     OW51980   4.359   5.047   3.181
13684SOL    HW151981   4.386   5.142   3.167
13684SOL    HW251982   4.312   5.014   3.099
13685SOL     OW51983   4.108   6.000   0.672
13685SOL    HW151984   4.057   5.994   0.586
13685SOL    HW251985   4.061   5.945   0.742
13686SOL     OW51986   4.057   9.514   3.762
13686SOL    HW151987   4.018   9.511   3.670
13686SOL    HW251988   4.143   9.565   3.759
13687SOL     OW51989   3.696   9.438   1.917
13687SOL    HW151990   3.749   9.477   1.841
13687SOL    HW251991   3.758   9.389   1.978
13688SOL     OW51992   8.721   6.922   0.982
13688SOL    HW151993   8.695   7.018   0.985
13688SOL    HW251994   8.782   6.901   1.058
13689SOL     OW51995   0.679   1.608   4.603
13689SOL    HW151996   0.762   1.629   4.552
13689SOL    HW251997   0.633   1.692   4.629
13690SOL     OW51998   3.239   7.691   3.090
13690SOL    HW151999   3.294   7.619   3.047
13690SOL    HW252000   3.170   7.723   3.025
13691SOL     OW52001   9.433   1.104   3.965
13691SOL    HW152002   9.482   1.020   3.989
13691SOL    HW252003   9.401   1.149   4.049
13692SOL     OW52004   1.598   5.455   4.251
13692SOL    HW152005   1.683   5.481   4.298
13692SOL    HW252006   1.618   5.430   4.157
13693SOL     OW52007   4.640   1.478   1.521
13693SOL    HW152008   4.635   1.471   1.621
13693SOL    HW252009   4.656   1.574   1.496
13694SOL     OW52010   2.226   3.764   1.563
13694SOL    HW152011   2.285   3.842   1.580
13694SOL    HW252012   2.133   3.796   1.541
13695SOL     OW52013   3.199   5.904   1.797
13695SOL    HW152014   3.151   5.937   1.716
13695SOL    HW252015   3.210   5.979   1.862
13696SOL     OW52016   7.890   7.639   5.114
13696SOL    HW152017   7.915   7.546   5.140
13696SOL    HW252018   7.814   7.670   5.171
13697SOL     OW52019   0.903   2.719   1.596
13697SOL    HW152020   0.854   2.684   1.516
13697SOL    HW252021   0.862   2.805   1.626
13698SOL     OW52022   1.476   2.269   0.633
13698SOL    HW152023   1.523   2.199   0.687
13698SOL    HW252024   1.475   2.242   0.537
13699SOL     OW52025   8.771   6.133   1.829
13699SOL    HW152026   8.858   6.133   1.779
13699SOL    HW252027   8.697   6.154   1.766
13700SOL     OW52028   4.803   9.978   3.618
13700SOL    HW152029   4.774   9.884   3.599
13700SOL    HW252030   4.732   0.024   3.671
13701SOL     OW52031   2.608   3.903   5.205
13701SOL    HW152032   2.561   3.991   5.195
13701SOL    HW252033   2.707   3.919   5.211
13702SOL     OW52034   0.080   9.081   0.243
13702SOL    HW152035   0.045   9.172   0.220
13702SOL    HW252036   0.008   9.014   0.228
13703SOL     OW52037   0.258   5.053   0.428
13703SOL    HW152038   0.220   4.988   0.362
13703SOL    HW252039   0.351   5.077   0.401
13704SOL     OW52040   7.094   1.771   3.249
13704SOL    HW152041   7.028   1.755   3.322
13704SOL    HW252042   7.057   1.737   3.163
13705SOL     OW52043   9.630   9.099   1.952
13705SOL    HW152044   9.723   9.084   1.987
13705SOL    HW252045   9.614   9.039   1.874
13706SOL     OW52046   7.786   3.198   5.179
13706SOL    HW152047   7.854   3.125   5.180
13706SOL    HW252048   7.826   3.280   5.140
13707SOL     OW52049   8.717   5.141   4.801
13707SOL    HW152050   8.662   5.096   4.731
13707SOL    HW252051   8.764   5.220   4.761
13708SOL     OW52052   4.572   0.490   0.799
13708SOL    HW152053   4.576   0.451   0.707
13708SOL    HW252054   4.509   0.568   0.800
13709SOL     OW52055   4.003   4.622   1.514
13709SOL    HW152056   4.002   4.710   1.466
13709SOL    HW252057   3.910   4.586   1.519
13710SOL     OW52058   9.074   5.828   3.186
13710SOL    HW152059   9.144   5.843   3.116
13710SOL    HW252060   9.029   5.915   3.207
13711SOL     OW52061   1.456   3.969   4.974
13711SOL    HW152062   1.405   3.916   4.907
13711SOL    HW252063   1.428   4.065   4.969
13712SOL     OW52064   8.749   5.783   0.061
13712SOL    HW152065   8.651   5.787   0.042
13712SOL    HW252066   8.763   5.775   0.160
13713SOL     OW52067   9.415   3.209   1.208
13713SOL    HW152068   9.441   3.298   1.169
13713SOL    HW252069   9.437   3.207   1.305
13714SOL     OW52070   2.859   1.986   4.536
13714SOL    HW152071   2.781   2.017   4.481
13714SOL    HW252072   2.828   1.968   4.630
13715SOL     OW52073   0.592   1.730   3.873
13715SOL    HW152074   0.633   1.748   3.784
13715SOL    HW252075   0.495   1.755   3.870
13716SOL     OW52076   9.857   5.504   3.341
13716SOL    HW152077   9.798   5.476   3.417
13716SOL    HW252078   9.821   5.465   3.256
13717SOL     OW52079   1.787   6.573   0.176
13717SOL    HW152080   1.712   6.639   0.165
13717SOL    HW252081   1.751   6.488   0.215
13718SOL     OW52082   3.696   8.366   1.360
13718SOL    HW152083   3.741   8.344   1.274
13718SOL    HW252084   3.626   8.435   1.345
13719SOL     OW52085   2.617   4.507   3.248
13719SOL    HW152086   2.570   4.440   3.305
13719SOL    HW252087   2.714   4.484   3.242
13720SOL     OW52088   2.466   2.151   2.000
13720SOL    HW152089   2.486   2.122   1.906
13720SOL    HW252090   2.368   2.142   2.018
13721SOL     OW52091   8.953   3.181   3.251
13721SOL    HW152092   8.992   3.269   3.226
13721SOL    HW252093   8.930   3.182   3.349
13722SOL     OW52094   1.403   3.543   5.115
13722SOL    HW152095   1.398   3.625   5.174
13722SOL    HW252096   1.395   3.461   5.172
13723SOL     OW52097   1.973   8.528   3.302
13723SOL    HW152098   1.893   8.580   3.330
13723SOL    HW252099   2.017   8.572   3.223
13724SOL     OW52100   2.165   3.155   2.819
13724SOL    HW152101   2.237   3.221   2.840
13724SOL    HW252102   2.140   3.105   2.902
13725SOL     OW52103   2.118   3.763   3.468
13725SOL    HW152104   2.021   3.741   3.474
13725SOL    HW252105   2.158   3.717   3.389
13726SOL     OW52106   2.639   5.982   2.239
13726SOL    HW152107   2.703   6.037   2.292
13726SOL    HW252108   2.666   5.983   2.143
13727SOL     OW52109   5.203   0.752   4.199
13727SOL    HW152110   5.188   0.741   4.298
13727SOL    HW252111   5.297   0.726   4.177
13728SOL     OW52112   7.629   9.107   3.508
13728SOL    HW152113   7.573   9.069   3.434
13728SOL    HW252114   7.590   9.080   3.596
13729SOL     OW52115   8.705   0.904   3.039
13729SOL    HW152116   8.778   0.940   3.098
13729SOL    HW252117   8.662   0.980   2.990
13730SOL     OW52118   2.263   0.862   0.985
13730SOL    HW152119   2.247   0.854   1.083
13730SOL    HW252120   2.331   0.933   0.967
13731SOL     OW52121   0.617   7.473   4.473
13731SOL    HW152122   0.632   7.530   4.391
13731SOL    HW252123   0.657   7.519   4.552
13732SOL     OW52124   2.731   9.276   4.119
13732SOL    HW152125   2.793   9.346   4.155
13732SOL    HW252126   2.675   9.239   4.194
13733SOL     OW52127   1.350   4.682   3.241
13733SOL    HW152128   1.384   4.592   3.215
13733SOL    HW252129   1.365   4.697   3.339
13734SOL     OW52130   8.931   6.062   3.217
13734SOL    HW152131   8.971   6.153   3.208
13734SOL    HW252132   8.879   6.040   3.134
13735SOL     OW52133   1.965   7.659   4.319
13735SOL    HW152134   1.930   7.662   4.413
13735SOL    HW252135   1.920   7.728   4.264
13736SOL     OW52136   2.602   9.080   0.761
13736SOL    HW152137   2.517   9.031   0.779
13736SOL    HW252138   2.643   9.109   0.847
13737SOL     OW52139   4.832   0.182   4.333
13737SOL    HW152140   4.812   0.129   4.251
13737SOL    HW252141   4.870   0.123   4.404
13738SOL     OW52142   6.923   3.757   0.767
13738SOL    HW152143   6.907   3.699   0.847
13738SOL    HW252144   6.936   3.852   0.796
13739SOL     OW52145   0.846   4.563   0.717
13739SOL    HW152146   0.755   4.520   0.718
13739SOL    HW252147   0.891   4.548   0.805
13740SOL     OW52148   1.882   6.988   0.170
13740SOL    HW152149   1.890   6.934   0.085
13740SOL    HW252150   1.805   6.954   0.224
13741SOL     OW52151   0.417   9.976   2.210
13741SOL    HW152152   0.404   9.881   2.179
13741SOL    HW252153   0.425   0.036   2.131
13742SOL     OW52154   8.921   7.665   4.845
13742SOL    HW152155   8.879   7.586   4.799
13742SOL    HW252156   9.016   7.674   4.817
13743SOL     OW52157   5.722   1.149   4.963
13743SOL    HW152158   5.657   1.154   5.039
13743SOL    HW252159   5.751   1.241   4.938
13744SOL     OW52160   7.570   3.131   0.978
13744SOL    HW152161   7.478   3.096   0.957
13744SOL    HW252162   7.564   3.197   1.052
13745SOL     OW52163   2.845   3.662   3.929
13745SOL    HW152164   2.816   3.706   4.015
13745SOL    HW252165   2.928   3.707   3.896
13746SOL     OW52166   9.437   5.872   4.117
13746SOL    HW152167   9.492   5.934   4.172
13746SOL    HW252168   9.490   5.789   4.098
13747SOL     OW52169   1.043   9.970   5.280
13747SOL    HW152170   1.001   9.886   5.246
13747SOL    HW252171   1.045   9.968   5.380
13748SOL     OW52172   8.399   0.762   3.621
13748SOL    HW152173   8.490   0.794   3.596
13748SOL    HW252174   8.374   0.684   3.564
13749SOL     OW52175   8.595   9.741   0.873
13749SOL    HW152176   8.646   9.674   0.819
13749SOL    HW252177   8.499   9.712   0.880
13750SOL     OW52178   9.568   9.101   3.190
13750SOL    HW152179   9.518   9.099   3.277
13750SOL    HW252180   9.571   9.009   3.152
13751SOL     OW52181   6.596   0.818   0.867
13751SOL    HW152182   6.622   0.912   0.842
13751SOL    HW252183   6.663   0.780   0.930
13752SOL     OW52184   3.624   3.268   2.213
13752SOL    HW152185   3.646   3.338   2.145
13752SOL    HW252186   3.704   3.252   2.271
13753SOL     OW52187   2.377   7.142   4.884
13753SOL    HW152188   2.462   7.125   4.834
13753SOL    HW252189   2.343   7.055   4.922
13754SOL     OW52190   7.748   0.146   2.769
13754SOL    HW152191   7.813   0.135   2.845
13754SOL    HW252192   7.735   0.244   2.751
13755SOL     OW52193   9.214   1.636   0.107
13755SOL    HW152194   9.309   1.612   0.128
13755SOL    HW252195   9.195   1.616   0.011
13756SOL     OW52196   3.401   1.402   3.978
13756SOL    HW152197   3.442   1.483   3.935
13756SOL    HW252198   3.461   1.324   3.966
13757SOL     OW52199   1.434   8.622   0.410
13757SOL    HW152200   1.381   8.704   0.434
13757SOL    HW252201   1.416   8.551   0.478
13758SOL     OW52202   8.855   4.097   5.138
13758SOL    HW152203   8.773   4.153   5.145
13758SOL    HW252204   8.851   4.023   5.206
13759SOL     OW52205   8.493   0.121   4.986
13759SOL    HW152206   8.531   0.037   4.947
13759SOL    HW252207   8.401   0.103   5.022
13760SOL     OW52208   2.741   4.691   2.244
13760SOL    HW152209   2.759   4.727   2.336
13760SOL    HW252210   2.826   4.656   2.205
13761SOL     OW52211   1.089   2.901   0.166
13761SOL    HW152212   1.186   2.886   0.149
13761SOL    HW252213   1.053   2.826   0.222
13762SOL     OW52214   1.458   6.826   3.024
13762SOL    HW152215   1.512   6.764   3.080
13762SOL    HW252216   1.476   6.920   3.050
13763SOL     OW52217   1.687   0.983   0.633
13763SOL    HW152218   1.607   0.999   0.692
13763SOL    HW252219   1.734   1.069   0.616
13764SOL     OW52220   2.429   9.939   2.844
13764SOL    HW152221   2.490   9.995   2.787
13764SOL    HW252222   2.386   9.869   2.787
13765SOL     OW52223   2.926   2.019   2.354
13765SOL    HW152224   2.957   1.944   2.413
13765SOL    HW252225   2.908   1.983   2.262
13766SOL     OW52226   4.572   5.192   2.169
13766SOL    HW152227   4.574   5.168   2.266
13766SOL    HW252228   4.651   5.250   2.148
13767SOL     OW52229   4.016   5.139   2.940
13767SOL    HW152230   3.975   5.146   3.030
13767SOL    HW252231   4.079   5.216   2.926
13768SOL     OW52232   6.868   1.272   2.219
13768SOL    HW152233   6.850   1.361   2.261
13768SOL    HW252234   6.875   1.202   2.290
13769SOL     OW52235   0.254   2.452   4.357
13769SOL    HW152236   0.261   2.499   4.445
13769SOL    HW252237   0.220   2.517   4.288
13770SOL     OW52238   8.612   4.970   3.458
13770SOL    HW152239   8.695   4.953   3.512
13770SOL    HW252240   8.603   4.898   3.389
13771SOL     OW52241   3.150   3.439   4.963
13771SOL    HW152242   3.161   3.538   4.970
13771SOL    HW252243   3.216   3.393   5.023
13772SOL     OW52244   1.968   7.593   3.512
13772SOL    HW152245   2.040   7.527   3.531
13772SOL    HW252246   1.951   7.596   3.413
13773SOL     OW52247   4.003   6.957   4.866
13773SOL    HW152248   3.934   6.909   4.919
13773SOL    HW252249   4.020   7.047   4.905
13774SOL     OW52250   9.412   3.563   2.494
13774SOL    HW152251   9.316   3.580   2.515
13774SOL    HW252252   9.420   3.502   2.416
13775SOL     OW52253   3.438   0.931   3.863
13775SOL    HW152254   3.463   0.856   3.923
13775SOL    HW252255   3.338   0.934   3.853
13776SOL     OW52256   2.754   6.455   0.211
13776SOL    HW152257   2.732   6.417   0.301
13776SOL    HW252258   2.853   6.467   0.203
13777SOL     OW52259   8.503   7.994   3.086
13777SOL    HW152260   8.416   7.958   3.119
13777SOL    HW252261   8.500   8.094   3.085
13778SOL     OW52262   9.163   9.806   3.497
13778SOL    HW152263   9.088   9.869   3.518
13778SOL    HW252264   9.213   9.840   3.417
13779SOL     OW52265   3.994   5.437   5.015
13779SOL    HW152266   4.070   5.376   5.039
13779SOL    HW252267   3.947   5.403   4.934
13780SOL     OW52268   8.772   1.029   4.257
13780SOL    HW152269   8.790   1.125   4.278
13780SOL    HW252270   8.695   0.997   4.311
13781SOL     OW52271   9.979   2.225   2.993
13781SOL    HW152272   0.073   2.249   3.020
13781SOL    HW252273   9.933   2.180   3.069
13782SOL     OW52274   2.831   1.316   0.884
13782SOL    HW152275   2.756   1.354   0.829
13782SOL    HW252276   2.916   1.364   0.862
13783SOL     OW52277   8.538   4.384   2.945
13783SOL    HW152278   8.489   4.451   2.890
13783SOL    HW252279   8.472   4.328   2.996
13784SOL     OW52280   1.135   0.284   2.167
13784SOL    HW152281   1.104   0.211   2.228
13784SOL    HW252282   1.080   0.284   2.084
13785SOL     OW52283   6.135   1.202   2.064
13785SOL    HW152284   6.157   1.258   2.143
13785SOL    HW252285   6.093   1.259   1.993
13786SOL     OW52286   0.503   8.810   4.674
13786SOL    HW152287   0.530   8.759   4.592
13786SOL    HW252288   0.499   8.747   4.752
13787SOL     OW52289   4.423   6.681   3.297
13787SOL    HW152290   4.459   6.621   3.367
13787SOL    HW252291   4.323   6.685   3.304
13788SOL     OW52292   1.989   4.098   5.006
13788SOL    HW152293   2.073   4.049   4.984
13788SOL    HW252294   1.931   4.041   5.065
13789SOL     OW52295   0.604   5.707   0.223
13789SOL    HW152296   0.614   5.608   0.233
13789SOL    HW252297   0.688   5.753   0.252
13790SOL     OW52298   4.661   3.044   4.772
13790SOL    HW152299   4.679   3.142   4.781
13790SOL    HW252300   4.746   2.994   4.791
13791SOL     OW52301   6.969   9.300   3.509
13791SOL    HW152302   6.944   9.205   3.529
13791SOL    HW252303   7.069   9.307   3.501
13792SOL     OW52304   4.388   5.621   3.372
13792SOL    HW152305   4.460   5.570   3.325
13792SOL    HW252306   4.397   5.608   3.471
13793SOL     OW52307   4.839   1.042   5.097
13793SOL    HW152308   4.925   1.060   5.048
13793SOL    HW252309   4.834   0.946   5.122
13794SOL     OW52310   6.039   7.460   2.962
13794SOL    HW152311   6.012   7.550   2.997
13794SOL    HW252312   5.957   7.407   2.938
13795SOL     OW52313   5.420   0.553   1.942
13795SOL    HW152314   5.445   0.513   1.854
13795SOL    HW252315   5.328   0.591   1.936
13796SOL     OW52316   0.791   6.890   3.721
13796SOL    HW152317   0.805   6.807   3.775
13796SOL    HW252318   0.694   6.916   3.725
13797SOL     OW52319   1.286   9.321   0.395
13797SOL    HW152320   1.263   9.415   0.369
13797SOL    HW252321   1.243   9.298   0.482
13798SOL     OW52322   2.062   0.923   2.153
13798SOL    HW152323   2.044   0.999   2.216
13798SOL    HW252324   1.977   0.897   2.107
13799SOL     OW52325   4.847   1.875   4.714
13799SOL    HW152326   4.923   1.929   4.678
13799SOL    HW252327   4.814   1.917   4.799
13800SOL     OW52328   0.068   8.654   3.690
13800SOL    HW152329   0.054   8.611   3.601
13800SOL    HW252330   9.980   8.689   3.724
13801SOL     OW52331   2.947   2.607   0.420
13801SOL    HW152332   2.897   2.693   0.431
13801SOL    HW252333   2.915   2.542   0.490
13802SOL     OW52334   2.236   8.294   4.835
13802SOL    HW152335   2.234   8.346   4.920
13802SOL    HW252336   2.305   8.221   4.842
13803SOL     OW52337   5.972   1.820   3.009
13803SOL    HW152338   6.043   1.780   3.066
13803SOL    HW252339   5.910   1.748   2.977
13804SOL     OW52340   2.084   3.899   0.516
13804SOL    HW152341   1.998   3.918   0.470
13804SOL    HW252342   2.111   3.978   0.571
13805SOL     OW52343   9.497   1.271   1.870
13805SOL    HW152344   9.542   1.273   1.959
13805SOL    HW252345   9.567   1.267   1.798
13806SOL     OW52346   1.485   4.437   3.244
13806SOL    HW152347   1.463   4.340   3.250
13806SOL    HW252348   1.567   4.457   3.298
13807SOL     OW52349   3.503   0.123   4.896
13807SOL    HW152350   3.493   0.036   4.847
13807SOL    HW252351   3.433   0.129   4.967
13808SOL     OW52352   2.511   8.203   2.776
13808SOL    HW152353   2.427   8.222   2.725
13808SOL    HW252354   2.491   8.147   2.855
13809SOL     OW52355   5.420   7.190   2.615
13809SOL    HW152356   5.354   7.244   2.668
13809SOL    HW252357   5.457   7.246   2.541
13810SOL     OW52358   2.110   8.434   2.736
13810SOL    HW152359   2.024   8.384   2.722
13810SOL    HW252360   2.185   8.385   2.692
13811SOL     OW52361   2.063   0.562   1.197
13811SOL    HW152362   2.124   0.548   1.275
13811SOL    HW252363   2.117   0.568   1.113
13812SOL     OW52364   9.303   1.231   4.168
13812SOL    HW152365   9.286   1.161   4.237
13812SOL    HW252366   9.217   1.276   4.144
13813SOL     OW52367   0.291   6.833   4.095
13813SOL    HW152368   0.357   6.791   4.157
13813SOL    HW252369   0.326   6.922   4.065
13814SOL     OW52370   9.251   3.741   0.497
13814SOL    HW152371   9.332   3.771   0.547
13814SOL    HW252372   9.178   3.718   0.562
13815SOL     OW52373   3.241   9.752   3.879
13815SOL    HW152374   3.301   9.786   3.807
13815SOL    HW252375   3.151   9.795   3.871
13816SOL     OW52376   2.406   2.166   2.375
13816SOL    HW152377   2.394   2.256   2.417
13816SOL    HW252378   2.503   2.148   2.361
13817SOL     OW52379   4.883   6.909   3.235
13817SOL    HW152380   4.919   6.823   3.270
13817SOL    HW252381   4.783   6.910   3.242
13818SOL     OW52382   0.798   4.250   4.824
13818SOL    HW152383   0.778   4.256   4.726
13818SOL    HW252384   0.733   4.188   4.867
13819SOL     OW52385   2.289   1.206   1.140
13819SOL    HW152386   2.340   1.151   1.074
13819SOL    HW252387   2.322   1.300   1.138
13820SOL     OW52388   6.255   7.978   2.543
13820SOL    HW152389   6.226   7.883   2.553
13820SOL    HW252390   6.313   8.003   2.621
13821SOL     OW52391   0.662   5.100   1.480
13821SOL    HW152392   0.744   5.128   1.530
13821SOL    HW252393   0.657   5.150   1.394
13822SOL     OW52394   9.615   0.054   1.893
13822SOL    HW152395   9.582   0.111   1.818
13822SOL    HW252396   9.702   0.090   1.925
13823SOL     OW52397   0.739   9.633   2.424
13823SOL    HW152398   0.697   9.689   2.496
13823SOL    HW252399   0.805   9.688   2.373
13824SOL     OW52400   8.875   3.402   5.027
13824SOL    HW152401   8.907   3.382   4.935
13824SOL    HW252402   8.845   3.497   5.033
13825SOL     OW52403   9.514   4.602   1.346
13825SOL    HW152404   9.586   4.571   1.408
13825SOL    HW252405   9.549   4.604   1.252
13826SOL     OW52406   2.113   1.290   2.857
13826SOL    HW152407   2.057   1.297   2.940
13826SOL    HW252408   2.195   1.345   2.868
13827SOL     OW52409   8.297   7.260   4.705
13827SOL    HW152410   8.266   7.222   4.618
13827SOL    HW252411   8.218   7.290   4.759
13828SOL     OW52412   1.042   5.559   1.389
13828SOL    HW152413   1.120   5.522   1.339
13828SOL    HW252414   0.977   5.600   1.325
13829SOL     OW52415   1.680   1.909   3.298
13829SOL    HW152416   1.739   1.880   3.373
13829SOL    HW252417   1.593   1.859   3.302
13830SOL     OW52418   4.223   1.192   2.965
13830SOL    HW152419   4.237   1.217   2.869
13830SOL    HW252420   4.186   1.270   3.015
13831SOL     OW52421   2.119   4.836   3.507
13831SOL    HW152422   2.063   4.883   3.575
13831SOL    HW252423   2.113   4.737   3.520
13832SOL     OW52424   4.231   0.295   4.727
13832SOL    HW152425   4.220   0.372   4.663
13832SOL    HW252426   4.219   0.209   4.677
13833SOL     OW52427   7.597   9.850   1.538
13833SOL    HW152428   7.529   9.905   1.588
13833SOL    HW252429   7.647   9.909   1.474
13834SOL     OW52430   3.763   4.598   2.779
13834SOL    HW152431   3.790   4.575   2.873
13834SOL    HW252432   3.842   4.634   2.730
13835SOL     OW52433   0.127   6.152   4.020
13835SOL    HW152434   0.067   6.166   3.941
13835SOL    HW252435   0.138   6.238   4.069
13836SOL     OW52436   9.933   1.356   4.555
13836SOL    HW152437   9.880   1.392   4.632
13836SOL    HW252438   9.924   1.257   4.552
13837SOL     OW52439   5.090   8.827   0.927
13837SOL    HW152440   5.053   8.913   0.962
13837SOL    HW252441   5.127   8.842   0.836
13838SOL     OW52442   9.781   6.028   1.953
13838SOL    HW152443   9.760   6.023   2.050
13838SOL    HW252444   9.807   6.122   1.929
13839SOL     OW52445   1.369   2.907   2.127
13839SOL    HW152446   1.303   2.982   2.122
13839SOL    HW252447   1.387   2.873   2.034
13840SOL     OW52448   3.654   2.938   5.015
13840SOL    HW152449   3.643   2.884   5.099
13840SOL    HW252450   3.661   2.877   4.937
13841SOL     OW52451   0.953   9.928   2.575
13841SOL    HW152452   0.956   0.016   2.527
13841SOL    HW252453   0.902   9.938   2.660
13842SOL     OW52454   3.165   0.219   4.066
13842SOL    HW152455   3.115   0.137   4.092
13842SOL    HW252456   3.235   0.196   3.998
13843SOL     OW52457   8.951   0.193   0.443
13843SOL    HW152458   8.961   0.252   0.523
13843SOL    HW252459   9.015   0.222   0.372
13844SOL     OW52460   5.604   1.920   1.618
13844SOL    HW152461   5.643   1.933   1.708
13844SOL    HW252462   5.660   1.855   1.566
13845SOL     OW52463   3.360   4.696   4.086
13845SOL    HW152464   3.449   4.687   4.040
13845SOL    HW252465   3.295   4.633   4.045
13846SOL     OW52466   8.809   2.479   0.403
13846SOL    HW152467   8.885   2.417   0.382
13846SOL    HW252468   8.844   2.571   0.417
13847SOL     OW52469   0.484   1.622   2.107
13847SOL    HW152470   0.389   1.656   2.107
13847SOL    HW252471   0.499   1.567   2.189
13848SOL     OW52472   8.556   7.182   1.625
13848SOL    HW152473   8.458   7.197   1.634
13848SOL    HW252474   8.592   7.144   1.710
13849SOL     OW52475   9.324   4.920   3.744
13849SOL    HW152476   9.315   4.827   3.708
13849SOL    HW252477   9.334   4.916   3.843
13850SOL     OW52478   8.983   6.535   3.850
13850SOL    HW152479   9.003   6.615   3.906
13850SOL    HW252480   9.003   6.451   3.901
13851SOL     OW52481   9.206   8.340   3.307
13851SOL    HW152482   9.164   8.264   3.356
13851SOL    HW252483   9.221   8.416   3.369
13852SOL     OW52484   6.950   1.695   5.028
13852SOL    HW152485   6.859   1.661   5.009
13852SOL    HW252486   7.018   1.634   4.987
13853SOL     OW52487   9.961   5.628   1.406
13853SOL    HW152488   9.887   5.696   1.402
13853SOL    HW252489   9.937   5.555   1.469
13854SOL     OW52490   1.363   4.465   2.789
13854SOL    HW152491   1.463   4.478   2.790
13854SOL    HW252492   1.343   4.367   2.781
13855SOL     OW52493   0.873   5.609   3.585
13855SOL    HW152494   0.917   5.554   3.655
13855SOL    HW252495   0.815   5.551   3.528
13856SOL     OW52496   0.080   4.231   2.424
13856SOL    HW152497   0.158   4.281   2.387
13856SOL    HW252498   0.112   4.162   2.489
13857SOL     OW52499   5.330   1.804   2.418
13857SOL    HW152500   5.313   1.724   2.360
13857SOL    HW252501   5.245   1.832   2.463
13858SOL     OW52502   4.630   2.781   2.170
13858SOL    HW152503   4.559   2.758   2.237
13858SOL    HW252504   4.638   2.707   2.104
13859SOL     OW52505   2.490   2.475   3.571
13859SOL    HW152506   2.526   2.503   3.660
13859SOL    HW252507   2.563   2.480   3.503
13860SOL     OW52508   9.015   9.187   0.175
13860SOL    HW152509   8.971   9.130   0.106
13860SOL    HW252510   9.069   9.129   0.236
13861SOL     OW52511   9.102   4.039   1.727
13861SOL    HW152512   9.010   4.020   1.761
13861SOL    HW252513   9.097   4.064   1.630
13862SOL     OW52514   8.060   1.179   1.444
13862SOL    HW152515   8.128   1.107   1.428
13862SOL    HW252516   8.051   1.235   1.362
13863SOL     OW52517   3.436   0.089   0.426
13863SOL    HW152518   3.529   0.098   0.391
13863SOL    HW252519   3.372   0.133   0.362
13864SOL     OW52520   2.476   5.891   1.644
13864SOL    HW152521   2.500   5.799   1.612
13864SOL    HW252522   2.474   5.892   1.744
13865SOL     OW52523   0.107   2.155   3.664
13865SOL    HW152524   0.041   2.154   3.739
13865SOL    HW252525   0.171   2.231   3.677
13866SOL     OW52526   2.414   8.167   1.298
13866SOL    HW152527   2.359   8.244   1.331
13866SOL    HW252528   2.473   8.134   1.372
13867SOL     OW52529   9.105   4.092   1.456
13867SOL    HW152530   9.115   4.033   1.376
13867SOL    HW252531   9.094   4.187   1.427
13868SOL     OW52532   0.940   3.299   2.595
13868SOL    HW152533   0.860   3.352   2.623
13868SOL    HW252534   1.013   3.360   2.565
13869SOL     OW52535   9.536   4.162   5.212
13869SOL    HW152536   9.601   4.228   5.249
13869SOL    HW252537   9.561   4.070   5.241
13870SOL     OW52538   2.858   7.284   4.255
13870SOL    HW152539   2.844   7.186   4.265
13870SOL    HW252540   2.780   7.324   4.207
13871SOL     OW52541   3.060   7.000   1.172
13871SOL    HW152542   3.024   7.078   1.120
13871SOL    HW252543   3.087   7.030   1.263
13872SOL     OW52544   9.026   0.541   0.179
13872SOL    HW152545   8.971   0.588   0.248
13872SOL    HW252546   9.051   0.450   0.212
13873SOL     OW52547   8.079   1.198   4.830
13873SOL    HW152548   8.152   1.242   4.778
13873SOL    HW252549   8.118   1.123   4.884
13874SOL     OW52550   9.028   4.014   4.226
13874SOL    HW152551   8.935   4.000   4.192
13874SOL    HW252552   9.038   4.109   4.256
13875SOL     OW52553   5.302   5.452   1.444
13875SOL    HW152554   5.392   5.423   1.411
13875SOL    HW252555   5.313   5.525   1.511
13876SOL     OW52556   0.005   5.321   0.728
13876SOL    HW152557   0.057   5.331   0.813
13876SOL    HW252558   9.949   5.403   0.713
13877SOL     OW52559   1.580   9.511   5.248
13877SOL    HW152560   1.591   9.508   5.347
13877SOL    HW252561   1.585   9.419   5.211
13878SOL     OW52562   6.406   0.039   4.036
13878SOL    HW152563   6.478   9.973   4.058
13878SOL    HW252564   6.404   0.055   3.937
13879SOL     OW52565   7.128   9.791   1.640
13879SOL    HW152566   7.148   9.869   1.700
13879SOL    HW252567   7.074   9.823   1.562
13880SOL     OW52568   5.301   5.000   1.415
13880SOL    HW152569   5.233   4.929   1.400
13880SOL    HW252570   5.334   5.034   1.327
13881SOL     OW52571   2.350   9.327   5.153
13881SOL    HW152572   2.348   9.267   5.073
13881SOL    HW252573   2.390   9.278   5.230
13882SOL     OW52574   9.902   7.392   5.148
13882SOL    HW152575   9.922   7.338   5.067
13882SOL    HW252576   9.965   7.366   5.222
13883SOL     OW52577   9.113   7.700   4.155
13883SOL    HW152578   9.211   7.698   4.137
13883SOL    HW252579   9.063   7.666   4.075
13884SOL     OW52580   8.515   5.541   2.113
13884SOL    HW152581   8.494   5.633   2.079
13884SOL    HW252582   8.483   5.473   2.047
13885SOL     OW52583   8.402   6.267   3.846
13885SOL    HW152584   8.327   6.245   3.908
13885SOL    HW252585   8.438   6.357   3.868
13886SOL     OW52586   1.506   8.024   2.827
13886SOL    HW152587   1.482   7.956   2.758
13886SOL    HW252588   1.422   8.057   2.871
13887SOL     OW52589   0.678   9.399   3.254
13887SOL    HW152590   0.741   9.417   3.179
13887SOL    HW252591   0.696   9.465   3.328
13888SOL     OW52592   8.598   7.445   3.814
13888SOL    HW152593   8.597   7.351   3.780
13888SOL    HW252594   8.546   7.503   3.751
13889SOL     OW52595   8.740   0.727   2.834
13889SOL    HW152596   8.728   0.784   2.915
13889SOL    HW252597   8.800   0.774   2.769
13890SOL     OW52598   8.432   1.175   2.682
13890SOL    HW152599   8.422   1.141   2.588
13890SOL    HW252600   8.350   1.152   2.735
13891SOL     OW52601   3.897   6.091   2.903
13891SOL    HW152602   3.808   6.061   2.936
13891SOL    HW252603   3.907   6.189   2.921
13892SOL     OW52604   4.880   9.196   4.471
13892SOL    HW152605   4.822   9.190   4.389
13892SOL    HW252606   4.854   9.277   4.523
13893SOL     OW52607   0.734   8.727   1.700
13893SOL    HW152608   0.646   8.768   1.676
13893SOL    HW252609   0.723   8.629   1.717
13894SOL     OW52610   5.960   1.647   4.308
13894SOL    HW152611   6.006   1.665   4.221
13894SOL    HW252612   5.912   1.560   4.304
13895SOL     OW52613   3.298   1.762   3.954
13895SOL    HW152614   3.210   1.718   3.934
13895SOL    HW252615   3.372   1.706   3.918
13896SOL     OW52616   9.044   6.221   3.635
13896SOL    HW152617   9.037   6.316   3.605
13896SOL    HW252618   8.953   6.183   3.648
13897SOL     OW52619   1.098   4.849   0.762
13897SOL    HW152620   1.139   4.763   0.734
13897SOL    HW252621   0.999   4.845   0.747
13898SOL     OW52622   0.145   2.811   2.371
13898SOL    HW152623   0.168   2.768   2.284
13898SOL    HW252624   0.052   2.787   2.396
13899SOL     OW52625   2.571   0.757   4.270
13899SOL    HW152626   2.564   0.783   4.173
13899SOL    HW252627   2.546   0.661   4.280
13900SOL     OW52628   8.577   3.924   1.541
13900SOL    HW152629   8.586   3.876   1.629
13900SOL    HW252630   8.660   3.975   1.523
13901SOL     OW52631   0.537   3.095   2.382
13901SOL    HW152632   0.596   3.100   2.301
13901SOL    HW252633   0.441   3.096   2.353
13902SOL     OW52634   3.401   6.722   0.161
13902SOL    HW152635   3.359   6.741   0.250
13902SOL    HW252636   3.331   6.729   0.089
13903SOL     OW52637   0.405   2.786   4.697
13903SOL    HW152638   0.404   2.853   4.623
13903SOL    HW252639   0.500   2.760   4.717
13904SOL     OW52640   1.240   9.164   0.170
13904SOL    HW152641   1.302   9.208   0.106
13904SOL    HW252642   1.248   9.208   0.260
13905SOL     OW52643   8.726   0.469   0.482
13905SOL    HW152644   8.706   0.393   0.420
13905SOL    HW252645   8.657   0.472   0.554
13906SOL     OW52646   4.584   1.032   1.800
13906SOL    HW152647   4.493   1.074   1.803
13906SOL    HW252648   4.583   0.955   1.736
13907SOL     OW52649   1.335   5.623   1.485
13907SOL    HW152650   1.259   5.656   1.540
13907SOL    HW252651   1.351   5.687   1.409
13908SOL     OW52652   1.778   8.896   1.178
13908SOL    HW152653   1.737   8.806   1.166
13908SOL    HW252654   1.874   8.886   1.202
13909SOL     OW52655   2.324   0.939   1.609
13909SOL    HW152656   2.282   1.001   1.542
13909SOL    HW252657   2.253   0.880   1.648
13910SOL     OW52658   3.542   8.537   0.394
13910SOL    HW152659   3.553   8.632   0.423
13910SOL    HW252660   3.597   8.478   0.452
13911SOL     OW52661   9.010   1.443   1.494
13911SOL    HW152662   9.058   1.364   1.458
13911SOL    HW252663   8.912   1.435   1.472
13912SOL     OW52664   2.282   7.288   3.339
13912SOL    HW152665   2.324   7.203   3.370
13912SOL    HW252666   2.354   7.352   3.311
13913SOL     OW52667   8.323   5.615   1.770
13913SOL    HW152668   8.412   5.652   1.746
13913SOL    HW252669   8.321   5.517   1.750
13914SOL     OW52670   3.514   0.594   4.677
13914SOL    HW152671   3.539   0.599   4.580
13914SOL    HW252672   3.540   0.505   4.713
13915SOL     OW52673   4.806   7.757   3.045
13915SOL    HW152674   4.730   7.748   3.109
13915SOL    HW252675   4.826   7.668   3.004
13916SOL     OW52676   3.798   2.127   3.592
13916SOL    HW152677   3.878   2.111   3.648
13916SOL    HW252678   3.746   2.041   3.583
13917SOL     OW52679   7.765   3.238   0.820
13917SOL    HW152680   7.692   3.195   0.874
13917SOL    HW252681   7.782   3.330   0.856
13918SOL     OW52682   1.199   6.295   1.445
13918SOL    HW152683   1.245   6.378   1.477
13918SOL    HW252684   1.101   6.312   1.436
13919SOL     OW52685   8.269   4.762   1.737
13919SOL    HW152686   8.324   4.787   1.657
13919SOL    HW252687   8.180   4.729   1.708
13920SOL     OW52688   0.081   5.771   1.203
13920SOL    HW152689   0.045   5.865   1.203
13920SOL    HW252690   0.038   5.719   1.276
13921SOL     OW52691   0.163   2.662   4.191
13921SOL    HW152692   0.170   2.741   4.251
13921SOL    HW252693   0.068   2.646   4.165
13922SOL     OW52694   6.917   1.988   3.030
13922SOL    HW152695   7.010   2.020   3.052
13922SOL    HW252696   6.870   2.058   2.977
13923SOL     OW52697   8.370   4.193   5.240
13923SOL    HW152698   8.323   4.106   5.226
13923SOL    HW252699   8.312   4.268   5.207
13924SOL     OW52700   6.258   7.925   4.226
13924SOL    HW152701   6.208   7.882   4.301
13924SOL    HW252702   6.255   8.024   4.237
13925SOL     OW52703   9.241   0.583   2.054
13925SOL    HW152704   9.236   0.590   1.955
13925SOL    HW252705   9.177   0.513   2.086
13926SOL     OW52706   3.609   2.219   3.270
13926SOL    HW152707   3.594   2.289   3.200
13926SOL    HW252708   3.703   2.226   3.303
13927SOL     OW52709   0.046   4.260   0.546
13927SOL    HW152710   0.103   4.199   0.491
13927SOL    HW252711   0.021   4.341   0.492
13928SOL     OW52712   9.455   9.565   4.467
13928SOL    HW152713   9.368   9.528   4.434
13928SOL    HW252714   9.483   9.642   4.409
13929SOL     OW52715   4.439   2.712   2.359
13929SOL    HW152716   4.417   2.767   2.439
13929SOL    HW252717   4.358   2.660   2.331
13930SOL     OW52718   6.025   1.384   4.724
13930SOL    HW152719   5.963   1.402   4.648
13930SOL    HW252720   6.091   1.314   4.697
13931SOL     OW52721   3.944   5.453   0.123
13931SOL    HW152722   3.855   5.489   0.153
13931SOL    HW252723   3.998   5.528   0.085
13932SOL     OW52724   6.781   0.285   2.261
13932SOL    HW152725   6.856   0.219   2.256
13932SOL    HW252726   6.730   0.269   2.346
13933SOL     OW52727   1.275   7.240   0.804
13933SOL    HW152728   1.282   7.264   0.901
13933SOL    HW252729   1.362   7.203   0.773
13934SOL     OW52730   0.661   7.891   2.312
13934SOL    HW152731   0.608   7.976   2.316
13934SOL    HW252732   0.601   7.816   2.286
13935SOL     OW52733   3.522   0.731   4.040
13935SOL    HW152734   3.533   0.637   4.073
13935SOL    HW252735   3.511   0.793   4.118
13936SOL     OW52736   4.372   2.247   3.925
13936SOL    HW152737   4.344   2.175   3.989
13936SOL    HW252738   4.394   2.207   3.837
13937SOL     OW52739   2.123   0.901   5.118
13937SOL    HW152740   2.165   0.961   5.187
13937SOL    HW252741   2.099   0.814   5.161
13938SOL     OW52742   7.639   9.062   2.497
13938SOL    HW152743   7.684   9.151   2.488
13938SOL    HW252744   7.643   9.015   2.409
13939SOL     OW52745   0.127   0.498   1.728
13939SOL    HW152746   0.190   0.549   1.786
13939SOL    HW252747   0.039   0.489   1.775
13940SOL     OW52748   8.291   5.367   3.471
13940SOL    HW152749   8.261   5.405   3.559
13940SOL    HW252750   8.352   5.289   3.488
13941SOL     OW52751   3.775   2.509   2.300
13941SOL    HW152752   3.717   2.466   2.232
13941SOL    HW252753   3.822   2.438   2.354
13942SOL     OW52754   3.101   3.329   2.754
13942SOL    HW152755   3.047   3.268   2.696
13942SOL    HW252756   3.192   3.291   2.766
13943SOL     OW52757   3.890   3.016   1.176
13943SOL    HW152758   3.975   3.028   1.226
13943SOL    HW252759   3.905   3.036   1.079
13944SOL     OW52760   4.472   9.867   3.870
13944SOL    HW152761   4.426   9.856   3.958
13944SOL    HW252762   4.554   9.810   3.867
13945SOL     OW52763   2.187   0.836   2.854
13945SOL    HW152764   2.279   0.819   2.887
13945SOL    HW252765   2.185   0.919   2.798
13946SOL     OW52766   5.267   7.882   4.014
13946SOL    HW152767   5.283   7.836   4.101
13946SOL    HW252768   5.260   7.981   4.030
13947SOL     OW52769   2.097   5.215   1.382
13947SOL    HW152770   2.021   5.279   1.392
13947SOL    HW252771   2.148   5.211   1.468
13948SOL     OW52772   5.629   7.461   5.046
13948SOL    HW152773   5.658   7.440   4.953
13948SOL    HW252774   5.530   7.444   5.055
13949SOL     OW52775   2.588   5.946   3.504
13949SOL    HW152776   2.647   5.994   3.438
13949SOL    HW252777   2.505   5.916   3.458
13950SOL     OW52778   7.010   0.713   0.404
13950SOL    HW152779   6.992   0.810   0.386
13950SOL    HW252780   7.035   0.667   0.319
13951SOL     OW52781   4.356   8.652   5.204
13951SOL    HW152782   4.261   8.684   5.211
13951SOL    HW252783   4.417   8.719   5.246
13952SOL     OW52784   6.111   1.382   3.446
13952SOL    HW152785   6.202   1.342   3.453
13952SOL    HW252786   6.111   1.473   3.487
13953SOL     OW52787   9.894   2.377   0.153
13953SOL    HW152788   9.930   2.287   0.174
13953SOL    HW252789   9.805   2.368   0.108
13954SOL     OW52790   5.675   8.918   1.773
13954SOL    HW152791   5.767   8.883   1.791
13954SOL    HW252792   5.658   8.917   1.674
13955SOL     OW52793   4.002   7.249   2.472
13955SOL    HW152794   3.925   7.198   2.512
13955SOL    HW252795   4.042   7.195   2.398
13956SOL     OW52796   1.898   4.029   3.544
13956SOL    HW152797   1.865   3.942   3.510
13956SOL    HW252798   1.992   4.045   3.512
13957SOL     OW52799   4.191   0.862   1.498
13957SOL    HW152800   4.169   0.957   1.475
13957SOL    HW252801   4.252   0.824   1.429
13958SOL     OW52802   8.428   2.575   2.867
13958SOL    HW152803   8.362   2.544   2.935
13958SOL    HW252804   8.514   2.524   2.878
13959SOL     OW52805   5.394   9.605   3.943
13959SOL    HW152806   5.357   9.585   3.853
13959SOL    HW252807   5.449   9.688   3.939
13960SOL     OW52808   8.258   4.215   3.905
13960SOL    HW152809   8.326   4.212   3.978
13960SOL    HW252810   8.278   4.292   3.844
13961SOL     OW52811   2.664   2.868   4.148
13961SOL    HW152812   2.715   2.952   4.169
13961SOL    HW252813   2.656   2.858   4.049
13962SOL     OW52814   4.142   9.269   3.847
13962SOL    HW152815   4.118   9.360   3.814
13962SOL    HW252816   4.059   9.218   3.869
13963SOL     OW52817   2.777   0.785   4.934
13963SOL    HW152818   2.770   0.822   5.026
13963SOL    HW252819   2.810   0.856   4.872
13964SOL     OW52820   7.913   8.965   1.637
13964SOL    HW152821   7.971   9.024   1.580
13964SOL    HW252822   7.944   8.971   1.732
13965SOL     OW52823   3.965   7.940   4.062
13965SOL    HW152824   4.019   7.866   4.101
13965SOL    HW252825   4.025   8.001   4.010
13966SOL     OW52826   9.604   9.491   2.796
13966SOL    HW152827   9.691   9.522   2.759
13966SOL    HW252828   9.614   9.475   2.894
13967SOL     OW52829   0.027   6.774   1.841
13967SOL    HW152830   9.940   6.818   1.861
13967SOL    HW252831   0.060   6.726   1.922
13968SOL     OW52832   5.757   9.066   2.789
13968SOL    HW152833   5.832   9.096   2.730
13968SOL    HW252834   5.681   9.032   2.733
13969SOL     OW52835   6.515   0.854   0.360
13969SOL    HW152836   6.426   0.820   0.329
13969SOL    HW252837   6.537   0.813   0.449
13970SOL     OW52838   3.274   1.990   0.265
13970SOL    HW152839   3.292   2.088   0.266
13970SOL    HW252840   3.199   1.969   0.327
13971SOL     OW52841   3.048   5.016   2.301
13971SOL    HW152842   3.059   5.021   2.202
13971SOL    HW252843   3.118   5.073   2.345
13972SOL     OW52844   7.810   1.238   1.067
13972SOL    HW152845   7.784   1.158   1.014
13972SOL    HW252846   7.735   1.263   1.129
13973SOL     OW52847   8.463   2.320   1.928
13973SOL    HW152848   8.402   2.365   1.863
13973SOL    HW252849   8.558   2.345   1.907
13974SOL     OW52850   0.146   7.649   4.748
13974SOL    HW152851   0.191   7.726   4.704
13974SOL    HW252852   0.047   7.661   4.742
13975SOL     OW52853   1.704   2.358   1.161
13975SOL    HW152854   1.684   2.295   1.235
13975SOL    HW252855   1.693   2.452   1.193
13976SOL     OW52856   6.800   1.759   0.252
13976SOL    HW152857   6.872   1.817   0.289
13976SOL    HW252858   6.837   1.668   0.232
13977SOL     OW52859   3.738   1.205   0.461
13977SOL    HW152860   3.804   1.242   0.395
13977SOL    HW252861   3.687   1.281   0.502
13978SOL     OW52862   1.508   8.592   0.150
13978SOL    HW152863   1.523   8.684   0.113
13978SOL    HW252864   1.479   8.599   0.245
13979SOL     OW52865   3.791   3.719   2.013
13979SOL    HW152866   3.792   3.716   2.113
13979SOL    HW252867   3.764   3.810   1.983
13980SOL     OW52868   4.193   2.483   4.548
13980SOL    HW152869   4.286   2.514   4.569
13980SOL    HW252870   4.167   2.411   4.611
13981SOL     OW52871   3.784   8.537   2.908
13981SOL    HW152872   3.851   8.471   2.941
13981SOL    HW252873   3.709   8.545   2.974
13982SOL     OW52874   6.189   7.392   2.725
13982SOL    HW152875   6.134   7.421   2.804
13982SOL    HW252876   6.264   7.456   2.711
13983SOL     OW52877   2.588   4.683   1.656
13983SOL    HW152878   2.560   4.653   1.564
13983SOL    HW252879   2.538   4.629   1.724
13984SOL     OW52880   7.802   6.634   3.406
13984SOL    HW152881   7.871   6.602   3.472
13984SOL    HW252882   7.742   6.701   3.450
13985SOL     OW52883   7.802   7.545   2.994
13985SOL    HW152884   7.725   7.530   2.932
13985SOL    HW252885   7.877   7.588   2.944
13986SOL     OW52886   1.492   8.212   3.309
13986SOL    HW152887   1.401   8.195   3.271
13986SOL    HW252888   1.545   8.127   3.309
13987SOL     OW52889   9.982   5.950   2.241
13987SOL    HW152890   9.885   5.956   2.219
13987SOL    HW252891   9.999   5.990   2.331
13988SOL     OW52892   2.945   4.222   3.865
13988SOL    HW152893   2.845   4.223   3.878
13988SOL    HW252894   2.989   4.195   3.951
13989SOL     OW52895   2.628   0.781   3.685
13989SOL    HW152896   2.536   0.782   3.723
13989SOL    HW252897   2.645   0.866   3.635
13990SOL     OW52898   1.828   7.365   1.171
13990SOL    HW152899   1.752   7.375   1.106
13990SOL    HW252900   1.915   7.369   1.122
13991SOL     OW52901   4.799   1.514   4.404
13991SOL    HW152902   4.813   1.604   4.364
13991SOL    HW252903   4.760   1.452   4.336
13992SOL     OW52904   5.992   1.001   1.927
13992SOL    HW152905   6.024   0.912   1.960
13992SOL    HW252906   6.038   1.074   1.978
13993SOL     OW52907   9.173   3.983   2.397
13993SOL    HW152908   9.170   3.972   2.496
13993SOL    HW252909   9.110   3.919   2.354
13994SOL     OW52910   3.807   5.330   3.919
13994SOL    HW152911   3.854   5.252   3.961
13994SOL    HW252912   3.811   5.322   3.820
13995SOL     OW52913   8.151   4.120   1.937
13995SOL    HW152914   8.054   4.125   1.917
13995SOL    HW252915   8.196   4.203   1.905
13996SOL     OW52916   9.421   7.884   0.709
13996SOL    HW152917   9.405   7.971   0.756
13996SOL    HW252918   9.395   7.808   0.768
13997SOL     OW52919   2.353   3.563   0.420
13997SOL    HW152920   2.435   3.615   0.395
13997SOL    HW252921   2.364   3.528   0.513
13998SOL     OW52922   9.096   1.785   5.144
13998SOL    HW152923   9.046   1.803   5.229
13998SOL    HW252924   9.164   1.714   5.159
13999SOL     OW52925   0.375   4.708   5.093
13999SOL    HW152926   0.349   4.616   5.063
13999SOL    HW252927   0.475   4.714   5.100
14000SOL     OW52928   8.096   4.376   1.632
14000SOL    HW152929   8.005   4.333   1.633
14000SOL    HW252930   8.151   4.336   1.560
14001SOL     OW52931   1.931   5.161   3.545
14001SOL    HW152932   2.024   5.182   3.515
14001SOL    HW252933   1.931   5.078   3.601
14002SOL     OW52934   9.529   1.266   4.487
14002SOL    HW152935   9.593   1.203   4.443
14002SOL    HW252936   9.548   1.269   4.585
14003SOL     OW52937   1.532   4.040   0.403
14003SOL    HW152938   1.444   4.060   0.359
14003SOL    HW252939   1.580   4.126   0.422
14004SOL     OW52940   8.749   6.899   3.055
14004SOL    HW152941   8.669   6.923   3.001
14004SOL    HW252942   8.722   6.844   3.134
14005SOL     OW52943   4.400   3.484   1.603
14005SOL    HW152944   4.439   3.392   1.615
14005SOL    HW252945   4.469   3.544   1.563
14006SOL     OW52946   2.133   6.019   0.463
14006SOL    HW152947   2.099   5.933   0.423
14006SOL    HW252948   2.090   6.096   0.417
14007SOL     OW52949   0.376   5.112   1.818
14007SOL    HW152950   0.453   5.101   1.882
14007SOL    HW252951   0.326   5.025   1.812
14008SOL     OW52952   3.622   7.961   1.329
14008SOL    HW152953   3.601   7.869   1.296
14008SOL    HW252954   3.649   8.019   1.252
14009SOL     OW52955   2.010   8.786   2.441
14009SOL    HW152956   1.974   8.879   2.435
14009SOL    HW252957   2.002   8.741   2.352
14010SOL     OW52958   9.473   1.044   2.211
14010SOL    HW152959   9.455   0.947   2.192
14010SOL    HW252960   9.398   1.100   2.175
14011SOL     OW52961   4.287   0.135   3.908
14011SOL    HW152962   4.345   0.191   3.848
14011SOL    HW252963   4.194   0.171   3.909
14012SOL     OW52964   4.663   0.714   0.220
14012SOL    HW152965   4.637   0.617   0.225
14012SOL    HW252966   4.581   0.770   0.220
14013SOL     OW52967   2.313   7.856   4.136
14013SOL    HW152968   2.280   7.930   4.195
14013SOL    HW252969   2.256   7.852   4.054
14014SOL     OW52970   8.598   1.571   4.256
14014SOL    HW152971   8.566   1.663   4.236
14014SOL    HW252972   8.546   1.505   4.202
14015SOL     OW52973   6.265   9.480   5.231
14015SOL    HW152974   6.229   9.527   5.312
14015SOL    HW252975   6.234   9.527   5.149
14016SOL     OW52976   7.669   1.929   2.358
14016SOL    HW152977   7.605   1.969   2.293
14016SOL    HW252978   7.708   2.001   2.415
14017SOL     OW52979   7.861   4.260   0.938
14017SOL    HW152980   7.889   4.283   1.032
14017SOL    HW252981   7.875   4.339   0.879
14018SOL     OW52982   2.044   5.623   4.498
14018SOL    HW152983   2.056   5.702   4.438
14018SOL    HW252984   2.034   5.654   4.592
14019SOL     OW52985   8.625   3.136   0.185
14019SOL    HW152986   8.673   3.200   0.244
14019SOL    HW252987   8.610   3.178   0.095
14020SOL     OW52988   0.761   2.103   1.828
14020SOL    HW152989   0.819   2.043   1.883
14020SOL    HW252990   0.665   2.077   1.841
14021SOL     OW52991   0.960   9.148   0.988
14021SOL    HW152992   0.870   9.170   1.026
14021SOL    HW252993   1.031   9.178   1.052
14022SOL     OW52994   7.644   1.519   4.078
14022SOL    HW152995   7.583   1.441   4.060
14022SOL    HW252996   7.699   1.538   3.997
14023SOL     OW52997   1.231   4.944   3.159
14023SOL    HW152998   1.268   4.854   3.181
14023SOL    HW252999   1.298   4.994   3.103
14024SOL     OW53000   8.539   0.081   2.163
14024SOL    HW153001   8.493   0.015   2.105
14024SOL    HW253002   8.523   0.058   2.259
14025SOL     OW53003   3.277   0.829   2.120
14025SOL    HW153004   3.269   0.921   2.082
14025SOL    HW253005   3.199   0.774   2.091
14026SOL     OW53006   0.798   2.879   3.336
14026SOL    HW153007   0.758   2.835   3.256
14026SOL    HW253008   0.792   2.818   3.414
14027SOL     OW53009   1.886   3.059   1.683
14027SOL    HW153010   1.930   3.057   1.773
14027SOL    HW253011   1.787   3.068   1.695
14028SOL     OW53012   7.819   1.139   0.455
14028SOL    HW153013   7.875   1.083   0.394
14028SOL    HW253014   7.736   1.168   0.407
14029SOL     OW53015   8.742   4.431   3.130
14029SOL    HW153016   8.670   4.416   3.061
14029SOL    HW253017   8.817   4.483   3.088
14030SOL     OW53018   5.117   5.747   0.912
14030SOL    HW153019   5.152   5.660   0.946
14030SOL    HW253020   5.027   5.765   0.951
14031SOL     OW53021   0.769   9.952   1.174
14031SOL    HW153022   0.759   9.858   1.204
14031SOL    HW253023   0.865   9.979   1.178
14032SOL     OW53024   8.356   4.663   1.325
14032SOL    HW153025   8.389   4.720   1.401
14032SOL    HW253026   8.286   4.712   1.274
14033SOL     OW53027   4.899   7.593   1.590
14033SOL    HW153028   4.887   7.606   1.688
14033SOL    HW253029   4.962   7.517   1.574
14034SOL     OW53030   7.488   2.651   1.008
14034SOL    HW153031   7.439   2.564   1.003
14034SOL    HW253032   7.534   2.669   0.922
14035SOL     OW53033   9.244   7.705   2.981
14035SOL    HW153034   9.319   7.658   3.026
14035SOL    HW253035   9.262   7.804   2.982
14036SOL     OW53036   5.367   1.238   0.747
14036SOL    HW153037   5.409   1.147   0.750
14036SOL    HW253038   5.315   1.254   0.830
14037SOL     OW53039   8.051   1.852   2.800
14037SOL    HW153040   8.053   1.756   2.772
14037SOL    HW253041   7.959   1.875   2.833
14038SOL     OW53042   2.028   6.262   0.380
14038SOL    HW153043   2.031   6.323   0.300
14038SOL    HW253044   2.069   6.309   0.458
14039SOL     OW53045   5.113   4.798   1.419
14039SOL    HW153046   5.025   4.755   1.436
14039SOL    HW253047   5.187   4.733   1.442
14040SOL     OW53048   0.965   3.950   4.515
14040SOL    HW153049   1.020   3.975   4.436
14040SOL    HW253050   0.869   3.974   4.498
14041SOL     OW53051   7.628   6.644   4.442
14041SOL    HW153052   7.536   6.606   4.457
14041SOL    HW253053   7.682   6.582   4.386
14042SOL     OW53054   0.085   1.796   4.029
14042SOL    HW153055   0.002   1.759   3.989
14042SOL    HW253056   0.136   1.723   4.075
14043SOL     OW53057   7.468   1.237   4.907
14043SOL    HW153058   7.442   1.319   4.959
14043SOL    HW253059   7.386   1.194   4.869
14044SOL     OW53060   7.361   1.145   2.010
14044SOL    HW153061   7.371   1.051   2.044
14044SOL    HW253062   7.271   1.180   2.035
14045SOL     OW53063   1.411   7.366   3.872
14045SOL    HW153064   1.360   7.307   3.934
14045SOL    HW253065   1.357   7.448   3.851
14046SOL     OW53066   3.069   8.854   0.473
14046SOL    HW153067   2.993   8.800   0.439
14046SOL    HW253068   3.037   8.916   0.544
14047SOL     OW53069   7.096   0.399   1.652
14047SOL    HW153070   7.149   0.372   1.571
14047SOL    HW253071   7.010   0.348   1.654
14048SOL     OW53072   4.077   7.165   2.846
14048SOL    HW153073   4.080   7.097   2.772
14048SOL    HW253074   4.076   7.257   2.807
14049SOL     OW53075   8.901   8.576   4.798
14049SOL    HW153076   8.958   8.547   4.722
14049SOL    HW253077   8.805   8.555   4.778
14050SOL     OW53078   9.230   1.124   1.136
14050SOL    HW153079   9.135   1.145   1.114
14050SOL    HW253080   9.237   1.029   1.167
14051SOL     OW53081   3.349   1.426   4.559
14051SOL    HW153082   3.254   1.423   4.529
14051SOL    HW253083   3.368   1.517   4.598
14052SOL     OW53084   9.646   2.920   3.908
14052SOL    HW153085   9.648   2.828   3.869
14052SOL    HW253086   9.597   2.982   3.845
14053SOL     OW53087   8.698   1.850   1.474
14053SOL    HW153088   8.651   1.930   1.513
14053SOL    HW253089   8.642   1.768   1.490
14054SOL     OW53090   9.513   1.639   4.472
14054SOL    HW153091   9.430   1.646   4.527
14054SOL    HW253092   9.502   1.567   4.404
14055SOL     OW53093   2.377   3.557   1.647
14055SOL    HW153094   2.318   3.632   1.618
14055SOL    HW253095   2.374   3.484   1.578
14056SOL     OW53096   5.308   1.381   2.116
14056SOL    HW153097   5.285   1.456   2.179
14056SOL    HW253098   5.379   1.323   2.158
14057SOL     OW53099   2.467   5.962   1.178
14057SOL    HW153100   2.467   5.887   1.112
14057SOL    HW253101   2.374   5.999   1.185
14058SOL     OW53102   9.558   7.849   3.947
14058SOL    HW153103   9.591   7.937   3.915
14058SOL    HW253104   9.635   7.795   3.983
14059SOL     OW53105   7.390   1.270   2.998
14059SOL    HW153106   7.375   1.368   2.987
14059SOL    HW253107   7.488   1.250   2.990
14060SOL     OW53108   7.066   1.209   3.460
14060SOL    HW153109   7.094   1.230   3.553
14060SOL    HW253110   7.063   1.110   3.447
14061SOL     OW53111   9.629   4.859   0.211
14061SOL    HW153112   9.584   4.937   0.167
14061SOL    HW253113   9.607   4.859   0.309
14062SOL     OW53114   9.163   2.392   1.435
14062SOL    HW153115   9.182   2.294   1.441
14062SOL    HW253116   9.100   2.409   1.359
14063SOL     OW53117   2.884   1.424   3.322
14063SOL    HW153118   2.903   1.429   3.420
14063SOL    HW253119   2.949   1.482   3.273
14064SOL     OW53120   8.686   5.556   4.970
14064SOL    HW153121   8.587   5.550   4.985
14064SOL    HW253122   8.704   5.569   4.872
14065SOL     OW53123   0.890   4.913   0.447
14065SOL    HW153124   0.864   4.885   0.539
14065SOL    HW253125   0.848   5.002   0.427
14066SOL     OW53126   6.801   4.898   1.064
14066SOL    HW153127   6.831   4.808   1.033
14066SOL    HW253128   6.852   4.923   1.147
14067SOL     OW53129   1.070   0.027   2.946
14067SOL    HW153130   1.128   9.971   3.005
14067SOL    HW253131   1.127   0.090   2.892
14068SOL     OW53132   2.288   3.750   1.227
14068SOL    HW153133   2.234   3.829   1.258
14068SOL    HW253134   2.243   3.666   1.255
14069SOL     OW53135   2.066   1.425   2.386
14069SOL    HW153136   2.010   1.500   2.421
14069SOL    HW253137   2.145   1.462   2.336
14070SOL     OW53138   4.328   3.127   2.878
14070SOL    HW153139   4.290   3.198   2.818
14070SOL    HW253140   4.254   3.075   2.920
14071SOL     OW53141   6.363   0.870   2.840
14071SOL    HW153142   6.315   0.957   2.833
14071SOL    HW253143   6.462   0.885   2.835
14072SOL     OW53144   2.554   0.726   1.722
14072SOL    HW153145   2.627   0.792   1.703
14072SOL    HW253146   2.521   0.689   1.635
14073SOL     OW53147   3.322   4.334   3.673
14073SOL    HW153148   3.226   4.356   3.690
14073SOL    HW253149   3.329   4.271   3.596
14074SOL     OW53150   5.116   4.336   1.633
14074SOL    HW153151   5.100   4.253   1.686
14074SOL    HW253152   5.065   4.412   1.674
14075SOL     OW53153   1.115   7.083   2.932
14075SOL    HW153154   1.035   7.075   2.992
14075SOL    HW253155   1.160   6.994   2.926
14076SOL     OW53156   3.488   6.902   1.163
14076SOL    HW153157   3.438   6.881   1.247
14076SOL    HW253158   3.519   6.818   1.120
14077SOL     OW53159   9.254   7.981   0.509
14077SOL    HW153160   9.260   8.080   0.495
14077SOL    HW253161   9.327   7.951   0.570
14078SOL     OW53162   5.387   9.863   1.164
14078SOL    HW153163   5.315   9.803   1.131
14078SOL    HW253164   5.351   9.955   1.178
14079SOL     OW53165   1.559   4.375   4.507
14079SOL    HW153166   1.492   4.302   4.522
14079SOL    HW253167   1.601   4.399   4.594
14080SOL     OW53168   3.838   3.491   1.637
14080SOL    HW153169   3.868   3.532   1.551
14080SOL    HW253170   3.893   3.409   1.656
14081SOL     OW53171   7.319   9.774   4.172
14081SOL    HW153172   7.354   9.777   4.266
14081SOL    HW253173   7.365   9.844   4.117
14082SOL     OW53174   8.407   3.488   4.955
14082SOL    HW153175   8.479   3.424   4.980
14082SOL    HW253176   8.323   3.438   4.936
14083SOL     OW53177   0.045   0.705   1.110
14083SOL    HW153178   0.020   0.779   1.047
14083SOL    HW253179   0.057   0.620   1.060
14084SOL     OW53180   0.214   6.824   4.391
14084SOL    HW153181   0.139   6.762   4.372
14084SOL    HW253182   0.299   6.788   4.352
14085SOL     OW53183   3.201   8.637   3.328
14085SOL    HW153184   3.286   8.601   3.366
14085SOL    HW253185   3.206   8.635   3.228
14086SOL     OW53186   3.796   3.829   1.501
14086SOL    HW153187   3.707   3.793   1.530
14086SOL    HW253188   3.855   3.754   1.471
14087SOL     OW53189   0.703   7.211   4.511
14087SOL    HW153190   0.665   7.304   4.511
14087SOL    HW253191   0.730   7.186   4.418
14088SOL     OW53192   0.114   3.882   0.735
14088SOL    HW153193   0.135   3.905   0.830
14088SOL    HW253194   0.015   3.889   0.720
14089SOL     OW53195   1.522   2.573   1.528
14089SOL    HW153196   1.615   2.545   1.505
14089SOL    HW253197   1.525   2.656   1.584
14090SOL     OW53198   5.697   8.279   3.902
14090SOL    HW153199   5.670   8.350   3.967
14090SOL    HW253200   5.769   8.313   3.843
14091SOL     OW53201   4.101   3.621   4.095
14091SOL    HW153202   4.130   3.589   4.185
14091SOL    HW253203   4.017   3.675   4.104
14092SOL     OW53204   3.164   9.325   3.580
14092SOL    HW153205   3.123   9.414   3.597
14092SOL    HW253206   3.197   9.320   3.485
14093SOL     OW53207   0.320   8.639   0.575
14093SOL    HW153208   0.288   8.546   0.556
14093SOL    HW253209   0.315   8.694   0.492
14094SOL     OW53210   7.548   1.378   0.707
14094SOL    HW153211   7.547   1.282   0.731
14094SOL    HW253212   7.479   1.427   0.761
14095SOL     OW53213   5.293   1.213   3.556
14095SOL    HW153214   5.219   1.281   3.553
14095SOL    HW253215   5.370   1.251   3.606
14096SOL     OW53216   1.802   5.030   3.931
14096SOL    HW153217   1.818   5.118   3.887
14096SOL    HW253218   1.799   5.042   4.030
14097SOL     OW53219   2.350   6.072   2.955
14097SOL    HW153220   2.319   6.167   2.952
14097SOL    HW253221   2.271   6.010   2.953
14098SOL     OW53222   0.299   2.561   3.313
14098SOL    HW153223   0.209   2.526   3.287
14098SOL    HW253224   0.343   2.602   3.233
14099SOL     OW53225   0.828   1.548   4.259
14099SOL    HW153226   0.789   1.617   4.198
14099SOL    HW253227   0.761   1.476   4.275
14100SOL     OW53228   4.349   9.764   0.420
14100SOL    HW153229   4.409   9.687   0.442
14100SOL    HW253230   4.302   9.795   0.502
14101SOL     OW53231   9.774   8.027   0.677
14101SOL    HW153232   9.809   8.003   0.767
14101SOL    HW253233   9.712   8.106   0.685
14102SOL     OW53234   2.456   5.544   3.984
14102SOL    HW153235   2.370   5.567   4.029
14102SOL    HW253236   2.518   5.501   4.050
14103SOL     OW53237   5.048   3.392   2.836
14103SOL    HW153238   5.076   3.296   2.845
14103SOL    HW253239   4.992   3.418   2.914
14104SOL     OW53240   3.883   6.587   0.414
14104SOL    HW153241   3.909   6.516   0.480
14104SOL    HW253242   3.896   6.553   0.321
14105SOL     OW53243   1.151   6.076   5.262
14105SOL    HW153244   1.053   6.085   5.283
14105SOL    HW253245   1.185   5.991   5.304
14106SOL     OW53246   2.760   5.939   3.938
14106SOL    HW153247   2.741   5.887   3.855
14106SOL    HW253248   2.778   6.034   3.915
14107SOL     OW53249   7.716   0.470   1.872
14107SOL    HW153250   7.713   0.397   1.940
14107SOL    HW253251   7.774   0.442   1.796
14108SOL     OW53252   3.907   8.599   0.241
14108SOL    HW153253   3.876   8.681   0.288
14108SOL    HW253254   3.833   8.561   0.186
14109SOL     OW53255   9.954   7.426   4.329
14109SOL    HW153256   9.858   7.417   4.304
14109SOL    HW253257   9.979   7.353   4.393
14110SOL     OW53258   8.141   7.554   3.338
14110SOL    HW153259   8.116   7.619   3.267
14110SOL    HW253260   8.179   7.471   3.295
14111SOL     OW53261   8.401   1.001   1.170
14111SOL    HW153262   8.375   1.097   1.156
14111SOL    HW253263   8.373   0.947   1.091
14112SOL     OW53264   9.559   2.033   5.152
14112SOL    HW153265   9.483   2.057   5.213
14112SOL    HW253266   9.555   2.089   5.070
14113SOL     OW53267   4.769   8.519   4.278
14113SOL    HW153268   4.802   8.613   4.283
14113SOL    HW253269   4.682   8.511   4.326
14114SOL     OW53270   3.892   7.835   2.543
14114SOL    HW153271   3.840   7.752   2.524
14114SOL    HW253272   3.947   7.859   2.464
14115SOL     OW53273   3.217   9.174   3.243
14115SOL    HW153274   3.128   9.184   3.198
14115SOL    HW253275   3.248   9.263   3.276
14116SOL     OW53276   1.286   9.980   2.401
14116SOL    HW153277   1.303   9.911   2.330
14116SOL    HW253278   1.348   0.057   2.387
14117SOL     OW53279   4.529   2.825   4.368
14117SOL    HW153280   4.434   2.803   4.345
14117SOL    HW253281   4.580   2.741   4.383
14118SOL     OW53282   4.321   8.758   1.893
14118SOL    HW153283   4.408   8.804   1.875
14118SOL    HW253284   4.311   8.681   1.830
14119SOL     OW53285   0.555   0.588   3.143
14119SOL    HW153286   0.480   0.551   3.089
14119SOL    HW253287   0.559   0.543   3.232
14120SOL     OW53288   4.551   3.848   0.834
14120SOL    HW153289   4.645   3.829   0.806
14120SOL    HW253290   4.540   3.825   0.930
14121SOL     OW53291   2.281   2.026   4.682
14121SOL    HW153292   2.244   1.936   4.707
14121SOL    HW253293   2.367   2.041   4.730
14122SOL     OW53294   4.480   0.553   3.294
14122SOL    HW153295   4.475   0.467   3.245
14122SOL    HW253296   4.507   0.626   3.231
14123SOL     OW53297   4.544   7.269   2.714
14123SOL    HW153298   4.494   7.216   2.645
14123SOL    HW253299   4.480   7.303   2.784
14124SOL     OW53300   9.173   9.880   3.190
14124SOL    HW153301   9.111   9.958   3.191
14124SOL    HW253302   9.261   9.908   3.151
14125SOL     OW53303   5.321   9.464   2.352
14125SOL    HW153304   5.389   9.397   2.381
14125SOL    HW253305   5.295   9.447   2.257
14126SOL     OW53306   2.149   9.545   1.623
14126SOL    HW153307   2.061   9.499   1.631
14126SOL    HW253308   2.218   9.493   1.674
14127SOL     OW53309   0.798   0.871   0.325
14127SOL    HW153310   0.780   0.806   0.251
14127SOL    HW253311   0.772   0.831   0.412
14128SOL     OW53312   4.055   8.877   4.127
14128SOL    HW153313   4.027   8.801   4.069
14128SOL    HW253314   3.978   8.939   4.141
14129SOL     OW53315   4.602   4.784   3.733
14129SOL    HW153316   4.684   4.729   3.719
14129SOL    HW253317   4.564   4.765   3.824
14130SOL     OW53318   2.030   4.621   4.647
14130SOL    HW153319   2.091   4.696   4.619
14130SOL    HW253320   2.041   4.605   4.745
14131SOL     OW53321   3.667   4.892   3.278
14131SOL    HW153322   3.756   4.899   3.324
14131SOL    HW253323   3.628   4.984   3.269
14132SOL     OW53324   0.255   0.632   2.456
14132SOL    HW153325   0.295   0.712   2.412
14132SOL    HW253326   0.176   0.600   2.403
14133SOL     OW53327   8.926   9.947   3.931
14133SOL    HW153328   8.870   9.896   3.867
14133SOL    HW253329   8.895   9.929   4.025
14134SOL     OW53330   7.532   1.520   4.659
14134SOL    HW153331   7.575   1.610   4.653
14134SOL    HW253332   7.495   1.496   4.570
14135SOL     OW53333   9.633   7.000   3.691
14135SOL    HW153334   9.688   6.921   3.663
14135SOL    HW253335   9.603   7.050   3.610
14136SOL     OW53336   9.803   6.893   0.353
14136SOL    HW153337   9.866   6.970   0.347
14136SOL    HW253338   9.756   6.881   0.265
14137SOL     OW53339   3.348   1.027   2.784
14137SOL    HW153340   3.257   0.993   2.806
14137SOL    HW253341   3.410   1.009   2.860
14138SOL     OW53342   2.221   7.164   0.955
14138SOL    HW153343   2.284   7.169   0.877
14138SOL    HW253344   2.139   7.113   0.928
14139SOL     OW53345   4.098   1.720   1.424
14139SOL    HW153346   4.098   1.738   1.326
14139SOL    HW253347   4.141   1.797   1.472
14140SOL     OW53348   3.632   2.165   2.434
14140SOL    HW153349   3.570   2.217   2.493
14140SOL    HW253350   3.724   2.205   2.439
14141SOL     OW53351   0.481   0.137   0.580
14141SOL    HW153352   0.514   0.111   0.670
14141SOL    HW253353   0.558   0.166   0.523
14142SOL     OW53354   6.790   4.417   0.413
14142SOL    HW153355   6.739   4.461   0.339
14142SOL    HW253356   6.855   4.482   0.452
14143SOL     OW53357   3.267   9.225   4.789
14143SOL    HW153358   3.262   9.132   4.753
14143SOL    HW253359   3.316   9.284   4.725
14144SOL     OW53360   5.242   5.493   0.975
14144SOL    HW153361   5.242   5.464   0.879
14144SOL    HW253362   5.321   5.455   1.021
14145SOL     OW53363   0.107   5.687   1.879
14145SOL    HW153364   0.118   5.605   1.821
14145SOL    HW253365   0.031   5.742   1.845
14146SOL     OW53366   6.849   2.260   2.420
14146SOL    HW153367   6.892   2.207   2.493
14146SOL    HW253368   6.827   2.200   2.344
14147SOL     OW53369   1.530   5.562   0.124
14147SOL    HW153370   1.527   5.465   0.101
14147SOL    HW253371   1.512   5.616   0.041
14148SOL     OW53372   0.723   4.585   1.422
14148SOL    HW153373   0.756   4.543   1.507
14148SOL    HW253374   0.685   4.675   1.442
14149SOL     OW53375   4.357   4.217   2.297
14149SOL    HW153376   4.413   4.213   2.214
14149SOL    HW253377   4.416   4.208   2.378
14150SOL     OW53378   7.963   6.058   5.143
14150SOL    HW153379   7.954   6.157   5.131
14150SOL    HW253380   7.874   6.019   5.165
14151SOL     OW53381   0.398   9.864   4.662
14151SOL    HW153382   0.389   9.803   4.740
14151SOL    HW253383   0.492   9.859   4.627
14152SOL     OW53384   6.037   1.445   5.082
14152SOL    HW153385   5.956   1.425   5.027
14152SOL    HW253386   6.048   1.543   5.091
14153SOL     OW53387   3.401   2.093   2.944
14153SOL    HW153388   3.352   2.133   3.021
14153SOL    HW253389   3.343   2.095   2.863
14154SOL     OW53390   6.893   0.594   4.492
14154SOL    HW153391   6.946   0.653   4.552
14154SOL    HW253392   6.935   0.503   4.488
14155SOL     OW53393   9.878   7.929   5.092
14155SOL    HW153394   9.976   7.946   5.103
14155SOL    HW253395   9.860   7.831   5.104
14156SOL     OW53396   5.642   0.582   4.308
14156SOL    HW153397   5.694   0.497   4.316
14156SOL    HW253398   5.696   0.650   4.259
14157SOL     OW53399   2.534   1.056   2.972
14157SOL    HW153400   2.558   1.108   2.891
14157SOL    HW253401   2.614   1.046   3.031
14158SOL     OW53402   3.973   8.352   4.460
14158SOL    HW153403   4.045   8.378   4.396
14158SOL    HW253404   3.964   8.422   4.531
14159SOL     OW53405   2.755   0.845   3.243
14159SOL    HW153406   2.666   0.884   3.265
14159SOL    HW253407   2.758   0.749   3.272
14160SOL     OW53408   0.533   3.133   4.815
14160SOL    HW153409   0.476   3.199   4.864
14160SOL    HW253410   0.541   3.050   4.869
14161SOL     OW53411   2.101   9.399   3.177
14161SOL    HW153412   2.113   9.360   3.268
14161SOL    HW253413   2.179   9.457   3.154
14162SOL     OW53414   5.224   1.239   3.983
14162SOL    HW153415   5.147   1.179   3.960
14162SOL    HW253416   5.218   1.323   3.928
14163SOL     OW53417   8.774   4.903   5.232
14163SOL    HW153418   8.788   4.926   5.136
14163SOL    HW253419   8.677   4.901   5.253
14164SOL     OW53420   5.013   1.531   0.652
14164SOL    HW153421   5.005   1.604   0.719
14164SOL    HW253422   4.925   1.520   0.604
14165SOL     OW53423   0.691   2.378   3.749
14165SOL    HW153424   0.629   2.457   3.749
14165SOL    HW253425   0.648   2.303   3.699
14166SOL     OW53426   2.362   1.469   1.127
14166SOL    HW153427   2.328   1.500   1.039
14166SOL    HW253428   2.449   1.514   1.147
14167SOL     OW53429   1.502   9.335   2.923
14167SOL    HW153430   1.588   9.295   2.955
14167SOL    HW253431   1.493   9.428   2.958
14168SOL     OW53432   5.044   1.432   1.753
14168SOL    HW153433   5.138   1.430   1.786
14168SOL    HW253434   5.027   1.352   1.695
14169SOL     OW53435   3.041   4.826   0.743
14169SOL    HW153436   3.089   4.845   0.829
14169SOL    HW253437   3.043   4.908   0.686
14170SOL     OW53438   3.701   8.552   2.185
14170SOL    HW153439   3.627   8.619   2.183
14170SOL    HW253440   3.744   8.552   2.276
14171SOL     OW53441   9.003   1.306   2.534
14171SOL    HW153442   9.042   1.391   2.571
14171SOL    HW253443   9.066   1.230   2.550
14172SOL     OW53444   4.040   8.319   2.582
14172SOL    HW153445   4.021   8.275   2.494
14172SOL    HW253446   3.958   8.368   2.612
14173SOL     OW53447   2.166   1.629   3.747
14173SOL    HW153448   2.091   1.614   3.811
14173SOL    HW253449   2.164   1.559   3.676
14174SOL     OW53450   2.106   5.034   0.690
14174SOL    HW153451   2.112   4.950   0.636
14174SOL    HW253452   2.197   5.077   0.694
14175SOL     OW53453   1.865   0.548   0.773
14175SOL    HW153454   1.888   0.633   0.725
14175SOL    HW253455   1.810   0.569   0.853
14176SOL     OW53456   5.245   0.940   3.524
14176SOL    HW153457   5.269   1.037   3.533
14176SOL    HW253458   5.195   0.910   3.605
14177SOL     OW53459   1.150   3.457   0.537
14177SOL    HW153460   1.168   3.536   0.597
14177SOL    HW253461   1.217   3.385   0.556
14178SOL     OW53462   5.113   4.760   3.518
14178SOL    HW153463   5.149   4.853   3.528
14178SOL    HW253464   5.015   4.763   3.501
14179SOL     OW53465   8.055   1.875   5.125
14179SOL    HW153466   8.113   1.797   5.149
14179SOL    HW253467   8.105   1.960   5.139
14180SOL     OW53468   8.825   5.567   0.745
14180SOL    HW153469   8.871   5.590   0.831
14180SOL    HW253470   8.773   5.482   0.757
14181SOL     OW53471   4.282   1.971   0.341
14181SOL    HW153472   4.279   2.071   0.337
14181SOL    HW253473   4.357   1.938   0.284
14182SOL     OW53474   5.293   4.855   1.084
14182SOL    HW153475   5.366   4.787   1.097
14182SOL    HW253476   5.325   4.944   1.115
14183SOL     OW53477   0.950   4.228   3.343
14183SOL    HW153478   1.017   4.156   3.326
14183SOL    HW253479   0.924   4.271   3.257
14184SOL     OW53480   6.646   8.455   3.374
14184SOL    HW153481   6.701   8.536   3.393
14184SOL    HW253482   6.676   8.413   3.288
14185SOL     OW53483   4.409   1.611   1.289
14185SOL    HW153484   4.376   1.614   1.195
14185SOL    HW253485   4.418   1.516   1.319
14186SOL     OW53486   8.440   6.194   4.175
14186SOL    HW153487   8.361   6.190   4.113
14186SOL    HW253488   8.524   6.181   4.123
14187SOL     OW53489   8.328   1.458   2.309
14187SOL    HW153490   8.292   1.487   2.398
14187SOL    HW253491   8.254   1.458   2.242
14188SOL     OW53492   1.772   9.078   3.529
14188SOL    HW153493   1.825   9.163   3.527
14188SOL    HW253494   1.688   9.089   3.476
14189SOL     OW53495   5.513   9.382   2.667
14189SOL    HW153496   5.556   9.471   2.685
14189SOL    HW253497   5.535   9.353   2.574
14190SOL     OW53498   5.714   5.234   1.276
14190SOL    HW153499   5.697   5.145   1.234
14190SOL    HW253500   5.724   5.304   1.205
14191SOL     OW53501   2.955   8.654   1.614
14191SOL    HW153502   3.024   8.673   1.684
14191SOL    HW253503   2.891   8.730   1.608
14192SOL     OW53504   3.093   5.376   1.484
14192SOL    HW153505   3.067   5.388   1.389
14192SOL    HW253506   3.184   5.416   1.499
14193SOL     OW53507   2.248   3.995   2.087
14193SOL    HW153508   2.247   4.093   2.106
14193SOL    HW253509   2.289   3.947   2.164
14194SOL     OW53510   9.634   1.097   3.609
14194SOL    HW153511   9.629   1.151   3.693
14194SOL    HW253512   9.542   1.077   3.577
14195SOL     OW53513   7.206   0.497   3.372
14195SOL    HW153514   7.137   0.427   3.387
14195SOL    HW253515   7.272   0.497   3.447
14196SOL     OW53516   2.743   9.034   0.536
14196SOL    HW153517   2.690   9.059   0.617
14196SOL    HW253518   2.702   8.954   0.492
14197SOL     OW53519   3.320   0.121   5.104
14197SOL    HW153520   3.257   0.082   5.036
14197SOL    HW253521   3.349   0.050   5.167
14198SOL     OW53522   4.733   0.318   3.977
14198SOL    HW153523   4.689   0.285   3.894
14198SOL    HW253524   4.752   0.241   4.038
14199SOL     OW53525   8.630   8.857   0.413
14199SOL    HW153526   8.588   8.786   0.356
14199SOL    HW253527   8.586   8.945   0.396
14200SOL     OW53528   5.479   0.215   1.330
14200SOL    HW153529   5.543   0.289   1.309
14200SOL    HW253530   5.527   0.141   1.377
14201SOL     OW53531   0.136   2.902   2.644
14201SOL    HW153532   0.139   2.901   2.545
14201SOL    HW253533   0.199   2.833   2.680
14202SOL     OW53534   9.869   3.557   4.900
14202SOL    HW153535   9.884   3.639   4.955
14202SOL    HW253536   9.797   3.501   4.942
14203SOL     OW53537   7.777   0.010   3.187
14203SOL    HW153538   7.756   9.986   3.282
14203SOL    HW253539   7.762   9.930   3.129
14204SOL     OW53540   3.444   9.408   0.546
14204SOL    HW153541   3.409   9.321   0.513
14204SOL    HW253542   3.393   9.436   0.627
14205SOL     OW53543   1.836   6.350   2.846
14205SOL    HW153544   1.854   6.389   2.756
14205SOL    HW253545   1.903   6.279   2.866
14206SOL     OW53546   1.084   7.200   1.670
14206SOL    HW153547   1.175   7.207   1.628
14206SOL    HW253548   1.014   7.212   1.599
14207SOL     OW53549   2.487   7.906   2.264
14207SOL    HW153550   2.526   7.920   2.173
14207SOL    HW253551   2.394   7.942   2.267
14208SOL     OW53552   6.805   0.294   1.624
14208SOL    HW153553   6.710   0.271   1.643
14208SOL    HW253554   6.811   0.343   1.537
14209SOL     OW53555   3.002   0.350   3.763
14209SOL    HW153556   3.015   0.287   3.840
14209SOL    HW253557   2.907   0.347   3.734
14210SOL     OW53558   2.863   9.540   1.467
14210SOL    HW153559   2.859   9.639   1.478
14210SOL    HW253560   2.865   9.496   1.557
14211SOL     OW53561   4.447   1.839   1.434
14211SOL    HW153562   4.355   1.874   1.455
14211SOL    HW253563   4.439   1.752   1.385
14212SOL     OW53564   8.872   1.794   4.977
14212SOL    HW153565   8.956   1.796   5.032
14212SOL    HW253566   8.868   1.876   4.920
14213SOL     OW53567   7.606   4.872   1.248
14213SOL    HW153568   7.693   4.912   1.278
14213SOL    HW253569   7.623   4.811   1.171
14214SOL     OW53570   1.227   6.078   3.067
14214SOL    HW153571   1.195   6.166   3.103
14214SOL    HW253572   1.190   6.004   3.123
14215SOL     OW53573   5.017   3.812   4.280
14215SOL    HW153574   5.007   3.899   4.327
14215SOL    HW253575   5.025   3.738   4.347
14216SOL     OW53576   3.677   9.058   2.047
14216SOL    HW153577   3.732   9.135   2.080
14216SOL    HW253578   3.733   9.003   1.985
14217SOL     OW53579   3.976   7.498   2.353
14217SOL    HW153580   4.057   7.519   2.298
14217SOL    HW253581   3.986   7.407   2.393
14218SOL     OW53582   9.155   9.552   1.480
14218SOL    HW153583   9.149   9.548   1.380
14218SOL    HW253584   9.236   9.606   1.506
14219SOL     OW53585   9.050   1.776   3.454
14219SOL    HW153586   9.121   1.714   3.490
14219SOL    HW253587   9.089   1.833   3.382
14220SOL     OW53588   9.144   0.328   1.332
14220SOL    HW153589   9.077   0.330   1.406
14220SOL    HW253590   9.224   0.382   1.359
14221SOL     OW53591   7.673   1.528   2.846
14221SOL    HW153592   7.734   1.530   2.767
14221SOL    HW253593   7.726   1.523   2.930
14222SOL     OW53594   0.827   6.270   1.036
14222SOL    HW153595   0.847   6.330   1.113
14222SOL    HW253596   0.844   6.175   1.062
14223SOL     OW53597   3.069   5.750   1.042
14223SOL    HW153598   3.142   5.782   0.981
14223SOL    HW253599   3.000   5.700   0.989
14224SOL     OW53600   4.819   1.004   4.263
14224SOL    HW153601   4.872   0.934   4.215
14224SOL    HW253602   4.877   1.084   4.279
14225SOL     OW53603   6.923   9.033   5.195
14225SOL    HW153604   6.936   9.039   5.097
14225SOL    HW253605   6.825   9.042   5.217
14226SOL     OW53606   4.697   1.316   4.243
14226SOL    HW153607   4.632   1.341   4.171
14226SOL    HW253608   4.656   1.243   4.299
14227SOL     OW53609   7.123   1.105   1.357
14227SOL    HW153610   7.072   1.123   1.442
14227SOL    HW253611   7.078   1.152   1.281
14228SOL     OW53612   8.936   6.060   3.981
14228SOL    HW153613   8.937   5.985   4.047
14228SOL    HW253614   8.952   6.023   3.890
14229SOL     OW53615   7.612   2.829   2.079
14229SOL    HW153616   7.686   2.895   2.063
14229SOL    HW253617   7.627   2.748   2.022
14230SOL     OW53618   3.876   1.519   4.145
14230SOL    HW153619   3.787   1.559   4.169
14230SOL    HW253620   3.949   1.576   4.184
14231SOL     OW53621   2.829   6.343   2.289
14231SOL    HW153622   2.789   6.348   2.197
14231SOL    HW253623   2.823   6.250   2.323
14232SOL     OW53624   8.526   3.692   3.770
14232SOL    HW153625   8.624   3.688   3.789
14232SOL    HW253626   8.500   3.615   3.711
14233SOL     OW53627   0.760   1.379   2.598
14233SOL    HW153628   0.743   1.335   2.510
14233SOL    HW253629   0.747   1.313   2.672
14234SOL     OW53630   6.091   9.771   3.642
14234SOL    HW153631   6.114   9.867   3.629
14234SOL    HW253632   5.994   9.762   3.663
14235SOL     OW53633   9.264   7.533   1.464
14235SOL    HW153634   9.186   7.474   1.481
14235SOL    HW253635   9.248   7.587   1.381
14236SOL     OW53636   5.266   2.837   3.955
14236SOL    HW153637   5.206   2.915   3.940
14236SOL    HW253638   5.248   2.798   4.046
14237SOL     OW53639   2.410   9.277   0.951
14237SOL    HW153640   2.372   9.200   1.003
14237SOL    HW253641   2.393   9.263   0.853
14238SOL     OW53642   1.718   2.883   1.201
14238SOL    HW153643   1.796   2.946   1.192
14238SOL    HW253644   1.664   2.886   1.117
14239SOL     OW53645   4.965   3.719   3.818
14239SOL    HW153646   4.959   3.620   3.824
14239SOL    HW253647   4.946   3.748   3.725
14240SOL     OW53648   3.907   9.114   4.594
14240SOL    HW153649   3.931   9.152   4.504
14240SOL    HW253650   3.975   9.143   4.661
14241SOL     OW53651   9.004   4.746   5.238
14241SOL    HW153652   8.918   4.797   5.239
14241SOL    HW253653   9.032   4.724   5.331
14242SOL     OW53654   1.984   3.520   3.328
14242SOL    HW153655   2.067   3.464   3.337
14242SOL    HW253656   1.904   3.464   3.346
14243SOL     OW53657   1.594   2.859   2.791
14243SOL    HW153658   1.587   2.810   2.877
14243SOL    HW253659   1.656   2.810   2.730
14244SOL     OW53660   8.635   6.469   1.562
14244SOL    HW153661   8.621   6.533   1.487
14244SOL    HW253662   8.662   6.519   1.644
14245SOL     OW53663   8.963   1.087   0.315
14245SOL    HW153664   8.999   1.146   0.243
14245SOL    HW253665   8.983   1.127   0.404
14246SOL     OW53666   3.793   0.321   0.202
14246SOL    HW153667   3.864   0.264   0.160
14246SOL    HW253668   3.737   0.264   0.263
14247SOL     OW53669   7.509   9.028   3.750
14247SOL    HW153670   7.434   8.972   3.716
14247SOL    HW253671   7.556   8.981   3.825
14248SOL     OW53672   3.268   3.410   1.651
14248SOL    HW153673   3.342   3.356   1.611
14248SOL    HW253674   3.230   3.360   1.729
14249SOL     OW53675   4.779   9.837   0.329
14249SOL    HW153676   4.753   9.907   0.263
14249SOL    HW253677   4.789   9.878   0.419
14250SOL     OW53678   9.454   4.056   1.754
14250SOL    HW153679   9.526   4.049   1.823
14250SOL    HW253680   9.388   3.982   1.766
14251SOL     OW53681   8.646   0.040   2.700
14251SOL    HW153682   8.582   9.987   2.756
14251SOL    HW253683   8.706   9.977   2.649
14252SOL     OW53684   3.022   2.690   3.819
14252SOL    HW153685   3.038   2.783   3.852
14252SOL    HW253686   3.035   2.626   3.895
14253SOL     OW53687   1.060   8.534   0.949
14253SOL    HW153688   1.036   8.443   0.915
14253SOL    HW253689   1.026   8.545   1.042
14254SOL     OW53690   2.308   9.122   0.532
14254SOL    HW153691   2.291   9.046   0.594
14254SOL    HW253692   2.367   9.190   0.577
14255SOL     OW53693   3.924   2.041   5.126
14255SOL    HW153694   3.970   2.121   5.163
14255SOL    HW253695   3.972   1.958   5.155
14256SOL     OW53696   1.046   7.630   0.760
14256SOL    HW153697   1.128   7.640   0.703
14256SOL    HW253698   0.965   7.653   0.707
14257SOL     OW53699   9.703   0.102   3.575
14257SOL    HW153700   9.730   0.156   3.654
14257SOL    HW253701   9.725   0.152   3.491
14258SOL     OW53702   4.992   8.622   1.078
14258SOL    HW153703   4.894   8.625   1.060
14258SOL    HW253704   5.037   8.693   1.023
14259SOL     OW53705   3.758   1.550   4.814
14259SOL    HW153706   3.732   1.539   4.910
14259SOL    HW253707   3.789   1.644   4.799
14260SOL     OW53708   8.403   0.993   0.478
14260SOL    HW153709   8.325   0.950   0.433
14260SOL    HW253710   8.456   1.044   0.411
14261SOL     OW53711   2.139   7.334   1.967
14261SOL    HW153712   2.073   7.342   1.892
14261SOL    HW253713   2.194   7.252   1.954
14262SOL     OW53714   7.806   7.992   4.058
14262SOL    HW153715   7.726   8.047   4.082
14262SOL    HW253716   7.813   7.914   4.120
14263SOL     OW53717   6.232   9.352   3.227
14263SOL    HW153718   6.277   9.436   3.257
14263SOL    HW253719   6.285   9.309   3.154
14264SOL     OW53720   4.273   0.986   4.660
14264SOL    HW153721   4.339   0.914   4.679
14264SOL    HW253722   4.278   1.012   4.564
14265SOL     OW53723   1.820   4.627   0.853
14265SOL    HW153724   1.769   4.566   0.793
14265SOL    HW253725   1.825   4.718   0.812
14266SOL     OW53726   7.668   4.972   0.176
14266SOL    HW153727   7.658   5.072   0.172
14266SOL    HW253728   7.765   4.948   0.175
14267SOL     OW53729   5.535   9.339   2.136
14267SOL    HW153730   5.599   9.380   2.070
14267SOL    HW253731   5.468   9.284   2.086
14268SOL     OW53732   3.510   2.005   4.592
14268SOL    HW153733   3.532   1.956   4.676
14268SOL    HW253734   3.445   1.952   4.538
14269SOL     OW53735   2.387   0.404   3.625
14269SOL    HW153736   2.466   0.461   3.604
14269SOL    HW253737   2.386   0.325   3.564
14270SOL     OW53738   1.805   3.302   5.266
14270SOL    HW153739   1.825   3.350   5.180
14270SOL    HW253740   1.837   3.357   5.343
14271SOL     OW53741   9.273   7.327   2.012
14271SOL    HW153742   9.305   7.422   2.016
14271SOL    HW253743   9.265   7.290   2.104
14272SOL     OW53744   5.595   1.409   3.960
14272SOL    HW153745   5.575   1.436   4.054
14272SOL    HW253746   5.633   1.317   3.959
14273SOL     OW53747   1.948   8.857   1.738
14273SOL    HW153748   1.970   8.954   1.735
14273SOL    HW253749   1.851   8.845   1.760
14274SOL     OW53750   8.613   5.044   0.301
14274SOL    HW153751   8.695   4.986   0.295
14274SOL    HW253752   8.639   5.134   0.336
14275SOL     OW53753   0.719   5.405   1.709
14275SOL    HW153754   0.780   5.347   1.655
14275SOL    HW253755   0.711   5.368   1.801
14276SOL     OW53756   0.216   7.997   1.176
14276SOL    HW153757   0.231   8.058   1.098
14276SOL    HW253758   0.285   7.925   1.175
14277SOL     OW53759   1.940   8.872   3.478
14277SOL    HW153760   1.976   8.890   3.387
14277SOL    HW253761   1.875   8.944   3.503
14278SOL     OW53762   2.769   7.996   3.741
14278SOL    HW153763   2.852   7.942   3.726
14278SOL    HW253764   2.782   8.087   3.703
14279SOL     OW53765   4.797   8.926   2.609
14279SOL    HW153766   4.705   8.949   2.642
14279SOL    HW253767   4.839   8.860   2.671
14280SOL     OW53768   9.059   8.804   3.266
14280SOL    HW153769   9.033   8.895   3.299
14280SOL    HW253770   9.032   8.736   3.333
14281SOL     OW53771   1.996   2.916   4.081
14281SOL    HW153772   2.001   3.011   4.113
14281SOL    HW253773   1.957   2.913   3.989
14282SOL     OW53774   6.506   1.127   0.424
14282SOL    HW153775   6.598   1.166   0.425
14282SOL    HW253776   6.510   1.033   0.392
14283SOL     OW53777   9.460   5.435   2.687
14283SOL    HW153778   9.393   5.503   2.718
14283SOL    HW253779   9.552   5.472   2.698
14284SOL     OW53780   6.248   9.409   3.944
14284SOL    HW153781   6.246   9.500   3.902
14284SOL    HW253782   6.268   9.419   4.042
14285SOL     OW53783   2.530   1.880   1.284
14285SOL    HW153784   2.508   1.920   1.196
14285SOL    HW253785   2.589   1.943   1.335
14286SOL     OW53786   1.397   5.273   0.355
14286SOL    HW153787   1.298   5.278   0.366
14286SOL    HW253788   1.439   5.359   0.383
14287SOL     OW53789   0.182   3.829   2.471
14287SOL    HW153790   0.179   3.913   2.526
14287SOL    HW253791   0.133   3.843   2.385
14288SOL     OW53792   0.104   4.666   5.163
14288SOL    HW153793   0.198   4.700   5.169
14288SOL    HW253794   0.063   4.696   5.076
14289SOL     OW53795   3.040   8.244   2.433
14289SOL    HW153796   2.963   8.214   2.377
14289SOL    HW253797   3.107   8.291   2.375
14290SOL     OW53798   2.818   4.732   1.295
14290SOL    HW153799   2.798   4.687   1.383
14290SOL    HW253800   2.734   4.735   1.240
14291SOL     OW53801   9.591   4.692   3.728
14291SOL    HW153802   9.614   4.646   3.814
14291SOL    HW253803   9.656   4.766   3.711
14292SOL     OW53804   9.216   9.396   2.046
14292SOL    HW153805   9.234   9.345   2.130
14292SOL    HW253806   9.130   9.364   2.006
14293SOL     OW53807   2.353   0.181   3.808
14293SOL    HW153808   2.350   0.271   3.765
14293SOL    HW253809   2.311   0.114   3.746
14294SOL     OW53810   3.029   5.121   1.579
14294SOL    HW153811   3.059   5.210   1.544
14294SOL    HW253812   2.983   5.070   1.506
14295SOL     OW53813   9.980   9.505   1.454
14295SOL    HW153814   0.037   9.445   1.397
14295SOL    HW253815   9.967   9.593   1.407
14296SOL     OW53816   3.804   8.006   5.161
14296SOL    HW153817   3.882   8.046   5.208
14296SOL    HW253818   3.834   7.966   5.074
14297SOL     OW53819   7.731   7.420   3.226
14297SOL    HW153820   7.769   7.468   3.147
14297SOL    HW253821   7.796   7.423   3.302
14298SOL     OW53822   3.424   4.713   2.475
14298SOL    HW153823   3.476   4.668   2.402
14298SOL    HW253824   3.328   4.720   2.448
14299SOL     OW53825   9.275   4.554   4.002
14299SOL    HW153826   9.354   4.602   4.042
14299SOL    HW253827   9.271   4.461   4.038
14300SOL     OW53828   9.722   9.614   3.957
14300SOL    HW153829   9.694   9.546   4.026
14300SOL    HW253830   9.655   9.614   3.883
14301SOL     OW53831   3.302   1.112   1.561
14301SOL    HW153832   3.397   1.084   1.551
14301SOL    HW253833   3.260   1.123   1.471
14302SOL     OW53834   4.197   6.305   2.015
14302SOL    HW153835   4.121   6.349   1.968
14302SOL    HW253836   4.258   6.375   2.053
14303SOL     OW53837   5.085   9.565   4.324
14303SOL    HW153838   5.107   9.580   4.228
14303SOL    HW253839   5.143   9.623   4.381
14304SOL     OW53840   2.416   8.171   5.180
14304SOL    HW153841   2.375   8.081   5.194
14304SOL    HW253842   2.510   8.171   5.212
14305SOL     OW53843   5.291   2.136   3.141
14305SOL    HW153844   5.334   2.058   3.186
14305SOL    HW253845   5.229   2.181   3.205
14306SOL     OW53846   3.678   8.745   1.224
14306SOL    HW153847   3.601   8.692   1.260
14306SOL    HW253848   3.646   8.800   1.147
14307SOL     OW53849   2.308   4.937   2.250
14307SOL    HW153850   2.390   4.994   2.245
14307SOL    HW253851   2.305   4.890   2.339
14308SOL     OW53852   7.425   0.786   2.825
14308SOL    HW153853   7.461   0.830   2.907
14308SOL    HW253854   7.406   0.690   2.845
14309SOL     OW53855   0.194   7.045   1.361
14309SOL    HW153856   0.170   6.999   1.446
14309SOL    HW253857   0.115   7.045   1.299
14310SOL     OW53858   1.602   3.033   2.205
14310SOL    HW153859   1.520   2.984   2.177
14310SOL    HW253860   1.683   2.984   2.172
14311SOL     OW53861   5.152   1.487   2.947
14311SOL    HW153862   5.182   1.575   2.911
14311SOL    HW253863   5.146   1.421   2.871
14312SOL     OW53864   3.467   7.934   2.491
14312SOL    HW153865   3.560   7.967   2.471
14312SOL    HW253866   3.465   7.894   2.583
14313SOL     OW53867   3.473   9.175   4.989
14313SOL    HW153868   3.373   9.181   4.994
14313SOL    HW253869   3.499   9.124   4.908
14314SOL     OW53870   1.780   6.163   1.171
14314SOL    HW153871   1.784   6.134   1.267
14314SOL    HW253872   1.756   6.084   1.114
14315SOL     OW53873   5.056   9.293   2.578
14315SOL    HW153874   5.009   9.331   2.658
14315SOL    HW253875   5.029   9.345   2.497
14316SOL     OW53876   0.212   2.246   0.562
14316SOL    HW153877   0.242   2.333   0.522
14316SOL    HW253878   0.114   2.249   0.580
14317SOL     OW53879   9.555   4.135   3.896
14317SOL    HW153880   9.559   4.223   3.849
14317SOL    HW253881   9.521   4.148   3.989
14318SOL     OW53882   6.328   1.967   4.932
14318SOL    HW153883   6.239   1.935   4.901
14318SOL    HW253884   6.399   1.903   4.900
14319SOL     OW53885   3.681   0.601   1.769
14319SOL    HW153886   3.592   0.644   1.778
14319SOL    HW253887   3.735   0.648   1.700
14320SOL     OW53888   3.611   2.796   5.244
14320SOL    HW153889   3.707   2.770   5.254
14320SOL    HW253890   3.559   2.720   5.206
14321SOL     OW53891   7.605   0.599   4.710
14321SOL    HW153892   7.680   0.660   4.737
14321SOL    HW253893   7.602   0.520   4.772
14322SOL     OW53894   8.962   4.160   0.418
14322SOL    HW153895   9.033   4.092   0.398
14322SOL    HW253896   8.873   4.116   0.421
14323SOL     OW53897   0.740   4.052   1.592
14323SOL    HW153898   0.748   3.954   1.570
14323SOL    HW253899   0.832   4.091   1.602
14324SOL     OW53900   9.611   7.685   2.795
14324SOL    HW153901   9.523   7.638   2.785
14324SOL    HW253902   9.648   7.705   2.705
14325SOL     OW53903   0.166   1.125   3.149
14325SOL    HW153904   0.206   1.168   3.069
14325SOL    HW253905   0.201   1.032   3.159
14326SOL     OW53906   0.246   6.143   2.768
14326SOL    HW153907   0.293   6.122   2.682
14326SOL    HW253908   0.307   6.121   2.845
14327SOL     OW53909   3.442   6.430   3.986
14327SOL    HW153910   3.410   6.524   3.975
14327SOL    HW253911   3.443   6.384   3.896
14328SOL     OW53912   0.127   6.936   3.628
14328SOL    HW153913   0.179   7.021   3.630
14328SOL    HW253914   0.053   6.943   3.561
14329SOL     OW53915   3.330   9.462   0.228
14329SOL    HW153916   3.234   9.464   0.253
14329SOL    HW253917   3.354   9.548   0.182
14330SOL     OW53918   1.565   6.859   1.011
14330SOL    HW153919   1.559   6.959   1.006
14330SOL    HW253920   1.505   6.819   0.942
14331SOL     OW53921   9.651   3.454   5.026
14331SOL    HW153922   9.597   3.460   4.942
14331SOL    HW253923   9.625   3.528   5.088
14332SOL     OW53924   9.806   8.538   0.319
14332SOL    HW153925   9.854   8.463   0.366
14332SOL    HW253926   9.871   8.587   0.262
14333SOL     OW53927   1.803   2.550   1.493
14333SOL    HW153928   1.802   2.591   1.584
14333SOL    HW253929   1.897   2.530   1.466
14334SOL     OW53930   2.240   2.612   3.153
14334SOL    HW153931   2.292   2.552   3.091
14334SOL    HW253932   2.282   2.610   3.243
14335SOL     OW53933   4.098   0.195   2.416
14335SOL    HW153934   4.180   0.164   2.464
14335SOL    HW253935   4.115   0.286   2.378
14336SOL     OW53936   2.583   6.302   0.056
14336SOL    HW153937   2.652   6.349   0.111
14336SOL    HW253938   2.498   6.295   0.109
14337SOL     OW53939   9.093   8.902   2.271
14337SOL    HW153940   9.078   8.824   2.332
14337SOL    HW253941   9.191   8.922   2.267
14338SOL     OW53942   4.564   0.556   2.444
14338SOL    HW153943   4.629   0.555   2.368
14338SOL    HW253944   4.531   0.463   2.460
14339SOL     OW53945   1.000   8.558   4.362
14339SOL    HW153946   0.921   8.617   4.374
14339SOL    HW253947   1.003   8.490   4.435
14340SOL     OW53948   3.714   3.704   3.189
14340SOL    HW153949   3.777   3.632   3.218
14340SOL    HW253950   3.643   3.717   3.258
14341SOL     OW53951   0.785   8.026   2.002
14341SOL    HW153952   0.837   8.048   2.084
14341SOL    HW253953   0.689   8.054   2.015
14342SOL     OW53954   0.112   6.653   2.079
14342SOL    HW153955   0.182   6.720   2.104
14342SOL    HW253956   0.145   6.561   2.102
14343SOL     OW53957   3.048   4.595   2.722
14343SOL    HW153958   3.115   4.668   2.733
14343SOL    HW253959   3.026   4.584   2.625
14344SOL     OW53960   6.574   8.763   3.071
14344SOL    HW153961   6.559   8.853   3.030
14344SOL    HW253962   6.580   8.694   2.999
14345SOL     OW53963   1.045   4.030   0.055
14345SOL    HW153964   0.990   4.043   0.138
14345SOL    HW253965   1.112   4.105   0.048
14346SOL     OW53966   6.161   1.530   2.628
14346SOL    HW153967   6.257   1.502   2.629
14346SOL    HW253968   6.153   1.624   2.596
14347SOL     OW53969   4.391   0.365   0.100
14347SOL    HW153970   4.307   0.364   0.046
14347SOL    HW253971   4.470   0.360   0.040
14348SOL     OW53972   9.318   9.737   5.277
14348SOL    HW153973   9.395   9.701   5.224
14348SOL    HW253974   9.319   9.698   5.369
14349SOL     OW53975   2.716   3.658   1.391
14349SOL    HW153976   2.809   3.691   1.408
14349SOL    HW253977   2.654   3.735   1.384
14350SOL     OW53978   3.953   6.146   1.351
14350SOL    HW153979   3.998   6.214   1.292
14350SOL    HW253980   3.854   6.157   1.346
14351SOL     OW53981   2.308   8.372   1.987
14351SOL    HW153982   2.281   8.357   2.082
14351SOL    HW253983   2.388   8.316   1.966
14352SOL     OW53984   9.343   8.700   3.886
14352SOL    HW153985   9.312   8.748   3.968
14352SOL    HW253986   9.379   8.766   3.820
14353SOL     OW53987   9.533   6.263   4.687
14353SOL    HW153988   9.610   6.283   4.626
14353SOL    HW253989   9.522   6.338   4.752
14354SOL     OW53990   2.718   7.996   4.008
14354SOL    HW153991   2.661   8.074   4.035
14354SOL    HW253992   2.725   7.994   3.908
14355SOL     OW53993   8.464   1.366   4.935
14355SOL    HW153994   8.524   1.421   4.877
14355SOL    HW253995   8.374   1.408   4.939
14356SOL     OW53996   3.287   3.236   3.226
14356SOL    HW153997   3.254   3.221   3.320
14356SOL    HW253998   3.306   3.148   3.183
14357SOL     OW53999   4.499   9.645   5.198
14357SOL    HW154000   4.571   9.711   5.179
14357SOL    HW254001   4.511   9.609   5.291
14358SOL     OW54002   3.699   8.068   2.424
14358SOL    HW154003   3.796   8.089   2.410
14358SOL    HW254004   3.651   8.148   2.458
14359SOL     OW54005   5.106   1.533   4.848
14359SOL    HW154006   5.154   1.503   4.766
14359SOL    HW254007   5.013   1.561   4.824
14360SOL     OW54008   1.871   3.479   3.927
14360SOL    HW154009   1.866   3.381   3.949
14360SOL    HW254010   1.966   3.506   3.914
14361SOL     OW54011   1.561   4.995   2.256
14361SOL    HW154012   1.564   4.897   2.275
14361SOL    HW254013   1.653   5.027   2.232
14362SOL     OW54014   2.905   1.386   3.600
14362SOL    HW154015   2.943   1.362   3.689
14362SOL    HW254016   2.808   1.409   3.611
14363SOL     OW54017   2.714   3.418   4.548
14363SOL    HW154018   2.718   3.322   4.523
14363SOL    HW254019   2.670   3.427   4.638
14364SOL     OW54020   8.099   0.785   1.273
14364SOL    HW154021   8.147   0.863   1.313
14364SOL    HW254022   8.026   0.817   1.214
14365SOL     OW54023   9.213   2.558   3.607
14365SOL    HW154024   9.163   2.578   3.522
14365SOL    HW254025   9.308   2.588   3.597
14366SOL     OW54026   0.732   5.380   3.766
14366SOL    HW154027   0.720   5.383   3.865
14366SOL    HW254028   0.644   5.397   3.721
14367SOL     OW54029   3.771   4.628   0.743
14367SOL    HW154030   3.870   4.642   0.732
14367SOL    HW254031   3.741   4.555   0.683
14368SOL     OW54032   1.693   8.979   5.127
14368SOL    HW154033   1.652   8.894   5.094
14368SOL    HW254034   1.765   8.958   5.194
14369SOL     OW54035   4.290   5.622   5.226
14369SOL    HW154036   4.384   5.590   5.234
14369SOL    HW254037   4.282   5.683   5.148
14370SOL     OW54038   1.527   7.131   0.989
14370SOL    HW154039   1.562   7.224   1.001
14370SOL    HW254040   1.458   7.113   1.059
14371SOL     OW54041   3.207   9.953   0.924
14371SOL    HW154042   3.189   9.928   0.829
14371SOL    HW254043   3.255   9.878   0.970
14372SOL     OW54044   9.307   4.228   0.581
14372SOL    HW154045   9.221   4.280   0.578
14372SOL    HW254046   9.306   4.166   0.659
14373SOL     OW54047   8.637   2.894   4.852
14373SOL    HW154048   8.724   2.891   4.901
14373SOL    HW254049   8.577   2.822   4.887
14374SOL     OW54050   5.652   0.821   2.276
14374SOL    HW154051   5.575   0.765   2.306
14374SOL    HW254052   5.721   0.762   2.233
14375SOL     OW54053   3.676   9.253   4.610
14375SOL    HW154054   3.652   9.273   4.515
14375SOL    HW254055   3.758   9.196   4.613
14376SOL     OW54056   8.290   4.384   2.500
14376SOL    HW154057   8.290   4.319   2.576
14376SOL    HW254058   8.223   4.356   2.432
14377SOL     OW54059   0.206   2.375   0.237
14377SOL    HW154060   0.199   2.429   0.321
14377SOL    HW254061   0.190   2.435   0.158
14378SOL     OW54062   1.443   9.427   2.410
14378SOL    HW154063   1.373   9.357   2.396
14378SOL    HW254064   1.451   9.447   2.508
14379SOL     OW54065   3.428   9.669   5.111
14379SOL    HW154066   3.336   9.643   5.084
14379SOL    HW254067   3.485   9.680   5.030
14380SOL     OW54068   4.933   9.778   1.982
14380SOL    HW154069   4.990   9.859   1.997
14380SOL    HW254070   4.958   9.707   2.048
14381SOL     OW54071   9.559   9.797   0.208
14381SOL    HW154072   9.607   9.720   0.251
14381SOL    HW254073   9.622   9.847   0.149
14382SOL     OW54074   2.657   1.462   0.728
14382SOL    HW154075   2.582   1.402   0.704
14382SOL    HW254076   2.621   1.542   0.777
14383SOL     OW54077   0.397   5.405   4.166
14383SOL    HW154078   0.412   5.338   4.239
14383SOL    HW254079   0.355   5.488   4.205
14384SOL     OW54080   0.800   5.844   2.850
14384SOL    HW154081   0.897   5.821   2.844
14384SOL    HW254082   0.786   5.938   2.817
  10.00000  10.00000   6.74838
