Written by MDAnalysis
12238
    1CHTO  H203    1   4.940   6.746   2.368 -1.5555  0.1100 -0.4123
    1CHTO   O82    2   4.926   6.804   2.441 -0.7585  0.0522 -0.2019
    1CHTO  C123    3   5.049   6.795   2.511  0.1831 -0.1533  0.2774
    1CHTO  H227    4   5.051   6.863   2.598  0.5339 -0.5630  0.5939
    1CHTO   O77    5   5.055   6.659   2.566  0.8236 -0.7753 -0.3498
    1CHTO  C118    6   5.165   6.619   2.648  0.4410 -0.1516 -0.1026
    1CHTO  H222    7   5.159   6.679   2.740  1.0471 -3.3192  2.1039
    1CHTO  C125    8   5.141   6.473   2.698 -0.2545  0.8235 -0.5601
    1CHTO   O84    9   5.032   6.456   2.792  0.0653  0.0251 -0.2419
    1CHTO  H205   10   4.950   6.487   2.759 -0.3947 -1.1629 -0.2142
    1CHTO  C114   11   5.297   6.647   2.570  0.0737  0.1359  0.4312
    1CHTO  H218   12   5.299   6.576   2.487 -0.7703 -2.6298  2.6850
    1CHTO  C116   13   5.301   6.786   2.505 -0.2183 -0.6123 -0.3930
    1CHTO  H220   14   5.303   6.858   2.590  1.7186 -0.8906 -0.1907
    1CHTO   O79   15   5.425   6.808   2.433  0.2424  0.7867  0.5238
    1CHTO  H201   16   5.428   6.891   2.390 -2.1940  0.5740 -0.1056
    1CHTO  C120   17   5.174   6.818   2.418  0.0936 -0.1301 -0.0239
    1CHTO  H224   18   5.176   6.746   2.334  0.4718  0.3682 -0.4471
    1CHTO   N21   19   5.174   6.961   2.367 -0.0637 -0.5272 -0.2105
    1CHTO  H211   20   5.109   6.968   2.281 -1.2963  1.0837  0.8384
    1CHTO  H212   21   5.273   6.989   2.333 -0.0434  0.7637  0.8683
    1CHTO   O75   22   5.405   6.618   2.659 -0.3628  0.2428  0.4531
    1CHTO  C112   23   5.495   6.478   2.613 -0.1799 -0.6753  0.1147
    1CHTO  H216   24   5.486   6.458   2.505  0.1874  0.3080 -0.1032
    1CHTO   O73   25   5.446   6.372   2.693 -0.2477  0.2582  0.2625
    1CHTO  C113   26   5.504   6.248   2.644 -0.6054 -0.2604  0.5562
    1CHTO  H217   27   5.478   6.232   2.538  1.2199 -3.5903  0.5354
    1CHTO  C124   28   5.439   6.120   2.710  0.1850  0.4662 -0.7764
    1CHTO   O83   29   5.298   6.113   2.687  0.1437 -0.3655 -0.5271
    1CHTO  H204   30   5.257   6.030   2.698 -1.8445  0.8615  1.7744
    1CHTO  C109   31   5.656   6.244   2.681  0.9029 -0.9432 -0.1481
    1CHTO  H213   32   5.661   6.247   2.790  1.7991 -1.0395 -0.1884
    1CHTO  C110   33   5.721   6.380   2.622  0.2127 -0.1081 -0.2107
    1CHTO  H214   34   5.730   6.364   2.514  0.2986  0.1664 -0.2453
    1CHTO   O78   35   5.857   6.394   2.670  0.0286  0.3619  0.7428
    1CHTO  H200   36   5.918   6.350   2.615 -1.1574 -0.0879 -0.2416
    1CHTO  C111   37   5.643   6.511   2.648  0.0839 -0.2955  0.3061
    1CHTO  H215   38   5.644   6.540   2.754 -1.4908  0.6040  0.0877
    1CHTO   N19   39   5.703   6.626   2.567 -0.3983 -0.4630  0.0548
    1CHTO  H207   40   5.671   6.724   2.599  0.6500 -0.7932  2.1997
    1CHTO  H208   41   5.674   6.610   2.464  1.1907 -2.2140 -0.1491
    1CHTO   O74   42   5.714   6.124   2.638  0.0442  0.2309 -0.2451
    1CHTO  C115   43   5.806   6.043   2.738 -0.4212  0.1546 -0.1915
    1CHTO  H219   44   5.818   6.092   2.835  1.8120 -0.9866  0.1527
    1CHTO   O76   45   5.748   5.896   2.765 -0.0826  0.3767  0.2066
    1CHTO  C122   46   5.727   5.825   2.644  0.1807  0.4677 -0.0127
    1CHTO  H226   47   5.637   5.863   2.596 -0.7526  2.5424  3.2163
    1CHTO  C126   48   5.694   5.674   2.669  0.4648 -1.0349 -0.1898
    1CHTO   O85   49   5.780   5.608   2.765  0.2510 -0.6873 -0.1940
    1CHTO  H206   50   5.733   5.532   2.795  0.5178  0.2609  2.7463
    1CHTO  C121   51   5.848   5.831   2.538  0.8776 -0.3106 -0.2964
    1CHTO  H225   52   5.867   5.725   2.511  2.7584 -0.7202  2.4416
    1CHTO   O81   53   5.814   5.917   2.423  0.2577  0.1443 -0.4689
    1CHTO  H202   54   5.739   5.970   2.441 -0.9282 -0.9904 -1.9558
    1CHTO  C119   55   5.970   5.895   2.605 -0.3436  0.0273 -0.3948
    1CHTO  H223   56   5.996   5.832   2.690 -0.2897  1.1005  0.3870
    1CHTO  C117   57   5.950   6.035   2.667 -0.3665  0.3513  0.3524
    1CHTO  H221   58   5.948   6.119   2.597  0.5871 -0.8129 -1.0896
    1CHTO   N20   59   6.062   6.075   2.756 -0.4332 -0.3444  0.2199
    1CHTO  H209   60   6.149   6.056   2.694  0.0045  0.7048  0.4989
    1CHTO  H210   61   6.055   6.003   2.836  0.3761  0.7009  1.2571
    1CHTO   O80   62   6.120   5.895   2.519 -0.5357 -0.0729 -0.4129
    1CHTO  C103   63   6.235   5.802   2.551  0.0356  0.6427 -0.2080
    1CHTO  H190   64   6.223   5.778   2.657 -1.7895 -0.0283 -0.5492
    1CHTO  C101   65   6.237   5.675   2.470  0.2880 -0.3671 -0.2887
    1CHTO  H188   66   6.250   5.711   2.368 -0.6294  0.5452 -0.0942
    1CHTO   O68   67   6.105   5.601   2.482  0.8346 -0.1686  0.2360
    1CHTO  H168   68   6.067   5.589   2.567 -1.3136  0.0092 -0.6491
    1CHTO   C99   69   6.360   5.577   2.511  0.5389  0.3254  0.2661
    1CHTO  H186   70   6.359   5.536   2.614  1.7538  1.7198  0.8418
    1CHTO   N17   71   6.366   5.454   2.417 -1.0546  0.7342  0.4122
    1CHTO  H174   72   6.289   5.383   2.443 -0.6581 -0.2403 -1.0682
    1CHTO  H175   73   6.459   5.401   2.405 -0.7736  0.8331  2.0284
    1CHTO   C97   74   6.487   5.662   2.498 -0.5234  0.0214  0.4055
    1CHTO  H184   75   6.511   5.686   2.393 -0.6299 -1.4700  0.0218
    1CHTO   O64   76   6.479   5.782   2.580  0.7269 -0.6204 -0.5442
    1CHTO  C104   77   6.374   5.871   2.537 -0.3985  0.3939 -0.5995
    1CHTO  H191   78   6.394   5.896   2.433 -0.6561  2.6802 -0.1231
    1CHTO  C108   79   6.393   5.998   2.622 -0.4887  0.1689 -0.6386
    1CHTO   O71   80   6.505   6.069   2.566  0.0797  0.5920  0.0327
    1CHTO  H171   81   6.528   6.144   2.618 -2.5875  0.3916  1.5777
    1CHTO   O62   82   6.603   5.605   2.567 -0.2325 -0.5014  0.0399
    1CHTO   C91   83   6.729   5.600   2.485  0.3108  0.9985  0.7408
    1CHTO  H178   84   6.695   5.579   2.383  1.4725 -0.6921  0.6912
    1CHTO   C92   85   6.801   5.472   2.531 -0.2989  0.3925 -0.1832
    1CHTO  H179   86   6.805   5.473   2.641  0.8007 -1.2601 -0.1949
    1CHTO   O66   87   6.714   5.368   2.498 -0.5392  0.0848 -0.0624
    1CHTO  H166   88   6.661   5.344   2.572 -0.0848 -1.5621 -0.2603
    1CHTO   C93   89   6.940   5.452   2.457  0.1479  0.5660  0.5702
    1CHTO  H180   90   6.923   5.439   2.349 -0.0494 -1.0372  0.7883
    1CHTO   N16   91   7.015   5.325   2.484  0.6069 -0.5620 -0.3397
    1CHTO  H172   92   6.963   5.231   2.481  0.5814 -0.5295 -0.8374
    1CHTO  H173   93   7.108   5.322   2.429  1.3715 -2.0352  0.9838
    1CHTO   C94   94   7.020   5.580   2.482 -0.0251 -0.3443  0.4655
    1CHTO  H181   95   7.033   5.599   2.588  0.6459 -1.0725  0.5188
    1CHTO   O61   96   6.952   5.695   2.429  0.7981 -0.2315  0.3578
    1CHTO   C95   97   6.830   5.721   2.492  0.9708 -0.0648 -0.5442
    1CHTO  H182   98   6.842   5.734   2.599 -0.1170 -2.8281 -0.0446
    1CHTO  C106   99   6.783   5.855   2.423 -0.1309 -0.8299  0.2219
    1CHTO   O69  100   6.809   5.873   2.281  0.2393 -0.5972 -0.6155
    1CHTO  H169  101   6.822   5.792   2.235  1.3751 -1.8473  1.8131
    1CHTO   O63  102   7.174   5.573   2.409 -0.4702 -0.3857  0.2979
    1CHTO   C96  103   7.288   5.649   2.483 -0.1445  0.5358  0.1274
    1CHTO  H183  104   7.243   5.733   2.536 -1.5245 -0.8650  1.2495
    1CHTO   C98  105   7.398   5.706   2.383  0.3834 -0.0023 -0.0230
    1CHTO  H185  106   7.360   5.768   2.300  2.5380 -0.7489 -1.5957
    1CHTO   O67  107   7.492   5.796   2.454  0.6232  0.6761  0.2381
    1CHTO  H167  108   7.443   5.872   2.483  0.3837  1.5054 -2.2557
    1CHTO  C102  109   7.487   5.592   2.314  0.7216 -0.4710  0.1353
    1CHTO  H189  110   7.583   5.640   2.292 -0.4677  0.9782 -2.0963
    1CHTO   N18  111   7.434   5.545   2.186  0.8518  0.1207  0.3423
    1CHTO  H176  112   7.510   5.548   2.109  0.6756  1.3883  0.1959
    1CHTO  H177  113   7.343   5.598   2.160  0.3398  0.0416  1.9254
    1CHTO  C105  114   7.506   5.480   2.419 -0.8084 -0.4604 -0.0345
    1CHTO  H192  115   7.452   5.389   2.395 -1.0498 -0.2162 -0.4193
    1CHTO   O65  116   7.495   5.525   2.561 -0.1403 -0.6331 -0.3740
    1CHTO  C100  117   7.358   5.556   2.591  0.0559 -0.7637 -0.0975
    1CHTO  H187  118   7.308   5.458   2.589  0.2826 -0.8735 -1.5254
    1CHTO  C107  119   7.370   5.612   2.730  0.6252  0.5489 -0.2826
    1CHTO   O70  120   7.261   5.570   2.809  0.2283  0.0838  0.0835
    1CHTO  H170  121   7.252   5.610   2.894 -1.3014 -1.6108  0.7344
    1CHTO   O57  122   7.674   5.443   2.396 -0.1406 -0.2466  0.5073
    1CHTO   C85  123   7.697   5.330   2.308  0.2240 -0.1407  0.4659
    1CHTO  H157  124   7.603   5.312   2.251  1.8184 -0.1841 -2.1834
    1CHTO   C83  125   7.712   5.197   2.397  0.6368  0.4540  0.2991
    1CHTO  H155  126   7.616   5.179   2.446  0.4803 -1.7107 -0.7380
    1CHTO   O56  127   7.815   5.207   2.501  0.0702  0.0487  0.4779
    1CHTO  H135  128   7.782   5.183   2.585 -1.3035  0.7386  0.1564
    1CHTO   C81  129   7.734   5.082   2.292  0.4199 -0.3920 -0.2916
    1CHTO  H153  130   7.641   5.073   2.236  0.6520  0.9716 -0.8937
    1CHTO   N14  131   7.752   4.946   2.362 -0.1916 -0.1877  0.3969
    1CHTO  H141  132   7.750   4.870   2.286  2.7437  2.0906 -2.1077
    1CHTO  H142  133   7.848   4.941   2.409 -0.0440  0.4153  0.1687
    1CHTO   C79  134   7.849   5.113   2.191 -0.1798 -0.3137 -0.2269
    1CHTO  H151  135   7.860   5.028   2.123  0.9078 -1.6298  1.5301
    1CHTO   O52  136   7.838   5.236   2.121 -0.1371 -0.0513  0.1946
    1CHTO   C86  137   7.821   5.345   2.210 -0.4054 -0.1894 -0.0936
    1CHTO  H158  138   7.918   5.353   2.263  0.2383 -1.8737 -0.9797
    1CHTO   C90  139   7.805   5.478   2.125 -0.2132 -0.1180  0.1964
    1CHTO   O60  140   7.824   5.591   2.207  0.0572  0.0430 -0.2677
    1CHTO  H138  141   7.812   5.665   2.151  0.2090 -0.6949 -1.2937
    1CHTO   O50  142   7.982   5.111   2.253 -0.2468 -0.1235  0.1677
    1CHTO   C73  143   8.104   5.060   2.204 -0.8075  0.2021 -0.6923
    1CHTO  H145  144   8.099   5.072   2.095  0.0459 -1.5504 -0.9506
    1CHTO   C74  145   8.119   4.907   2.241 -0.0109 -0.4272 -0.3143
    1CHTO  H146  146   8.034   4.849   2.203 -0.2385  0.5841 -1.3419
    1CHTO   O54  147   8.235   4.855   2.168 -0.0562  0.1092 -0.8049
    1CHTO  H133  148   8.222   4.767   2.137 -0.4039  0.1955 -0.9087
    1CHTO   C75  149   8.134   4.893   2.395 -0.0467  0.3612  0.7489
    1CHTO  H147  150   8.036   4.915   2.440 -0.3304 -0.1317  0.3808
    1CHTO   N13  151   8.163   4.756   2.436  0.3517  1.0345 -0.0891
    1CHTO  H139  152   8.161   4.686   2.354 -0.0551  1.1075 -0.1382
    1CHTO  H140  153   8.257   4.750   2.491  0.1592 -0.4778  0.1163
    1CHTO   C76  154   8.241   4.994   2.453  0.6084  0.1397 -0.1621
    1CHTO  H148  155   8.339   4.960   2.418  1.0063 -1.6736  2.5799
    1CHTO   O49  156   8.224   5.133   2.409  0.5641  0.2483  0.0622
    1CHTO   C77  157   8.225   5.143   2.268 -0.1669 -0.5710 -0.6083
    1CHTO  H149  158   8.319   5.102   2.231 -1.0164 -0.4446 -3.0278
    1CHTO   C88  159   8.216   5.291   2.244 -0.1548  0.2226 -0.4251
    1CHTO   O58  160   8.281   5.332   2.143 -0.3218 -0.4867 -0.5596
    1CHTO  H136  161   8.229   5.323   2.066  2.3355  0.3844 -2.5500
    1CHTO   O51  162   8.237   5.005   2.627 -0.1668  0.1564  0.0894
    1CHTO   C78  163   8.141   5.110   2.685 -0.4192 -0.0395 -0.4594
    1CHTO  H150  164   8.073   5.150   2.606 -0.2776  0.9850 -0.0642
    1CHTO   C80  165   8.230   5.224   2.736  0.0852  0.0960 -0.3584
    1CHTO  H152  166   8.307   5.178   2.801  0.3584  2.2413  0.8726
    1CHTO   O55  167   8.295   5.286   2.618 -0.3803 -0.2493 -0.1383
    1CHTO  H134  168   8.323   5.230   2.548  0.9156 -0.8472  0.8404
    1CHTO   C84  169   8.147   5.330   2.812 -0.5485  0.3758 -0.6168
    1CHTO  H156  170   8.088   5.380   2.735  1.2178  1.1483 -1.5154
    1CHTO   N15  171   8.224   5.442   2.870  0.6533  0.0610 -0.6468
    1CHTO  H143  172   8.315   5.400   2.906  0.7096 -0.4254 -1.3526
    1CHTO  H144  173   8.254   5.504   2.787 -0.9222  2.7641  0.7121
    1CHTO   C87  174   8.049   5.273   2.919  0.2906 -0.1533  0.3305
    1CHTO  H159  175   8.107   5.244   3.007  0.5534  0.7979  0.4749
    1CHTO   O53  176   7.961   5.145   2.847  0.0945 -0.1103 -0.2602
    1CHTO   C82  177   8.054   5.044   2.799 -0.0177 -0.1994 -0.1369
    1CHTO  H154  178   8.117   5.002   2.877  0.2184 -0.7178 -0.6002
    1CHTO   C89  179   7.976   4.925   2.738 -1.0714  0.0470  0.0298
    1CHTO   O59  180   7.892   4.980   2.637 -0.3778 -0.0639 -0.2611
    1CHTO  H137  181   7.854   5.065   2.648  1.6467  1.0388 -1.4429
    1CHTO   O45  182   7.937   5.372   2.981  0.0435  0.0545  0.3048
    1CHTO   C67  183   7.833   5.421   2.889 -0.3260 -0.2242  0.4802
    1CHTO  H124  184   7.842   5.372   2.792 -2.3009  0.4749 -0.0825
    1CHTO   C65  185   7.688   5.396   2.945  0.1731 -0.3173  0.0125
    1CHTO  H122  186   7.690   5.291   2.973 -0.0004 -0.5878 -0.9638
    1CHTO   O44  187   7.585   5.405   2.844  0.1002 -0.1828 -0.1031
    1CHTO  H102  188   7.536   5.327   2.830 -0.2390  0.2707 -1.4592
    1CHTO   C63  189   7.668   5.484   3.069 -0.0332 -0.0623 -0.1790
    1CHTO  H120  190   7.748   5.454   3.137  0.4951  2.2656  0.2812
    1CHTO   N11  191   7.550   5.453   3.148  0.3503 -0.3307 -0.8133
    1CHTO  H108  192   7.465   5.502   3.106  0.6867  0.2965 -0.7789
    1CHTO  H109  193   7.560   5.497   3.245  1.1248 -0.8256 -0.6673
    1CHTO   C61  194   7.685   5.638   3.032 -0.4567  0.7187 -0.6284
    1CHTO  H118  195   7.692   5.700   3.123  1.4874 -2.0511  1.1776
    1CHTO   O40  196   7.807   5.661   2.965  0.7032 -0.0918 -0.4154
    1CHTO   C68  197   7.861   5.571   2.854 -0.7543 -0.1315 -0.2969
    1CHTO  H125  198   7.962   5.617   2.852  0.0098 -1.6972  1.2860
    1CHTO   C72  199   7.793   5.616   2.720 -0.4686 -0.0062 -0.3772
    1CHTO   O48  200   7.834   5.540   2.607  0.2426 -0.0756 -0.4461
    1CHTO  H105  201   7.916   5.573   2.575  1.5019 -1.1501  1.5898
    1CHTO   O38  202   7.578   5.688   2.952 -0.1599  0.3247  0.6322
    1CHTO   C55  203   7.519   5.813   2.997 -0.4165 -0.0371  0.1486
    1CHTO  H112  204   7.580   5.854   3.078 -2.3708  3.6574 -0.1279
    1CHTO   C56  205   7.364   5.796   3.043 -0.1576  0.1796 -0.3068
    1CHTO  H113  206   7.310   5.745   2.962  0.9952 -0.2129 -0.8271
    1CHTO   O42  207   7.354   5.710   3.154  0.0387  0.0814 -0.0063
    1CHTO  H100  208   7.265   5.696   3.179  0.1172  1.9570  1.4501
    1CHTO   C57  209   7.299   5.937   3.067 -0.0564 -0.0988  0.4345
    1CHTO  H114  210   7.340   5.992   3.152 -2.3648  0.4468  1.2616
    1CHTO   N10  211   7.155   5.928   3.103 -0.0787 -0.0281  0.2184
    1CHTO  H106  212   7.155   5.924   3.211  0.6898 -0.3897  0.2130
    1CHTO  H107  213   7.115   5.837   3.061 -2.2842  0.6221  0.8560
    1CHTO   C58  214   7.317   6.029   2.942  0.3830 -0.0374  0.6436
    1CHTO  H115  215   7.266   5.981   2.857 -1.6552 -0.5456  2.1020
    1CHTO   O37  216   7.462   6.045   2.932 -0.4305 -0.2151 -0.5705
    1CHTO   C59  217   7.526   5.926   2.886  0.0517  0.4865 -0.7190
    1CHTO  H116  218   7.481   5.898   2.791 -0.1760  0.3401 -0.5645
    1CHTO   C70  219   7.668   5.967   2.852 -0.3300 -0.8111  0.0570
    1CHTO   O46  220   7.678   6.068   2.755  0.1846  0.3598 -0.1966
    1CHTO  H103  221   7.678   6.153   2.794 -0.6120 -0.5536  1.8714
    1CHTO   O39  222   7.263   6.203   2.965  0.5928 -0.2432  0.7039
    1CHTO   C60  223   7.232   6.275   2.844 -0.2942 -1.3049 -0.2557
    1CHTO  H117  224   7.249   6.209   2.759 -0.3623 -2.7067  0.8184
    1CHTO   C62  225   7.083   6.314   2.842 -0.0085  0.5119  0.1364
    1CHTO  H119  226   7.035   6.214   2.847  0.4447  0.3514  1.7803
    1CHTO   O43  227   7.052   6.388   2.960  0.4446 -0.4969 -0.2594
    1CHTO  H101  228   6.962   6.386   2.984  0.2739  0.2543 -0.8548
    1CHTO   C66  229   7.047   6.387   2.706 -0.5826  0.0891 -0.3173
    1CHTO  H123  230   7.085   6.331   2.619 -1.1003 -2.0370  0.7863
    1CHTO   N12  231   6.899   6.407   2.694 -0.4242  0.1320  0.1416
    1CHTO  H110  232   6.877   6.457   2.601 -0.0410  1.6733  0.8696
    1CHTO  H111  233   6.856   6.310   2.715  1.9796 -0.4996  2.4605
    1CHTO   C69  234   7.119   6.522   2.708  0.6035  0.1409 -0.1915
    1CHTO  H126  235   7.101   6.577   2.803 -0.2050 -1.1186  0.4042
    1CHTO   O41  236   7.271   6.489   2.698 -0.2386 -0.1346 -0.0481
    1CHTO   C64  237   7.319   6.401   2.820 -0.3875 -0.7254 -0.1878
    1CHTO  H121  238   7.325   6.467   2.909  2.6076  1.4685 -1.8931
    1CHTO   C71  239   7.461   6.354   2.794  0.6458  0.0892 -0.6496
    1CHTO   O47  240   7.470   6.286   2.672  0.1481  0.3361  0.1831
    1CHTO  H104  241   7.561   6.284   2.652 -0.4180  2.2184 -3.0734
    1CHTO   O34  242   7.082   6.616   2.607 -0.1993  0.1093 -0.1843
    1CHTO   C49  243   7.062   6.764   2.566 -0.1096 -0.9525 -0.4597
    1CHTO   H91  244   7.049   6.751   2.459  0.9360 -0.2954 -0.6704
    1CHTO   C47  245   7.177   6.862   2.603 -0.3302 -0.1515 -0.6347
    1CHTO   H89  246   7.151   6.964   2.570  0.0344  0.7743  1.8726
    1CHTO   O33  247   7.300   6.821   2.542  0.3117 -0.1452  0.0720
    1CHTO   H70  248   7.375   6.875   2.559  2.5737 -3.2993  0.7292
    1CHTO   C45  249   7.174   6.863   2.768 -0.1610 -0.7891 -0.5914
    1CHTO   H87  250   7.171   6.759   2.804  0.0402 -0.0010  1.7785
    1CHTO    N8  251   7.288   6.934   2.830  0.7426 -0.2189  0.0493
    1CHTO   H75  252   7.354   6.864   2.879  0.0767 -0.8452  0.0593
    1CHTO   H76  253   7.353   6.987   2.762 -0.4825  1.3325  0.0751
    1CHTO   C43  254   7.034   6.935   2.823 -0.5845  0.1905  0.4657
    1CHTO   H85  255   7.029   6.924   2.932  2.7076  1.1203  0.7572
    1CHTO   O29  256   6.919   6.872   2.758  0.3294 -0.4718 -0.1579
    1CHTO   C50  257   6.926   6.824   2.622  0.5089 -0.1935  0.1364
    1CHTO   H92  258   6.854   6.743   2.603  0.2436  0.2118 -0.6128
    1CHTO   C54  259   6.874   6.943   2.531 -0.3783 -0.3615  0.0412
    1CHTO   O36  260   6.736   6.954   2.561 -0.7079  0.8027 -0.1637
    1CHTO   H72  261   6.691   6.984   2.485 -1.0529 -0.0068 -0.2790
    1CHTO   O27  262   7.027   7.076   2.791 -0.0613 -0.0406 -0.4340
    1CHTO   C37  263   6.999   7.191   2.864 -0.2848  0.3717  0.6786
    1CHTO   H79  264   7.001   7.173   2.972  2.1994 -0.2291  0.5555
    1CHTO   C38  265   7.106   7.301   2.830 -0.7829 -0.2659  0.7931
    1CHTO   H80  266   7.121   7.308   2.722  1.6110 -1.7905  0.9926
    1CHTO   O31  267   7.228   7.254   2.890 -0.4032  0.6092  0.5605
    1CHTO   H68  268   7.281   7.331   2.878 -1.7246  1.2719 -1.3201
    1CHTO   C39  269   7.068   7.449   2.881 -0.4768  0.3672 -0.7690
    1CHTO   H81  270   7.084   7.443   2.988 -3.7351  1.7231 -0.1676
    1CHTO    N7  271   7.165   7.548   2.823  0.3939 -0.2769 -0.1501
    1CHTO   H73  272   7.174   7.605   2.914 -1.9008  0.4239 -0.3385
    1CHTO   H74  273   7.118   7.609   2.747 -0.8650 -0.7899  0.1982
    1CHTO   C40  274   6.922   7.487   2.839  0.4119  0.1373 -0.3690
    1CHTO   H82  275   6.915   7.517   2.734 -1.3044  1.4313  0.0699
    1CHTO   O26  276   6.827   7.382   2.872  0.5676 -0.0329  0.0549
    1CHTO   C41  277   6.864   7.249   2.817 -0.9681 -0.4850 -0.0181
    1CHTO   H83  278   6.870   7.262   2.708 -1.5219 -1.7946 -0.2184
    1CHTO   C52  279   6.736   7.157   2.850  0.0310  0.2139 -0.0524
    1CHTO   O35  280   6.722   7.098   3.003 -0.4268 -0.1664 -0.1491
    1CHTO   H71  281   6.683   7.158   3.064  1.1604  0.5980  0.1306
    1CHTO   O28  282   6.864   7.597   2.909  0.0685 -0.1010 -0.1698
    1CHTO   C42  283   6.797   7.713   2.854  0.1931  0.2030  0.5765
    1CHTO   H84  284   6.827   7.697   2.750  0.4263  0.3650  0.6186
    1CHTO   C44  285   6.862   7.847   2.889 -0.1483  0.9245 -0.5734
    1CHTO   H86  286   6.875   7.856   2.997 -1.0884  1.5871 -0.5133
    1CHTO   O32  287   7.002   7.837   2.849 -0.3576  0.3768 -0.5651
    1CHTO   H69  288   7.044   7.920   2.845  1.1666 -0.3927 -0.9442
    1CHTO   C48  289   6.774   7.967   2.837  0.1474  0.3052  0.3600
    1CHTO   H90  290   6.802   7.977   2.732 -1.6139 -2.3971 -0.4187
    1CHTO    N9  291   6.824   8.100   2.894 -0.1157 -0.0294 -0.5803
    1CHTO   H77  292   6.790   8.179   2.829  1.2340  0.4112 -0.7689
    1CHTO   H78  293   6.805   8.118   2.998  0.6068 -3.8105  0.2773
    1CHTO   C51  294   6.616   7.947   2.848  0.0214 -0.0590  0.5541
    1CHTO   H93  295   6.585   7.958   2.951  0.2861 -0.4689  0.6786
    1CHTO   O30  296   6.578   7.821   2.792 -0.5128  0.0270 -0.3887
    1CHTO   C46  297   6.644   7.714   2.862  0.3131 -0.5743  0.0117
    1CHTO   H88  298   6.616   7.725   2.967 -0.6344  1.3584 -0.4085
    1CHTO   C53  299   6.583   7.585   2.810  0.2127 -0.1602 -0.5024
    1CHTO   O72  300   6.444   7.586   2.823  0.4938  0.4846  0.0830
    1CHTO  H199  301   6.421   7.496   2.838  0.9158  0.4874  0.7931
    1CHTO   O22  302   6.540   8.045   2.774  0.2827  0.0615  0.3919
    1CHTO   C31  303   6.500   8.058   2.637 -0.3155  0.0941  0.1057
    1CHTO   H59  304   6.449   8.157   2.631 -1.8285 -0.7561 -1.4689
    1CHTO   C29  305   6.614   8.065   2.529  0.1899  0.3417  0.6609
    1CHTO   H57  306   6.674   7.973   2.526  0.2421  0.3758  0.6594
    1CHTO   O21  307   6.694   8.187   2.562  0.9239  0.2176  0.8718
    1CHTO   H37  308   6.653   8.270   2.551  0.0398 -0.5804 -2.4318
    1CHTO   C27  309   6.553   8.089   2.384  0.0114  0.0539  0.3637
    1CHTO   H55  310   6.508   8.189   2.379  0.4421  0.1313 -3.6601
    1CHTO    N5  311   6.664   8.083   2.282 -0.1372  1.0096 -0.3966
    1CHTO   H43  312   6.630   8.146   2.201 -1.7363  0.0914 -0.4735
    1CHTO   H44  313   6.691   7.981   2.256  0.9304  0.6240  2.1220
    1CHTO   C25  314   6.434   7.993   2.352  0.5161  0.2876  0.1402
    1CHTO   H53  315   6.469   7.889   2.346  0.5200  0.1466  2.1503
    1CHTO   O17  316   6.339   8.008   2.464 -0.0160 -0.3923 -0.6127
    1CHTO   C32  317   6.389   7.956   2.585 -0.1237 -0.4112 -0.1575
    1CHTO   H60  318   6.427   7.855   2.575  1.4153  0.4722 -3.8485
    1CHTO   C36  319   6.277   7.947   2.686 -0.1467 -0.4906  0.3453
    1CHTO   O25  320   6.209   8.063   2.735 -0.4842 -0.1189  0.4184
    1CHTO   H40  321   6.228   8.074   2.826 -0.8386  0.8164  0.3830
    1CHTO   O15  322   6.367   8.026   2.223 -0.5274 -0.5094 -0.5545
    1CHTO   C19  323   6.320   7.969   2.096  0.8723  0.2686  0.9873
    1CHTO   H47  324   6.218   8.011   2.087  1.0529  0.6094  0.5419
    1CHTO   C20  325   6.411   8.015   1.972 -0.3562  0.9083 -0.2839
    1CHTO   H48  326   6.516   7.992   1.994 -0.8448  0.9078  2.1798
    1CHTO   O19  327   6.392   8.157   1.947  0.1593 -0.3038 -0.0202
    1CHTO   H35  328   6.439   8.215   2.003 -0.2079 -0.7659  0.7777
    1CHTO   C21  329   6.378   7.945   1.836 -0.0313  0.7310  0.2722
    1CHTO   H49  330   6.285   7.982   1.792 -1.0679  0.0586  1.8314
    1CHTO    N4  331   6.479   7.958   1.729 -0.4788 -0.2891 -0.6594
    1CHTO   H41  332   6.563   8.025   1.737 -1.1988  0.6085 -0.5067
    1CHTO   H42  333   6.428   7.967   1.635 -1.5877 -0.2594 -0.0718
    1CHTO   C22  334   6.339   7.794   1.858 -0.1750  0.1813  0.0172
    1CHTO   H50  335   6.431   7.736   1.868  1.2198  2.3084 -0.1327
    1CHTO   O14  336   6.245   7.779   1.967  0.1182 -0.1695  0.4233
    1CHTO   C23  337   6.302   7.811   2.097  0.2200 -0.4780  0.6284
    1CHTO   H51  338   6.401   7.763   2.106  1.6800  1.9265 -1.7644
    1CHTO   C34  339   6.213   7.763   2.210 -0.4648 -0.0661  0.3234
    1CHTO   O23  340   6.196   7.622   2.204 -0.6471  0.3586  0.5497
    1CHTO   H38  341   6.215   7.570   2.281  0.6768  2.1118  1.4432
    1CHTO   O16  342   6.264   7.755   1.735 -0.2546 -0.3701  0.1626
    1CHTO   C24  343   6.323   7.620   1.652  0.1397  0.0627 -0.1431
    1CHTO   H52  344   6.431   7.613   1.662  0.1349  0.8728  0.5386
    1CHTO   C26  345   6.289   7.637   1.500  0.8162  0.2021  0.2139
    1CHTO   H54  346   6.179   7.643   1.488  0.9478  1.0752 -0.6188
    1CHTO   O20  347   6.337   7.772   1.464 -0.2610 -0.0643 -0.0338
    1CHTO   H36  348   6.272   7.840   1.463 -0.9666 -0.7333  0.1973
    1CHTO   C30  349   6.350   7.515   1.430  0.0224 -0.2951  0.4470
    1CHTO   H58  350   6.460   7.515   1.439  0.1675  2.1883 -0.9897
    1CHTO    N6  351   6.315   7.518   1.284 -0.1652 -0.3190  0.0204
    1CHTO   H45  352   6.349   7.434   1.224 -1.2033 -0.2062 -0.7317
    1CHTO   H46  353   6.208   7.518   1.269 -0.0312 -1.6628 -1.1014
    1CHTO   C33  354   6.297   7.382   1.497  0.4083  0.1596  0.5297
    1CHTO   H61  355   6.189   7.370   1.480  0.6180 -1.9775  0.6378
    1CHTO   O18  356   6.320   7.383   1.638  0.0079 -0.3301 -0.2798
    1CHTO   C28  357   6.262   7.490   1.711 -0.2826  0.5137  0.3714
    1CHTO   H56  358   6.153   7.494   1.701 -0.4318 -1.3292  1.0527
    1CHTO   C35  359   6.281   7.473   1.863 -0.0708  0.5496 -0.4474
    1CHTO   O24  360   6.190   7.394   1.932  0.0969  0.2041 -0.7092
    1CHTO   H39  361   6.191   7.410   2.025 -0.1937 -1.0200 -0.4868
    1CHTO    O9  362   6.358   7.268   1.437  0.1264 -0.1164 -0.8111
    1CHTO   C13  363   6.321   7.115   1.499  0.1270 -0.7929 -0.3485
    1CHTO   H26  364   6.216   7.105   1.534 -0.3801 -0.4646 -1.7470
    1CHTO   C11  365   6.421   7.088   1.622 -0.3262 -0.4731  0.4631
    1CHTO   H24  366   6.373   7.143   1.705 -2.1061 -3.0141  1.1474
    1CHTO    O8  367   6.552   7.139   1.590  0.2187 -0.3183  0.6099
    1CHTO    H3  368   6.605   7.140   1.667  1.7498  0.2566 -0.4228
    1CHTO    C9  369   6.425   6.941   1.653  0.3235 -0.6039  0.4476
    1CHTO   H22  370   6.320   6.918   1.674 -0.5530  0.5044 -2.5254
    1CHTO    N2  371   6.491   6.912   1.785  0.8064 -0.0571  0.0244
    1CHTO   H10  372   6.599   6.914   1.783  0.8174 -0.8823 -0.5646
    1CHTO   H11  373   6.455   6.990   1.851  0.0162 -0.1718 -0.2623
    1CHTO    C7  374   6.475   6.869   1.523  0.8573  1.0580  0.8016
    1CHTO   H20  375   6.416   6.775   1.513  1.9975  0.3921  0.3121
    1CHTO    O4  376   6.447   6.931   1.397 -0.7969  0.2015 -0.0532
    1CHTO   C14  377   6.329   7.010   1.384 -0.0412  0.2521 -0.3418
    1CHTO   H27  378   6.245   6.938   1.390 -0.9559  1.1945 -1.5245
    1CHTO   C18  379   6.334   7.073   1.239 -0.0520  1.2005  0.7026
    1CHTO   O13  380   6.222   7.147   1.206  0.0484  0.1584 -0.4045
    1CHTO    H7  381   6.233   7.234   1.240 -1.7603 -0.1993  1.2145
    1CHTO    O2  382   6.645   6.844   1.531 -0.2125  0.2795 -0.1093
    1CHTO    C1  383   6.702   6.720   1.489 -0.3165  0.4786  0.3789
    1CHTO   H14  384   6.619   6.655   1.454  0.4196 -0.0741 -0.3594
    1CHTO    C2  385   6.768   6.651   1.623  1.0126  0.7272  0.0409
    1CHTO   H15  386   6.828   6.728   1.674  0.1728  0.8030  0.9180
    1CHTO    O6  387   6.656   6.611   1.704  0.4697  0.2356  0.3104
    1CHTO    H1  388   6.609   6.690   1.726 -0.8074 -0.7280  1.1592
    1CHTO    C3  389   6.850   6.523   1.580  0.0414 -0.8539 -0.2228
    1CHTO   H16  390   6.780   6.448   1.541 -1.0465 -0.1647  0.3762
    1CHTO    N1  391   6.913   6.459   1.706  0.2005 -0.3321 -0.4192
    1CHTO    H8  392   7.010   6.415   1.689  1.4074  1.1348  2.3158
    1CHTO    H9  393   6.919   6.541   1.777  2.5488  0.7411 -1.7895
    1CHTO    C4  394   6.949   6.550   1.457 -0.0886 -0.2341 -1.1998
    1CHTO   H17  395   7.034   6.605   1.498 -1.1109 -0.1338  0.8000
    1CHTO    O1  396   6.875   6.617   1.353 -0.4459 -0.0704  0.0399
    1CHTO    C5  397   6.802   6.739   1.379  0.4248 -0.4768  0.1469
    1CHTO   H18  398   6.875   6.809   1.418  0.9305  0.3178 -2.1351
    1CHTO   C16  399   6.748   6.806   1.252  0.2804 -0.3625 -0.6424
    1CHTO   O11  400   6.679   6.742   1.144  0.4576  0.1428  0.8397
    1CHTO    H5  401   6.686   6.803   1.074 -0.0817 -0.8933 -0.1222
    1CHTO    O3  402   7.006   6.430   1.403  0.0738 -0.2028  0.3075
    1CHTO    C6  403   7.094   6.455   1.285  0.1399  0.2576  0.4890
    1CHTO   H19  404   7.075   6.549   1.234  4.7235  2.2422  2.2437
    1CHTO    C8  405   7.247   6.454   1.328 -0.2128 -0.9899  0.0483
    1CHTO   H21  406   7.264   6.371   1.396  2.9249  0.4303  1.1085
    1CHTO    O7  407   7.274   6.571   1.409  0.2326  0.0817  0.0357
    1CHTO    H2  408   7.367   6.566   1.423  0.2968  0.4831 -0.2357
    1CHTO   C12  409   7.348   6.449   1.205  0.2884 -0.0202  0.2507
    1CHTO   H25  410   7.327   6.541   1.147 -1.3670 -0.4337  0.1530
    1CHTO    N3  411   7.492   6.460   1.247  0.3261  0.4136  0.3093
    1CHTO   H12  412   7.503   6.477   1.353  0.1540 -1.3510  0.6270
    1CHTO   H13  413   7.541   6.539   1.192 -0.3120 -0.0169 -0.8805
    1CHTO   C15  414   7.306   6.328   1.130  0.2018  0.9270  0.4835
    1CHTO   H28  415   7.323   6.246   1.200  0.7881  0.6207 -0.0058
    1CHTO   O10  416   7.390   6.310   1.003  0.2133 -0.0759 -0.0490
    1CHTO    H4  417   7.403   6.219   0.987 -0.8149  0.0120 -1.3736
    1CHTO    O5  418   7.176   6.340   1.080  0.0218  0.7324  0.2496
    1CHTO   C10  419   7.073   6.337   1.183  0.1500  0.2660 -0.5078
    1CHTO   H23  420   7.079   6.246   1.242  0.1506  1.9116  2.1267
    1CHTO   C17  421   6.936   6.328   1.115  0.7996  0.7481 -0.1141
    1CHTO   O12  422   6.832   6.310   1.210 -0.4101 -0.3550 -0.3517
    1CHTO    H6  423   6.847   6.380   1.271 -0.9250  1.5467 -2.3445
    2CHTO  H203  424   6.271   4.576  -0.183  2.7087  1.5569 -3.0505
    2CHTO   O82  425   6.295   4.644  -0.123 -0.0394  0.0828 -0.1290
    2CHTO  C123  426   6.189   4.705  -0.050  0.2208 -0.6622 -0.3898
    2CHTO  H227  427   6.223   4.801  -0.009 -1.3193 -0.2464 -0.0503
    2CHTO   O77  428   6.086   4.738  -0.151 -0.0035  0.8677 -0.3126
    2CHTO  C118  429   5.955   4.773  -0.108  0.0510  0.2785 -0.5508
    2CHTO  H222  430   5.973   4.875  -0.070  1.2254  0.1442 -0.7294
    2CHTO  C125  431   5.868   4.782  -0.233 -0.5682 -0.2888 -0.5321
    2CHTO   O84  432   5.933   4.867  -0.330 -0.5050  0.4326 -0.5002
    2CHTO  H205  433   6.011   4.824  -0.359 -1.1401  0.3449 -2.1019
    2CHTO  C114  434   5.889   4.674  -0.005 -0.0489  0.4150  0.4730
    2CHTO  H218  435   5.858   4.585  -0.060  3.9511 -0.0171 -1.2839
    2CHTO  C116  436   5.992   4.640   0.107 -0.3373 -0.2929  0.8306
    2CHTO  H220  437   5.993   4.736   0.162 -0.5744  0.9030 -1.1760
    2CHTO   O79  438   5.940   4.542   0.195  0.2835 -0.0754 -0.0759
    2CHTO  H201  439   5.982   4.537   0.279 -1.1785  3.4104  0.9792
    2CHTO  C120  440   6.138   4.612   0.062 -0.0485  0.1448 -0.7644
    2CHTO  H224  441   6.136   4.507   0.028 -1.5070 -0.0548 -0.0976
    2CHTO   N21  442   6.227   4.614   0.180 -0.2855 -0.7160  0.2217
    2CHTO  H211  443   6.257   4.715   0.202 -1.7566  0.1703 -1.6838
    2CHTO  H212  444   6.193   4.570   0.272  0.0340  0.4798  0.9081
    2CHTO   O75  445   5.770   4.743   0.027 -0.2704 -0.1305 -0.1403
    2CHTO  C112  446   5.648   4.646   0.059 -1.0202  0.8396  0.3857
    2CHTO  H216  447   5.695   4.549   0.082  1.1497  1.5627 -0.8978
    2CHTO   O73  448   5.562   4.641  -0.054  0.1265  0.1636 -0.5002
    2CHTO  C113  449   5.451   4.549  -0.030  0.5655  0.3276  0.7018
    2CHTO  H217  450   5.491   4.448  -0.004 -1.5805 -0.6981  0.1146
    2CHTO  C124  451   5.391   4.517  -0.163 -0.1749 -0.3919  0.0697
    2CHTO   O83  452   5.343   4.633  -0.233  0.0293  0.0997 -0.3186
    2CHTO  H204  453   5.359   4.621  -0.324 -1.8912  1.0467 -0.8008
    2CHTO  C109  454   5.358   4.610   0.072  0.9857  0.4242 -0.4386
    2CHTO  H213  455   5.333   4.711   0.034  2.7873  0.8624 -0.5163
    2CHTO  C110  456   5.440   4.624   0.210  0.3482 -0.6509 -0.3890
    2CHTO  H214  457   5.460   4.521   0.242  0.5989 -0.2941  0.6124
    2CHTO   O78  458   5.353   4.696   0.296  0.2110 -0.1492 -0.0008
    2CHTO  H200  459   5.379   4.688   0.386  2.0075  0.9166 -0.4078
    2CHTO  C111  460   5.570   4.707   0.185 -0.0593 -0.5670  0.1437
    2CHTO  H215  461   5.530   4.805   0.156 -0.1006 -0.6555 -0.1018
    2CHTO   N19  462   5.659   4.725   0.301  0.1964 -0.3681  0.0562
    2CHTO  H207  463   5.758   4.693   0.272 -0.1549  0.4172 -2.0473
    2CHTO  H208  464   5.626   4.671   0.389  4.2646 -1.9221  0.7475
    2CHTO   O74  465   5.236   4.534   0.103 -0.4861 -0.0182  0.1575
    2CHTO  C115  466   5.109   4.600   0.060 -0.0160 -0.2919 -0.3558
    2CHTO  H219  467   5.115   4.709   0.061  1.4935 -0.3561 -1.1326
    2CHTO   O76  468   5.071   4.561  -0.093  0.0604 -0.7501  0.1930
    2CHTO  C122  469   4.996   4.439  -0.102 -0.1386  0.2241  0.8702
    2CHTO  H226  470   5.049   4.361  -0.049  1.5532 -1.0577 -2.5687
    2CHTO  C126  471   4.981   4.387  -0.251 -0.2355 -0.4258  0.1025
    2CHTO   O85  472   4.919   4.258  -0.254  0.3919  0.2108  0.3893
    2CHTO  H206  473   4.843   4.258  -0.310 -0.0261 -0.1569  0.9534
    2CHTO  C121  474   4.853   4.472  -0.046 -0.6012  0.1067 -0.5338
    2CHTO  H225  475   4.798   4.528  -0.125 -1.8229 -1.5736 -0.9284
    2CHTO   O81  476   4.779   4.352  -0.027 -0.1851  0.7409 -0.1482
    2CHTO  H202  477   4.686   4.358  -0.035 -0.3277 -0.1112  0.6885
    2CHTO  C119  478   4.855   4.556   0.086  0.2225  0.1506 -0.1789
    2CHTO  H223  479   4.862   4.657   0.047 -1.3766  0.9868  1.6513
    2CHTO  C117  480   4.995   4.547   0.159  0.1516  0.1330 -0.6253
    2CHTO  H221  481   5.029   4.446   0.180 -1.3070  0.0431  1.4227
    2CHTO   N20  482   4.988   4.608   0.298 -0.1575  0.1433 -0.5379
    2CHTO  H209  483   5.083   4.610   0.349 -0.8208  0.9519  0.6749
    2CHTO  H210  484   4.925   4.695   0.299  1.5106  1.3806 -0.3896
    2CHTO   O80  485   4.701   4.570   0.166  0.2013  0.6838 -0.1411
    2CHTO  C103  486   4.597   4.700   0.139  0.0888 -0.0783 -0.2773
    2CHTO  H190  487   4.638   4.779   0.203 -0.4049  0.4095 -0.5573
    2CHTO  C101  488   4.566   4.740  -0.005 -0.7844 -0.8444  0.2641
    2CHTO  H188  489   4.545   4.649  -0.061 -2.7041 -1.1257  1.3727
    2CHTO   O68  490   4.694   4.799  -0.056 -0.1749  0.4316 -0.2515
    2CHTO  H168  491   4.694   4.786  -0.149 -1.1301  0.8508 -0.3166
    2CHTO   C99  492   4.444   4.840  -0.015 -0.3494 -0.9733  0.3631
    2CHTO  H186  493   4.473   4.927   0.047  1.8869 -0.0418 -1.9186
    2CHTO   N17  494   4.408   4.888  -0.154  0.0059 -0.3839  0.2207
    2CHTO  H174  495   4.344   4.975  -0.144  1.1445  0.4741  0.1004
    2CHTO  H175  496   4.503   4.913  -0.199 -1.3662  0.6349 -2.1806
    2CHTO   C97  497   4.318   4.784   0.054 -0.2779 -0.4857  0.6639
    2CHTO  H184  498   4.267   4.704  -0.002 -3.5674  2.0421 -0.1152
    2CHTO   O64  499   4.348   4.745   0.192 -0.4850  0.1523  0.0739
    2CHTO  C104  500   4.462   4.652   0.200 -0.3284 -0.4777  0.3308
    2CHTO  H191  501   4.440   4.555   0.157  0.4383 -0.8454  0.7590
    2CHTO  C108  502   4.492   4.626   0.348  0.3300  0.7422  0.5652
    2CHTO   O71  503   4.386   4.568   0.425 -0.0258  0.3814 -0.2022
    2CHTO  H171  504   4.302   4.599   0.399 -1.0270 -1.7546  0.3962
    2CHTO   O62  505   4.230   4.892   0.079  0.4192  0.0260  0.0418
    2CHTO   C91  506   4.088   4.862   0.077  0.7436 -0.7146 -0.1684
    2CHTO  H178  507   4.058   4.760   0.099 -3.9686  0.2110 -1.7945
    2CHTO   C92  508   4.038   4.881  -0.068  0.0969  0.2292 -0.0030
    2CHTO  H179  509   4.117   4.857  -0.141  1.0278 -0.9401  1.3729
    2CHTO   O66  510   3.922   4.800  -0.086 -0.1056  0.1933  0.5019
    2CHTO  H166  511   3.840   4.845  -0.075 -0.0596  0.5763 -0.6156
    2CHTO   C93  512   3.994   5.036  -0.088  0.0163  0.3668 -0.0567
    2CHTO  H180  513   3.923   5.030  -0.172 -1.0086  2.0890  0.6676
    2CHTO   N16  514   4.089   5.136  -0.145  0.7221  0.2718  0.4840
    2CHTO  H172  515   4.061   5.168  -0.245  0.2035  0.8766  0.8191
    2CHTO  H173  516   4.192   5.103  -0.148  1.2690  1.7592  2.1354
    2CHTO   C94  517   3.921   5.103   0.034  0.4701  0.4468 -0.1475
    2CHTO  H181  518   3.981   5.180   0.083 -0.4365  0.2997  1.2177
    2CHTO   O61  519   3.889   5.000   0.130  0.1977  0.4226 -0.6235
    2CHTO   C95  520   4.006   4.947   0.184  0.5254 -0.0048  0.5893
    2CHTO  H182  521   4.074   5.027   0.214  1.9708 -1.9410  2.6719
    2CHTO  C106  522   3.993   4.877   0.316 -0.5975  0.2472 -0.4005
    2CHTO   O69  523   4.119   4.826   0.361  0.7259  0.6033  0.3399
    2CHTO  H169  524   4.112   4.775   0.440 -0.0654 -1.3169 -0.9202
    2CHTO   O63  525   3.782   5.167   0.003 -0.0672 -0.1649  0.0956
    2CHTO   C96  526   3.792   5.319  -0.059 -0.1996  0.4694 -0.1384
    2CHTO  H183  527   3.889   5.342  -0.102  0.8554 -0.2599  1.7472
    2CHTO   C98  528   3.746   5.425   0.048  0.5575 -0.6662  0.2471
    2CHTO  H185  529   3.648   5.390   0.084  0.2184  1.0709  1.0585
    2CHTO   O67  530   3.829   5.424   0.157 -0.0288  0.0779 -0.1008
    2CHTO  H167  531   3.917   5.438   0.127  0.9100 -0.7402  2.2135
    2CHTO  C102  532   3.729   5.573  -0.013  0.7964  0.0726  0.0686
    2CHTO  H189  533   3.830   5.611  -0.029 -0.4354  3.1740 -0.7374
    2CHTO   N18  534   3.660   5.667   0.081  0.0847 -0.3203  0.5821
    2CHTO  H176  535   3.719   5.748   0.123 -1.6016  0.6272  1.1660
    2CHTO  H177  536   3.610   5.618   0.163 -0.1236 -1.0555  0.0186
    2CHTO  C105  537   3.644   5.571  -0.140  0.0021 -0.3168 -0.4593
    2CHTO  H192  538   3.543   5.547  -0.108  0.0646 -2.5421 -1.8037
    2CHTO   O65  539   3.684   5.465  -0.226  0.1618 -0.3143 -0.3435
    2CHTO  C100  540   3.698   5.334  -0.182 -0.1519  0.7853 -0.2038
    2CHTO  H187  541   3.600   5.295  -0.150 -0.1839  0.1265 -1.0890
    2CHTO  C107  542   3.749   5.242  -0.295 -0.2315  0.0583  0.3465
    2CHTO   O70  543   3.854   5.298  -0.377  0.2127 -0.3962  0.1517
    2CHTO  H170  544   3.900   5.364  -0.328  0.5808  0.1151 -0.8542
    2CHTO   O57  545   3.655   5.719  -0.213  0.4841 -0.0245  0.0309
    2CHTO   C85  546   3.651   5.733  -0.357  0.5292  0.4729 -0.0974
    2CHTO  H157  547   3.576   5.658  -0.390 -1.2509  2.0433  0.3090
    2CHTO   C83  548   3.779   5.682  -0.434  1.1374  0.7314  0.3910
    2CHTO  H155  549   3.786   5.574  -0.421 -0.8922  0.6583  0.9913
    2CHTO   O56  550   3.896   5.733  -0.368  1.0365  0.1273 -0.4947
    2CHTO  H135  551   3.947   5.777  -0.433 -0.5849  0.5288 -1.5116
    2CHTO   C81  552   3.778   5.709  -0.586  0.1427  0.3762 -0.5768
    2CHTO  H153  553   3.686   5.670  -0.629 -0.0534 -0.1880  0.3422
    2CHTO   N14  554   3.887   5.651  -0.667  0.7692 -0.4902  0.3916
    2CHTO  H141  555   3.847   5.589  -0.745 -0.2970 -1.0695  1.3869
    2CHTO  H142  556   3.951   5.723  -0.713  0.4876 -0.4271  0.0993
    2CHTO   C79  557   3.774   5.870  -0.600  0.7947  0.2309 -0.5950
    2CHTO  H151  558   3.782   5.899  -0.705 -0.9992  1.1336 -0.5016
    2CHTO   O52  559   3.642   5.905  -0.556  0.2195 -0.5752  0.7198
    2CHTO   C86  560   3.620   5.881  -0.409  0.1299 -0.0900 -0.2363
    2CHTO  H158  561   3.683   5.952  -0.352 -2.6212  1.8051  0.5694
    2CHTO   C90  562   3.472   5.911  -0.370  0.5142 -0.2612  0.3707
    2CHTO   O60  563   3.427   6.042  -0.405 -0.1487 -0.0850  0.5810
    2CHTO  H138  564   3.481   6.114  -0.378  1.5881 -0.7638 -0.9602
    2CHTO   O50  565   3.867   5.944  -0.527  0.0507 -0.1387  0.5010
    2CHTO   C73  566   3.946   6.061  -0.512 -0.1277 -0.1874  0.6752
    2CHTO  H145  567   3.887   6.153  -0.500 -0.2251 -0.1287 -0.2870
    2CHTO   C74  568   4.037   6.077  -0.636 -0.2712 -0.1547  0.1406
    2CHTO  H146  569   3.965   6.081  -0.719 -1.3827 -0.0510  1.0904
    2CHTO   O54  570   4.102   6.210  -0.631  0.0357  0.6473 -0.1628
    2CHTO  H133  571   4.147   6.220  -0.549  1.1824 -2.3178 -0.3945
    2CHTO   C75  572   4.136   5.951  -0.644 -0.2241 -0.1544 -0.6839
    2CHTO  H147  573   4.078   5.858  -0.646  0.2726 -0.5424  1.6190
    2CHTO   N13  574   4.219   5.949  -0.761  0.1068  0.2774  0.3693
    2CHTO  H139  575   4.316   5.901  -0.752  0.7427  1.1676 -1.5219
    2CHTO  H140  576   4.227   6.055  -0.776  0.5084  0.3844  1.2957
    2CHTO   C76  577   4.219   5.947  -0.510 -0.1124  0.3784  0.1518
    2CHTO  H148  578   4.278   6.039  -0.504  0.2977  0.3000 -2.1073
    2CHTO   O49  579   4.127   5.929  -0.397 -0.0039  0.1868  0.0716
    2CHTO   C77  580   4.039   6.049  -0.386 -0.5666  0.2244 -0.5449
    2CHTO  H149  581   4.101   6.140  -0.385 -0.9923  0.5225  0.9556
    2CHTO   C88  582   3.959   6.051  -0.254 -0.2223 -0.0038  0.0102
    2CHTO   O58  583   4.063   6.019  -0.145 -0.4536  0.5142 -0.2500
    2CHTO  H136  584   4.079   6.097  -0.096  2.5858  0.7248 -1.4418
    2CHTO   O51  585   4.321   5.816  -0.507 -0.1085 -0.4493 -0.1052
    2CHTO   C78  586   4.380   5.792  -0.357 -0.4278 -0.5417 -0.0741
    2CHTO  H150  587   4.322   5.843  -0.277  0.1348 -0.9583  0.5957
    2CHTO   C80  588   4.528   5.843  -0.355  0.0659  0.5412 -0.4978
    2CHTO  H152  589   4.572   5.826  -0.455  0.4629  0.6133 -0.3384
    2CHTO   O55  590   4.517   5.989  -0.355 -0.0178 -0.5510 -0.2183
    2CHTO  H134  591   4.598   6.028  -0.326  0.0811 -1.4435  0.7478
    2CHTO   C84  592   4.617   5.797  -0.241  0.1787  1.0013 -0.1811
    2CHTO  H156  593   4.593   5.864  -0.159 -1.6993  1.4202 -1.0483
    2CHTO   N15  594   4.760   5.814  -0.272 -0.0868  0.1349  0.3482
    2CHTO  H143  595   4.772   5.911  -0.314 -1.5983 -0.0553 -0.5677
    2CHTO  H144  596   4.787   5.737  -0.342 -1.8561  1.2670 -1.6437
    2CHTO   C87  597   4.579   5.651  -0.195  0.0047  0.5311 -0.2866
    2CHTO  H159  598   4.621   5.579  -0.265  0.2717  0.8307 -0.4375
    2CHTO   O53  599   4.431   5.643  -0.187  0.2928  0.7368  0.3456
    2CHTO   C82  600   4.374   5.646  -0.313  0.6617 -0.0590  0.0866
    2CHTO  H154  601   4.415   5.575  -0.384  1.1124  2.5104 -2.2910
    2CHTO   C89  602   4.231   5.599  -0.283 -0.8272  0.0188  0.3423
    2CHTO   O59  603   4.157   5.591  -0.406  0.5667 -0.3460 -0.7160
    2CHTO  H137  604   4.156   5.670  -0.456 -1.0290  1.7203  2.3836
    2CHTO   O45  605   4.646   5.621  -0.048  0.8319 -0.1959  0.0685
    2CHTO   C67  606   4.573   5.543   0.047  1.0639 -0.1591  0.8510
    2CHTO  H124  607   4.470   5.576   0.039  1.3405  0.7112  0.7470
    2CHTO   C65  608   4.576   5.383   0.028 -0.2393 -0.1282 -1.0417
    2CHTO  H122  609   4.670   5.373  -0.025 -0.1834 -0.2778 -0.9145
    2CHTO   O44  610   4.464   5.333  -0.052  0.7390  0.2268 -0.1773
    2CHTO  H102  611   4.492   5.264  -0.109  1.0764 -1.6857  2.2202
    2CHTO   C63  612   4.608   5.312   0.158 -0.1781  0.1688 -0.1113
    2CHTO  H120  613   4.710   5.339   0.189  0.0915 -1.4683  0.5368
    2CHTO   N11  614   4.618   5.166   0.157 -0.3710 -0.9626 -0.1097
    2CHTO  H108  615   4.719   5.130   0.164  0.0918  0.1749 -0.7355
    2CHTO  H109  616   4.571   5.117   0.240  0.8985  1.4060  2.0701
    2CHTO   C61  617   4.519   5.372   0.271  0.4180  0.7799  0.4841
    2CHTO  H118  618   4.554   5.328   0.365 -0.2646  0.0062  0.3770
    2CHTO   O40  619   4.532   5.518   0.289  0.2152  0.0410  0.1434
    2CHTO   C68  620   4.618   5.588   0.195 -0.4308  0.1551  0.2318
    2CHTO  H125  621   4.720   5.550   0.215 -0.0779 -0.7201 -2.9633
    2CHTO   C72  622   4.620   5.736   0.227  0.0402 -0.3667 -0.1548
    2CHTO   O48  623   4.712   5.812   0.149 -0.0397 -0.0976 -0.1566
    2CHTO  H105  624   4.724   5.896   0.188 -2.0025  0.6138 -1.0449
    2CHTO   O38  625   4.381   5.346   0.245 -0.0911 -0.0115  0.1694
    2CHTO   C55  626   4.278   5.405   0.333 -0.2154  0.1756  0.2750
    2CHTO  H112  627   4.313   5.496   0.383  2.2012  1.1687 -3.0496
    2CHTO   C56  628   4.227   5.291   0.433 -0.7267 -0.4818 -0.6376
    2CHTO  H113  629   4.193   5.201   0.380  0.8760 -0.2947 -1.9869
    2CHTO   O42  630   4.342   5.252   0.511  0.3578 -0.0344 -0.4624
    2CHTO  H100  631   4.369   5.169   0.476 -2.0662 -1.7371  1.5438
    2CHTO   C57  632   4.112   5.354   0.525  0.1879  0.1801  0.0177
    2CHTO  H114  633   4.154   5.435   0.584  1.7700 -1.5261  1.3288
    2CHTO   N10  634   4.053   5.257   0.614  0.3997 -0.1513 -0.2671
    2CHTO  H106  635   3.989   5.194   0.554 -0.5666  0.1761  0.4211
    2CHTO  H107  636   4.002   5.306   0.695 -1.4149  0.5854 -1.8334
    2CHTO   C58  637   4.002   5.407   0.432  0.9082  0.2385  0.2672
    2CHTO  H115  638   3.961   5.323   0.372  0.8211  1.0644 -0.8581
    2CHTO   O37  639   4.051   5.507   0.340 -0.3516  0.3327  0.4063
    2CHTO   C59  640   4.155   5.464   0.250  0.3657  0.0689 -0.0948
    2CHTO  H116  641   4.121   5.385   0.184  0.5699  0.4228 -0.6242
    2CHTO   C70  642   4.189   5.590   0.168 -0.6016 -0.0041 -0.8505
    2CHTO   O46  643   4.245   5.559   0.047 -0.3724  1.0425 -0.0479
    2CHTO  H103  644   4.178   5.535  -0.014  1.7689 -4.0335 -0.6195
    2CHTO   O39  645   3.894   5.485   0.519  0.7588 -0.0712  0.2026
    2CHTO   C60  646   3.767   5.536   0.455 -0.1842  0.3108 -0.8794
    2CHTO  H117  647   3.785   5.553   0.349  2.3607  0.7655 -0.4124
    2CHTO   C62  648   3.657   5.434   0.476  0.6054 -0.3493  0.0310
    2CHTO  H119  649   3.687   5.338   0.430 -2.0663 -1.7562  1.0780
    2CHTO   O43  650   3.635   5.399   0.612  0.0076 -0.3561  0.3580
    2CHTO  H101  651   3.570   5.332   0.614  0.5056 -0.8431  0.0048
    2CHTO   C66  652   3.530   5.486   0.394  0.0843 -0.4695  0.1369
    2CHTO  H123  653   3.561   5.506   0.291 -2.6931  1.1786 -0.4142
    2CHTO   N12  654   3.431   5.375   0.385 -0.3161  0.0646  0.2024
    2CHTO  H110  655   3.336   5.398   0.340  0.5554  0.6093 -1.4237
    2CHTO  H111  656   3.477   5.288   0.339 -2.2053 -0.6374 -0.3912
    2CHTO   C69  657   3.477   5.616   0.465 -0.3741  0.1433  0.3721
    2CHTO  H126  658   3.449   5.588   0.569  3.5277  0.6184  1.6246
    2CHTO   O41  659   3.586   5.732   0.466 -0.2950  0.0977  0.0137
    2CHTO   C64  660   3.738   5.676   0.518  0.8622  0.0464 -0.1163
    2CHTO  H121  661   3.730   5.675   0.629  0.4138 -1.7432 -0.1581
    2CHTO   C71  662   3.848   5.778   0.497  0.5317 -0.3430 -0.2196
    2CHTO   O47  663   3.857   5.812   0.359 -0.0569  0.5446 -0.5058
    2CHTO  H104  664   3.928   5.873   0.349  1.1282 -0.3698  1.9657
    2CHTO   O34  665   3.361   5.676   0.397 -0.2056 -0.0678 -0.0397
    2CHTO   C49  666   3.236   5.772   0.429 -0.7926  0.2233  0.0534
    2CHTO   H91  667   3.165   5.708   0.481 -1.3205 -0.0568 -0.9960
    2CHTO   C47  668   3.186   5.810   0.290  0.2062  0.0831  0.4004
    2CHTO   H89  669   3.088   5.858   0.311 -0.3900  0.5586 -3.0918
    2CHTO   O33  670   3.168   5.694   0.206  0.5837  0.1427  0.1829
    2CHTO   H70  671   3.237   5.631   0.205  2.5177  2.1851 -0.7185
    2CHTO   C45  672   3.288   5.928   0.240 -0.3954 -0.1001  0.8269
    2CHTO   H87  673   3.390   5.889   0.244 -0.6855 -1.0809 -0.8681
    2CHTO    N8  674   3.259   5.976   0.104 -0.3025 -0.3141 -0.2103
    2CHTO   H75  675   3.162   6.025   0.108  0.0021  0.3166 -0.4052
    2CHTO   H76  676   3.340   6.046   0.088  1.5384 -1.7719  2.4633
    2CHTO   C43  677   3.276   6.051   0.342  0.6972  0.0424  0.1390
    2CHTO   H85  678   3.340   6.129   0.300  0.6482  0.9109  1.6465
    2CHTO   O29  679   3.321   6.013   0.468  0.5026 -0.4652 -0.1115
    2CHTO   C50  680   3.268   5.891   0.521  0.4699 -0.2991 -0.7406
    2CHTO   H92  681   3.331   5.852   0.603  0.6538 -0.0523 -0.7646
    2CHTO   C54  682   3.138   5.932   0.606  0.4091  0.1653 -0.4144
    2CHTO   O36  683   3.165   6.032   0.709  0.2805  0.1443  0.3348
    2CHTO   H72  684   3.219   5.998   0.778  2.0283  1.5527 -0.3152
    2CHTO   O27  685   3.146   6.103   0.349 -0.1610  0.1367  0.3879
    2CHTO   C37  686   3.059   6.210   0.337  0.7647 -0.8020 -0.9849
    2CHTO   H79  687   3.080   6.270   0.248 -2.0538  1.1647 -0.4168
    2CHTO   C38  688   2.911   6.161   0.325  0.6490 -0.5281 -0.3089
    2CHTO   H80  689   2.905   6.077   0.395 -1.5652 -1.6409 -1.7910
    2CHTO   O31  690   2.890   6.104   0.194  0.9071 -0.1693  0.4836
    2CHTO   H68  691   2.925   6.018   0.179 -0.5209 -0.6258 -0.3194
    2CHTO   C39  692   2.801   6.272   0.344 -0.2025 -0.3088 -0.4143
    2CHTO   H81  693   2.802   6.323   0.248  4.6811  0.6921  0.0400
    2CHTO    N7  694   2.669   6.212   0.381  0.3915 -0.0591  0.6289
    2CHTO   H73  695   2.599   6.293   0.399  0.2856 -0.7465  3.5892
    2CHTO   H74  696   2.631   6.147   0.304  1.6905 -0.6111  0.4461
    2CHTO   C40  697   2.844   6.381   0.454  0.7772  0.3458 -0.5488
    2CHTO   H82  698   2.821   6.346   0.554 -2.7840  2.4889 -0.5047
    2CHTO   O26  699   2.980   6.418   0.434 -0.0256  0.7790 -0.2783
    2CHTO   C41  700   3.075   6.312   0.453 -0.6450 -0.3016  0.0140
    2CHTO   H83  701   3.052   6.263   0.549  0.9426  2.0794  1.6916
    2CHTO   C52  702   3.220   6.384   0.469  0.7107 -0.2503  0.2377
    2CHTO   O35  703   3.222   6.483   0.563  0.0849 -0.2327 -1.0083
    2CHTO   H71  704   3.283   6.458   0.629 -0.7595  0.4337  0.0462
    2CHTO   O28  705   2.762   6.498   0.446  0.7384  0.7176  0.0808
    2CHTO   C42  706   2.786   6.609   0.541 -0.5691  0.6865  0.5670
    2CHTO   H84  707   2.699   6.670   0.519 -0.2333  0.8653 -0.2876
    2CHTO   C44  708   2.916   6.705   0.516 -0.5485 -0.5338  1.0456
    2CHTO   H86  709   3.007   6.652   0.543  0.7274  2.1046  2.1016
    2CHTO   O32  710   2.926   6.720   0.379 -0.2533 -0.0682  0.1949
    2CHTO   H69  711   3.017   6.716   0.356 -0.0013 -2.0817  1.4147
    2CHTO   C48  712   2.913   6.832   0.606  0.1034 -0.1991 -0.3266
    2CHTO   H90  713   2.823   6.892   0.593 -0.3294 -1.0331 -1.2622
    2CHTO    N9  714   3.025   6.924   0.579 -0.0498  0.0917  0.1130
    2CHTO   H77  715   3.082   6.909   0.488  0.9760  0.4090  0.7077
    2CHTO   H78  716   2.984   7.024   0.577 -0.6041 -0.0524  2.7534
    2CHTO   C51  717   2.912   6.787   0.756  0.8587  0.6692  0.0795
    2CHTO   H93  718   2.999   6.723   0.775 -0.4159 -1.7898 -2.0711
    2CHTO   O30  719   2.788   6.718   0.777 -0.2285  0.9675 -0.3877
    2CHTO   C46  720   2.781   6.569   0.693  0.0971  0.5255  1.0706
    2CHTO   H88  721   2.868   6.507   0.715 -0.9203 -1.4178 -0.2739
    2CHTO   C53  722   2.656   6.487   0.740 -0.5958  0.0511 -0.1901
    2CHTO   O72  723   2.527   6.514   0.686  0.6383 -0.2177  0.3676
    2CHTO  H199  724   2.520   6.460   0.609  1.2825  1.7984 -1.1381
    2CHTO   O22  725   2.911   6.891   0.854  0.0851  0.1943  0.3880
    2CHTO   C31  726   2.939   6.871   0.998 -0.5212  0.1834  0.5648
    2CHTO   H59  727   2.936   6.972   1.043  0.3026  0.6366 -0.4004
    2CHTO   C29  728   2.835   6.792   1.077 -0.4032 -0.3665  0.9465
    2CHTO   H57  729   2.835   6.694   1.027  1.7410  0.1762 -0.1716
    2CHTO   O21  730   2.704   6.846   1.048 -0.3212 -0.3394 -0.0167
    2CHTO   H37  731   2.646   6.866   1.118 -0.3293  0.0325 -0.1295
    2CHTO   C27  732   2.861   6.782   1.228  0.3721 -0.4307 -0.2570
    2CHTO   H55  733   2.847   6.882   1.271 -0.5975  0.1771 -1.9531
    2CHTO    N5  734   2.779   6.688   1.301 -0.2764  0.3272 -0.4605
    2CHTO   H43  735   2.785   6.595   1.248 -1.5027 -1.2053  2.0048
    2CHTO   H44  736   2.808   6.671   1.404 -0.1772  1.9988 -0.1973
    2CHTO   C25  737   3.009   6.740   1.242 -0.0057 -0.6388 -0.2390
    2CHTO   H53  738   3.027   6.644   1.190  1.0547  0.3780 -1.7809
    2CHTO   O17  739   3.101   6.832   1.179  0.3771 -0.3523  0.0841
    2CHTO   C32  740   3.090   6.822   1.033  0.3765 -0.2813  0.4600
    2CHTO   H60  741   3.102   6.718   1.005  0.3480 -0.0581 -0.4007
    2CHTO   C36  742   3.200   6.900   0.962 -0.5457  0.3945 -0.8761
    2CHTO   O25  743   3.202   7.036   1.002 -0.8181  0.4074  0.2619
    2CHTO   H40  744   3.139   7.068   0.940 -0.9478 -1.4393 -0.5778
    2CHTO   O15  745   3.067   6.743   1.401 -0.1987 -0.3386  0.4767
    2CHTO   C19  746   3.121   6.781   1.531 -0.0653  0.1416  0.4735
    2CHTO   H47  747   3.140   6.680   1.572 -0.1943  0.2105  0.7053
    2CHTO   C20  748   3.257   6.857   1.519 -0.0805  0.1528 -0.0520
    2CHTO   H48  749   3.249   6.953   1.466  1.6615  0.2329 -0.2090
    2CHTO   O19  750   3.338   6.767   1.440  0.3373  0.1054  0.5036
    2CHTO   H35  751   3.345   6.778   1.347  3.8658 -1.3290  0.4966
    2CHTO   C21  752   3.320   6.876   1.664  0.1111  0.0922  0.5945
    2CHTO   H49  753   3.352   6.777   1.697  2.0811 -0.3814 -2.5049
    2CHTO    N4  754   3.449   6.956   1.670 -0.1249 -0.3069  0.4770
    2CHTO   H41  755   3.482   6.982   1.769 -2.5482  1.1863  0.9311
    2CHTO   H42  756   3.515   6.886   1.622 -1.3844 -0.0169 -1.7608
    2CHTO   C22  757   3.213   6.925   1.766 -0.1020  0.2051 -0.5283
    2CHTO   H50  758   3.198   7.032   1.751  0.3281  0.6594  2.0249
    2CHTO   O14  759   3.091   6.848   1.763 -0.3023 -0.2705  0.3397
    2CHTO   C23  760   3.033   6.856   1.628  0.2405 -0.0883 -0.2412
    2CHTO   H51  761   3.022   6.962   1.601 -2.0348 -0.0369  0.8141
    2CHTO   C34  762   2.892   6.799   1.632  0.1622  0.0506 -0.3313
    2CHTO   O23  763   2.818   6.880   1.722 -0.4061  0.0723  0.0941
    2CHTO   H38  764   2.801   6.820   1.793 -2.8525 -1.4803 -1.7319
    2CHTO   O16  765   3.254   6.894   1.902 -0.4383 -0.8232  0.5094
    2CHTO   C24  766   3.269   7.021   2.016  0.4028 -0.2736 -0.8846
    2CHTO   H52  767   3.256   7.120   1.971 -0.4489 -0.5006 -1.1509
    2CHTO   C26  768   3.406   7.023   2.086 -0.0888  0.9157  0.1583
    2CHTO   H54  769   3.416   6.926   2.139  0.8617  1.4510  0.9571
    2CHTO   O20  770   3.501   7.035   1.979 -0.1852  0.0492 -0.5528
    2CHTO   H36  771   3.584   7.041   2.023  0.0408  0.2359 -1.0006
    2CHTO   C30  772   3.408   7.137   2.190 -0.1643 -0.3887 -0.0730
    2CHTO   H58  773   3.394   7.237   2.147 -0.7471  0.8335  2.8559
    2CHTO    N6  774   3.538   7.160   2.246 -0.1220 -0.2028 -0.9422
    2CHTO   H45  775   3.523   7.219   2.336  1.1923 -1.1808 -0.0674
    2CHTO   H46  776   3.592   7.069   2.266  2.8087  0.5683 -4.7040
    2CHTO   C33  777   3.296   7.120   2.297  0.4345 -0.6246 -0.0976
    2CHTO   H61  778   3.309   7.026   2.353 -1.3465 -1.2125 -0.6411
    2CHTO   O18  779   3.168   7.110   2.226  0.1444  0.2135  0.7082
    2CHTO   C28  780   3.155   7.007   2.121  0.0560  0.4232 -0.8292
    2CHTO   H56  781   3.158   6.905   2.161  0.0167  1.4308  1.8588
    2CHTO   C35  782   3.011   7.018   2.062 -0.3628 -0.8320 -0.0293
    2CHTO   O24  783   2.909   6.994   2.160 -0.3231 -0.6268  0.0466
    2CHTO   H39  784   2.934   7.035   2.240  2.3375 -2.5436  0.2412
    2CHTO    O9  785   3.289   7.227   2.401 -0.0510 -0.2625 -0.5477
    2CHTO   C13  786   3.253   7.205   2.543 -0.4338  0.5363 -0.3264
    2CHTO   H26  787   3.240   7.095   2.553  1.1494  0.4259  0.7705
    2CHTO   C11  788   3.122   7.278   2.569 -0.0424 -0.0694 -0.9237
    2CHTO   H24  789   3.045   7.242   2.500  1.0781 -0.7693 -1.8277
    2CHTO    O8  790   3.137   7.418   2.536 -0.2643 -0.0010 -0.2340
    2CHTO    H3  791   3.053   7.452   2.514 -0.5324 -0.8022 -0.4709
    2CHTO    C9  792   3.081   7.249   2.719 -0.1488  0.4632  0.2282
    2CHTO   H22  793   3.102   7.141   2.728  1.4554  0.7089 -0.3711
    2CHTO    N2  794   2.938   7.274   2.756 -0.0172  0.4209  0.4650
    2CHTO   H10  795   2.933   7.331   2.848  0.2946 -0.0626  0.7854
    2CHTO   H11  796   2.870   7.191   2.763 -2.0531  2.1029  1.0688
    2CHTO    C7  797   3.183   7.315   2.822 -0.5839 -0.3808 -0.5983
    2CHTO   H20  798   3.175   7.248   2.910 -1.3150  2.1354  1.3361
    2CHTO    O4  799   3.319   7.332   2.765  0.3345 -0.2057 -0.0766
    2CHTO   C14  800   3.362   7.249   2.656 -0.2039 -0.4165 -0.5347
    2CHTO   H27  801   3.403   7.153   2.694 -0.4605 -0.2120  0.2535
    2CHTO   C18  802   3.471   7.326   2.582  0.3497  0.0136  0.3532
    2CHTO   O13  803   3.595   7.346   2.649  0.3225  0.5915 -0.4176
    2CHTO    H7  804   3.658   7.276   2.648 -0.9801 -0.6636  1.5618
    2CHTO    O2  805   3.138   7.451   2.871 -0.0184  0.0965  0.4292
    2CHTO    C1  806   3.208   7.499   2.985 -0.3431 -0.1173 -0.4354
    2CHTO   H14  807   3.306   7.451   3.004 -0.3972 -0.0833 -0.0802
    2CHTO    C2  808   3.122   7.489   3.115 -0.2242 -0.2744  0.1480
    2CHTO   H15  809   3.030   7.541   3.084 -0.8374 -1.4196  0.0068
    2CHTO    O6  810   3.087   7.349   3.141 -0.9007 -0.6248  0.5280
    2CHTO    H1  811   3.119   7.281   3.086 -0.6907  0.0619 -0.2069
    2CHTO    C3  812   3.184   7.556   3.241  0.9201  0.3488  0.4873
    2CHTO   H16  813   3.274   7.503   3.277  1.8742  2.5821  1.4503
    2CHTO    N1  814   3.085   7.574   3.355  0.2838  0.2905  0.6625
    2CHTO    H8  815   3.120   7.653   3.419  2.7354 -0.6815  0.5964
    2CHTO    H9  816   2.982   7.593   3.329 -0.0225 -0.8165  1.0509
    2CHTO    C4  817   3.236   7.703   3.199 -0.1654 -0.6878  1.1036
    2CHTO   H17  818   3.152   7.768   3.175  0.2812 -0.0343  1.2952
    2CHTO    O1  819   3.320   7.694   3.082 -0.4032  0.5474  0.0346
    2CHTO    C5  820   3.257   7.644   2.962  0.2847 -0.2171  0.5913
    2CHTO   H18  821   3.175   7.708   2.932  0.2739 -1.0946 -1.3652
    2CHTO   C16  822   3.362   7.647   2.849 -0.2450  0.0260  0.5487
    2CHTO   O11  823   3.399   7.779   2.800 -0.0269 -0.1539 -0.0770
    2CHTO    H5  824   3.336   7.844   2.823 -0.5225 -0.3587 -0.8368
    2CHTO    O3  825   3.312   7.766   3.305  0.6591 -0.1380 -0.1893
    2CHTO    C6  826   3.242   7.876   3.375 -0.6628 -0.6343 -0.6566
    2CHTO   H19  827   3.134   7.866   3.381 -0.5809 -1.3342 -0.2661
    2CHTO    C8  828   3.277   7.870   3.530 -0.5160 -0.0551 -0.8745
    2CHTO   H21  829   3.385   7.876   3.541 -0.1853 -1.9129 -2.6766
    2CHTO    O7  830   3.236   7.739   3.583  0.1841  0.0236  0.3450
    2CHTO    H2  831   3.284   7.726   3.663  2.5150  0.1405 -0.9931
    2CHTO   C12  832   3.197   7.990   3.606 -0.1130 -0.4905 -0.3477
    2CHTO   H25  833   3.090   7.968   3.587 -0.4587  0.1317  0.8637
    2CHTO    N3  834   3.216   7.998   3.757  0.3825 -0.3148 -0.2582
    2CHTO   H12  835   3.185   7.910   3.812  0.2093 -0.5117 -0.6638
    2CHTO   H13  836   3.312   8.025   3.798 -1.1648  1.0622  2.6031
    2CHTO   C15  837   3.228   8.129   3.538  0.6303 -0.6041  0.4293
    2CHTO   H28  838   3.331   8.160   3.554  0.2603  1.4174 -1.0216
    2CHTO   O10  839   3.114   8.241   3.580 -0.4928 -0.1276 -0.5495
    2CHTO    H4  840   3.125   8.323   3.537 -0.1392 -0.0317 -0.2710
    2CHTO    O5  841   3.224   8.125   3.391 -0.0597 -0.4932  0.0241
    2CHTO   C10  842   3.278   8.016   3.313  0.3925  0.5750 -0.4188
    2CHTO   H23  843   3.384   8.037   3.309  0.3487  0.5523 -2.0037
    2CHTO   C17  844   3.230   8.036   3.167 -0.2340  0.2144 -0.5797
    2CHTO   O12  845   3.087   8.018   3.150 -0.1461  0.1717 -0.3559
    2CHTO    H6  846   3.049   8.099   3.179 -0.7580 -0.4536  0.6399
    3CHTO  H203  847   7.604   1.800   1.957  0.0808 -1.4278  0.2432
    3CHTO   O82  848   7.551   1.783   1.881  0.2469 -0.2064 -0.1646
    3CHTO  C123  849   7.510   1.645   1.886  0.4460  0.3898  0.6418
    3CHTO  H227  850   7.577   1.597   1.958  1.1156  1.5057  0.7817
    3CHTO   O77  851   7.374   1.658   1.941  0.6742  0.0042  0.7806
    3CHTO  C118  852   7.285   1.546   1.951 -0.5817 -0.5172 -0.6345
    3CHTO  H222  853   7.320   1.495   2.042 -0.7151 -0.4822 -0.5642
    3CHTO  C125  854   7.136   1.601   1.970 -0.5439 -0.6227  0.1042
    3CHTO   O84  855   7.113   1.670   2.096 -0.2136  0.0006 -0.1445
    3CHTO  H205  856   7.194   1.691   2.137 -0.3592 -0.3384  0.3231
    3CHTO  C114  857   7.294   1.448   1.834 -0.1669 -0.0827  0.1714
    3CHTO  H218  858   7.227   1.476   1.752  1.3844  1.9193 -0.4438
    3CHTO  C116  859   7.442   1.427   1.786 -0.9022  0.0214 -0.6267
    3CHTO  H220  860   7.508   1.384   1.864  0.0326 -0.4020 -1.6398
    3CHTO   O79  861   7.437   1.341   1.676  0.5846 -0.3481  0.5002
    3CHTO  H201  862   7.391   1.392   1.612  2.0940  0.4928  0.0519
    3CHTO  C120  863   7.508   1.565   1.751  0.5812 -0.4784 -0.4120
    3CHTO  H224  864   7.438   1.603   1.674  0.5073 -0.9219 -0.5660
    3CHTO   N21  865   7.642   1.552   1.691 -0.0330  0.5459  0.2384
    3CHTO  H211  866   7.713   1.633   1.697  1.5927 -0.6795 -1.8536
    3CHTO  H212  867   7.691   1.459   1.716  0.8141  0.3885 -1.9373
    3CHTO   O75  868   7.245   1.320   1.887 -0.2713 -0.0605 -0.2278
    3CHTO  C112  869   7.143   1.241   1.804 -0.7831  0.1317 -0.1936
    3CHTO  H216  870   7.184   1.209   1.707  2.8769  0.4594  1.1685
    3CHTO   O73  871   7.035   1.330   1.793 -0.2874  0.0814 -0.7742
    3CHTO  C113  872   6.922   1.284   1.719 -0.0145  0.7283  0.5009
    3CHTO  H217  873   6.929   1.231   1.622 -1.8898 -0.5014  0.9890
    3CHTO  C124  874   6.811   1.388   1.708 -0.5420 -0.6588  0.1963
    3CHTO   O83  875   6.838   1.498   1.623 -0.2420 -0.4521  1.2364
    3CHTO  H204  876   6.931   1.509   1.619 -0.3334 -0.0916 -0.4198
    3CHTO  C109  877   6.863   1.169   1.800  0.6739 -0.1550 -0.0723
    3CHTO  H213  878   6.835   1.210   1.898  0.6149 -0.8444  0.1968
    3CHTO  C110  879   6.966   1.057   1.826 -0.8394 -0.1301  0.4949
    3CHTO  H214  880   6.990   1.009   1.731 -1.7774  0.9309 -0.2970
    3CHTO   O78  881   6.911   0.959   1.917 -0.8124 -0.6532 -0.4581
    3CHTO  H200  882   6.831   0.918   1.889  0.6265 -2.4739 -2.0045
    3CHTO  C111  883   7.095   1.118   1.885 -0.8091  0.2599  0.2383
    3CHTO  H215  884   7.071   1.145   1.989  0.8074 -2.6829  1.4346
    3CHTO   N19  885   7.205   1.016   1.892  0.3594  0.3557 -0.2826
    3CHTO  H207  886   7.280   1.047   1.963 -1.9267 -3.5760  4.1890
    3CHTO  H208  887   7.145   0.937   1.934 -1.4710  0.9830 -1.6744
    3CHTO   O74  888   6.742   1.114   1.742 -0.0798 -0.1366 -0.1373
    3CHTO  C115  889   6.622   1.092   1.842  0.0947  0.3760  0.4688
    3CHTO  H219  890   6.647   1.017   1.916 -0.0759 -0.7077 -0.5539
    3CHTO   O76  891   6.578   1.240   1.927 -0.0070 -0.5689 -0.6278
    3CHTO  C122  892   6.489   1.320   1.843 -0.2806 -0.1525  0.1438
    3CHTO  H226  893   6.542   1.354   1.754 -1.9471 -0.8316 -1.1312
    3CHTO  C126  894   6.451   1.447   1.920  0.4093  0.1048 -0.2087
    3CHTO   O85  895   6.418   1.547   1.831 -0.1597  0.1080  0.8253
    3CHTO  H206  896   6.329   1.536   1.804  0.6400 -1.4309 -1.2495
    3CHTO  C121  897   6.351   1.251   1.796 -0.2505  0.3147  0.2311
    3CHTO  H225  898   6.265   1.284   1.859  1.0269  3.5020  0.4113
    3CHTO   O81  899   6.312   1.288   1.664 -0.1380 -0.2642 -0.2858
    3CHTO  H202  900   6.287   1.378   1.667 -2.3121 -0.8139 -1.1089
    3CHTO  C119  901   6.367   1.091   1.813  0.5661  0.5772  0.3341
    3CHTO  H223  902   6.374   1.074   1.920  1.8832  0.3736  0.2263
    3CHTO  C117  903   6.503   1.042   1.750 -0.4548 -0.0157  0.7684
    3CHTO  H221  904   6.513   1.079   1.648  1.6567 -0.2814  0.8559
    3CHTO   N20  905   6.505   0.893   1.737  0.6139  0.0857  0.1581
    3CHTO  H209  906   6.509   0.855   1.838 -0.2709 -0.7415 -0.1121
    3CHTO  H210  907   6.595   0.871   1.680  0.8154  0.1625  0.4474
    3CHTO   O80  908   6.223   1.016   1.761  0.0166  0.1526 -0.1667
    3CHTO  C103  909   6.086   1.052   1.830 -0.2597 -0.0793 -0.2965
    3CHTO  H190  910   6.100   1.110   1.920  1.6996 -1.8250  0.5744
    3CHTO  C101  911   5.980   1.127   1.741 -0.4453 -0.6416 -0.9999
    3CHTO  H188  912   5.993   1.101   1.636 -0.4722 -1.0019 -0.9131
    3CHTO   O68  913   6.008   1.300   1.755 -0.2093  0.1926 -0.2652
    3CHTO  H168  914   6.071   1.327   1.692 -0.5182  1.3869 -0.0746
    3CHTO   C99  915   5.827   1.098   1.786  0.0543 -0.7332 -0.3536
    3CHTO  H186  916   5.806   1.152   1.880 -1.4268  0.7525 -1.4894
    3CHTO   N17  917   5.728   1.156   1.690  0.5281  0.0488 -0.1509
    3CHTO  H174  918   5.675   1.234   1.742 -0.3557 -0.6208 -0.0420
    3CHTO  H175  919   5.659   1.078   1.661 -1.1844  1.9065 -1.1394
    3CHTO   C97  920   5.808   0.944   1.813  0.3258 -0.4535  0.1888
    3CHTO  H184  921   5.826   0.895   1.716  2.0568 -0.6087  0.5733
    3CHTO   O64  922   5.907   0.908   1.909  0.2960  0.3306  0.4358
    3CHTO  C104  923   6.045   0.905   1.875 -0.1399  0.2779 -0.5277
    3CHTO  H191  924   6.076   0.835   1.797  0.4122 -1.7630  1.4727
    3CHTO  C108  925   6.120   0.865   2.003  0.2895 -0.3642 -0.4511
    3CHTO   O71  926   6.106   0.728   2.054  0.1608 -0.1322 -0.2128
    3CHTO  H171  927   6.175   0.671   2.023  1.8830  0.3982  2.5104
    3CHTO   O62  928   5.683   0.915   1.868  0.2721 -0.2354  0.2331
    3CHTO   C91  929   5.622   0.794   1.831  0.1962  0.4154 -0.2170
    3CHTO  H178  930   5.640   0.770   1.727 -0.6373  2.2561 -0.8075
    3CHTO   C92  931   5.466   0.818   1.835 -0.4461  0.4142  0.0913
    3CHTO  H179  932   5.439   0.861   1.932  1.0587  0.6036  0.4360
    3CHTO   O66  933   5.434   0.919   1.738  0.2599  0.8624 -0.6043
    3CHTO  H166  934   5.488   0.996   1.736  1.9197 -0.2587  0.6960
    3CHTO   C93  935   5.381   0.680   1.815  0.0627 -0.5279  0.7138
    3CHTO  H180  936   5.389   0.658   1.708 -0.0499 -0.4035  0.6794
    3CHTO   N16  937   5.232   0.706   1.831 -0.2851 -0.0251  0.0470
    3CHTO  H172  938   5.180   0.645   1.758  1.6735 -0.4815 -1.0074
    3CHTO  H173  939   5.204   0.810   1.828 -1.8737 -0.3719  2.1044
    3CHTO   C94  940   5.435   0.558   1.895 -0.4425  0.0307  0.2012
    3CHTO  H181  941   5.365   0.524   1.971  1.9085 -0.9683  1.9938
    3CHTO   O61  942   5.552   0.591   1.975 -0.2696  0.0741 -0.4953
    3CHTO   C95  943   5.664   0.664   1.919 -0.4455  0.0121 -0.5165
    3CHTO  H182  944   5.730   0.693   2.001 -1.5155  0.9765  0.0072
    3CHTO  C106  945   5.757   0.568   1.832  0.0111 -0.3714  0.2370
    3CHTO   O69  946   5.884   0.621   1.796 -0.0812  0.2143  0.0996
    3CHTO  H169  947   5.943   0.551   1.817 -0.8614 -0.1252  1.1953
    3CHTO   O63  948   5.480   0.435   1.799 -0.0796 -0.4176  0.2701
    3CHTO   C96  949   5.391   0.305   1.798  0.2287  0.2718 -0.5802
    3CHTO  H183  950   5.451   0.227   1.750  0.2385  0.2712 -0.5671
    3CHTO   C98  951   5.250   0.322   1.728 -0.5344  0.2462 -0.1398
    3CHTO  H185  952   5.205   0.416   1.761  1.0428  0.8408  0.3474
    3CHTO   O67  953   5.274   0.335   1.582  0.0560  0.2417 -0.6716
    3CHTO  H167  954   5.299   0.424   1.567 -0.6678  0.1970 -2.2510
    3CHTO  C102  955   5.152   0.199   1.762 -0.2466 -0.1882  0.0651
    3CHTO  H189  956   5.184   0.116   1.697 -0.5731  1.4267 -2.1652
    3CHTO   N18  957   5.010   0.217   1.737  0.1874  0.1387 -0.3281
    3CHTO  H176  958   4.952   0.145   1.792 -1.0392  1.2256 -0.1731
    3CHTO  H177  959   4.993   0.204   1.631 -3.1231  1.6073 -0.0326
    3CHTO  C105  960   5.172   0.138   1.904  0.5537 -0.2911  0.0534
    3CHTO  H192  961   5.132   0.211   1.975  1.4203 -0.7811  1.0533
    3CHTO   O65  962   5.309   0.122   1.944  0.1103  0.3455 -0.0157
    3CHTO  C100  963   5.380   0.247   1.941  0.8780  0.9522  0.1556
    3CHTO  H187  964   5.333   0.319   2.009  1.2508  1.4549 -0.1221
    3CHTO  C107  965   5.516   0.220   2.000  0.1342 -0.1241  0.2530
    3CHTO   O70  966   5.592   0.129   1.921  0.0712 -0.3042  0.3210
    3CHTO  H170  967   5.631   0.063   1.976  0.4704 -0.2445  0.1083
    3CHTO   O57  968   5.079  -0.015   1.909 -0.0881  0.5543  0.0651
    3CHTO   C85  969   5.048  -0.078   2.037 -0.1963  0.6440 -0.5379
    3CHTO  H157  970   5.044  -0.186   2.012  0.6192  0.1357  1.4731
    3CHTO   C83  971   4.906  -0.035   2.085  0.0412 -0.1698 -0.1805
    3CHTO  H155  972   4.828  -0.063   2.015  1.1890  0.3977 -1.7244
    3CHTO   O56  973   4.896   0.112   2.081  0.0386  0.0603  0.1429
    3CHTO  H135  974   4.864   0.142   1.998 -0.2582  1.9374  0.9320
    3CHTO   C81  975   4.881  -0.098   2.225  0.1810 -0.4771  0.5138
    3CHTO  H153  976   4.898  -0.205   2.224 -1.6144 -0.7854 -1.7282
    3CHTO   N14  977   4.737  -0.088   2.266  0.3277 -0.0218  0.0897
    3CHTO  H141  978   4.709   0.015   2.261  1.9273  0.6952  3.9228
    3CHTO  H142  979   4.728  -0.120   2.368 -0.0160  0.9649  0.3705
    3CHTO   C79  980   4.984  -0.039   2.330 -0.0743  0.3293 -0.2393
    3CHTO  H151  981   4.958  -0.079   2.428 -0.1508 -0.4440 -0.5757
    3CHTO   O52  982   5.115  -0.098   2.290  0.2810  0.8573  0.2667
    3CHTO   C86  983   5.158  -0.057   2.158  0.9320  0.0838 -0.5037
    3CHTO  H158  984   5.193   0.048   2.170  2.7455 -0.6746  1.1496
    3CHTO   C90  985   5.280  -0.139   2.118 -0.0353 -0.5647 -0.5437
    3CHTO   O60  986   5.383  -0.124   2.213 -0.1070  0.7308  0.1594
    3CHTO  H138  987   5.460  -0.173   2.191 -0.2954  1.0514 -1.2547
    3CHTO   O50  988   4.989   0.102   2.337  0.3328  0.4752 -0.4796
    3CHTO   C73  989   5.038   0.180   2.450  0.5434  0.0676  0.0784
    3CHTO  H145  990   5.115   0.122   2.503 -0.6002 -1.2159  0.3779
    3CHTO   C74  991   4.925   0.208   2.558  0.0861 -0.3451  0.7686
    3CHTO  H146  992   4.888   0.109   2.588  1.2157 -1.2456 -0.7055
    3CHTO   O54  993   4.984   0.276   2.668  0.6285 -0.1502  0.2110
    3CHTO  H133  994   5.033   0.346   2.629  2.9931 -0.9856  1.6650
    3CHTO   C75  995   4.814   0.287   2.487 -0.0374 -1.3082 -0.2490
    3CHTO  H147  996   4.777   0.223   2.405 -0.7860 -2.8515  1.2625
    3CHTO   N13  997   4.692   0.309   2.561 -0.1053  0.3238 -0.3934
    3CHTO  H139  998   4.647   0.215   2.592  0.1473  1.2309  3.0064
    3CHTO  H140  999   4.709   0.354   2.658  0.7634 -1.6109  0.3740
    3CHTO   C76 1000   4.871   0.424   2.417  0.0369 -0.4246  0.4168
    3CHTO  H148 1001   4.896   0.491   2.499 -0.8012 -0.6312  0.8528
    3CHTO   O49 1002   4.992   0.390   2.340  0.4231 -0.5248 -0.2353
    3CHTO   C77 1003   5.102   0.315   2.402 -0.6221  0.5586  0.0266
    3CHTO  H149 1004   5.157   0.358   2.485 -0.7260 -0.7267  0.7868
    3CHTO   C88 1005   5.210   0.288   2.294 -0.0742 -0.1456  0.1998
    3CHTO   O58 1006   5.318   0.189   2.345 -0.1395 -0.1145  0.2556
    3CHTO  H136 1007   5.391   0.174   2.288 -0.0273  0.0153  0.3637
    3CHTO   O51 1008   4.782   0.499   2.320  0.0991  0.1805  0.0884
    3CHTO   C78 1009   4.811   0.636   2.308  0.0934 -0.6115 -0.2313
    3CHTO  H150 1010   4.913   0.664   2.343 -0.1139  0.1204 -0.2099
    3CHTO   C80 1011   4.703   0.734   2.368  0.1825 -0.3579  0.4996
    3CHTO  H152 1012   4.602   0.701   2.335  0.2444 -0.7363  0.6795
    3CHTO   O55 1013   4.697   0.714   2.512 -0.1421  0.6548 -0.9393
    3CHTO  H134 1014   4.766   0.746   2.566  0.1519 -1.5475  0.0310
    3CHTO   C84 1015   4.731   0.889   2.328  0.3312  0.0410  0.2774
    3CHTO  H156 1016   4.821   0.926   2.377 -0.6338 -0.1661  2.2540
    3CHTO   N15 1017   4.620   0.985   2.367 -0.4591 -0.0279  0.1197
    3CHTO  H143 1018   4.642   1.089   2.358 -0.6069  0.0042  0.1339
    3CHTO  H144 1019   4.578   0.968   2.464  1.6695 -0.3607  1.0220
    3CHTO   C87 1020   4.756   0.900   2.171 -0.6705  0.2102  0.0041
    3CHTO  H159 1021   4.670   0.907   2.105  0.0617 -3.4154 -1.5107
    3CHTO   O53 1022   4.838   0.799   2.125  0.0595 -0.1670  0.0387
    3CHTO   C82 1023   4.806   0.662   2.157  0.2284  0.0470 -0.2439
    3CHTO  H154 1024   4.703   0.636   2.134  0.2860 -1.7653  1.4532
    3CHTO   C89 1025   4.894   0.566   2.072 -0.8212  0.0629  0.1957
    3CHTO   O59 1026   4.870   0.600   1.936  0.3263 -0.2003 -0.0699
    3CHTO  H137 1027   4.923   0.543   1.883 -2.3373 -2.8452 -0.0588
    3CHTO   O45 1028   4.814   1.053   2.145 -0.1040  0.1658 -0.3581
    3CHTO   C67 1029   4.961   1.051   2.140 -0.5132  0.3484 -0.6438
    3CHTO  H124 1030   5.004   0.964   2.190 -1.3765  0.8541  1.0184
    3CHTO   C65 1031   5.003   1.049   1.989 -0.7873 -0.1049 -0.6000
    3CHTO  H122 1032   4.915   1.084   1.934 -2.0923 -2.7110 -0.2076
    3CHTO   O44 1033   5.025   0.914   1.943 -0.3730 -0.1413  0.6374
    3CHTO  H102 1034   5.114   0.889   1.960 -0.2125  0.2533  0.3973
    3CHTO   C63 1035   5.108   1.162   1.957  0.0007 -0.3313 -0.5463
    3CHTO  H120 1036   5.055   1.256   1.974 -0.3664 -0.6455  0.0368
    3CHTO   N11 1037   5.155   1.186   1.817 -0.8909  0.4101 -0.0292
    3CHTO  H108 1038   5.079   1.240   1.765 -0.2234  2.0748  0.6847
    3CHTO  H109 1039   5.250   1.235   1.819  1.2137 -3.5139  0.2916
    3CHTO   C61 1040   5.221   1.150   2.075  0.6303 -0.4456  0.8220
    3CHTO  H118 1041   5.297   1.227   2.054  1.0126 -0.8924  0.5696
    3CHTO   O40 1042   5.163   1.180   2.208  0.3418  0.1574 -0.6361
    3CHTO   C68 1043   5.019   1.181   2.216  0.0809 -0.3376  0.0009
    3CHTO  H125 1044   4.980   1.278   2.179  1.0587  0.1992  0.3706
    3CHTO   C72 1045   4.974   1.169   2.365 -0.6243  0.0228 -0.3112
    3CHTO   O48 1046   5.046   1.264   2.444 -0.5012 -0.7786  0.1570
    3CHTO  H105 1047   4.983   1.301   2.504  0.6582  0.6397  0.5222
    3CHTO   O38 1048   5.286   1.026   2.070 -0.1999  0.2846 -0.4798
    3CHTO   C55 1049   5.371   0.980   2.178 -0.1516  0.4795  0.8338
    3CHTO  H112 1050   5.328   1.022   2.271 -1.0643  0.5640  0.3819
    3CHTO   C56 1051   5.520   1.024   2.156  0.8452  0.0207  1.0718
    3CHTO  H113 1052   5.544   0.990   2.054  1.8873 -0.3889  1.4408
    3CHTO   O42 1053   5.542   1.167   2.151  0.7203  0.0328 -0.2828
    3CHTO  H100 1054   5.618   1.190   2.103  0.6448 -2.0185 -1.4287
    3CHTO   C57 1055   5.617   0.952   2.264  1.0350  0.0263  0.5608
    3CHTO  H114 1056   5.585   1.002   2.356  0.0492 -0.5553  0.5466
    3CHTO   N10 1057   5.765   0.975   2.245 -0.6563  0.4181 -0.3099
    3CHTO  H106 1058   5.783   1.075   2.207 -0.3278  0.3708 -0.2794
    3CHTO  H107 1059   5.806   0.901   2.178  2.4014  0.8413  1.0364
    3CHTO   C58 1060   5.580   0.804   2.269  0.1000  0.2750  0.0063
    3CHTO  H115 1061   5.610   0.755   2.174 -0.2098 -1.4280  0.7691
    3CHTO   O37 1062   5.442   0.779   2.300  0.1043 -0.1797 -0.0048
    3CHTO   C59 1063   5.354   0.826   2.195 -0.2757  0.1097  0.3133
    3CHTO  H116 1064   5.386   0.781   2.101  0.8279  1.5523 -0.0157
    3CHTO   C70 1065   5.216   0.767   2.226  0.2543  0.0628  0.4077
    3CHTO   O46 1066   5.212   0.627   2.192 -0.6508 -0.2861 -0.0001
    3CHTO  H103 1067   5.232   0.621   2.100  0.2720  0.6592  0.1302
    3CHTO   O39 1068   5.643   0.736   2.383 -0.0227  0.7853  0.2296
    3CHTO   C60 1069   5.684   0.600   2.362 -0.4677  0.0544 -0.4544
    3CHTO  H117 1070   5.610   0.563   2.291 -0.5537  2.1534 -1.4993
    3CHTO   C62 1071   5.828   0.597   2.308  0.6560 -0.5918 -0.7561
    3CHTO  H119 1072   5.833   0.650   2.211 -2.9219  0.5383 -0.3760
    3CHTO   O43 1073   5.926   0.655   2.397  0.3655  0.1758 -0.1918
    3CHTO  H101 1074   6.011   0.650   2.356  1.7978  1.0688  2.5771
    3CHTO   C66 1075   5.856   0.445   2.275  0.6162 -0.2314  0.7143
    3CHTO  H123 1076   5.779   0.406   2.208  0.7281 -1.0193  1.0385
    3CHTO   N12 1077   5.975   0.423   2.191  0.2526  0.2936 -0.0823
    3CHTO  H110 1078   6.067   0.449   2.241  1.1085 -0.1584 -1.4124
    3CHTO  H111 1079   5.987   0.317   2.177  0.6412  0.2814  0.3427
    3CHTO   C69 1080   5.848   0.356   2.396 -1.1532  0.3744 -0.4303
    3CHTO  H126 1081   5.915   0.395   2.475 -0.1176 -1.0469 -0.5898
    3CHTO   O41 1082   5.704   0.375   2.448 -0.2630  0.2022  0.3550
    3CHTO   C64 1083   5.675   0.511   2.483  0.1754  0.0830 -0.4439
    3CHTO  H121 1084   5.744   0.547   2.563 -0.2244  0.5173 -0.2908
    3CHTO   C71 1085   5.527   0.535   2.543 -0.3205 -0.1911  0.3575
    3CHTO   O47 1086   5.429   0.497   2.448  0.1542 -0.4931  0.5338
    3CHTO  H104 1087   5.430   0.403   2.442 -1.2826 -0.5639  1.2390
    3CHTO   O34 1088   5.896   0.204   2.360 -0.7798  0.1169 -0.5664
    3CHTO   C49 1089   5.921   0.090   2.303  0.0293 -0.1079 -0.8071
    3CHTO   H91 1090   5.993   0.102   2.222 -0.2335  2.2655 -0.7293
    3CHTO   C47 1091   5.796   0.034   2.234  0.2274  0.1050 -0.2394
    3CHTO   H89 1092   5.782   0.109   2.154 -1.5096  1.6900  1.4940
    3CHTO   O33 1093   5.676   0.036   2.315  0.5383 -0.2194 -0.2694
    3CHTO   H70 1094   5.602   0.023   2.259 -1.1891  0.3627  1.8198
    3CHTO   C45 1095   5.830  -0.124   2.185  0.5757 -0.2022  0.3347
    3CHTO   H87 1096   5.766  -0.193   2.240 -0.9128 -1.5034 -2.8857
    3CHTO    N8 1097   5.795  -0.143   2.041  0.5125  0.1200  0.0133
    3CHTO   H75 1098   5.787  -0.045   1.997 -0.5632 -1.0569 -2.4994
    3CHTO   H76 1099   5.700  -0.192   2.024 -0.0397  1.0066  0.5210
    3CHTO   C43 1100   5.977  -0.174   2.215 -0.6218  0.3645 -0.2791
    3CHTO   H85 1101   5.989  -0.280   2.192  0.4900  0.4658 -0.1620
    3CHTO   O29 1102   6.004  -0.145   2.349  0.3507  0.2599  0.0125
    3CHTO   C50 1103   5.976  -0.014   2.403 -1.1946  0.5509 -0.1499
    3CHTO   H92 1104   5.891  -0.027   2.471  0.0643 -0.0955  1.3287
    3CHTO   C54 1105   6.106   0.040   2.482 -0.8516 -0.0228  0.3986
    3CHTO   O36 1106   6.092   0.167   2.530  0.1307  0.0357 -0.5071
    3CHTO   H72 1107   6.063   0.228   2.465 -1.2782  0.7540  0.7639
    3CHTO   O27 1108   6.080  -0.110   2.136 -0.2736 -0.3793  0.1413
    3CHTO   C37 1109   6.199  -0.033   2.100 -0.2173 -0.8079 -0.1268
    3CHTO   H79 1110   6.191   0.066   2.148  0.6944 -0.5135 -0.5780
    3CHTO   C38 1111   6.330  -0.107   2.149  1.3339  0.2272  0.1667
    3CHTO   H80 1112   6.325  -0.213   2.120 -1.3277  0.9027 -2.0579
    3CHTO   O31 1113   6.326  -0.082   2.292 -0.5247  0.2039  0.2629
    3CHTO   H68 1114   6.406  -0.098   2.339  0.2747  1.3739 -0.6806
    3CHTO   C39 1115   6.457  -0.040   2.078  0.1787 -0.2818  0.0071
    3CHTO   H81 1116   6.454   0.062   2.119 -0.5676 -0.9581  1.6867
    3CHTO    N7 1117   6.592  -0.107   2.114 -0.1611  0.2171 -0.1682
    3CHTO   H73 1118   6.622  -0.063   2.207  2.6674 -2.4569  0.2575
    3CHTO   H74 1119   6.575  -0.214   2.118  0.2861  0.1199 -0.7111
    3CHTO   C40 1120   6.437  -0.046   1.924  0.2512 -0.4223 -1.2972
    3CHTO   H82 1121   6.419  -0.149   1.892  1.0978 -1.6425  1.9805
    3CHTO   O26 1122   6.315   0.036   1.895 -0.1556  0.6027 -0.1026
    3CHTO   C41 1123   6.193  -0.015   1.946  0.2976  0.3537  0.1438
    3CHTO   H83 1124   6.170  -0.106   1.888  0.5787 -0.8238  1.8571
    3CHTO   C52 1125   6.090   0.088   1.908  0.4767 -0.2409 -0.1413
    3CHTO   O35 1126   6.124   0.248   1.912  0.1249  0.1691 -0.9907
    3CHTO   H71 1127   6.204   0.261   1.866  1.0563 -1.3303  0.1512
    3CHTO   O28 1128   6.550   0.017   1.857  0.2070 -0.7300  0.3472
    3CHTO   C42 1129   6.546   0.159   1.802  0.2495 -0.4352 -0.6249
    3CHTO   H84 1130   6.648   0.178   1.768 -0.8727  1.5900 -3.0307
    3CHTO   C44 1131   6.512   0.278   1.905  0.3479 -1.1662 -0.5579
    3CHTO   H86 1132   6.411   0.260   1.943 -0.3705  0.0577 -1.8409
    3CHTO   O32 1133   6.593   0.278   2.023 -0.3409 -0.0402 -0.5474
    3CHTO   H69 1134   6.548   0.320   2.093  0.0807  0.9710 -0.8803
    3CHTO   C48 1135   6.503   0.422   1.832  0.7579  0.0390  0.9800
    3CHTO   H90 1136   6.604   0.450   1.803 -0.0851  1.4396 -0.6496
    3CHTO    N9 1137   6.451   0.533   1.922 -0.2906  0.2887 -0.1254
    3CHTO   H77 1138   6.536   0.582   1.966  0.1910 -0.7453  0.1249
    3CHTO   H78 1139   6.398   0.604   1.860 -1.8154 -1.7958 -1.2716
    3CHTO   C51 1140   6.417   0.409   1.702 -0.1872  0.0618  0.1977
    3CHTO   H93 1141   6.316   0.388   1.737  0.1392 -2.3912 -0.2441
    3CHTO   O30 1142   6.468   0.305   1.626 -0.5645  0.0313  0.2620
    3CHTO   C46 1143   6.454   0.170   1.674  0.0477  0.4444  0.3701
    3CHTO   H88 1144   6.349   0.149   1.693  0.2022 -0.6108  0.0908
    3CHTO   C53 1145   6.501   0.072   1.570  0.5492  0.4206 -0.2397
    3CHTO   O72 1146   6.492  -0.065   1.593 -0.1369  0.2206 -0.3811
    3CHTO  H199 1147   6.576  -0.098   1.568 -0.9003 -0.8413 -1.6056
    3CHTO   O22 1148   6.436   0.525   1.622 -0.2722  0.7014 -0.3758
    3CHTO   C31 1149   6.335   0.563   1.525 -0.0095  0.6323  0.2265
    3CHTO   H59 1150   6.285   0.467   1.504  1.4903 -0.5171  1.7472
    3CHTO   C29 1151   6.232   0.662   1.581  0.0974 -0.3630  0.0220
    3CHTO   H57 1152   6.280   0.760   1.596  1.1590 -0.8484 -0.1190
    3CHTO   O21 1153   6.180   0.617   1.707 -0.1287 -0.4667 -0.0502
    3CHTO   H37 1154   6.101   0.661   1.732  0.9942  2.1441 -0.9753
    3CHTO   C27 1155   6.119   0.680   1.469 -0.3761  0.0976 -0.0225
    3CHTO   H55 1156   6.063   0.588   1.449 -1.0240  0.3103  0.7565
    3CHTO    N5 1157   6.020   0.787   1.513  0.3856 -0.2893 -0.7117
    3CHTO   H43 1158   6.002   0.772   1.619  1.3973 -1.2409 -0.6699
    3CHTO   H44 1159   5.930   0.802   1.455 -0.3509 -0.3644  0.3899
    3CHTO   C25 1160   6.182   0.720   1.334 -0.1317 -0.2806 -0.3442
    3CHTO   H53 1161   6.214   0.824   1.347  0.9277 -0.2837 -2.5855
    3CHTO   O17 1162   6.285   0.627   1.292 -0.0604  0.2569  0.4088
    3CHTO   C32 1163   6.393   0.619   1.389  1.2306  0.5540  0.0224
    3CHTO   H60 1164   6.439   0.716   1.406  0.3897  0.7763  1.0865
    3CHTO   C36 1165   6.509   0.526   1.334  0.1589  0.5483  0.8033
    3CHTO   O25 1166   6.461   0.389   1.305  0.6107  0.1985 -0.0659
    3CHTO   H40 1167   6.372   0.388   1.275  0.0672  2.0575  1.3861
    3CHTO   O15 1168   6.061   0.694   1.222  0.1647  0.3547 -0.4000
    3CHTO   C19 1169   6.058   0.802   1.125  0.7121  0.3908  0.9327
    3CHTO   H47 1170   5.987   0.762   1.051 -1.0163  1.2503  2.1131
    3CHTO   C20 1171   6.011   0.942   1.170  0.8300 -0.1811  0.4416
    3CHTO   H48 1172   6.080   0.984   1.244  2.5182  1.3522 -1.9371
    3CHTO   O19 1173   5.878   0.928   1.222  0.1557 -0.0131  0.1703
    3CHTO   H35 1174   5.868   0.861   1.287  0.0386 -0.7298 -0.5714
    3CHTO   C21 1175   6.011   1.049   1.051  0.0645 -0.0481 -0.0641
    3CHTO   H49 1176   5.925   1.020   0.991  1.8468 -3.6824 -0.9898
    3CHTO    N4 1177   5.978   1.191   1.096  0.3136  0.2833  0.5412
    3CHTO   H41 1178   6.033   1.273   1.052  0.7364 -1.5707 -2.5186
    3CHTO   H42 1179   5.989   1.187   1.203 -0.7795 -0.2657  0.6294
    3CHTO   C22 1180   6.143   1.041   0.975 -0.7703 -0.0731 -0.2477
    3CHTO   H50 1181   6.224   1.080   1.036 -1.0373  2.7643 -1.6152
    3CHTO   O14 1182   6.169   0.907   0.943 -0.6155  0.1856  0.0957
    3CHTO   C23 1183   6.193   0.815   1.045 -0.1229 -0.3759  0.2121
    3CHTO   H51 1184   6.275   0.844   1.113 -0.1526  1.5288 -0.5278
    3CHTO   C34 1185   6.243   0.678   0.985  0.5344 -0.0726 -0.4008
    3CHTO   O23 1186   6.149   0.614   0.896 -0.0872 -0.1708  0.0853
    3CHTO   H38 1187   6.180   0.634   0.810 -1.3719 -0.1189 -0.3754
    3CHTO   O16 1188   6.136   1.108   0.847 -0.1243  0.0174  0.1821
    3CHTO   C24 1189   6.233   1.227   0.820 -0.0210 -0.1219 -0.5227
    3CHTO   H52 1190   6.274   1.271   0.910 -0.4603 -0.8019  0.0143
    3CHTO   C26 1191   6.151   1.343   0.751 -0.2650  0.3500 -0.1326
    3CHTO   H54 1192   6.092   1.299   0.668  0.5017  2.0891 -1.6244
    3CHTO   O20 1193   6.053   1.400   0.849 -0.1515  0.9235  0.6517
    3CHTO   H36 1194   5.994   1.464   0.812  0.0498  0.8708  0.2330
    3CHTO   C30 1195   6.251   1.453   0.697 -0.1737  0.3098  0.2688
    3CHTO   H58 1196   6.287   1.513   0.783  1.3476  1.2442 -0.9786
    3CHTO    N6 1197   6.171   1.545   0.608  0.4160 -0.1931  0.2289
    3CHTO   H45 1198   6.086   1.592   0.656 -0.6365  0.7469 -2.4768
    3CHTO   H46 1199   6.142   1.500   0.515 -3.2559  1.3255  0.5527
    3CHTO   C33 1200   6.384   1.393   0.627  1.0428  0.0839 -0.1404
    3CHTO   H61 1201   6.357   1.349   0.530 -1.0918  0.4951  0.2445
    3CHTO   O18 1202   6.440   1.288   0.704 -0.8355 -1.2116  0.6115
    3CHTO   C28 1203   6.353   1.180   0.726  0.1085 -0.3547 -0.3978
    3CHTO   H56 1204   6.317   1.147   0.629  1.7504 -0.1056 -1.1106
    3CHTO   C35 1205   6.446   1.072   0.791 -0.2209  0.7689  0.6497
    3CHTO   O24 1206   6.484   1.118   0.921  0.0346 -0.4034 -0.0740
    3CHTO   H39 1207   6.576   1.134   0.912 -0.0877  0.2146 -0.2688
    3CHTO    O9 1208   6.482   1.496   0.588  0.4149  0.3628  0.2619
    3CHTO   C13 1209   6.565   1.557   0.734  0.0222  0.2639  0.7242
    3CHTO   H26 1210   6.503   1.531   0.822  4.0079 -0.2328  3.4711
    3CHTO   C11 1211   6.579   1.717   0.716  0.0222  0.4558  0.0478
    3CHTO   H24 1212   6.476   1.757   0.723  0.2118  0.9108  0.2214
    3CHTO    O8 1213   6.634   1.741   0.584 -0.3260  0.1284 -0.0956
    3CHTO    H3 1214   6.720   1.704   0.581 -0.7881 -0.9316 -0.4852
    3CHTO    C9 1215   6.666   1.764   0.829  1.1052 -0.5701 -0.1816
    3CHTO   H22 1216   6.619   1.730   0.923 -2.0190  2.3509 -0.5913
    3CHTO    N2 1217   6.666   1.912   0.824 -0.3088  0.1123 -0.4175
    3CHTO   H10 1218   6.567   1.955   0.820  1.1592  3.5192 -1.7981
    3CHTO   H11 1219   6.712   1.949   0.734  1.4508 -1.2423 -0.0840
    3CHTO    C7 1220   6.808   1.704   0.814  0.2618 -0.1812 -0.2612
    3CHTO   H20 1221   6.863   1.737   0.904 -0.1567 -1.7050  0.5673
    3CHTO    O4 1222   6.806   1.562   0.823  0.0135  0.1513 -0.2304
    3CHTO   C14 1223   6.707   1.492   0.747 -0.1896 -0.9218 -0.3429
    3CHTO   H27 1224   6.691   1.396   0.800  0.2807  0.7848  3.0801
    3CHTO   C18 1225   6.766   1.454   0.603  0.7485 -0.3645 -0.5755
    3CHTO   O13 1226   6.863   1.345   0.596 -0.1143  0.0562 -0.7226
    3CHTO    H7 1227   6.818   1.268   0.623  1.9311 -0.7902  0.4135
    3CHTO    O2 1228   6.902   1.760   0.660 -0.1407  0.2696 -0.4652
    3CHTO    C1 1229   7.027   1.691   0.644  0.0081 -0.6092 -0.2429
    3CHTO   H14 1230   7.007   1.582   0.649 -1.4650 -0.3031  0.9724
    3CHTO    C2 1231   7.137   1.738   0.748 -0.0663 -0.1803 -0.4319
    3CHTO   H15 1232   7.123   1.846   0.741 -0.8962 -0.2552  0.0497
    3CHTO    O6 1233   7.106   1.678   0.874 -0.1390 -0.4583 -0.0315
    3CHTO    H1 1234   7.128   1.723   0.954 -2.3146  0.8519 -0.1386
    3CHTO    C3 1235   7.284   1.700   0.700 -0.2463  0.6711 -0.3821
    3CHTO   H16 1236   7.304   1.591   0.700 -0.2116  0.6781 -0.5198
    3CHTO    N1 1237   7.383   1.765   0.788  0.1268  0.6748  0.5612
    3CHTO    H8 1238   7.478   1.766   0.737 -0.7886  1.8899 -1.1423
    3CHTO    H9 1239   7.398   1.708   0.879  1.0107 -0.2862 -0.1794
    3CHTO    C4 1240   7.309   1.744   0.557 -0.0165 -0.5391 -0.0481
    3CHTO   H17 1241   7.298   1.852   0.548 -1.3526 -0.6934 -0.4673
    3CHTO    O1 1242   7.216   1.677   0.466  0.1494  0.3146 -0.2326
    3CHTO    C5 1243   7.079   1.711   0.499  0.0823 -0.6718 -0.6301
    3CHTO   H18 1244   7.071   1.818   0.481 -2.0269 -0.1293  3.2030
    3CHTO   C16 1245   7.005   1.644   0.390 -0.2808  0.4063 -0.0632
    3CHTO   O11 1246   7.046   1.702   0.264 -0.4641 -0.6636  0.8054
    3CHTO    H5 1247   6.969   1.696   0.211 -0.3424 -0.5826  0.6169
    3CHTO    O3 1248   7.437   1.705   0.499  0.0971 -0.1424 -0.4706
    3CHTO    C6 1249   7.464   1.717   0.355 -0.3565  0.4637  0.1762
    3CHTO   H19 1250   7.374   1.742   0.299  0.0688  0.1334 -0.6666
    3CHTO    C8 1251   7.560   1.835   0.317 -0.4398  0.6063 -0.7632
    3CHTO   H21 1252   7.650   1.820   0.376 -0.5442  0.2162 -0.7025
    3CHTO    O7 1253   7.487   1.954   0.358  0.0719  0.3642 -0.1045
    3CHTO    H2 1254   7.531   2.028   0.320  1.6868 -0.7423 -0.4713
    3CHTO   C12 1255   7.601   1.836   0.164  0.1174  0.0647  0.2407
    3CHTO   H25 1256   7.507   1.843   0.107  0.9429 -1.5824 -1.3683
    3CHTO    N3 1257   7.691   1.950   0.127  0.4678  0.4781  0.6548
    3CHTO   H12 1258   7.695   1.946   0.019  1.0380  0.1848  0.6838
    3CHTO   H13 1259   7.792   1.936   0.162 -0.1130  0.9268  2.5365
    3CHTO   C15 1260   7.662   1.694   0.138  0.4627  0.5142  0.5473
    3CHTO   H28 1261   7.749   1.666   0.198  0.2900  0.5387  0.8075
    3CHTO   O10 1262   7.697   1.656  -0.015 -0.5031  0.1218 -0.2777
    3CHTO    H4 1263   7.619   1.623  -0.054 -0.4118  0.2352 -0.5598
    3CHTO    O5 1264   7.558   1.598   0.169 -0.2914 -0.7980  0.1365
    3CHTO   C10 1265   7.516   1.584   0.304 -0.2455  0.8137 -0.3186
    3CHTO   H23 1266   7.605   1.555   0.361 -2.1319  0.6105  2.6264
    3CHTO   C17 1267   7.414   1.476   0.322  0.2912  0.1880  0.5393
    3CHTO   O12 1268   7.473   1.351   0.301  0.0455  0.0936 -0.0168
    3CHTO    H6 1269   7.408   1.303   0.254  0.7224 -0.5680 -0.2951
    4CHTO  H203 1270   5.576   7.060   2.459  0.0736  1.3604  0.6197
    4CHTO   O82 1271   5.621   7.110   2.393  0.0133  0.4326 -0.1493
    4CHTO  C123 1272   5.580   7.249   2.389 -0.2276  0.0242 -0.3884
    4CHTO  H227 1273   5.478   7.262   2.429  0.1117 -0.0555  0.5179
    4CHTO   O77 1274   5.665   7.321   2.484  0.1835 -0.0221 -0.0472
    4CHTO  C118 1275   5.626   7.459   2.506 -0.1979  0.6108  0.0799
    4CHTO  H222 1276   5.523   7.455   2.546 -0.0470 -0.1966  0.3814
    4CHTO  C125 1277   5.714   7.529   2.616 -0.4751  0.0297  0.7065
    4CHTO   O84 1278   5.699   7.461   2.735 -0.3995  0.4220  0.4324
    4CHTO  H205 1279   5.775   7.422   2.774  0.7796  2.8637  0.6769
    4CHTO  C114 1280   5.619   7.542   2.376 -0.8674 -0.2489 -0.0667
    4CHTO  H218 1281   5.719   7.580   2.355 -0.8992 -0.2571 -0.2322
    4CHTO  C116 1282   5.552   7.472   2.258  0.5959 -0.5517 -0.0449
    4CHTO  H220 1283   5.442   7.487   2.258  0.6961  0.1845 -0.4769
    4CHTO   O79 1284   5.596   7.538   2.135  0.0747 -0.0977  0.4700
    4CHTO  H201 1285   5.553   7.621   2.126  0.1585 -0.2369 -1.5533
    4CHTO  C120 1286   5.589   7.317   2.251 -0.2883  0.7444  0.4921
    4CHTO  H224 1287   5.695   7.312   2.218  0.1631 -0.8296  2.1104
    4CHTO   N21 1288   5.499   7.250   2.152 -0.1644 -0.6025  0.0190
    4CHTO  H211 1289   5.404   7.222   2.194 -1.5813  2.1771 -1.1288
    4CHTO  H212 1290   5.490   7.307   2.060 -0.0349 -2.5234 -1.2030
    4CHTO   O75 1291   5.545   7.652   2.428 -0.0990 -0.2107 -0.2965
    4CHTO  C112 1292   5.603   7.807   2.398 -0.0772 -0.2433  0.5882
    4CHTO  H216 1293   5.626   7.821   2.292  1.6441  0.2858  1.0143
    4CHTO   O73 1294   5.721   7.820   2.482  0.3294  0.1757 -0.5165
    4CHTO  C113 1295   5.804   7.934   2.452  0.5503 -0.7931 -0.7031
    4CHTO  H217 1296   5.841   7.928   2.348  1.2296  0.7785 -0.5677
    4CHTO  C124 1297   5.935   7.928   2.539  0.2266  0.6317  0.8373
    4CHTO   O83 1298   6.019   7.819   2.491  0.0359 -0.1114 -1.1886
    4CHTO  H204 1299   5.972   7.739   2.475  1.8358 -0.8687 -2.9965
    4CHTO  C109 1300   5.731   8.072   2.486 -0.3946 -0.6776  0.1737
    4CHTO  H213 1301   5.737   8.091   2.594 -0.0884  1.4486 -0.2010
    4CHTO  C110 1302   5.589   8.064   2.430  0.0392 -0.0064  0.0327
    4CHTO  H214 1303   5.598   8.092   2.325 -0.8650  2.4714  0.5635
    4CHTO   O78 1304   5.519   8.174   2.490 -0.3893 -0.5684  0.5512
    4CHTO  H200 1305   5.475   8.219   2.420  1.3647  1.0286  0.4384
    4CHTO  C111 1306   5.509   7.925   2.446  0.0060 -0.2089 -0.2808
    4CHTO  H215 1307   5.488   7.901   2.552  2.6352  1.9198  0.7969
    4CHTO   N19 1308   5.380   7.920   2.379  0.6144 -0.7599 -0.3872
    4CHTO  H207 1309   5.387   7.987   2.296 -0.1911 -1.6829 -1.2129
    4CHTO  H208 1310   5.301   7.931   2.452  1.7185 -1.7561  0.9963
    4CHTO   O74 1311   5.815   8.173   2.419 -0.6198 -0.0719  0.8858
    4CHTO  C115 1312   5.827   8.309   2.498  0.4271  0.0211  0.1317
    4CHTO  H219 1313   5.741   8.316   2.564 -0.0361 -1.9588 -0.2218
    4CHTO   O76 1314   5.967   8.302   2.600 -0.2530  0.4345 -0.3768
    4CHTO  C122 1315   6.095   8.308   2.540 -0.5645 -0.2942 -0.4009
    4CHTO  H226 1316   6.117   8.201   2.529  0.8522 -0.0771  0.2361
    4CHTO  C126 1317   6.203   8.366   2.638 -0.0651 -1.0740  0.1503
    4CHTO   O85 1318   6.337   8.365   2.594  0.0203 -0.4207  0.5424
    4CHTO  H206 1319   6.388   8.349   2.671  0.1467 -1.1638  0.3025
    4CHTO  C121 1320   6.101   8.398   2.405 -0.4231  0.2780 -0.1647
    4CHTO  H225 1321   6.193   8.459   2.396  0.4695 -0.8534  1.2297
    4CHTO   O81 1322   6.104   8.311   2.294  0.6948 -0.1294 -0.2321
    4CHTO  H202 1323   6.146   8.354   2.222  1.1699 -0.0687  0.0810
    4CHTO  C119 1324   5.977   8.493   2.395  0.0604 -0.1684  0.0877
    4CHTO  H223 1325   5.977   8.530   2.497  1.3111  1.5833 -0.5375
    4CHTO  C117 1326   5.839   8.420   2.386  0.7903 -0.7282  0.3580
    4CHTO  H221 1327   5.824   8.374   2.288 -0.6341  1.9758 -0.7478
    4CHTO   N20 1328   5.728   8.514   2.412  0.2465 -0.1771  0.3640
    4CHTO  H209 1329   5.632   8.467   2.398  0.4930 -0.2057 -1.3248
    4CHTO  H210 1330   5.740   8.600   2.349  0.2838  1.1366  2.1474
    4CHTO   O80 1331   6.009   8.620   2.311  0.2472 -0.0648 -0.6476
    4CHTO  C103 1332   6.046   8.769   2.385  0.5683  0.0401 -0.1894
    4CHTO  H190 1333   5.977   8.788   2.467 -1.3042 -0.2008 -1.6728
    4CHTO  C101 1334   6.184   8.776   2.443 -0.6708 -0.1105 -0.0857
    4CHTO  H188 1335   6.255   8.752   2.363  0.6494 -0.7752  1.2692
    4CHTO   O68 1336   6.200   8.679   2.547  0.4190  0.6248 -0.2378
    4CHTO  H168 1337   6.114   8.647   2.565  0.0139  1.5560 -0.4737
    4CHTO   C99 1338   6.223   8.920   2.479 -0.0001 -0.2664  0.1073
    4CHTO  H186 1339   6.165   8.958   2.566  1.0337  2.3402 -0.3151
    4CHTO   N17 1340   6.367   8.942   2.515  0.1952  0.1182  0.7557
    4CHTO  H174 1341   6.398   9.044   2.537 -1.1061  0.6535  0.1671
    4CHTO  H175 1342   6.441   8.900   2.448 -0.9595  0.2057 -0.6039
    4CHTO   C97 1343   6.198   9.022   2.367  0.4322 -0.4930  0.0322
    4CHTO  H184 1344   6.279   9.014   2.293 -1.0377  1.5226 -1.8792
    4CHTO   O64 1345   6.066   9.011   2.307  0.2859 -0.1892  0.4997
    4CHTO  C104 1346   6.030   8.880   2.275  0.3284  0.1783  1.5642
    4CHTO  H191 1347   6.075   8.841   2.183 -0.8824 -0.7489  1.3452
    4CHTO  C108 1348   5.881   8.880   2.244  0.7659  0.0744  0.4558
    4CHTO   O71 1349   5.824   8.988   2.165  0.2701 -0.4339 -0.4164
    4CHTO  H171 1350   5.883   9.058   2.145 -0.2918  0.2456  0.2471
    4CHTO   O62 1351   6.195   9.157   2.403  0.0999  0.3773 -0.2544
    4CHTO   C91 1352   6.209   9.254   2.295  0.1474 -0.2949  0.4656
    4CHTO  H178 1353   6.185   9.203   2.201  1.0673 -2.3877  1.3299
    4CHTO   C92 1354   6.353   9.299   2.275  0.0682  0.2324 -0.0980
    4CHTO  H179 1355   6.391   9.319   2.376  1.8630 -2.0191 -0.2898
    4CHTO   O66 1356   6.434   9.191   2.221 -0.1323  0.0557  0.0836
    4CHTO  H166 1357   6.488   9.153   2.288 -0.5343 -0.9738 -0.1781
    4CHTO   C93 1358   6.374   9.427   2.187  0.6271  0.5998  0.2934
    4CHTO  H180 1359   6.402   9.393   2.086 -0.9236  0.8521 -0.2441
    4CHTO   N16 1360   6.488   9.514   2.216  0.3153  0.5733 -0.4809
    4CHTO  H172 1361   6.581   9.464   2.239 -0.7201 -0.0247  2.5603
    4CHTO  H173 1362   6.458   9.583   2.293 -0.9270 -0.6777  0.1756
    4CHTO   C94 1363   6.236   9.504   2.162  0.2533  0.1181 -0.4601
    4CHTO  H181 1364   6.251   9.611   2.142  0.4920  0.3754  1.0647
    4CHTO   O61 1365   6.165   9.502   2.285  0.6024 -0.4515 -0.1105
    4CHTO   C95 1366   6.114   9.371   2.325 -0.4254 -0.4503 -0.5009
    4CHTO  H182 1367   6.103   9.370   2.433 -2.2219  2.1832 -0.6174
    4CHTO  C106 1368   5.967   9.353   2.258 -0.2010 -0.3159  0.7105
    4CHTO   O69 1369   5.881   9.450   2.314  0.3550 -0.5195  0.0804
    4CHTO  H169 1370   5.824   9.411   2.378 -0.6445  2.1456  0.8829
    4CHTO   O63 1371   6.142   9.426   2.037 -0.4114 -0.0096 -0.2010
    4CHTO   C96 1372   6.195   9.442   1.890  0.6669  0.9556  0.0739
    4CHTO  H183 1373   6.300   9.412   1.897 -0.0773 -2.0652 -0.7087
    4CHTO   C98 1374   6.175   9.583   1.828  0.2358  0.0085  0.2018
    4CHTO  H185 1375   6.074   9.620   1.850  0.6689  1.3227  0.0586
    4CHTO   O67 1376   6.264   9.669   1.897  0.2698  0.3417 -0.6695
    4CHTO  H167 1377   6.326   9.708   1.839  3.1459 -1.7372  0.8610
    4CHTO  C102 1378   6.209   9.593   1.671 -0.4419 -0.0768 -0.1951
    4CHTO  H189 1379   6.318   9.587   1.661 -0.3049  0.2138  1.1641
    4CHTO   N18 1380   6.169   9.716   1.604 -0.4115  0.4298 -0.0787
    4CHTO  H176 1381   6.184   9.733   1.499 -0.4084  2.0789  0.1644
    4CHTO  H177 1382   6.224   9.803   1.638  0.7035 -0.0372 -0.6639
    4CHTO  C105 1383   6.142   9.470   1.595 -0.1746 -0.9753  0.1116
    4CHTO  H192 1384   6.034   9.487   1.597 -0.4598 -2.7946  0.7333
    4CHTO   O65 1385   6.168   9.346   1.657 -0.5741 -0.7598  0.1344
    4CHTO  C100 1386   6.120   9.338   1.792 -0.6386  0.1905 -0.6050
    4CHTO  H187 1387   6.011   9.348   1.784 -0.8521 -0.0860  1.4958
    4CHTO  C107 1388   6.146   9.193   1.853 -0.5752  0.4006  0.5570
    4CHTO   O70 1389   6.101   9.081   1.782  0.7431  0.4018  0.0310
    4CHTO  H170 1390   6.127   9.098   1.694  3.3385 -0.6814  0.5419
    4CHTO   O57 1391   6.202   9.469   1.442 -0.2597  0.1477  0.4257
    4CHTO   C85 1392   6.122   9.411   1.341 -0.0133  0.0207  0.6230
    4CHTO  H157 1393   6.016   9.438   1.362  0.2271  1.2326  0.2931
    4CHTO   C83 1394   6.106   9.248   1.357  0.2525  0.3768  0.2486
    4CHTO  H155 1395   6.045   9.237   1.446 -1.5369  1.9895 -0.7562
    4CHTO   O56 1396   6.235   9.186   1.371 -0.1997  0.5847 -0.1095
    4CHTO  H135 1397   6.297   9.234   1.423 -1.6749 -0.3048  2.6108
    4CHTO   C81 1398   6.027   9.194   1.238 -0.0199  0.2076  0.4375
    4CHTO  H153 1399   5.931   9.245   1.233 -1.1925 -1.9996  0.0632
    4CHTO   N14 1400   5.991   9.051   1.249 -0.9113  0.3844 -0.3734
    4CHTO  H141 1401   6.064   8.985   1.207  2.0063  3.1236  0.1692
    4CHTO  H142 1402   5.894   9.034   1.206 -1.0002  1.0523 -0.4471
    4CHTO   C79 1403   6.103   9.229   1.104  0.2497 -0.2467  0.3241
    4CHTO  H151 1404   6.051   9.183   1.020  2.3752 -0.2886 -1.0108
    4CHTO   O52 1405   6.104   9.375   1.083  0.1737  0.2187 -0.6884
    4CHTO   C86 1406   6.165   9.454   1.192 -0.1955  0.9953  0.7736
    4CHTO  H158 1407   6.275   9.452   1.175 -0.4056 -0.3298 -0.5358
    4CHTO   C90 1408   6.131   9.603   1.175 -0.0571  0.4606 -0.4505
    4CHTO   O60 1409   5.991   9.632   1.187 -0.3153  0.4979 -0.2223
    4CHTO  H138 1410   5.967   9.643   1.277  2.1420  0.8168  0.4452
    4CHTO   O50 1411   6.237   9.176   1.093  0.3780  0.0029  0.1964
    4CHTO   C73 1412   6.295   9.138   0.970  0.2565  0.6510 -0.1292
    4CHTO  H145 1413   6.286   9.220   0.897  2.6243  1.2841  0.2541
    4CHTO   C74 1414   6.234   9.002   0.917 -0.2079 -0.2410 -0.1408
    4CHTO  H146 1415   6.125   9.009   0.902 -0.2469 -0.4526  0.0411
    4CHTO   O54 1416   6.281   8.983   0.783 -0.4591  0.5448 -0.6782
    4CHTO  H133 1417   6.374   8.993   0.781 -0.3843 -0.0867 -0.2611
    4CHTO   C75 1418   6.268   8.881   1.020  0.4921 -0.0214  0.1946
    4CHTO  H147 1419   6.211   8.896   1.113  1.0212 -0.0402  0.5224
    4CHTO   N13 1420   6.229   8.751   0.963 -0.3149 -0.1033  1.0962
    4CHTO  H139 1421   6.241   8.664   1.026 -0.4085 -1.3658 -0.5974
    4CHTO  H140 1422   6.273   8.741   0.865  0.0062 -2.0157  1.4275
    4CHTO   C76 1423   6.419   8.882   1.046  0.5192 -0.7130  0.4860
    4CHTO  H148 1424   6.471   8.863   0.952 -0.7567  1.1426 -0.6323
    4CHTO   O49 1425   6.461   9.017   1.093 -0.5759 -0.6083 -0.2347
    4CHTO   C77 1426   6.447   9.119   0.999 -0.2558 -0.0407  0.5504
    4CHTO  H149 1427   6.491   9.087   0.904 -3.0976  1.8336 -1.4602
    4CHTO   C88 1428   6.505   9.254   1.059  0.5506  0.2912  0.1621
    4CHTO   O58 1429   6.496   9.340   0.980  0.6576  0.3885  0.1722
    4CHTO  H136 1430   6.548   9.339   0.902  0.2560 -3.4424 -0.1088
    4CHTO   O51 1431   6.476   8.790   1.158 -0.3186 -0.3299  0.2534
    4CHTO   C78 1432   6.632   8.723   1.138  0.0791 -0.3573  0.0744
    4CHTO  H150 1433   6.667   8.689   1.238  1.4534 -1.5020 -0.7805
    4CHTO   C80 1434   6.734   8.823   1.081  0.6169  0.4669  0.0987
    4CHTO  H152 1435   6.687   8.871   0.993 -1.2339 -0.2404  0.6604
    4CHTO   O55 1436   6.745   8.923   1.183  0.3596 -0.4027 -0.3383
    4CHTO  H134 1437   6.710   9.000   1.142 -3.0362 -0.8882  1.4323
    4CHTO   C84 1438   6.872   8.750   1.036  0.4103 -0.1245 -0.8682
    4CHTO  H156 1439   6.919   8.711   1.127 -2.0711 -2.0397 -0.3640
    4CHTO   N15 1440   6.967   8.847   0.966  0.3870  0.3419  0.0824
    4CHTO  H143 1441   6.914   8.897   0.888  0.1173  0.2053  0.1800
    4CHTO  H144 1442   7.011   8.917   1.034 -0.9485 -0.3052  1.6295
    4CHTO   C87 1443   6.837   8.626   0.952  0.4744  0.4611  0.5646
    4CHTO  H159 1444   6.796   8.658   0.857  2.8851  2.0242  0.0076
    4CHTO   O53 1445   6.735   8.537   1.031  0.6167  0.0865 -0.6974
    4CHTO   C82 1446   6.608   8.605   1.048  0.5098  0.0914  0.7408
    4CHTO  H154 1447   6.572   8.627   0.948 -2.1990 -0.7370  1.4982
    4CHTO   C89 1448   6.511   8.497   1.103  0.0755  0.6333 -0.5678
    4CHTO   O59 1449   6.561   8.433   1.222  0.5145 -0.2216  0.2061
    4CHTO  H137 1450   6.556   8.341   1.204 -0.0965  0.2351 -2.0265
    4CHTO   O45 1451   6.982   8.532   0.919  0.1417 -0.8455  0.2470
    4CHTO   C67 1452   6.957   8.392   0.881 -0.4307  0.5773  0.1135
    4CHTO  H124 1453   7.050   8.359   0.834  0.0458 -0.8236  1.9979
    4CHTO   C65 1454   6.932   8.308   1.019 -0.1074 -0.1113 -0.6212
    4CHTO  H122 1455   6.912   8.388   1.090  1.2090 -1.3414  1.1744
    4CHTO   O44 1456   7.058   8.254   1.049  0.1075  0.5534  0.7327
    4CHTO  H102 1457   7.049   8.211   1.131  0.4273 -1.7194 -0.3875
    4CHTO   C63 1458   6.812   8.207   1.014 -0.3633  0.1751  0.1865
    4CHTO  H120 1459   6.715   8.256   1.008 -2.0427 -2.6452  2.4873
    4CHTO   N11 1460   6.801   8.124   1.135 -0.1832  0.1110 -0.0643
    4CHTO  H108 1461   6.816   8.182   1.223  2.5603  0.7807 -0.9386
    4CHTO  H109 1462   6.867   8.041   1.127  2.2263  1.6984  2.5857
    4CHTO   C61 1463   6.824   8.128   0.875  0.2006 -0.4476  0.4077
    4CHTO  H118 1464   6.738   8.060   0.866  1.9787 -2.6119 -0.7036
    4CHTO   O40 1465   6.827   8.216   0.764 -0.2044  0.1827 -0.1820
    4CHTO   C68 1466   6.842   8.362   0.775 -0.2729 -0.3909  0.8567
    4CHTO  H125 1467   6.747   8.405   0.811  0.2684 -0.1018  1.9582
    4CHTO   C72 1468   6.869   8.424   0.633 -0.2801  0.5222 -0.4044
    4CHTO   O48 1469   6.756   8.435   0.544  0.2150  0.0257  0.2077
    4CHTO  H105 1470   6.742   8.354   0.498  0.2766  1.0354 -1.6335
    4CHTO   O38 1471   6.944   8.053   0.856  0.2012  0.4967  0.3065
    4CHTO   C55 1472   6.936   7.908   0.873  0.2645 -0.5596 -0.4729
    4CHTO  H112 1473   6.840   7.872   0.913  0.7938 -0.0757  1.2667
    4CHTO   C56 1474   7.055   7.854   0.961 -0.1675 -0.0549  0.2908
    4CHTO  H113 1475   7.144   7.888   0.905 -0.1123  2.1575  1.6775
    4CHTO   O42 1476   7.063   7.923   1.092 -0.3255  0.0185 -0.0039
    4CHTO  H100 1477   7.152   7.922   1.120  0.2680  1.2682 -1.7786
    4CHTO   C57 1478   7.041   7.698   0.975  0.3263  0.1729  0.1020
    4CHTO  H114 1479   6.944   7.676   1.019  0.1364  0.8139  0.0089
    4CHTO   N10 1480   7.151   7.646   1.055 -0.3978 -0.1513 -0.2653
    4CHTO  H106 1481   7.238   7.623   0.996  1.1097  0.0185  1.8279
    4CHTO  H107 1482   7.118   7.559   1.110  0.6640 -0.0543  0.5277
    4CHTO   C58 1483   7.045   7.638   0.834  0.4250 -0.0908 -0.1470
    4CHTO  H115 1484   7.144   7.649   0.786 -0.1918 -0.3460 -1.5008
    4CHTO   O37 1485   6.940   7.694   0.744 -0.1881 -0.6935 -0.0041
    4CHTO   C59 1486   6.945   7.838   0.734  0.0609 -0.4133 -0.5023
    4CHTO  H116 1487   7.030   7.872   0.676 -0.8325  0.4611 -1.3241
    4CHTO   C70 1488   6.827   7.879   0.642 -0.0713 -0.3082  0.0904
    4CHTO   O46 1489   6.793   7.795   0.530 -0.4266 -0.0711  0.2988
    4CHTO  H103 1490   6.711   7.819   0.493  0.0360  0.7734 -0.1981
    4CHTO   O39 1491   6.987   7.490   0.842 -0.6947  0.1264 -0.3047
    4CHTO   C60 1492   7.062   7.393   0.773 -0.8075  0.5363 -0.2029
    4CHTO  H117 1493   7.113   7.439   0.688  1.4776  1.3433  1.5708
    4CHTO   C62 1494   7.185   7.338   0.851  0.3147  0.4047 -0.4407
    4CHTO  H119 1495   7.254   7.422   0.874  1.5595  0.0491 -2.7866
    4CHTO   O43 1496   7.142   7.287   0.984 -0.2984  0.3422 -0.2873
    4CHTO  H101 1497   7.101   7.203   0.974 -1.2743  0.7488  0.2342
    4CHTO   C66 1498   7.254   7.223   0.760  0.2782 -0.4973 -0.0506
    4CHTO  H123 1499   7.283   7.271   0.666 -0.1350 -0.6794 -0.2717
    4CHTO   N12 1500   7.387   7.183   0.818  0.3843  0.4103  0.0050
    4CHTO  H110 1501   7.445   7.273   0.833 -2.2825  2.4423 -1.3387
    4CHTO  H111 1502   7.428   7.132   0.733 -0.2218 -0.0430 -0.0151
    4CHTO   C69 1503   7.154   7.108   0.737 -0.0596  0.5805 -0.3706
    4CHTO  H126 1504   7.114   7.082   0.837 -0.3196  1.3799 -0.2591
    4CHTO   O41 1505   7.038   7.175   0.646 -0.1969  0.3213  0.1861
    4CHTO   C64 1506   6.969   7.284   0.716 -0.7888 -0.6399 -0.0310
    4CHTO  H121 1507   6.911   7.236   0.799  1.1254 -0.8253  1.2363
    4CHTO   C71 1508   6.858   7.332   0.629  0.0652 -0.4763  0.1146
    4CHTO   O47 1509   6.914   7.376   0.505 -0.1548 -0.1842 -0.0559
    4CHTO  H104 1510   6.929   7.468   0.512  0.4446 -0.0953 -2.2088
    4CHTO   O34 1511   7.220   6.998   0.672 -0.2267  0.0365  0.5660
    4CHTO   C49 1512   7.190   6.845   0.660 -1.2508  0.6549 -0.8598
    4CHTO   H91 1513   7.083   6.826   0.664 -0.9868 -0.4842  1.9989
    4CHTO   C47 1514   7.259   6.780   0.790  0.3673 -0.6651 -0.0713
    4CHTO   H89 1515   7.217   6.678   0.801 -3.6597  1.0510  1.1415
    4CHTO   O33 1516   7.216   6.853   0.904  0.3856  0.4517  0.2348
    4CHTO   H70 1517   7.289   6.858   0.963  0.2630 -0.2471  0.4499
    4CHTO   C45 1518   7.417   6.778   0.768  0.0436  0.0884  0.4825
    4CHTO   H87 1519   7.447   6.882   0.749 -0.5717  0.0980 -0.4956
    4CHTO    N8 1520   7.493   6.736   0.887 -0.7154  0.3871  0.1850
    4CHTO   H75 1521   7.432   6.688   0.963 -2.0320  3.0985  0.9045
    4CHTO   H76 1522   7.566   6.667   0.847 -1.2356 -0.4359  0.6485
    4CHTO   C43 1523   7.446   6.698   0.627  0.5518 -0.0583  0.0398
    4CHTO   H85 1524   7.555   6.695   0.620  0.4213 -2.1028 -1.5355
    4CHTO   O29 1525   7.383   6.765   0.513  0.5807 -0.4973  0.1805
    4CHTO   C50 1526   7.248   6.797   0.521  0.6103 -0.5063 -0.1094
    4CHTO   H92 1527   7.228   6.877   0.449  0.1769 -1.2415 -0.8137
    4CHTO   C54 1528   7.173   6.682   0.457 -0.1170 -0.4044  0.1813
    4CHTO   O36 1529   7.035   6.705   0.441 -0.8075  0.1928  0.3792
    4CHTO   H72 1530   6.992   6.621   0.435  2.9824 -2.0506  2.5344
    4CHTO   O27 1531   7.398   6.567   0.642  0.4399 -0.2751 -0.0545
    4CHTO   C37 1532   7.420   6.443   0.577 -0.3157  0.3439 -0.0703
    4CHTO   H79 1533   7.357   6.434   0.487 -1.0900 -0.2166  0.5238
    4CHTO   C38 1534   7.573   6.438   0.527 -0.5518  0.3412 -0.9819
    4CHTO   H80 1535   7.640   6.464   0.610 -0.7230  0.1438 -0.7804
    4CHTO   O31 1536   7.594   6.517   0.412  0.5698 -0.5099 -0.1914
    4CHTO   H68 1537   7.663   6.491   0.354 -0.3006 -0.9941 -1.0107
    4CHTO   C39 1538   7.612   6.293   0.489  0.0912 -0.1250  0.1215
    4CHTO   H81 1539   7.547   6.263   0.406  0.7192 -2.1029  0.3232
    4CHTO    N7 1540   7.753   6.283   0.441  0.3050 -0.2059 -0.2821
    4CHTO   H73 1541   7.822   6.349   0.492  0.1233  1.7524 -2.4568
    4CHTO   H74 1542   7.789   6.187   0.410  1.1369 -0.0466  0.1614
    4CHTO   C40 1543   7.580   6.191   0.608 -0.3196 -0.3687  0.5374
    4CHTO   H82 1544   7.632   6.212   0.702  0.2131  1.4113 -0.1371
    4CHTO   O26 1545   7.436   6.201   0.621  0.0189  0.6533 -0.3663
    4CHTO   C41 1546   7.378   6.332   0.676  0.0080  0.2488 -0.0711
    4CHTO   H83 1547   7.425   6.352   0.773 -1.0894 -0.0946  0.5448
    4CHTO   C52 1548   7.228   6.322   0.692 -0.6114 -0.8333  0.3340
    4CHTO   O35 1549   7.151   6.274   0.553 -0.0479  0.9907 -0.7436
    4CHTO   H71 1550   7.195   6.319   0.483  0.6237  0.7235 -0.4999
    4CHTO   O28 1551   7.595   6.054   0.565  0.3412  0.2304  0.4133
    4CHTO   C42 1552   7.659   5.955   0.654  0.5118  0.7769 -0.1781
    4CHTO   H84 1553   7.679   6.000   0.751 -1.7206  0.0145  0.6702
    4CHTO   C44 1554   7.796   5.898   0.600 -0.3465  0.2616 -0.0294
    4CHTO   H86 1555   7.789   5.877   0.493  0.7814 -0.8889  0.1054
    4CHTO   O32 1556   7.890   6.006   0.594  0.2389  0.2738  0.5876
    4CHTO   H69 1557   7.877   6.053   0.514 -1.0365 -1.9365 -0.5643
    4CHTO   C48 1558   7.859   5.778   0.682  0.4748 -0.0105 -0.6589
    4CHTO   H90 1559   7.899   5.831   0.769  0.6970 -0.6993 -0.3396
    4CHTO    N9 1560   7.970   5.704   0.622 -0.0356 -0.3917  0.2424
    4CHTO   H77 1561   8.054   5.771   0.615 -1.9027  1.9145 -0.9547
    4CHTO   H78 1562   7.950   5.688   0.517  3.3400 -2.2157 -0.2107
    4CHTO   C51 1563   7.749   5.677   0.735 -0.0509  0.1497 -0.2576
    4CHTO   H93 1564   7.732   5.605   0.654 -1.8197 -0.4160  0.5771
    4CHTO   O30 1565   7.630   5.749   0.771  0.1727 -0.2177 -0.2551
    4CHTO   C46 1566   7.567   5.829   0.684 -1.0821 -0.1869  0.1582
    4CHTO   H88 1567   7.550   5.771   0.593 -0.8620 -0.4033  0.2552
    4CHTO   C53 1568   7.429   5.872   0.744  0.4279  0.2141 -0.4270
    4CHTO   O72 1569   7.353   5.756   0.786 -0.3954  0.3559  0.2955
    4CHTO  H199 1570   7.260   5.766   0.782 -0.7560 -2.8970 -0.6497
    4CHTO   O22 1571   7.794   5.596   0.845 -0.6447 -0.2830  0.4510
    4CHTO   C31 1572   7.766   5.627   0.988 -0.9587  0.0335  1.1574
    4CHTO   H59 1573   7.748   5.736   0.994  0.2391  0.2707  0.4670
    4CHTO   C29 1574   7.646   5.556   1.048 -0.2796 -0.0139 -0.6229
    4CHTO   H57 1575   7.675   5.450   1.044  1.6639  0.5612 -2.9717
    4CHTO   O21 1576   7.529   5.574   0.970 -0.4134 -0.6762 -0.2217
    4CHTO   H37 1577   7.517   5.494   0.921 -1.2757 -1.2131  0.8514
    4CHTO   C27 1578   7.615   5.589   1.207  0.0856 -0.1059  0.9586
    4CHTO   H55 1579   7.573   5.690   1.219 -0.3168 -0.2165  0.5451
    4CHTO    N5 1580   7.523   5.494   1.276 -0.2610  0.5329  0.0639
    4CHTO   H43 1581   7.424   5.492   1.233 -0.1972  1.5098 -0.1435
    4CHTO   H44 1582   7.571   5.398   1.293 -2.7390 -0.7920 -0.1582
    4CHTO   C25 1583   7.755   5.587   1.279 -0.8400 -0.2357  0.3896
    4CHTO   H53 1584   7.792   5.486   1.305  0.2940 -0.3696 -1.5904
    4CHTO   O17 1585   7.860   5.655   1.212  0.4044  0.0670  0.3146
    4CHTO   C32 1586   7.889   5.603   1.079  0.5924  0.1485 -0.0827
    4CHTO   H60 1587   7.915   5.498   1.070 -1.3113 -0.3307 -0.1561
    4CHTO   C36 1588   8.011   5.694   1.032  0.6729 -0.6613 -0.4087
    4CHTO   O25 1589   7.982   5.834   1.028 -0.5430 -0.3885  0.3525
    4CHTO   H40 1590   7.994   5.867   1.115  0.9602  1.2041 -0.4096
    4CHTO   O15 1591   7.740   5.655   1.421 -0.0775 -0.0259 -0.2870
    4CHTO   C19 1592   7.687   5.764   1.506 -0.0686 -0.0608  0.2831
    4CHTO   H47 1593   7.579   5.772   1.489 -0.5648 -2.4374  2.1006
    4CHTO   C20 1594   7.699   5.736   1.657  0.5277  0.2654 -0.1024
    4CHTO   H48 1595   7.802   5.744   1.694  0.7374 -1.7047 -0.2242
    4CHTO   O19 1596   7.644   5.607   1.689  0.3366  0.0118 -0.7041
    4CHTO   H35 1597   7.600   5.603   1.772 -0.6073 -1.1814 -1.2330
    4CHTO   C21 1598   7.624   5.851   1.740  0.4087 -0.6278  0.3264
    4CHTO   H49 1599   7.517   5.849   1.718  0.3906  0.0671  0.3224
    4CHTO    N4 1600   7.634   5.828   1.890  0.0579  0.3247  0.0509
    4CHTO   H41 1601   7.708   5.894   1.934  0.7498  1.2056 -2.3314
    4CHTO   H42 1602   7.541   5.840   1.943 -0.5566  0.6331 -1.0871
    4CHTO   C22 1603   7.685   5.991   1.693  0.7873  0.9392 -0.5161
    4CHTO   H50 1604   7.787   5.997   1.732  1.0088 -1.1096 -0.6976
    4CHTO   O14 1605   7.675   6.006   1.552  0.1323  0.1011  0.0652
    4CHTO   C23 1606   7.744   5.908   1.474  0.1464 -0.1663 -0.5704
    4CHTO   H51 1607   7.850   5.913   1.500  1.0064 -2.9076 -3.2355
    4CHTO   C34 1608   7.727   5.956   1.328 -0.1238  0.8109  0.3881
    4CHTO   O23 1609   7.791   6.088   1.321 -0.4610  0.3687  0.4299
    4CHTO   H38 1610   7.790   6.115   1.231  2.8441 -2.1035 -0.4417
    4CHTO   O16 1611   7.604   6.097   1.756 -0.2194 -0.6944 -0.1968
    4CHTO   C24 1612   7.577   6.242   1.672 -0.1600  0.1272 -0.9163
    4CHTO   H52 1613   7.567   6.225   1.565 -2.6666  1.0049 -0.8616
    4CHTO   C26 1614   7.685   6.353   1.694  0.3748  0.6990  0.1875
    4CHTO   H54 1615   7.695   6.368   1.803 -1.0866 -1.9886  0.7304
    4CHTO   O20 1616   7.810   6.305   1.639  0.0713 -0.1507  0.0261
    4CHTO   H36 1617   7.874   6.291   1.706  0.8918 -2.2222 -1.1643
    4CHTO   C30 1618   7.642   6.492   1.638  0.3573 -0.2375  0.0189
    4CHTO   H58 1619   7.656   6.489   1.529  1.1621 -0.2557  0.1145
    4CHTO    N6 1620   7.732   6.600   1.691  0.2346  0.5223 -0.2818
    4CHTO   H45 1621   7.763   6.669   1.613 -0.2900  0.1799 -0.7977
    4CHTO   H46 1622   7.821   6.556   1.733 -3.3668 -4.2268  2.8620
    4CHTO   C33 1623   7.491   6.520   1.678 -0.4996  0.3830 -0.1929
    4CHTO   H61 1624   7.480   6.531   1.787  1.1602  0.1255  0.0130
    4CHTO   O18 1625   7.412   6.406   1.635 -0.3279  0.5828 -0.2163
    4CHTO   C28 1626   7.438   6.286   1.713  0.6350 -0.3624  0.1938
    4CHTO   H56 1627   7.432   6.308   1.819  0.4501  1.7620 -0.2383
    4CHTO   C35 1628   7.335   6.179   1.679 -0.0801  0.8300  0.7141
    4CHTO   O24 1629   7.210   6.238   1.700 -0.1526  0.1216 -0.5474
    4CHTO   H39 1630   7.139   6.189   1.662 -1.1636  0.9184  0.3092
    4CHTO    O9 1631   7.432   6.645   1.628  0.6275 -0.2279 -0.1741
    4CHTO   C13 1632   7.281   6.684   1.689  0.0977  0.4021  0.0579
    4CHTO   H26 1633   7.213   6.598   1.674 -0.4943  0.8590  0.1268
    4CHTO   C11 1634   7.224   6.819   1.617  0.1829  0.4614  0.6054
    4CHTO   H24 1635   7.197   6.794   1.514 -0.5824 -0.2781  0.9794
    4CHTO    O8 1636   7.330   6.922   1.598  0.3259  0.6342  0.1402
    4CHTO    H3 1637   7.329   6.988   1.664  0.5889  0.1866  0.5977
    4CHTO    C9 1638   7.092   6.860   1.691 -0.4801  0.8340 -0.2582
    4CHTO   H22 1639   7.025   6.773   1.683 -0.6627  0.9607 -0.0897
    4CHTO    N2 1640   7.007   6.964   1.627  0.2034 -0.0620  0.0036
    4CHTO   H10 1641   6.917   6.912   1.600  0.7101 -0.5910 -0.7157
    4CHTO   H11 1642   7.063   7.001   1.542  1.1907  1.2729  1.2083
    4CHTO    C7 1643   7.117   6.882   1.837 -0.1257  0.4414 -0.0831
    4CHTO   H20 1644   7.012   6.880   1.872  0.3193 -0.8121  1.2281
    4CHTO    O4 1645   7.176   6.770   1.899 -0.5627  0.6613  0.1428
    4CHTO   C14 1646   7.292   6.703   1.849 -0.6470  0.6069  0.1860
    4CHTO   H27 1647   7.290   6.606   1.904  0.0061  0.4330 -0.1005
    4CHTO   C18 1648   7.421   6.767   1.896 -0.2056 -0.0238 -0.1060
    4CHTO   O13 1649   7.431   6.763   2.041 -0.2687  0.1787 -0.1822
    4CHTO    H7 1650   7.492   6.829   2.068 -0.3749  0.1289  0.1745
    4CHTO    O2 1651   7.202   6.994   1.864 -0.0822 -0.2534 -0.2564
    4CHTO    C1 1652   7.139   7.112   1.914  0.1418  0.9393 -0.2849
    4CHTO   H14 1653   7.029   7.121   1.905  0.0608  4.5132  2.9918
    4CHTO    C2 1654   7.197   7.233   1.838  0.5452  0.1212  0.4147
    4CHTO   H15 1655   7.302   7.237   1.869 -0.4152  0.0723  3.9609
    4CHTO    O6 1656   7.175   7.218   1.696  0.1796 -0.5095  0.7353
    4CHTO    H1 1657   7.251   7.201   1.644 -1.2184  2.1215 -2.2991
    4CHTO    C3 1658   7.123   7.366   1.887  0.6938  0.4123 -0.1572
    4CHTO   H16 1659   7.018   7.356   1.855  0.6394  1.4662 -0.3304
    4CHTO    N1 1660   7.169   7.491   1.820  0.0110  0.3577 -0.6834
    4CHTO    H8 1661   7.192   7.566   1.894  1.3663  0.0416 -0.7792
    4CHTO    H9 1662   7.088   7.515   1.752 -2.4487 -2.5523  1.0660
    4CHTO    C4 1663   7.133   7.366   2.041  0.0796  0.0934 -0.6921
    4CHTO   H17 1664   7.228   7.410   2.070  2.6817 -4.2768 -2.1332
    4CHTO    O1 1665   7.104   7.241   2.103  0.3273  0.1839  0.9541
    4CHTO    C5 1666   7.178   7.134   2.058 -0.5843 -0.1754 -0.2930
    4CHTO   H18 1667   7.284   7.152   2.075 -0.2079 -2.0590 -0.5436
    4CHTO   C16 1668   7.132   7.010   2.141 -0.6503  0.0220  0.9152
    4CHTO   O11 1669   7.157   7.027   2.286  0.3320  0.3935 -0.0520
    4CHTO    H5 1670   7.108   6.966   2.337  0.2980  3.1376  3.3520
    4CHTO    O3 1671   7.027   7.446   2.095  0.3503 -0.5187 -0.1106
    4CHTO    C6 1672   7.066   7.516   2.224  0.0156 -0.0369  0.0643
    4CHTO   H19 1673   7.158   7.478   2.267 -0.0720 -0.4178 -0.0851
    4CHTO    C8 1674   7.072   7.670   2.199 -0.1201  0.9446 -0.6543
    4CHTO   H21 1675   6.973   7.702   2.168 -0.3293  1.0978  0.1561
    4CHTO    O7 1676   7.176   7.690   2.109 -0.4012  0.1148  0.2188
    4CHTO    H2 1677   7.146   7.665   2.024  0.3831  0.0699 -0.0503
    4CHTO   C12 1678   7.092   7.746   2.338  0.5350 -0.6573  0.2662
    4CHTO   H25 1679   7.196   7.714   2.361  1.7442 -0.3978 -4.3952
    4CHTO    N3 1680   7.095   7.894   2.332  0.3188 -0.4070 -0.2480
    4CHTO   H12 1681   7.094   7.934   2.432 -0.0824 -0.9921 -0.0150
    4CHTO   H13 1682   7.008   7.923   2.275 -0.6872 -1.6552  0.6138
    4CHTO   C15 1683   6.996   7.701   2.446  0.3704  0.9580 -0.0444
    4CHTO   H28 1684   6.896   7.743   2.438  0.4101  1.1762  0.5837
    4CHTO   O10 1685   7.058   7.731   2.576 -0.0366  0.6337  0.2336
    4CHTO    H4 1686   7.089   7.819   2.577  1.2424  0.1972  1.4167
    4CHTO    O5 1687   6.978   7.561   2.453 -0.4563  0.1956 -0.1930
    4CHTO   C10 1688   6.950   7.495   2.331 -0.4345  0.4213  0.0208
    4CHTO   H23 1689   6.863   7.539   2.282  1.3288  1.8133 -1.9793
    4CHTO   C17 1690   6.928   7.347   2.371  0.4011 -1.0158 -0.3261
    4CHTO   O12 1691   7.035   7.285   2.455  0.3621 -0.0873 -0.4776
    4CHTO    H6 1692   7.005   7.209   2.500  0.4300  0.3232  0.2759
    5CHTO  H203 1693   7.920   3.324   0.975 -0.4581  2.7560 -1.2384
    5CHTO   O82 1694   7.969   3.364   1.044 -0.1838 -0.0390  0.2839
    5CHTO  C123 1695   7.984   3.288   1.165  1.0112  0.9422 -0.3815
    5CHTO  H227 1696   8.059   3.209   1.150 -0.8219 -0.7091 -0.9637
    5CHTO   O77 1697   8.014   3.386   1.266 -0.0891 -0.2576  0.6160
    5CHTO  C118 1698   8.032   3.346   1.396  0.2363  0.0655  0.6754
    5CHTO  H222 1699   8.102   3.261   1.395 -1.3584 -1.2923 -2.1652
    5CHTO  C125 1700   8.083   3.470   1.478  0.3241  0.0750 -0.1762
    5CHTO   O84 1701   8.099   3.438   1.612 -0.6386  0.3336  0.1718
    5CHTO  H205 1702   8.027   3.388   1.646  0.0496 -1.1232 -0.4681
    5CHTO  C114 1703   7.895   3.288   1.445 -0.6297  0.2815  0.2993
    5CHTO  H218 1704   7.823   3.369   1.450  0.3966  1.1224  1.5616
    5CHTO  C116 1705   7.848   3.175   1.355  0.1938  0.1422  0.7302
    5CHTO  H220 1706   7.920   3.091   1.363  1.3010  1.1333  1.4093
    5CHTO   O79 1707   7.725   3.116   1.416  0.5035 -0.1035  0.5469
    5CHTO  H201 1708   7.720   3.023   1.420 -0.7904 -0.1817 -1.5533
    5CHTO  C120 1709   7.840   3.225   1.205  0.5877  0.1094 -0.1093
    5CHTO  H224 1710   7.761   3.303   1.212  0.2357 -0.3391  1.0068
    5CHTO   N21 1711   7.795   3.127   1.108  0.4123 -0.0389 -0.1708
    5CHTO  H211 1712   7.837   3.031   1.130  1.8462  0.6405  0.0792
    5CHTO  H212 1713   7.819   3.157   1.007 -0.6547 -0.6817 -0.6246
    5CHTO   O75 1714   7.934   3.232   1.571 -0.4535  0.1939  0.6072
    5CHTO  C112 1715   7.825   3.259   1.692  0.5245 -0.0349 -0.5341
    5CHTO  H216 1716   7.722   3.255   1.651 -0.4896 -1.6321  2.0554
    5CHTO   O73 1717   7.856   3.386   1.744  0.0911 -0.4963 -0.4185
    5CHTO  C113 1718   7.762   3.440   1.838  0.3003 -0.2053 -0.7997
    5CHTO  H217 1719   7.674   3.475   1.780 -1.5733 -0.4284  1.8572
    5CHTO  C124 1720   7.831   3.565   1.898 -0.3145 -0.2647  0.1737
    5CHTO   O83 1721   7.756   3.641   1.991 -0.0223  0.3194  0.6026
    5CHTO  H204 1722   7.667   3.647   1.962  0.0778 -0.6153  0.1006
    5CHTO  C109 1723   7.727   3.331   1.956 -0.6763 -0.5029  0.1513
    5CHTO  H213 1724   7.799   3.346   2.037 -0.8454  2.5936 -0.2218
    5CHTO  C110 1725   7.722   3.186   1.912  0.4342 -0.7403 -0.1124
    5CHTO  H214 1726   7.630   3.168   1.857 -0.1780 -0.1441  0.7097
    5CHTO   O78 1727   7.716   3.104   2.033 -0.3261 -0.5834  0.0462
    5CHTO  H200 1728   7.653   3.138   2.094  0.8328  0.3031  0.7891
    5CHTO  C111 1729   7.835   3.152   1.807 -0.2700 -0.1512  0.1050
    5CHTO  H215 1730   7.935   3.156   1.852 -0.3041 -0.4354  0.2102
    5CHTO   N19 1731   7.812   3.012   1.759 -0.7332  0.0572 -0.7525
    5CHTO  H207 1732   7.866   2.996   1.667 -0.9736 -2.8906 -0.4530
    5CHTO  H208 1733   7.850   2.948   1.838  0.8811  1.4783 -0.3481
    5CHTO   O74 1734   7.596   3.375   2.006 -0.0972  0.3640  0.0588
    5CHTO  C115 1735   7.582   3.389   2.163 -0.0236 -0.1407  0.2899
    5CHTO  H219 1736   7.668   3.341   2.211  0.9451  2.0730  0.8510
    5CHTO   O76 1737   7.583   3.535   2.209 -0.0183 -0.0051 -0.5118
    5CHTO  C122 1738   7.479   3.610   2.145 -1.1104 -0.1984  0.0940
    5CHTO  H226 1739   7.520   3.618   2.044 -2.7323 -0.3458 -0.6031
    5CHTO  C126 1740   7.476   3.754   2.209 -0.1248  0.0838  0.5499
    5CHTO   O85 1741   7.595   3.833   2.203 -0.2269  0.6312 -0.3189
    5CHTO  H206 1742   7.574   3.912   2.249 -0.5937  0.1413  0.3485
    5CHTO  C121 1743   7.343   3.546   2.134 -0.2967  0.1672  0.5751
    5CHTO  H225 1744   7.267   3.622   2.159 -0.4394  0.0061  0.6298
    5CHTO   O81 1745   7.326   3.492   2.002  0.4948  0.7238  0.4597
    5CHTO  H202 1746   7.357   3.404   1.994 -2.6609 -0.4334  0.2829
    5CHTO  C119 1747   7.335   3.437   2.243 -0.1898 -0.2175  0.4902
    5CHTO  H223 1748   7.362   3.483   2.338  0.7268  0.0198  0.1218
    5CHTO  C117 1749   7.446   3.330   2.211  0.1187 -0.2069  0.4758
    5CHTO  H221 1750   7.419   3.252   2.140 -0.2292 -1.0372  1.5256
    5CHTO   N20 1751   7.473   3.262   2.342 -0.6746  0.6254  0.0176
    5CHTO  H209 1752   7.521   3.168   2.317 -1.6614  0.1478 -0.1378
    5CHTO  H210 1753   7.538   3.327   2.398  1.9118 -2.7933  1.1770
    5CHTO   O80 1754   7.177   3.368   2.281 -0.2030  0.1775  0.3508
    5CHTO  C103 1755   7.071   3.352   2.165  1.0807  0.0261 -0.0717
    5CHTO  H190 1756   7.076   3.432   2.091 -1.3144  0.6007  0.3352
    5CHTO  C101 1757   7.075   3.215   2.089 -0.3210  0.6641  1.0098
    5CHTO  H188 1758   7.092   3.133   2.158  1.0004 -0.0091 -0.0688
    5CHTO   O68 1759   7.207   3.207   1.989 -0.3025 -0.3414  0.0359
    5CHTO  H168 1760   7.221   3.120   1.957  1.4933  0.8094 -2.5418
    5CHTO   C99 1761   6.949   3.188   2.005 -0.4150 -0.1362 -0.7954
    5CHTO  H186 1762   6.949   3.270   1.929  0.3220 -1.2408 -2.0001
    5CHTO   N17 1763   6.940   3.064   1.929 -0.1279  0.2355 -0.4310
    5CHTO  H174 1764   7.031   3.007   1.919  0.5633  0.8720  1.7744
    5CHTO  H175 1765   6.854   3.006   1.958  0.1220  0.2699  0.3995
    5CHTO   C97 1766   6.822   3.211   2.095 -0.2643 -0.1617  0.3426
    5CHTO  H184 1767   6.824   3.126   2.166 -1.4305 -0.7393 -0.2967
    5CHTO   O64 1768   6.825   3.336   2.162  0.2058 -0.1333 -0.1509
    5CHTO  C104 1769   6.936   3.376   2.247  0.1889 -0.2414  0.4702
    5CHTO  H191 1770   6.936   3.314   2.337  0.8742 -2.9443 -1.3107
    5CHTO  C108 1771   6.923   3.525   2.286  0.0387  0.6969 -0.0524
    5CHTO   O71 1772   6.825   3.540   2.392 -0.0557  0.5014  0.2911
    5CHTO  H171 1773   6.827   3.624   2.435 -1.9512  0.4866  0.4499
    5CHTO   O62 1774   6.696   3.201   2.017 -0.1315  0.1205  0.0044
    5CHTO   C91 1775   6.584   3.177   2.102  0.2335  0.2383 -0.1085
    5CHTO  H178 1776   6.603   3.159   2.207 -3.2030 -4.2787 -0.1134
    5CHTO   C92 1777   6.521   3.037   2.056 -0.1968 -1.2529 -0.1215
    5CHTO  H179 1778   6.504   3.026   1.948 -0.5047 -4.3845  0.2084
    5CHTO   O66 1779   6.610   2.936   2.093 -0.5977 -0.0137 -0.0521
    5CHTO  H166 1780   6.668   2.920   2.021 -0.4938 -0.1245  0.0561
    5CHTO   C93 1781   6.374   3.016   2.117  0.2824 -0.0911 -0.3096
    5CHTO  H180 1782   6.388   3.022   2.226  0.2219 -3.5808 -0.0291
    5CHTO   N16 1783   6.312   2.881   2.093 -0.0106 -0.6420 -0.1888
    5CHTO  H172 1784   6.207   2.887   2.117  0.0367  1.9131 -0.4454
    5CHTO  H173 1785   6.363   2.811   2.157 -0.2594 -0.5587  0.1041
    5CHTO   C94 1786   6.285   3.133   2.065  0.1012 -0.3746 -0.1247
    5CHTO  H181 1787   6.284   3.138   1.956 -1.0553 -0.9767 -0.1490
    5CHTO   O61 1788   6.346   3.254   2.113 -0.9247 -0.1071 -0.0552
    5CHTO   C95 1789   6.481   3.300   2.090 -0.4407 -0.3335  0.3288
    5CHTO  H182 1790   6.487   3.343   1.990  0.2658 -0.0527  0.4878
    5CHTO  C106 1791   6.510   3.420   2.191  0.0079  0.4080 -0.8299
    5CHTO   O69 1792   6.403   3.516   2.192  0.5278 -0.0477 -0.3264
    5CHTO  H169 1793   6.327   3.479   2.233  1.6299 -1.8866  0.0862
    5CHTO   O63 1794   6.143   3.130   2.128 -0.1368  0.2931 -0.5831
    5CHTO   C96 1795   6.018   3.115   2.010 -0.0351 -0.3105  0.4919
    5CHTO  H183 1796   6.061   3.059   1.927 -0.1979 -1.0319  0.8941
    5CHTO   C98 1797   5.965   3.253   1.954 -0.2508  0.7356 -0.0322
    5CHTO  H185 1798   5.921   3.311   2.036 -0.5110 -0.7801  0.9272
    5CHTO   O67 1799   6.076   3.333   1.903 -0.2738 -0.2265  0.2369
    5CHTO  H167 1800   6.133   3.368   1.969 -0.6795 -1.4150  1.2238
    5CHTO  C102 1801   5.851   3.233   1.843 -0.1853  0.0843 -0.2884
    5CHTO  H189 1802   5.902   3.208   1.748  0.1061 -0.3813 -0.0096
    5CHTO   N18 1803   5.762   3.341   1.813 -0.0837 -0.4202  0.1005
    5CHTO  H176 1804   5.815   3.421   1.764  1.6596 -1.6219 -0.0392
    5CHTO  H177 1805   5.728   3.376   1.910  1.7086  0.2290  0.5105
    5CHTO  C105 1806   5.761   3.106   1.859  0.1559  0.4207  0.1518
    5CHTO  H192 1807   5.662   3.131   1.898  1.0966  0.5129  2.5509
    5CHTO   O65 1808   5.819   2.999   1.934  0.1278  0.7115  0.2901
    5CHTO  C100 1809   5.893   3.026   2.051  0.0514 -0.5157  0.1556
    5CHTO  H187 1810   5.826   3.082   2.118  1.2675  0.2186  0.7911
    5CHTO  C107 1811   5.951   2.885   2.113 -0.1172 -0.0436 -0.1839
    5CHTO   O70 1812   6.026   2.905   2.229  0.3848  0.0830  0.4413
    5CHTO  H170 1813   6.091   2.972   2.216  0.0688  0.2979 -0.0507
    5CHTO   O57 1814   5.743   3.045   1.710  0.0671 -0.2862 -0.2930
    5CHTO   C85 1815   5.632   2.959   1.683  0.2636  0.5254  0.5706
    5CHTO  H157 1816   5.546   3.019   1.721  0.2813 -0.5290  2.3574
    5CHTO   C83 1817   5.628   2.823   1.760  0.2260 -0.6665 -0.8402
    5CHTO  H155 1818   5.605   2.848   1.863  2.6674 -1.5777 -0.0682
    5CHTO   O56 1819   5.755   2.753   1.762  0.0684  0.1873 -0.3193
    5CHTO  H135 1820   5.776   2.694   1.831  2.2149 -0.4316 -1.4591
    5CHTO   C81 1821   5.510   2.734   1.708 -0.2027  0.0499 -0.0441
    5CHTO  H153 1822   5.414   2.786   1.712 -0.2420  0.1528 -1.9860
    5CHTO   N14 1823   5.487   2.607   1.793 -0.0343 -0.3103  0.3265
    5CHTO  H141 1824   5.475   2.518   1.736 -1.3396 -0.5502  0.9567
    5CHTO  H142 1825   5.571   2.593   1.857 -0.0454  1.2986  0.7234
    5CHTO   C79 1826   5.532   2.703   1.559  0.0595 -0.4859  0.0387
    5CHTO  H151 1827   5.440   2.660   1.518  2.1239 -2.8115 -2.3486
    5CHTO   O52 1828   5.528   2.824   1.487  0.4863  0.1208  0.7230
    5CHTO   C86 1829   5.626   2.929   1.528  0.0879 -0.2681  0.3588
    5CHTO  H158 1830   5.717   2.884   1.484 -0.7081 -0.4240 -1.1585
    5CHTO   C90 1831   5.597   3.060   1.447 -0.1231 -0.0106 -0.2856
    5CHTO   O60 1832   5.485   3.066   1.369  0.2830 -0.1990 -0.2191
    5CHTO  H138 1833   5.523   3.100   1.290  0.5855 -0.7156 -0.2988
    5CHTO   O50 1834   5.638   2.621   1.529  0.8938 -0.7203 -0.6028
    5CHTO   C73 1835   5.667   2.526   1.425 -0.4029  0.6599 -0.2531
    5CHTO  H145 1836   5.606   2.546   1.335  0.4116  3.5489 -0.2372
    5CHTO   C74 1837   5.641   2.387   1.476 -0.0608  1.0465  0.5815
    5CHTO  H146 1838   5.536   2.383   1.507  0.9732  0.1619  4.2604
    5CHTO   O54 1839   5.656   2.293   1.364 -0.0938  0.1118  0.3300
    5CHTO  H133 1840   5.610   2.214   1.384 -0.3243  0.4017  0.9683
    5CHTO   C75 1841   5.736   2.362   1.598 -1.2357  0.1983 -0.4141
    5CHTO  H147 1842   5.703   2.429   1.679 -4.1054 -1.1733 -0.3828
    5CHTO   N13 1843   5.706   2.237   1.674 -0.6893  0.2109  0.1929
    5CHTO  H139 1844   5.635   2.252   1.754 -1.8727 -0.6032 -0.6935
    5CHTO  H140 1845   5.794   2.192   1.718 -1.0421 -1.0221 -0.3677
    5CHTO   C76 1846   5.890   2.382   1.560 -0.5819  0.8764  0.1816
    5CHTO  H148 1847   5.921   2.305   1.489 -0.3266  1.3476 -0.2229
    5CHTO   O49 1848   5.910   2.518   1.498 -0.0821  0.0938 -0.1172
    5CHTO   C77 1849   5.817   2.546   1.391 -0.4294  0.3054  0.1320
    5CHTO  H149 1850   5.844   2.477   1.311 -1.4436  2.5283 -2.2109
    5CHTO   C88 1851   5.837   2.689   1.340  0.0663  0.1210  0.1925
    5CHTO   O58 1852   5.771   2.713   1.246  0.4584  0.0046 -0.5570
    5CHTO  H136 1853   5.749   2.804   1.244 -2.1763 -0.6240 -1.2230
    5CHTO   O51 1854   5.994   2.371   1.690 -0.4255  0.2199  0.0140
    5CHTO   C78 1855   6.140   2.401   1.646 -0.5537  0.2135 -0.2832
    5CHTO  H150 1856   6.144   2.443   1.543 -0.1717  0.6892 -0.0728
    5CHTO   C80 1857   6.228   2.274   1.647  0.0232  0.2559  0.2238
    5CHTO  H152 1858   6.213   2.218   1.741  1.0698 -0.5322 -0.0810
    5CHTO   O55 1859   6.186   2.194   1.542 -0.2817 -0.0854  0.0689
    5CHTO  H134 1860   6.207   2.105   1.561  1.7132  0.0655 -1.2709
    5CHTO   C84 1861   6.380   2.314   1.629  0.4003  0.2414 -0.1602
    5CHTO  H156 1862   6.400   2.338   1.524  0.7441  0.2665 -0.0892
    5CHTO   N15 1863   6.469   2.197   1.663 -0.0501  0.3073 -0.0726
    5CHTO  H143 1864   6.446   2.171   1.764 -2.0677  1.2794 -0.2597
    5CHTO  H144 1865   6.472   2.109   1.602 -0.9278  0.1837  0.0650
    5CHTO   C87 1866   6.415   2.430   1.726 -0.4833  0.2075  0.6802
    5CHTO  H159 1867   6.414   2.395   1.829  0.2324 -0.3175  0.5127
    5CHTO   O53 1868   6.329   2.548   1.705 -0.0258  0.3015 -0.1023
    5CHTO   C82 1869   6.191   2.521   1.729  0.1429 -0.4415 -0.0269
    5CHTO  H154 1870   6.171   2.503   1.835  0.4376  0.6439  0.2129
    5CHTO   C89 1871   6.121   2.656   1.689 -0.1935  0.0616 -0.6523
    5CHTO   O59 1872   6.135   2.755   1.786 -0.2747 -0.2217  0.3470
    5CHTO  H137 1873   6.048   2.771   1.817 -0.8993  0.5250 -1.7732
    5CHTO   O45 1874   6.555   2.492   1.681 -0.0711  0.3097  0.4693
    5CHTO   C67 1875   6.639   2.522   1.792  0.5916  0.0403  0.3542
    5CHTO  H124 1876   6.584   2.551   1.881 -0.4371 -1.4655  0.2357
    5CHTO   C65 1877   6.724   2.389   1.820  0.6006  0.2653 -0.2499
    5CHTO  H122 1878   6.713   2.329   1.729 -1.1997  0.2299 -0.0389
    5CHTO   O44 1879   6.648   2.324   1.925 -0.0411 -0.2417 -0.5605
    5CHTO  H102 1880   6.641   2.382   1.998 -1.2873 -2.3802  1.0686
    5CHTO   C63 1881   6.878   2.407   1.840 -0.1646  0.1641 -0.7436
    5CHTO  H120 1882   6.929   2.429   1.747  3.9423  1.0424  1.5736
    5CHTO   N11 1883   6.945   2.282   1.886 -0.0320  0.4800 -0.5625
    5CHTO  H108 1884   7.052   2.290   1.878 -0.3575  3.7664 -2.8634
    5CHTO  H109 1885   6.922   2.241   1.982  2.2630  1.3224  0.3958
    5CHTO   C61 1886   6.900   2.533   1.926  0.1041  0.3610  0.0016
    5CHTO  H118 1887   7.008   2.551   1.935 -0.1457  1.8290  0.2827
    5CHTO   O40 1888   6.845   2.657   1.864  0.1634  0.0799  0.1339
    5CHTO   C68 1889   6.730   2.645   1.764 -0.2591 -0.3613  0.6148
    5CHTO  H125 1890   6.778   2.646   1.664  0.2915 -1.2587  0.8660
    5CHTO   C72 1891   6.646   2.776   1.778  0.4147 -0.5643  0.0394
    5CHTO   O48 1892   6.714   2.899   1.757  0.5903  0.1357  0.1089
    5CHTO  H105 1893   6.696   2.937   1.673  0.8843  2.5339  1.0806
    5CHTO   O38 1894   6.846   2.516   2.056  0.4359  0.2802 -0.6876
    5CHTO   C55 1895   6.797   2.620   2.144  0.2305  0.2846  0.5051
    5CHTO  H112 1896   6.732   2.689   2.088  1.6073 -0.9546 -2.7257
    5CHTO   C56 1897   6.918   2.696   2.211 -0.5657 -0.0843  0.3264
    5CHTO  H113 1898   6.977   2.620   2.265  0.6952  2.1767  2.1932
    5CHTO   O42 1899   7.001   2.766   2.111  0.1094 -0.2577  0.3811
    5CHTO  H100 1900   6.945   2.800   2.044 -0.7353 -0.1671  1.1383
    5CHTO   C57 1901   6.866   2.801   2.319 -0.0371  0.3274  0.4051
    5CHTO  H114 1902   6.815   2.869   2.250  2.0022  1.5991  0.1011
    5CHTO   N10 1903   6.967   2.888   2.391 -0.0397  0.5091 -0.5414
    5CHTO  H106 1904   6.990   2.968   2.323  0.2278  2.4751  1.7851
    5CHTO  H107 1905   6.919   2.929   2.478 -1.6957  1.1837 -1.7475
    5CHTO   C58 1906   6.761   2.738   2.414 -0.2893  0.1134  0.4890
    5CHTO  H115 1907   6.803   2.652   2.470  0.3011 -0.0024 -0.1187
    5CHTO   O37 1908   6.656   2.676   2.331  0.5075  0.4509 -0.6342
    5CHTO   C59 1909   6.713   2.564   2.259 -0.2554 -0.1958  0.3756
    5CHTO  H116 1910   6.760   2.496   2.330 -0.6329  0.5923  1.3887
    5CHTO   C70 1911   6.593   2.482   2.210  0.3642 -0.1228 -0.0355
    5CHTO   O46 1912   6.478   2.546   2.147 -0.6940  0.0037 -0.0618
    5CHTO  H103 1913   6.439   2.604   2.209  1.5585 -1.3976  2.7849
    5CHTO   O39 1914   6.691   2.848   2.523  0.4289  0.1379 -0.2712
    5CHTO   C60 1915   6.569   2.918   2.478 -0.1792 -0.4391 -0.6963
    5CHTO  H117 1916   6.565   2.926   2.370 -1.9974  1.7674 -0.4961
    5CHTO   C62 1917   6.439   2.836   2.530  0.4038 -0.6012 -0.2976
    5CHTO  H119 1918   6.448   2.742   2.471  2.5665 -1.6455  1.6092
    5CHTO   O43 1919   6.459   2.808   2.672  0.1786 -0.3343  0.4079
    5CHTO  H101 1920   6.459   2.717   2.691  2.2014 -0.8104 -1.6987
    5CHTO   C66 1921   6.304   2.905   2.496  0.5822  0.0666 -0.8449
    5CHTO  H123 1922   6.287   2.910   2.388 -0.1818  1.7644 -0.6557
    5CHTO   N12 1923   6.194   2.827   2.549  0.7741  0.9468 -0.2611
    5CHTO  H110 1924   6.128   2.886   2.612  1.8091 -0.8468  2.5970
    5CHTO  H111 1925   6.229   2.751   2.618  1.3550  0.6425 -0.8961
    5CHTO   C69 1926   6.306   3.054   2.547 -0.5721 -0.5398 -0.1530
    5CHTO  H126 1927   6.316   3.058   2.657  0.1466  1.0693 -0.2688
    5CHTO   O41 1928   6.437   3.127   2.475  0.0707 -0.1671 -0.1585
    5CHTO   C64 1929   6.564   3.069   2.528  0.0421 -0.4103  0.7635
    5CHTO  H121 1930   6.567   3.074   2.639  0.0160 -0.7806  0.7797
    5CHTO   C71 1931   6.684   3.153   2.478  0.0690 -0.3269 -0.0386
    5CHTO   O47 1932   6.693   3.291   2.511  0.1083  0.4520  0.5936
    5CHTO  H104 1933   6.737   3.347   2.450  0.5055 -1.5398 -0.9913
    5CHTO   O34 1934   6.179   3.130   2.511 -0.1296  0.3298  0.2143
    5CHTO   C49 1935   6.156   3.261   2.491 -0.5513 -0.2753  0.4171
    5CHTO   H91 1936   6.196   3.287   2.393  0.0587  3.1545  1.4993
    5CHTO   C47 1937   6.209   3.355   2.601 -1.0121 -0.2313 -0.2141
    5CHTO   H89 1938   6.187   3.462   2.583  0.8079 -0.0286 -1.3861
    5CHTO   O33 1939   6.354   3.333   2.593 -0.4692 -0.0768 -0.2977
    5CHTO   H70 1940   6.396   3.369   2.668 -0.3625 -1.3858  0.2952
    5CHTO   C45 1941   6.148   3.312   2.739  0.2917  0.3760  0.6176
    5CHTO   H87 1942   6.172   3.205   2.752  0.5448  0.1975 -1.1753
    5CHTO    N8 1943   6.208   3.397   2.846  0.2054 -0.4202 -0.5107
    5CHTO   H75 1944   6.314   3.376   2.845  0.3368  0.2688 -0.8318
    5CHTO   H76 1945   6.190   3.502   2.834  1.9664  0.1620  1.5958
    5CHTO   C43 1946   5.990   3.335   2.731  0.0192  0.2408  0.5123
    5CHTO   H85 1947   5.945   3.306   2.826 -0.8343 -2.3952 -0.6494
    5CHTO   O29 1948   5.931   3.268   2.618  0.0479  0.2869  0.4394
    5CHTO   C50 1949   6.003   3.281   2.490  0.4870  0.1910 -0.1669
    5CHTO   H92 1950   5.956   3.212   2.419 -0.3630 -2.1506  2.5979
    5CHTO   C54 1951   5.961   3.413   2.428 -0.3053 -0.1744 -0.1270
    5CHTO   O36 1952   5.977   3.425   2.285 -0.6303 -0.3279  0.2321
    5CHTO   H72 1953   6.066   3.407   2.264 -0.1937  2.5332 -0.6048
    5CHTO   O27 1954   5.951   3.477   2.729 -0.6442 -0.1016 -0.2468
    5CHTO   C37 1955   5.837   3.569   2.737  0.0746 -0.3347  1.0128
    5CHTO   H79 1956   5.840   3.637   2.650  0.2868  0.7788  1.8920
    5CHTO   C38 1957   5.698   3.500   2.722 -0.1912 -0.2166  0.2579
    5CHTO   H80 1958   5.691   3.429   2.805  2.5434  1.3226  1.8544
    5CHTO   O31 1959   5.707   3.432   2.597 -0.0329  0.6272 -0.0449
    5CHTO   H68 1960   5.709   3.487   2.522  1.4121 -0.1226 -0.5594
    5CHTO   C39 1961   5.588   3.610   2.729  0.6773  0.1401  0.3917
    5CHTO   H81 1962   5.599   3.682   2.648  3.3886  0.5598  1.0987
    5CHTO    N7 1963   5.446   3.564   2.706 -0.3382  0.2836 -0.7454
    5CHTO   H73 1964   5.448   3.471   2.651  1.4857 -1.0918  1.5906
    5CHTO   H74 1965   5.389   3.636   2.648 -1.4539  0.0161  0.0077
    5CHTO   C40 1966   5.599   3.678   2.866 -0.2802 -0.5212  0.2386
    5CHTO   H82 1967   5.598   3.598   2.940  0.8847 -1.5509 -0.8513
    5CHTO   O26 1968   5.725   3.741   2.862  0.6418  0.6782 -0.3774
    5CHTO   C41 1969   5.841   3.652   2.864  0.9280 -0.1167  0.6710
    5CHTO   H83 1970   5.845   3.585   2.950  0.8994 -1.1798 -0.1509
    5CHTO   C52 1971   5.963   3.751   2.870 -0.4357  0.4148  0.0845
    5CHTO   O35 1972   6.107   3.689   2.931  0.2841 -0.5226 -0.1897
    5CHTO   H71 1973   6.088   3.686   3.023 -2.0770 -0.1882 -0.6337
    5CHTO   O28 1974   5.516   3.790   2.909 -0.2467  0.4770 -0.1655
    5CHTO   C42 1975   5.508   3.854   3.037 -0.9640 -0.1163  0.0641
    5CHTO   H84 1976   5.437   3.935   3.024  0.1870  0.7139 -1.1730
    5CHTO   C44 1977   5.632   3.923   3.097 -0.0080 -0.0908  0.0283
    5CHTO   H86 1978   5.706   3.929   3.018  0.0768 -0.5903  0.0726
    5CHTO   O32 1979   5.595   4.062   3.133  0.4518  0.1026  0.0040
    5CHTO   H69 1980   5.513   4.056   3.178 -0.5604 -0.5593 -1.8532
    5CHTO   C48 1981   5.695   3.841   3.223  0.8662  1.1066  0.1553
    5CHTO   H90 1982   5.638   3.870   3.311 -2.2510  1.4586 -1.8777
    5CHTO    N9 1983   5.835   3.876   3.242 -0.0941  0.3391  0.2220
    5CHTO   H77 1984   5.848   3.982   3.250  1.1277  0.1521  0.7762
    5CHTO   H78 1985   5.860   3.826   3.334 -1.4120 -0.2888  0.2608
    5CHTO   C51 1986   5.671   3.685   3.204  0.0739  0.2456  0.2719
    5CHTO   H93 1987   5.719   3.647   3.114  0.5128  2.0507 -0.2666
    5CHTO   O30 1988   5.537   3.659   3.200  0.8790 -0.1313  0.0788
    5CHTO   C46 1989   5.446   3.763   3.143  0.0520  0.2502 -0.2117
    5CHTO   H88 1990   5.370   3.708   3.088  1.0955 -1.4968  0.0585
    5CHTO   C53 1991   5.375   3.837   3.260  0.1095 -0.1721 -0.6787
    5CHTO   O72 1992   5.268   3.914   3.214  0.2612 -0.3932  0.0724
    5CHTO  H199 1993   5.207   3.870   3.158  1.6696 -1.8959 -0.3285
    5CHTO   O22 1994   5.726   3.612   3.316  0.0185 -0.7442 -0.3022
    5CHTO   C31 1995   5.753   3.464   3.317 -0.9290 -0.3373 -0.3411
    5CHTO   H59 1996   5.774   3.433   3.421  0.1570  1.6615  0.0712
    5CHTO   C29 1997   5.630   3.381   3.267  0.1916 -0.0380 -0.5460
    5CHTO   H57 1998   5.612   3.425   3.168 -0.0429 -2.2780 -1.5435
    5CHTO   O21 1999   5.527   3.410   3.360  0.0976  0.4970  0.3611
    5CHTO   H37 2000   5.449   3.379   3.318  0.2554  0.2318  0.2603
    5CHTO   C27 2001   5.653   3.223   3.243 -0.2951 -0.4585 -0.3074
    5CHTO   H55 2002   5.681   3.172   3.336 -0.1700 -2.3402 -1.3638
    5CHTO    N5 2003   5.535   3.149   3.193  0.2739  0.0690 -0.7282
    5CHTO   H43 2004   5.521   3.195   3.097 -1.3027  1.2800  0.0599
    5CHTO   H44 2005   5.550   3.042   3.190  0.4891  0.1295 -2.2970
    5CHTO   C25 2006   5.780   3.217   3.151 -0.4537  0.1382  0.0252
    5CHTO   H53 2007   5.761   3.260   3.052 -0.2073  0.1614 -0.0136
    5CHTO   O17 2008   5.895   3.281   3.214 -0.8958  0.2350  0.3941
    5CHTO   C32 2009   5.881   3.432   3.226 -0.0245 -0.3763 -0.3104
    5CHTO   H60 2010   5.862   3.459   3.122 -0.1140  0.2148 -0.1405
    5CHTO   C36 2011   6.018   3.493   3.274  0.8313  0.0497 -0.2263
    5CHTO   O25 2012   6.134   3.451   3.191  0.0163 -0.0068 -0.0850
    5CHTO   H40 2013   6.156   3.508   3.120  0.3434  1.9676  1.5466
    5CHTO   O15 2014   5.817   3.077   3.117  0.3779  0.3285 -0.1721
    5CHTO   C19 2015   5.906   2.974   3.173 -0.5659  0.6500 -0.1593
    5CHTO   H47 2016   5.955   3.025   3.257  1.0212  1.7714 -1.7436
    5CHTO   C20 2017   5.850   2.845   3.236  0.2148 -0.2334 -0.2456
    5CHTO   H48 2018   5.779   2.799   3.166  1.7602  0.1130 -2.0634
    5CHTO   O19 2019   5.776   2.881   3.353  0.0615 -0.6674  0.1062
    5CHTO   H35 2020   5.741   2.798   3.380  0.1873 -0.8651 -0.3250
    5CHTO   C21 2021   5.956   2.740   3.271  0.7022  0.6477 -0.1152
    5CHTO   H49 2022   5.995   2.769   3.368 -2.1154  0.2303  1.1983
    5CHTO    N4 2023   5.903   2.605   3.301  0.2128  0.7499 -0.1293
    5CHTO   H41 2024   5.869   2.548   3.217  3.1204 -0.0833 -0.8179
    5CHTO   H42 2025   5.952   2.543   3.375  0.7845  0.5529 -0.6702
    5CHTO   C22 2026   6.070   2.735   3.165  0.1866 -0.4460  0.2160
    5CHTO   H50 2027   6.037   2.691   3.070  0.4419  2.3241 -1.2085
    5CHTO   O14 2028   6.121   2.869   3.145  0.3536 -0.3189 -0.0206
    5CHTO   C23 2029   6.020   2.942   3.070  0.1698  0.7633 -0.0562
    5CHTO   H51 2030   5.983   2.874   2.992 -2.7671  0.7576  1.2449
    5CHTO   C34 2031   6.078   3.068   3.003 -0.0648  0.2113  0.2998
    5CHTO   O23 2032   6.209   3.047   2.941  0.1649 -0.0173 -0.0956
    5CHTO   H38 2033   6.193   3.028   2.851  3.2103 -0.2262 -0.6598
    5CHTO   O16 2034   6.179   2.652   3.225 -0.3741 -0.4718  0.0451
    5CHTO   C24 2035   6.266   2.569   3.123  0.1012 -0.0481 -0.1981
    5CHTO   H52 2036   6.215   2.555   3.028  0.7927 -2.5717 -0.2221
    5CHTO   C26 2037   6.284   2.431   3.187  0.7581 -0.3167 -0.9171
    5CHTO   H54 2038   6.343   2.440   3.281 -1.1147  0.7829  0.1751
    5CHTO   O20 2039   6.159   2.377   3.210 -0.6696 -0.0258 -0.0917
    5CHTO   H36 2040   6.156   2.299   3.262 -2.2546 -0.5821 -0.9763
    5CHTO   C30 2041   6.382   2.355   3.089  0.3438 -0.4393  0.3703
    5CHTO   H58 2042   6.333   2.372   2.992  1.0870  2.5257  0.4649
    5CHTO    N6 2043   6.392   2.210   3.117 -0.4317  0.4736  0.2249
    5CHTO   H45 2044   6.398   2.180   3.221  0.8659  1.2330  0.3805
    5CHTO   H46 2045   6.313   2.154   3.070  0.5043 -0.2031 -0.5810
    5CHTO   C33 2046   6.523   2.425   3.072 -0.0436 -0.2466 -1.0151
    5CHTO   H61 2047   6.561   2.429   3.175 -2.0764  2.3338 -0.3021
    5CHTO   O18 2048   6.505   2.559   3.025  0.0446 -0.2742 -0.4478
    5CHTO   C28 2049   6.405   2.639   3.090  0.0838  0.5445 -0.6547
    5CHTO   H56 2050   6.447   2.682   3.181 -0.9566  2.3760 -1.0036
    5CHTO   C35 2051   6.384   2.764   3.007  0.3303  0.5740  0.1062
    5CHTO   O24 2052   6.323   2.717   2.885  0.6129  0.4256  0.4973
    5CHTO   H39 2053   6.270   2.786   2.852 -0.4562  0.0533  1.4187
    5CHTO    O9 2054   6.619   2.355   2.990  0.2457  0.3866  0.2343
    5CHTO   C13 2055   6.610   2.339   2.840  0.1804  0.7049  0.2110
    5CHTO   H26 2056   6.501   2.328   2.818  0.2629  1.4883 -0.6237
    5CHTO   C11 2057   6.697   2.219   2.794  0.0249  0.0179  0.3985
    5CHTO   H24 2058   6.653   2.123   2.823  0.9886 -0.0663  1.6285
    5CHTO    O8 2059   6.819   2.224   2.859  0.0942  0.8106 -0.0397
    5CHTO    H3 2060   6.808   2.217   2.952  0.9646 -0.4412 -0.0145
    5CHTO    C9 2061   6.703   2.216   2.635 -0.2229 -0.0321 -0.6897
    5CHTO   H22 2062   6.598   2.219   2.602  0.2617  0.3769 -2.2067
    5CHTO    N2 2063   6.757   2.091   2.573  0.0734 -1.1905 -0.4432
    5CHTO   H10 2064   6.674   2.030   2.540 -0.2993 -0.9787  0.0918
    5CHTO   H11 2065   6.835   2.106   2.500  1.2041 -0.5599  0.8676
    5CHTO    C7 2066   6.770   2.343   2.572  0.6280  0.3801  0.1405
    5CHTO   H20 2067   6.752   2.334   2.463  4.5239  0.3384 -0.5758
    5CHTO    O4 2068   6.700   2.460   2.622  0.4436 -0.4030 -0.2045
    5CHTO   C14 2069   6.658   2.482   2.759  1.0141  0.5767 -0.5921
    5CHTO   H27 2070   6.566   2.543   2.766  1.1783  0.6112  1.6748
    5CHTO   C18 2071   6.769   2.575   2.825  0.0827 -0.1091 -0.3868
    5CHTO   O13 2072   6.748   2.713   2.798 -0.3225  0.0238  0.1898
    5CHTO    H7 2073   6.834   2.751   2.796  0.6262 -1.9282  1.2026
    5CHTO    O2 2074   6.939   2.346   2.612 -0.1939 -0.1199 -0.2223
    5CHTO    C1 2075   7.013   2.399   2.503  0.2521 -0.0418 -0.2154
    5CHTO   H14 2076   6.947   2.449   2.430 -0.3782 -2.0298 -1.0573
    5CHTO    C2 2077   7.096   2.288   2.413  0.5105  0.3893  0.3086
    5CHTO   H15 2078   7.153   2.220   2.479 -0.0124 -1.0609 -0.7143
    5CHTO    O6 2079   6.996   2.215   2.342  0.5150  0.0879  0.1920
    5CHTO    H1 2080   6.935   2.170   2.398 -0.2702 -0.1692 -0.8673
    5CHTO    C3 2081   7.202   2.362   2.314  0.5456  0.3649 -0.4128
    5CHTO   H16 2082   7.147   2.401   2.228  0.2243  2.1169  0.5619
    5CHTO    N1 2083   7.302   2.267   2.268 -1.1411  0.5295  0.5465
    5CHTO    H8 2084   7.271   2.239   2.168 -2.5859  0.0002  1.1336
    5CHTO    H9 2085   7.401   2.311   2.272 -0.6322 -0.6910  2.1635
    5CHTO    C4 2086   7.271   2.483   2.381 -0.6986 -0.0603  0.5617
    5CHTO   H17 2087   7.354   2.450   2.442 -0.0201  2.0773  0.8519
    5CHTO    O1 2088   7.173   2.562   2.437  0.1116 -0.0847  0.3002
    5CHTO    C5 2089   7.120   2.495   2.551 -0.4890 -0.1438 -0.6422
    5CHTO   H18 2090   7.192   2.433   2.605  2.0089  2.1570 -1.2686
    5CHTO   C16 2091   7.076   2.613   2.648 -0.0007  0.1417  0.3983
    5CHTO   O11 2092   7.168   2.713   2.690 -0.5424 -0.2709  0.6569
    5CHTO    H5 2093   7.204   2.695   2.774 -0.6770  0.1761  0.8123
    5CHTO    O3 2094   7.333   2.563   2.282 -0.1109 -0.2171  0.0459
    5CHTO    C6 2095   7.443   2.640   2.334  0.5835 -0.3032 -0.5155
    5CHTO   H19 2096   7.438   2.655   2.442  0.0726  1.0458 -0.7150
    5CHTO    C8 2097   7.583   2.571   2.291 -0.9677  0.1520  0.0423
    5CHTO   H21 2098   7.594   2.569   2.183  2.0987 -0.0616  0.3118
    5CHTO    O7 2099   7.588   2.441   2.350 -0.2757 -0.5075  0.0959
    5CHTO    H2 2100   7.503   2.401   2.349 -0.4551 -0.0942 -0.6978
    5CHTO   C12 2101   7.707   2.664   2.341  0.1476  0.4870 -0.4479
    5CHTO   H25 2102   7.701   2.666   2.451 -0.1754 -1.5187 -0.4115
    5CHTO    N3 2103   7.843   2.601   2.311  0.6007 -0.3555 -0.0260
    5CHTO   H12 2104   7.922   2.669   2.337  0.9352  0.3390 -2.7183
    5CHTO   H13 2105   7.855   2.506   2.362 -1.0393  0.0922  1.2080
    5CHTO   C15 2106   7.680   2.808   2.284 -1.0665  0.1271 -0.1657
    5CHTO   H28 2107   7.689   2.806   2.175  3.3708 -3.3777  0.1469
    5CHTO   O10 2108   7.774   2.910   2.338 -0.1991 -0.3501 -0.0620
    5CHTO    H4 2109   7.757   2.994   2.301  1.3251 -0.4981 -1.1424
    5CHTO    O5 2110   7.550   2.861   2.317 -0.0566  0.6599 -0.0718
    5CHTO   C10 2111   7.443   2.785   2.273  0.0934  0.1418 -0.0731
    5CHTO   H23 2112   7.442   2.781   2.164  2.3956  1.7176 -0.1908
    5CHTO   C17 2113   7.319   2.857   2.316 -0.4271 -1.0964 -0.5565
    5CHTO   O12 2114   7.309   2.982   2.254 -0.3934 -0.2179  0.1286
    5CHTO    H6 2115   7.226   3.022   2.274 -0.5162 -0.8757  0.9908
    6CHTO  H203 2116   6.626   4.843   0.155 -0.2113  0.8283  0.3931
    6CHTO   O82 2117   6.608   4.855   0.246 -0.3970 -0.3970  0.5235
    6CHTO  C123 2118   6.541   4.971   0.284 -0.0477 -0.3884 -0.3287
    6CHTO  H227 2119   6.567   5.051   0.213  0.4957  1.1128  1.5135
    6CHTO   O77 2120   6.399   4.934   0.263 -0.0288 -0.3510 -0.5841
    6CHTO  C118 2121   6.298   5.035   0.299  0.0440  0.0098  0.6604
    6CHTO  H222 2122   6.315   5.125   0.238 -1.6099  0.8537  1.4039
    6CHTO  C125 2123   6.160   4.978   0.274 -0.3284  0.3158  0.4796
    6CHTO   O84 2124   6.135   4.998   0.136  0.0481 -0.3559 -0.3279
    6CHTO  H205 2125   6.070   5.064   0.122  0.5352  0.0641 -0.6514
    6CHTO  C114 2126   6.324   5.066   0.448  0.3823 -0.0997 -0.4529
    6CHTO  H218 2127   6.305   4.976   0.507  2.4319 -0.1584  0.1682
    6CHTO  C116 2128   6.474   5.117   0.481  0.2665  0.1481 -0.2572
    6CHTO  H220 2129   6.493   5.220   0.444 -1.3296  0.5488 -0.0065
    6CHTO   O79 2130   6.489   5.125   0.621  0.5607 -0.0651 -0.0740
    6CHTO  H201 2131   6.559   5.179   0.653  1.6388 -0.9143 -0.9482
    6CHTO  C120 2132   6.579   5.015   0.427 -0.4599 -0.2261 -0.0028
    6CHTO  H224 2133   6.586   4.919   0.484 -2.1510 -1.3543 -1.6168
    6CHTO   N21 2134   6.715   5.071   0.422  0.3792 -0.1248 -0.4906
    6CHTO  H211 2135   6.727   5.125   0.515  1.0902  2.1841 -1.8745
    6CHTO  H212 2136   6.797   5.008   0.393 -0.1336  0.2176 -2.8061
    6CHTO   O75 2137   6.225   5.168   0.471  0.4300  0.4218  0.0348
    6CHTO  C112 2138   6.129   5.160   0.615 -0.1959 -0.9021 -0.3411
    6CHTO  H216 2139   6.180   5.110   0.699 -2.4694 -0.3149  1.4351
    6CHTO   O73 2140   6.008   5.095   0.578  0.9675 -0.5404 -0.3023
    6CHTO  C113 2141   5.909   5.078   0.685  0.6056  0.3604 -0.9456
    6CHTO  H217 2142   5.944   5.013   0.769 -2.6138 -1.3148 -0.8231
    6CHTO  C124 2143   5.792   5.012   0.615  0.2081 -0.0024  0.1698
    6CHTO   O83 2144   5.701   4.960   0.713 -0.2440  0.3369 -0.0419
    6CHTO  H204 2145   5.677   4.878   0.675  1.1754 -0.0477 -0.1250
    6CHTO  C109 2146   5.876   5.214   0.747  0.1382 -1.0830 -0.6096
    6CHTO  H213 2147   5.822   5.270   0.670  1.1616  1.1480  0.2683
    6CHTO  C110 2148   6.008   5.296   0.784 -0.0014 -0.0961  0.8220
    6CHTO  H214 2149   6.070   5.249   0.860 -0.3836 -0.0463  1.1707
    6CHTO   O78 2150   5.967   5.429   0.828 -0.0467 -0.6259 -0.7416
    6CHTO  H200 2151   6.037   5.483   0.860 -0.9618  0.4663 -0.5158
    6CHTO  C111 2152   6.099   5.307   0.663  0.4503 -0.4955 -0.5671
    6CHTO  H215 2153   6.043   5.359   0.584 -3.0837 -3.9431 -0.4939
    6CHTO   N19 2154   6.227   5.387   0.687  0.5263  0.0016 -0.0314
    6CHTO  H207 2155   6.200   5.489   0.713 -1.4691  0.3276 -3.1718
    6CHTO  H208 2156   6.283   5.338   0.766  0.6343 -2.3369 -1.5159
    6CHTO   O74 2157   5.779   5.195   0.856 -0.1414 -0.0120  0.0767
    6CHTO  C115 2158   5.793   5.262   1.013 -0.2722  0.3248  0.1150
    6CHTO  H219 2159   5.886   5.318   1.023  0.8885 -0.9159 -3.0460
    6CHTO   O76 2160   5.688   5.363   1.042 -0.2291 -0.0232 -0.0281
    6CHTO  C122 2161   5.555   5.308   1.023  0.1543  0.0317  0.2444
    6CHTO  H226 2162   5.538   5.293   0.916  0.7993  0.7520  0.0321
    6CHTO  C126 2163   5.454   5.418   1.072 -0.0157  0.5536  0.9055
    6CHTO   O85 2164   5.319   5.371   1.062  0.2201 -0.0313  0.2943
    6CHTO  H206 2165   5.273   5.392   1.141 -0.2914 -0.2686  0.0618
    6CHTO  C121 2166   5.542   5.164   1.096  0.2573 -0.1273 -0.0338
    6CHTO  H225 2167   5.452   5.168   1.160  0.1934  1.0467 -0.1788
    6CHTO   O81 2168   5.524   5.052   1.006 -0.3538  0.4625 -0.8640
    6CHTO  H202 2169   5.454   5.072   0.946 -1.3318 -2.0065 -0.5886
    6CHTO  C119 2170   5.658   5.128   1.191 -0.2551  0.0932  0.7527
    6CHTO  H223 2171   5.665   5.201   1.272  0.1596 -0.8615  1.5894
    6CHTO  C117 2172   5.795   5.132   1.102 -0.1558  0.8884 -0.5356
    6CHTO  H221 2173   5.810   5.047   1.035  1.2291 -0.7041  1.7068
    6CHTO   N20 2174   5.914   5.135   1.192  0.1280 -0.4395 -0.2922
    6CHTO  H209 2175   5.899   5.221   1.257 -0.5917 -0.0810 -0.9321
    6CHTO  H210 2176   6.000   5.128   1.128  0.9579  2.2987  0.4604
    6CHTO   O80 2177   5.643   4.995   1.267  0.7563  0.2744 -0.2646
    6CHTO  C103 2178   5.573   4.995   1.419 -0.3653 -0.1189 -0.2172
    6CHTO  H190 2179   5.619   5.067   1.487 -0.2963 -2.2136  2.0237
    6CHTO  C101 2180   5.418   5.035   1.420  0.1827  0.4775  0.4185
    6CHTO  H188 2181   5.365   4.986   1.338  0.8579 -0.4737  0.5403
    6CHTO   O68 2182   5.408   5.187   1.391  0.1563  0.0909  0.2053
    6CHTO  H168 2183   5.455   5.210   1.313 -0.0798  1.5475  0.4736
    6CHTO   C99 2184   5.347   4.997   1.561  0.2092  0.9014 -0.5437
    6CHTO  H186 2185   5.391   5.064   1.637 -0.0756  0.4549  0.0124
    6CHTO   N17 2186   5.199   5.022   1.561  0.3698  0.6065  0.0333
    6CHTO  H174 2187   5.145   4.931   1.543  1.1682  0.1043  0.1671
    6CHTO  H175 2188   5.157   5.075   1.646  0.7485  1.3703 -0.2508
    6CHTO   C97 2189   5.389   4.850   1.591 -0.1557 -0.3130  0.4298
    6CHTO  H184 2190   5.368   4.792   1.499  2.5581 -2.1079  0.8843
    6CHTO   O64 2191   5.533   4.862   1.608  0.1565  1.1255  0.2852
    6CHTO  C104 2192   5.605   4.856   1.483 -0.2185 -0.1193  0.2717
    6CHTO  H191 2193   5.577   4.776   1.415 -0.6039 -0.2241  0.5545
    6CHTO  C108 2194   5.755   4.839   1.494  0.2068  0.6450 -0.0376
    6CHTO   O71 2195   5.787   4.720   1.568  0.0803 -0.3008 -0.4618
    6CHTO  H171 2196   5.849   4.743   1.634 -0.3206  1.6605 -0.7370
    6CHTO   O62 2197   5.342   4.798   1.715  0.2841 -0.3054  0.0693
    6CHTO   C91 2198   5.333   4.653   1.729  0.5815  0.3913  0.1768
    6CHTO  H178 2199   5.341   4.651   1.837 -1.7041 -0.5001  0.3607
    6CHTO   C92 2200   5.461   4.581   1.692 -0.6757  0.0533  0.3752
    6CHTO  H179 2201   5.483   4.617   1.590  0.6186 -0.3384  0.5060
    6CHTO   O66 2202   5.582   4.616   1.771 -0.3186  0.5139  0.0298
    6CHTO  H166 2203   5.561   4.692   1.822 -1.4652  0.6952 -0.6923
    6CHTO   C93 2204   5.454   4.418   1.684  0.1755  0.2983  0.3710
    6CHTO  H180 2205   5.469   4.375   1.784  2.3696 -3.0210 -1.3012
    6CHTO   N16 2206   5.570   4.366   1.609  0.0228  0.1647  0.5559
    6CHTO  H172 2207   5.561   4.259   1.596 -2.4379  0.4750 -0.5810
    6CHTO  H173 2208   5.604   4.413   1.517  0.0317 -1.2296 -0.1665
    6CHTO   C94 2209   5.318   4.364   1.623 -0.4120 -0.4298 -0.0936
    6CHTO  H181 2210   5.319   4.373   1.515 -0.3070  0.1829 -0.0433
    6CHTO   O61 2211   5.213   4.440   1.689 -0.0182 -0.4553 -0.0076
    6CHTO   C95 2212   5.217   4.576   1.648  0.4120 -0.1754 -0.4168
    6CHTO  H182 2213   5.248   4.586   1.544  1.1971  0.8513 -0.1002
    6CHTO  C106 2214   5.077   4.646   1.674  0.3531 -0.3089 -0.4402
    6CHTO   O69 2215   5.060   4.687   1.814  0.1115 -0.3931 -0.5126
    6CHTO  H169 2216   5.120   4.758   1.828 -1.1235  0.4352  0.5734
    6CHTO   O63 2217   5.311   4.199   1.669 -0.2110 -0.2795 -0.0619
    6CHTO   C96 2218   5.274   4.092   1.555 -1.0154 -0.2762  0.5566
    6CHTO  H183 2219   5.330   4.107   1.464 -0.6261 -0.4388  0.7701
    6CHTO   C98 2220   5.118   4.081   1.535 -0.1654 -0.1556  0.0991
    6CHTO  H185 2221   5.076   4.048   1.631  0.0292 -0.0988  0.2043
    6CHTO   O67 2222   5.059   4.206   1.497  0.6765  0.0812  0.0359
    6CHTO  H167 2223   4.968   4.201   1.476  0.8118  0.2864 -0.6190
    6CHTO  C102 2224   5.093   3.979   1.410 -0.1678  0.1239  0.3502
    6CHTO  H189 2225   5.089   4.047   1.323  1.6694  0.1910  0.3115
    6CHTO   N18 2226   4.961   3.911   1.408 -0.1515  0.1719 -0.1274
    6CHTO  H176 2227   4.874   3.972   1.385 -0.6191 -0.2023  0.6294
    6CHTO  H177 2228   4.964   3.832   1.335 -0.5889 -1.3477  1.4797
    6CHTO  C105 2229   5.208   3.875   1.404 -0.3854 -0.1146  0.3779
    6CHTO  H192 2230   5.167   3.783   1.361 -1.0771  1.9216 -3.5710
    6CHTO   O65 2231   5.263   3.847   1.534  0.2916  0.0867  0.0187
    6CHTO  C100 2232   5.320   3.953   1.610 -0.3527 -0.3944 -0.4583
    6CHTO  H187 2233   5.295   3.940   1.717 -0.0786  0.8890 -0.2379
    6CHTO  C107 2234   5.471   3.921   1.608  0.1038 -0.3396 -0.0019
    6CHTO   O70 2235   5.545   4.026   1.675 -0.2421 -0.1351 -0.4049
    6CHTO  H170 2236   5.635   4.000   1.672  0.3988  1.8608  0.3258
    6CHTO   O57 2237   5.313   3.932   1.295 -0.2769 -0.3925 -0.6091
    6CHTO   C85 2238   5.370   3.843   1.202 -0.0654 -0.4753 -0.5371
    6CHTO  H157 2239   5.307   3.751   1.200 -0.7926 -0.0013  0.2284
    6CHTO   C83 2240   5.514   3.786   1.251 -0.6273 -0.3342  0.2173
    6CHTO  H155 2241   5.505   3.714   1.332 -1.3437 -2.4815 -1.7275
    6CHTO   O56 2242   5.580   3.894   1.308 -0.3269  0.3194 -0.4010
    6CHTO  H135 2243   5.545   3.911   1.394  1.2822  0.6561  0.2160
    6CHTO   C81 2244   5.588   3.710   1.140  0.3252  0.6986 -0.1413
    6CHTO  H153 2245   5.533   3.620   1.114  0.4226  0.7790 -0.6251
    6CHTO   N14 2246   5.721   3.643   1.174 -0.0205 -0.4705 -0.0572
    6CHTO  H141 2247   5.774   3.632   1.082 -1.1110 -1.8474 -0.5476
    6CHTO  H142 2248   5.712   3.546   1.219 -1.6441 -0.3126 -0.0232
    6CHTO   C79 2249   5.597   3.793   1.011 -0.2385 -0.3082  0.1388
    6CHTO  H151 2250   5.646   3.729   0.938 -0.8785  1.0634 -1.5376
    6CHTO   O52 2251   5.472   3.830   0.958  0.3479  0.1166  0.7517
    6CHTO   C86 2252   5.391   3.905   1.054  0.0284 -0.1352  0.5741
    6CHTO  H158 2253   5.439   4.006   1.054  0.6326 -0.4179  0.3286
    6CHTO   C90 2254   5.248   3.921   0.997 -0.1467  0.1944 -0.3828
    6CHTO   O60 2255   5.240   4.012   0.890  0.0750 -0.1182 -0.0757
    6CHTO  H138 2256   5.200   4.092   0.917  0.8545  0.1096  0.4169
    6CHTO   O50 2257   5.679   3.904   1.041  0.5175 -0.7236 -0.2723
    6CHTO   C73 2258   5.786   3.967   0.967 -0.3402  0.7821 -0.6093
    6CHTO  H145 2259   5.797   3.914   0.871  0.7789  2.2592 -1.3182
    6CHTO   C74 2260   5.920   3.958   1.058  0.1939  0.2896  0.5791
    6CHTO  H146 2261   5.938   3.851   1.077  0.2669  0.0709 -0.6743
    6CHTO   O54 2262   6.038   3.999   0.994 -0.5230  0.2596 -0.3226
    6CHTO  H133 2263   6.061   3.932   0.933 -0.1465  0.5761 -0.5330
    6CHTO   C75 2264   5.895   4.046   1.185  0.3970  0.2058 -0.1738
    6CHTO  H147 2265   5.810   4.009   1.244  1.9502 -1.4142  1.1076
    6CHTO   N13 2266   6.002   4.037   1.289  0.1944 -0.3922  0.5230
    6CHTO  H139 2267   6.031   3.935   1.306 -1.3153 -0.9361 -0.1297
    6CHTO  H140 2268   6.092   4.088   1.257  0.4279  0.0013  1.7896
    6CHTO   C76 2269   5.866   4.200   1.134  0.5641 -0.4663  0.2179
    6CHTO  H148 2270   5.952   4.242   1.082 -0.0488  1.3871  0.6505
    6CHTO   O49 2271   5.755   4.202   1.039 -0.4753  0.1204 -0.0818
    6CHTO   C77 2272   5.753   4.117   0.925  0.1275 -0.0468 -0.7492
    6CHTO  H149 2273   5.819   4.146   0.844 -0.6933 -0.0665 -1.4310
    6CHTO   C88 2274   5.613   4.131   0.866 -0.4072 -0.8549  0.3822
    6CHTO   O58 2275   5.605   4.089   0.723 -0.1640 -0.4966  0.1584
    6CHTO  H136 2276   5.659   4.142   0.668 -0.0590  0.1370  0.8707
    6CHTO   O51 2277   5.832   4.295   1.255  0.5071  0.1710  0.2297
    6CHTO   C78 2278   5.874   4.437   1.253 -0.1391 -0.2981 -0.0669
    6CHTO  H150 2279   5.809   4.494   1.324 -2.3610 -1.8049 -0.8432
    6CHTO   C80 2280   5.863   4.507   1.112  0.3473 -0.3131  0.5296
    6CHTO  H152 2281   5.938   4.462   1.044 -0.6894 -0.8840 -0.2434
    6CHTO   O55 2282   5.726   4.488   1.070 -0.0488 -0.6637 -0.4123
    6CHTO  H134 2283   5.705   4.408   1.026  0.2774 -0.5958 -0.6982
    6CHTO   C84 2284   5.904   4.656   1.122 -0.4552  0.7934  0.3237
    6CHTO  H156 2285   5.839   4.711   1.191 -4.9171  0.1090 -3.1086
    6CHTO   N15 2286   5.895   4.728   0.982 -0.2006 -0.2213 -0.5788
    6CHTO  H143 2287   5.887   4.655   0.904 -0.7104 -1.3351  0.5072
    6CHTO  H144 2288   5.824   4.807   0.975 -1.4807 -1.2094  1.0404
    6CHTO   C87 2289   6.046   4.657   1.181  0.4380 -0.6511  0.7306
    6CHTO  H159 2290   6.119   4.626   1.106 -0.5102  0.2810 -0.5993
    6CHTO   O53 2291   6.051   4.587   1.311  0.0780 -0.8585 -0.4974
    6CHTO   C82 2292   6.018   4.446   1.304 -0.4545 -0.7719  0.3134
    6CHTO  H154 2293   6.085   4.392   1.236 -1.4171 -0.5182 -0.8470
    6CHTO   C89 2294   6.032   4.378   1.449 -0.2627 -0.0648 -0.0739
    6CHTO   O59 2295   5.936   4.433   1.539 -0.6121 -0.2534 -0.3141
    6CHTO  H137 2296   5.942   4.526   1.543 -1.3599 -0.1477 -1.3716
    6CHTO   O45 2297   6.077   4.814   1.218 -0.0492 -0.2670  0.1986
    6CHTO   C67 2298   6.218   4.850   1.225  0.2938 -0.3336  0.2337
    6CHTO  H124 2299   6.276   4.765   1.261  1.5803 -1.1828 -3.6174
    6CHTO   C65 2300   6.274   4.882   1.079 -0.6629 -0.3020 -0.2317
    6CHTO  H122 2301   6.191   4.873   1.008  0.2121  0.1485 -1.3287
    6CHTO   O44 2302   6.375   4.788   1.042 -0.3361 -0.3600  0.4523
    6CHTO  H102 2303   6.408   4.741   1.116  1.1720 -0.8824 -0.5238
    6CHTO   C63 2304   6.320   5.034   1.072  0.2527 -0.3699  0.7224
    6CHTO  H120 2305   6.233   5.098   1.088  1.3137  1.7548 -1.5706
    6CHTO   N11 2306   6.374   5.081   0.943 -0.5705  0.0835  0.2600
    6CHTO  H108 2307   6.477   5.109   0.948  0.2576 -2.6511 -0.7780
    6CHTO  H109 2308   6.328   5.172   0.912 -0.6540 -0.2521 -0.6215
    6CHTO   C61 2309   6.424   5.058   1.189 -0.2351 -0.4819 -0.4288
    6CHTO  H118 2310   6.437   5.166   1.199  5.5231 -0.9879 -1.1203
    6CHTO   O40 2311   6.382   5.009   1.316 -0.5607  0.3685 -0.7607
    6CHTO   C68 2312   6.244   4.965   1.330 -0.6590  0.4063 -0.3012
    6CHTO  H125 2313   6.185   5.058   1.311  0.0347  0.9251  0.0568
    6CHTO   C72 2314   6.212   4.922   1.470 -0.2500 -0.1899 -0.8498
    6CHTO   O48 2315   6.089   4.847   1.493  0.3960  0.1668  0.0704
    6CHTO  H105 2316   6.011   4.893   1.470  0.2846 -0.6548 -1.2511
    6CHTO   O38 2317   6.548   4.994   1.166 -0.1502  0.5612  0.3890
    6CHTO   C55 2318   6.666   5.075   1.189  0.5403  0.0561 -0.1738
    6CHTO  H112 2319   6.648   5.150   1.268 -2.5220 -0.9473  0.1470
    6CHTO   C56 2320   6.724   5.138   1.044  1.0632 -0.5643 -0.1097
    6CHTO  H113 2321   6.715   5.058   0.969 -2.1149 -0.4828  0.1063
    6CHTO   O42 2322   6.626   5.232   0.993  0.2041  0.3688  0.4864
    6CHTO  H100 2323   6.619   5.311   1.043 -1.6441  1.3735 -1.2964
    6CHTO   C57 2324   6.869   5.196   1.058 -0.2845 -0.2604  0.1690
    6CHTO  H114 2325   6.855   5.285   1.120 -0.0697  0.4867 -0.8426
    6CHTO   N10 2326   6.935   5.235   0.928  0.5591  0.3803 -0.3385
    6CHTO  H106 2327   6.860   5.255   0.853 -2.4465 -2.2617  1.8162
    6CHTO  H107 2328   7.002   5.158   0.892  0.6534 -0.2212  1.0830
    6CHTO   C58 2329   6.959   5.103   1.148 -0.0058 -0.1528  0.0526
    6CHTO  H115 2330   6.996   5.022   1.082  0.3723  1.7156 -2.0897
    6CHTO   O37 2331   6.896   5.056   1.263  0.6296  0.3987  0.3397
    6CHTO   C59 2332   6.778   4.978   1.242  0.0977  0.2838  0.3670
    6CHTO  H116 2333   6.788   4.899   1.167 -1.3728  1.1837 -0.7966
    6CHTO   C70 2334   6.748   4.912   1.375 -0.0859  0.1887  0.8363
    6CHTO   O46 2335   6.628   4.823   1.365 -0.2786  0.3006 -0.1494
    6CHTO  H103 2336   6.575   4.812   1.441 -0.3279 -0.9917 -0.3586
    6CHTO   O39 2337   7.085   5.187   1.208 -0.2799 -0.0293 -0.2912
    6CHTO   C60 2338   7.202   5.108   1.246  0.6660 -0.3692  0.3311
    6CHTO  H117 2339   7.158   5.014   1.279 -1.6981  0.9538  1.0388
    6CHTO   C62 2340   7.300   5.091   1.130  0.1424 -0.0077  0.0997
    6CHTO  H119 2341   7.234   5.036   1.059 -0.1189  1.0260 -0.4669
    6CHTO   O43 2342   7.329   5.217   1.063  0.0039  0.0603  0.4498
    6CHTO  H101 2343   7.316   5.217   0.970 -0.2437  1.5225  0.4624
    6CHTO   C66 2344   7.430   5.015   1.167  0.1673  0.3098 -0.4557
    6CHTO  H123 2345   7.405   4.925   1.224  3.0883 -1.1663 -1.4116
    6CHTO   N12 2346   7.501   4.967   1.044  0.0884 -0.0268 -0.3331
    6CHTO  H110 2347   7.576   4.894   1.070 -0.7410 -0.5445  0.5969
    6CHTO  H111 2348   7.432   4.933   0.968 -1.0889  0.6380  0.4317
    6CHTO   C69 2349   7.506   5.106   1.261 -0.0873  0.1278  0.5609
    6CHTO  H126 2350   7.528   5.199   1.205  2.9967 -1.2400 -0.6133
    6CHTO   O41 2351   7.418   5.127   1.397 -0.3386  0.4444  0.0390
    6CHTO   C64 2352   7.271   5.174   1.372 -0.1898  0.1813 -0.2765
    6CHTO  H121 2353   7.270   5.285   1.367  1.8936  0.3314  1.6873
    6CHTO   C71 2354   7.195   5.133   1.499 -0.0514 -0.2356 -0.6637
    6CHTO   O47 2355   7.211   4.998   1.548  0.0206 -0.9192  0.4016
    6CHTO  H104 2356   7.156   4.998   1.624 -0.3417 -2.0452  0.1504
    6CHTO   O34 2357   7.649   5.048   1.307  0.2356 -0.3576  0.1690
    6CHTO   C49 2358   7.792   5.039   1.214 -0.1278  0.2460 -0.2573
    6CHTO   H91 2359   7.758   4.995   1.120 -1.5078  1.7260 -0.4765
    6CHTO   C47 2360   7.894   4.947   1.285  0.1949 -0.1966  0.0519
    6CHTO   H89 2361   7.982   4.936   1.219  0.1237 -1.2092  0.1130
    6CHTO   O33 2362   7.825   4.819   1.302 -0.5501 -0.6378 -0.8141
    6CHTO   H70 2363   7.877   4.743   1.323  2.2363  1.4846  0.2806
    6CHTO   C45 2364   7.939   5.005   1.428  0.0700 -0.2864  0.4515
    6CHTO   H87 2365   7.854   5.001   1.496 -1.1730 -3.2017 -1.1671
    6CHTO    N8 2366   8.051   4.926   1.484  0.6591  0.6666  0.2878
    6CHTO   H75 2367   8.072   4.992   1.568  0.2287 -1.0755  1.8035
    6CHTO   H76 2368   8.138   4.921   1.420 -1.2279 -1.6625 -2.1509
    6CHTO   C43 2369   7.952   5.168   1.414 -0.1041 -0.0146  0.3738
    6CHTO   H85 2370   7.864   5.213   1.460  0.1465 -0.4553  1.3090
    6CHTO   O29 2371   7.967   5.201   1.276  0.1689  0.3805 -0.0326
    6CHTO   C50 2372   7.853   5.177   1.190 -0.0724  0.2252 -0.0383
    6CHTO   H92 2373   7.785   5.263   1.205  0.2077  0.2501  1.1697
    6CHTO   C54 2374   7.905   5.194   1.044  0.8803 -0.1975 -0.6216
    6CHTO   O36 2375   7.782   5.190   0.963 -0.4465 -0.2517  0.1364
    6CHTO   H72 2376   7.770   5.121   0.900 -0.3074 -0.3620  0.2333
    6CHTO   O27 2377   8.064   5.226   1.480 -0.5036  0.2147  0.8484
    6CHTO   C37 2378   8.141   5.333   1.537 -0.3120  0.5093 -0.2987
    6CHTO   H79 2379   8.245   5.302   1.551 -0.0118  0.6917 -2.0186
    6CHTO   C38 2380   8.152   5.456   1.447  0.8108  0.2145  0.6635
    6CHTO   H80 2381   8.052   5.485   1.412  1.2198 -1.0027 -1.6642
    6CHTO   O31 2382   8.236   5.413   1.331  0.1096  0.3481  0.6413
    6CHTO   H68 2383   8.211   5.445   1.247  0.3796 -3.3996 -1.0084
    6CHTO   C39 2384   8.215   5.582   1.518 -0.5749 -0.4170 -0.3929
    6CHTO   H81 2385   8.323   5.568   1.527 -0.4032  0.1182 -1.5265
    6CHTO    N7 2386   8.203   5.700   1.425  0.4617 -0.0497 -0.2040
    6CHTO   H73 2387   8.107   5.699   1.376  0.1729  0.7973  0.3274
    6CHTO   H74 2388   8.249   5.791   1.461  0.5492  0.2159 -0.9740
    6CHTO   C40 2389   8.149   5.601   1.665  0.0543 -0.1441 -0.9235
    6CHTO   H82 2390   8.053   5.653   1.669  1.0059  1.7112 -1.5837
    6CHTO   O26 2391   8.147   5.481   1.744 -0.0824 -0.3775 -0.3868
    6CHTO   C41 2392   8.083   5.362   1.679 -0.2676 -0.2219  0.2471
    6CHTO   H83 2393   7.974   5.374   1.671 -0.0575  1.2345 -0.6483
    6CHTO   C52 2394   8.118   5.238   1.774 -0.1548  0.1001  0.0694
    6CHTO   O35 2395   8.054   5.248   1.903  0.1214 -0.3639 -0.1176
    6CHTO   H71 2396   8.114   5.259   1.975  0.3770  0.7017 -0.4740
    6CHTO   O28 2397   8.230   5.695   1.738 -0.5672 -0.8417 -0.1324
    6CHTO   C42 2398   8.194   5.765   1.860  0.5143  0.3890 -0.2878
    6CHTO   H84 2399   8.284   5.823   1.878 -0.8034  2.5913 -0.6323
    6CHTO   C44 2400   8.167   5.675   1.983  0.2039  1.2719 -0.2817
    6CHTO   H86 2401   8.075   5.618   1.968  1.8962 -2.3928  2.4665
    6CHTO   O32 2402   8.279   5.582   1.985  0.2779  0.2880  0.1368
    6CHTO   H69 2403   8.362   5.621   1.964  1.1625 -2.3883 -1.4882
    6CHTO   C48 2404   8.154   5.759   2.112  0.5544  0.1374 -0.7039
    6CHTO   H90 2405   8.243   5.820   2.130  1.7430 -2.2855  1.9851
    6CHTO    N9 2406   8.136   5.677   2.237  0.1803 -0.1403 -0.0312
    6CHTO   H77 2407   8.232   5.643   2.271 -0.6871 -0.3269  2.2638
    6CHTO   H78 2408   8.068   5.595   2.220 -1.6071  1.3587 -0.2920
    6CHTO   C51 2409   8.042   5.861   2.084  0.0065  0.0523  0.3827
    6CHTO   H93 2410   7.955   5.798   2.065 -0.8328  1.5967 -1.0594
    6CHTO   O30 2411   8.071   5.947   1.971  0.3603  0.1577  0.0720
    6CHTO   C46 2412   8.081   5.866   1.845  0.0478  0.1028 -0.9692
    6CHTO   H88 2413   7.980   5.829   1.827 -0.5141 -0.0516  2.1035
    6CHTO   C53 2414   8.103   5.958   1.727  0.1963 -0.5194  0.1559
    6CHTO   O72 2415   8.213   6.045   1.758  0.4200  0.2032 -0.0128
    6CHTO  H199 2416   8.181   6.132   1.747  0.6464  0.3220  0.2622
    6CHTO   O22 2417   8.029   5.953   2.199 -0.0347 -0.0962 -0.4036
    6CHTO   C31 2418   7.909   6.018   2.237 -0.7557  0.2293  0.0921
    6CHTO   H59 2419   7.940   6.092   2.314  1.1528 -0.8634  0.3872
    6CHTO   C29 2420   7.844   6.099   2.118 -0.5916 -0.0822  0.0583
    6CHTO   H57 2421   7.813   6.038   2.032 -0.0595  0.0381 -0.2227
    6CHTO   O21 2422   7.947   6.193   2.071  0.4950  0.5410 -0.3796
    6CHTO   H37 2423   7.919   6.252   2.004 -2.0251 -1.0531 -0.8043
    6CHTO   C27 2424   7.718   6.177   2.174  0.0429 -0.3004 -0.0108
    6CHTO   H55 2425   7.749   6.253   2.247  2.0623 -1.6937  0.6334
    6CHTO    N5 2426   7.641   6.246   2.071 -0.4807 -0.7754  0.5203
    6CHTO   H43 2427   7.604   6.179   1.994 -0.2201  1.1950 -1.3659
    6CHTO   H44 2428   7.681   6.342   2.042  0.7107 -1.2782  0.4645
    6CHTO   C25 2429   7.626   6.073   2.256  0.4062  0.3296  0.3874
    6CHTO   H53 2430   7.601   5.989   2.190  0.7031 -0.1174  0.8367
    6CHTO   O17 2431   7.706   6.010   2.361 -0.1850  0.0629 -0.1957
    6CHTO   C32 2432   7.803   5.927   2.308  0.0943 -0.0429  0.3250
    6CHTO   H60 2433   7.766   5.859   2.231  0.2281  0.2665 -0.0123
    6CHTO   C36 2434   7.867   5.840   2.416 -0.8989  0.4082  0.1254
    6CHTO   O25 2435   7.924   5.917   2.524  0.2660  0.2331 -0.1107
    6CHTO   H40 2436   7.859   5.943   2.587  1.7502 -2.5767  2.7112
    6CHTO   O15 2437   7.482   6.111   2.309  0.1148  0.4159  0.4313
    6CHTO   C19 2438   7.369   6.198   2.326  0.6908  0.2619 -0.4357
    6CHTO   H47 2439   7.349   6.175   2.431 -1.0835  2.0220 -0.3519
    6CHTO   C20 2440   7.392   6.351   2.295  0.2009  0.2848 -0.2689
    6CHTO   H48 2441   7.417   6.365   2.188 -1.5534 -0.9157 -0.8596
    6CHTO   O19 2442   7.506   6.397   2.370 -0.7250 -0.6962 -0.0793
    6CHTO   H35 2443   7.514   6.369   2.459 -0.1528 -1.8744 -0.5021
    6CHTO   C21 2444   7.266   6.441   2.333 -0.8002 -0.2030  0.3642
    6CHTO   H49 2445   7.254   6.434   2.441  1.1433  1.1911  0.6988
    6CHTO    N4 2446   7.284   6.583   2.288  0.4850 -0.0703  0.8761
    6CHTO   H41 2447   7.376   6.623   2.329  0.4978  1.5951 -0.7440
    6CHTO   H42 2448   7.202   6.647   2.314  0.4945 -1.2725  4.0998
    6CHTO   C22 2449   7.137   6.376   2.283  0.0967 -0.1734 -0.4714
    6CHTO   H50 2450   7.135   6.374   2.174  3.0008  0.4966 -0.5879
    6CHTO   O14 2451   7.129   6.232   2.310  0.2426  0.1566  0.3658
    6CHTO   C23 2452   7.241   6.154   2.254  0.1643 -0.0841 -0.0042
    6CHTO   H51 2453   7.247   6.169   2.145 -1.2147  3.5731  0.3540
    6CHTO   C34 2454   7.193   6.001   2.273 -0.3436 -0.1744  0.2075
    6CHTO   O23 2455   7.192   5.953   2.412  0.2907 -0.6284 -0.2591
    6CHTO   H38 2456   7.175   5.861   2.407 -0.4021 -0.5464  0.3403
    6CHTO   O16 2457   7.015   6.429   2.339 -0.0373 -0.3311  0.2300
    6CHTO   C24 2458   6.888   6.429   2.202  0.0911  0.1994  0.4441
    6CHTO   H52 2459   6.907   6.348   2.132  2.2557  0.3426  0.8524
    6CHTO   C26 2460   6.887   6.570   2.145  0.4499 -1.0119 -0.5516
    6CHTO   H54 2461   6.872   6.638   2.231 -0.6537 -1.4759 -0.3609
    6CHTO   O20 2462   7.014   6.581   2.078 -0.1543  0.5104  0.3306
    6CHTO   H36 2463   7.051   6.662   2.108 -1.2805  1.1842 -0.0820
    6CHTO   C30 2464   6.760   6.587   2.056 -0.3109  0.4261  0.6678
    6CHTO   H58 2465   6.765   6.511   1.977  0.9894  0.6167  0.5559
    6CHTO    N6 2466   6.765   6.721   1.997 -0.0803 -0.7044 -0.6699
    6CHTO   H45 2467   6.829   6.713   1.911  0.9329  1.4239 -0.1530
    6CHTO   H46 2468   6.665   6.751   1.968 -0.6527 -0.0736  1.8020
    6CHTO   C33 2469   6.636   6.560   2.144 -0.0852  0.4189 -0.6570
    6CHTO   H61 2470   6.627   6.625   2.232 -1.0716 -1.3559  0.5909
    6CHTO   O18 2471   6.642   6.421   2.188  0.1069  0.1075 -0.5824
    6CHTO   C28 2472   6.753   6.400   2.277  0.3303  0.4000 -0.3354
    6CHTO   H56 2473   6.746   6.465   2.364  0.2478 -0.1347  0.0566
    6CHTO   C35 2474   6.757   6.248   2.322 -0.1092  0.4249 -0.1817
    6CHTO   O24 2475   6.854   6.216   2.427  0.4833 -0.7011 -0.6714
    6CHTO   H39 2476   6.894   6.133   2.409  1.8572 -0.4357  1.0136
    6CHTO    O9 2477   6.515   6.586   2.068 -0.3624  0.5741  0.0870
    6CHTO   C13 2478   6.386   6.611   2.145 -0.1295  0.2472 -0.0200
    6CHTO   H26 2479   6.397   6.709   2.195  0.8764  0.4288 -0.5791
    6CHTO   C11 2480   6.353   6.493   2.247 -0.4850  0.4926  0.2408
    6CHTO   H24 2481   6.433   6.481   2.322  0.5501  1.0114 -0.7665
    6CHTO    O8 2482   6.352   6.379   2.168  0.0935 -0.4142 -0.3723
    6CHTO    H3 2483   6.355   6.302   2.222  1.0086  0.0317  0.2152
    6CHTO    C9 2484   6.220   6.536   2.322  0.2994  0.0060 -0.1764
    6CHTO   H22 2485   6.232   6.641   2.353  2.1848  0.0270 -0.9099
    6CHTO    N2 2486   6.184   6.443   2.435  0.3209  0.1416 -0.0711
    6CHTO   H10 2487   6.154   6.349   2.391  0.8599  0.2024 -0.5597
    6CHTO   H11 2488   6.096   6.482   2.486 -0.5459  0.1022 -1.5034
    6CHTO    C7 2489   6.112   6.531   2.212 -0.5734 -0.2397  0.2866
    6CHTO   H20 2490   6.018   6.558   2.265 -2.1211 -1.5576 -1.6884
    6CHTO    O4 2491   6.141   6.630   2.110 -0.4243 -0.1835 -0.5228
    6CHTO   C14 2492   6.268   6.634   2.041  0.0807  0.0741  0.6432
    6CHTO   H27 2493   6.282   6.736   1.998 -0.2899  0.5032  1.5393
    6CHTO   C18 2494   6.261   6.540   1.917 -0.3646  0.7316  0.4931
    6CHTO   O13 2495   6.357   6.570   1.819  0.1815  0.0821  0.0276
    6CHTO    H7 2496   6.339   6.503   1.756 -0.1679 -0.5934  0.8388
    6CHTO    O2 2497   6.088   6.363   2.130  0.0799  0.1882  0.3575
    6CHTO    C1 2498   5.949   6.338   2.104  0.0458  0.7487 -0.3917
    6CHTO   H14 2499   5.949   6.243   2.047 -0.1634  0.2636  0.4063
    6CHTO    C2 2500   5.870   6.437   2.022  0.4924 -0.3386 -0.5247
    6CHTO   H15 2501   5.881   6.534   2.073 -0.2238  0.1169 -1.2515
    6CHTO    O6 2502   5.932   6.435   1.890  0.3111  0.0590 -0.0265
    6CHTO    H1 2503   5.921   6.347   1.859  0.8131 -1.2052  3.2369
    6CHTO    C3 2504   5.717   6.390   2.006  0.0877 -0.6277 -0.9737
    6CHTO   H16 2505   5.713   6.295   1.950 -0.0915 -1.0971 -0.1726
    6CHTO    N1 2506   5.639   6.488   1.933  0.2972 -0.5525 -0.3776
    6CHTO    H8 2507   5.690   6.504   1.839  1.3148  0.2373  0.2909
    6CHTO    H9 2508   5.544   6.439   1.913  0.8668 -1.6963 -0.3423
    6CHTO    C4 2509   5.652   6.356   2.146 -0.1354 -0.2664  0.8824
    6CHTO   H17 2510   5.635   6.451   2.195  0.2100  0.8242 -1.0775
    6CHTO    O1 2511   5.747   6.267   2.210  0.0742 -0.5092 -0.4009
    6CHTO    C5 2512   5.876   6.312   2.235  0.7128 -0.1414 -0.0958
    6CHTO   H18 2513   5.873   6.410   2.282  1.1217  0.4596 -1.3048
    6CHTO   C16 2514   5.934   6.209   2.334  0.0247  0.1184  0.1052
    6CHTO   O11 2515   6.073   6.170   2.326 -0.3303  0.1775  0.9649
    6CHTO    H5 2516   6.094   6.138   2.241  1.1440 -0.9243  1.7302
    6CHTO    O3 2517   5.530   6.276   2.139  0.0418  0.0525  0.4110
    6CHTO    C6 2518   5.430   6.280   2.245 -0.0090 -0.0681  0.2267
    6CHTO   H19 2519   5.469   6.330   2.334  1.1389 -0.9177  0.2027
    6CHTO    C8 2520   5.298   6.354   2.203 -0.2249 -0.0754  0.3350
    6CHTO   H21 2521   5.262   6.315   2.108  0.4675 -1.7275  0.7323
    6CHTO    O7 2522   5.337   6.486   2.174  0.1478 -0.6036  0.0944
    6CHTO    H2 2523   5.257   6.534   2.170 -0.8437 -2.3537 -1.8076
    6CHTO   C12 2524   5.189   6.337   2.311  0.1315 -0.9496  0.1316
    6CHTO   H25 2525   5.228   6.391   2.400 -0.9558  1.8564 -1.0195
    6CHTO    N3 2526   5.061   6.399   2.266 -0.3119 -0.5141  0.2764
    6CHTO   H12 2527   4.970   6.345   2.282  1.0596 -4.0054 -3.0050
    6CHTO   H13 2528   5.061   6.499   2.309  0.2491  0.3442 -1.6743
    6CHTO   C15 2529   5.182   6.190   2.354  0.0433  0.7177  0.3453
    6CHTO   H28 2530   5.143   6.134   2.268 -1.7971 -0.0908  1.6543
    6CHTO   O10 2531   5.114   6.168   2.474  0.1906  0.0395  0.0997
    6CHTO    H4 2532   5.032   6.127   2.454  0.4638  0.0664 -1.1168
    6CHTO    O5 2533   5.310   6.136   2.400 -0.0848 -0.1301 -0.2977
    6CHTO   C10 2534   5.398   6.139   2.288 -0.0939 -0.0353 -0.6348
    6CHTO   H23 2535   5.350   6.079   2.211 -1.9234 -1.3382  1.4255
    6CHTO   C17 2536   5.515   6.044   2.318  0.1477 -0.3285 -0.1777
    6CHTO   O12 2537   5.465   5.911   2.343  0.1168  0.2014 -0.3639
    6CHTO    H6 2538   5.422   5.909   2.426  2.0697  2.6391  0.7832
    7CHTO  H203 2539   4.887   2.399   2.464 -0.6792  0.2671 -0.6840
    7CHTO   O82 2540   4.950   2.383   2.396 -0.1003 -0.8530  0.1079
    7CHTO  C123 2541   5.058   2.477   2.408  0.3270  0.2886  0.9956
    7CHTO  H227 2542   5.015   2.572   2.445 -1.3792 -1.4501  3.6711
    7CHTO   O77 2543   5.139   2.420   2.511 -0.0345 -0.2301 -0.7837
    7CHTO  C118 2544   5.253   2.509   2.545  1.0005 -0.4233  1.1274
    7CHTO  H222 2545   5.209   2.608   2.563 -0.4204 -1.1990  2.0305
    7CHTO  C125 2546   5.327   2.455   2.683 -0.4764  0.5170 -0.4244
    7CHTO   O84 2547   5.380   2.321   2.678  0.6150 -0.0455 -0.5051
    7CHTO  H205 2548   5.339   2.258   2.734  0.8198  0.2570 -0.0173
    7CHTO  C114 2549   5.342   2.511   2.417  0.8323 -0.0162  0.4524
    7CHTO  H218 2550   5.366   2.409   2.387 -0.8040  0.0222 -1.0859
    7CHTO  C116 2551   5.265   2.579   2.296 -0.1209  0.1536 -0.4311
    7CHTO  H220 2552   5.250   2.684   2.326  0.2145 -0.0715  0.5456
    7CHTO   O79 2553   5.359   2.576   2.183  0.9696  0.2778 -0.3726
    7CHTO  H201 2554   5.320   2.633   2.119 -0.2138  1.3831  1.2992
    7CHTO  C120 2555   5.133   2.507   2.274 -0.4845  0.0536  0.0715
    7CHTO  H224 2556   5.138   2.407   2.226 -2.1553  0.6001 -1.2952
    7CHTO   N21 2557   5.048   2.586   2.177  0.0819 -0.5334  0.2517
    7CHTO  H211 2558   5.082   2.559   2.079  2.0053  0.4754  0.6292
    7CHTO  H212 2559   4.945   2.558   2.194 -0.2401  0.4280 -0.0871
    7CHTO   O75 2560   5.457   2.585   2.451  0.0723 -0.0317  0.0063
    7CHTO  C112 2561   5.591   2.513   2.405 -0.0686 -0.2639  0.3479
    7CHTO  H216 2562   5.572   2.470   2.305 -0.8041 -1.2307  0.8928
    7CHTO   O73 2563   5.618   2.414   2.507  0.5049  0.5889 -0.1205
    7CHTO  C113 2564   5.750   2.357   2.494  0.1690  0.5731  0.5994
    7CHTO  H217 2565   5.744   2.295   2.402  1.1685  1.4196 -0.0454
    7CHTO  C124 2566   5.762   2.254   2.608  0.0442 -0.8456  0.0754
    7CHTO   O83 2567   5.661   2.156   2.619  0.2645 -0.0883 -0.0781
    7CHTO  H204 2568   5.711   2.081   2.646 -0.1005 -0.4028 -0.2606
    7CHTO  C109 2569   5.863   2.449   2.492 -0.1325  0.1256 -0.2193
    7CHTO  H213 2570   5.871   2.495   2.592  0.6218  0.3746 -0.3946
    7CHTO  C110 2571   5.848   2.558   2.380 -0.1774  0.3328 -0.6574
    7CHTO  H214 2572   5.879   2.513   2.285  0.9296  0.1310 -0.2149
    7CHTO   O78 2573   5.940   2.659   2.394 -0.5783 -0.0550  0.3347
    7CHTO  H200 2574   6.028   2.631   2.409  0.4629  3.0009  0.2565
    7CHTO  C111 2575   5.707   2.620   2.387  0.3020 -0.9570  0.3201
    7CHTO  H215 2576   5.705   2.686   2.475  1.2321  0.4418 -0.6968
    7CHTO   N19 2577   5.674   2.710   2.272 -0.5482  0.2028  0.4569
    7CHTO  H207 2578   5.757   2.737   2.209 -1.0705  2.3275  0.6432
    7CHTO  H208 2579   5.607   2.792   2.294 -0.9800 -0.0244  0.0057
    7CHTO   O74 2580   5.987   2.376   2.470 -0.2665 -0.6201 -0.1201
    7CHTO  C115 2581   6.111   2.406   2.541 -0.9642 -0.2171  0.0469
    7CHTO  H219 2582   6.143   2.509   2.527 -1.6930 -0.2062 -1.7293
    7CHTO   O76 2583   6.087   2.388   2.707 -0.2949 -0.5686 -0.6550
    7CHTO  C122 2584   6.095   2.256   2.763 -0.2653  0.2836  0.5422
    7CHTO  H226 2585   6.006   2.205   2.729  0.6473 -1.5151  0.7812
    7CHTO  C126 2586   6.076   2.273   2.913 -0.0996 -0.7462 -0.7791
    7CHTO   O85 2587   6.032   2.156   2.980  0.1011 -0.0471 -0.0459
    7CHTO  H206 2588   5.939   2.164   2.983  0.0255 -1.0348  0.3287
    7CHTO  C121 2589   6.234   2.194   2.716  0.3621  0.4572  0.4089
    7CHTO  H225 2590   6.318   2.265   2.731  0.2629  0.9078 -1.1318
    7CHTO   O81 2591   6.270   2.079   2.793 -0.2066 -0.1081 -0.3368
    7CHTO  H202 2592   6.208   2.009   2.785  0.0521 -0.5131  1.0308
    7CHTO  C119 2593   6.229   2.175   2.562  0.0008  0.0214  0.6028
    7CHTO  H223 2594   6.325   2.124   2.545  0.3196  0.7641  0.1766
    7CHTO  C117 2595   6.221   2.309   2.482 -0.2391 -0.0602  1.1215
    7CHTO  H221 2596   6.197   2.301   2.376  2.8059  1.7953  0.2281
    7CHTO   N20 2597   6.363   2.375   2.485  0.5341  0.3947  0.8281
    7CHTO  H209 2598   6.387   2.415   2.387 -0.2327  0.3539  0.6203
    7CHTO  H210 2599   6.411   2.415   2.573  0.8766 -0.7659  1.1806
    7CHTO   O80 2600   6.124   2.067   2.523  0.4138  0.0728 -0.2017
    7CHTO  C103 2601   6.157   1.958   2.404  0.6909 -0.4354 -0.2301
    7CHTO  H190 2602   6.135   2.001   2.306  0.0660  1.5137  0.7518
    7CHTO  C101 2603   6.302   1.886   2.401  0.8119  0.1465  0.4323
    7CHTO  H188 2604   6.318   1.841   2.500 -2.1491 -2.1912 -0.0359
    7CHTO   O68 2605   6.420   1.983   2.374 -0.1154  0.1235 -0.1642
    7CHTO  H168 2606   6.392   2.072   2.385 -2.1225 -0.5542  0.5265
    7CHTO   C99 2607   6.307   1.765   2.302 -0.1166 -0.1210 -0.1700
    7CHTO  H186 2608   6.309   1.800   2.196  0.6241  0.9862  0.1989
    7CHTO   N17 2609   6.434   1.683   2.303  0.9848  0.5320 -0.3850
    7CHTO  H174 2610   6.489   1.701   2.212  0.6454 -0.6437 -0.8192
    7CHTO  H175 2611   6.502   1.681   2.387  1.2408  0.3230 -0.5971
    7CHTO   C97 2612   6.184   1.672   2.317 -0.2085 -0.3113 -0.5003
    7CHTO  H184 2613   6.196   1.605   2.403 -0.2530 -0.3192 -0.5004
    7CHTO   O64 2614   6.058   1.745   2.325 -0.3788  0.2975 -0.4721
    7CHTO  C104 2615   6.056   1.850   2.428  0.4273 -0.2721  0.7068
    7CHTO  H191 2616   6.062   1.819   2.533 -2.0735 -0.1124  0.9353
    7CHTO  C108 2617   5.912   1.909   2.413 -0.1478 -0.2432  0.0572
    7CHTO   O71 2618   5.804   1.813   2.418  1.1589 -0.1493  0.1217
    7CHTO  H171 2619   5.803   1.758   2.494 -3.1116 -1.2269 -0.6115
    7CHTO   O62 2620   6.169   1.593   2.193 -0.1183 -0.3625  0.3845
    7CHTO   C91 2621   6.120   1.456   2.193 -0.1171 -0.5352 -0.2819
    7CHTO  H178 2622   6.210   1.394   2.191  0.6525  0.4667  1.7937
    7CHTO   C92 2623   6.043   1.438   2.061 -0.2622 -0.4780 -0.3747
    7CHTO  H179 2624   6.098   1.482   1.976 -1.8263  0.2634 -1.0190
    7CHTO   O66 2625   6.049   1.293   2.040 -0.3522 -0.1487 -0.2604
    7CHTO  H166 2626   6.139   1.269   2.031  0.0137  1.0804  0.0699
    7CHTO   C93 2627   5.891   1.490   2.077  0.7347  0.1485  0.0793
    7CHTO  H180 2628   5.827   1.438   2.004  1.0233 -1.9975  1.3433
    7CHTO   N16 2629   5.871   1.629   2.040  0.1299 -0.1857 -0.5682
    7CHTO  H172 2630   5.887   1.691   2.127 -0.9995  0.2861 -0.6964
    7CHTO  H173 2631   5.769   1.650   2.011 -0.3310  0.1992  1.2833
    7CHTO   C94 2632   5.827   1.465   2.224 -0.3284  0.2111  0.0959
    7CHTO  H181 2633   5.835   1.554   2.287 -2.4822  0.7430 -0.3565
    7CHTO   O61 2634   5.901   1.365   2.285  0.8120  0.0982 -0.0098
    7CHTO   C95 2635   6.035   1.404   2.317 -0.3776  0.1264 -0.4699
    7CHTO  H182 2636   6.029   1.473   2.401 -1.4344 -1.6795  0.9908
    7CHTO  C106 2637   6.107   1.272   2.389 -0.0832 -0.3125  0.6490
    7CHTO   O69 2638   6.089   1.150   2.316 -0.1718  0.6095 -0.5344
    7CHTO  H169 2639   6.160   1.143   2.255 -1.3799 -0.3992 -1.8309
    7CHTO   O63 2640   5.678   1.417   2.221 -0.0206  0.2320 -0.5069
    7CHTO   C96 2641   5.589   1.479   2.349  1.0351  0.3001 -0.0875
    7CHTO  H183 2642   5.580   1.583   2.321 -0.6515  0.5851  1.4008
    7CHTO   C98 2643   5.633   1.470   2.505  0.2436 -0.3296 -0.4728
    7CHTO  H185 2644   5.735   1.507   2.521  0.3764  0.0688 -2.1695
    7CHTO   O67 2645   5.549   1.561   2.576  0.1238  0.5824  0.5880
    7CHTO  H167 2646   5.474   1.510   2.600  1.0365 -1.4300 -0.6250
    7CHTO  C102 2647   5.607   1.311   2.557  0.3550  0.5340 -0.4889
    7CHTO  H189 2648   5.595   1.324   2.666 -1.0594  0.6882 -0.6647
    7CHTO   N18 2649   5.722   1.221   2.540  0.1667 -0.6389  0.4274
    7CHTO  H176 2650   5.747   1.198   2.438  1.6005 -2.3479  1.1319
    7CHTO  H177 2651   5.806   1.264   2.593 -0.3346  1.1801 -0.2036
    7CHTO  C105 2652   5.474   1.246   2.496 -0.1550 -0.4232 -0.5901
    7CHTO  H192 2653   5.497   1.170   2.421  0.1356 -1.1595  0.2273
    7CHTO   O65 2654   5.389   1.343   2.445  0.3986 -0.3069  0.3301
    7CHTO  C100 2655   5.438   1.418   2.334 -0.4081  0.3587  0.5085
    7CHTO  H187 2656   5.433   1.348   2.249  1.2631  1.1841 -0.3075
    7CHTO  C107 2657   5.333   1.533   2.291 -0.0681 -0.0027 -0.2489
    7CHTO   O70 2658   5.207   1.488   2.241 -0.0741 -0.0870  0.2028
    7CHTO  H170 2659   5.214   1.440   2.161  1.3112  0.8983 -0.2721
    7CHTO   O57 2660   5.417   1.167   2.633  0.0748 -0.0737 -0.8881
    7CHTO   C85 2661   5.379   1.029   2.620  0.0954 -0.0568 -0.4478
    7CHTO  H157 2662   5.415   0.981   2.526  0.0910  0.7391 -0.8595
    7CHTO   C83 2663   5.223   1.011   2.608  0.5667 -0.1308 -0.2969
    7CHTO  H155 2664   5.192   1.063   2.517 -0.0299 -0.4214 -0.2624
    7CHTO   O56 2665   5.161   1.079   2.715  0.2934  0.3373 -0.9228
    7CHTO  H135 2666   5.164   1.171   2.697  0.4451  0.8305  1.3705
    7CHTO   C81 2667   5.183   0.864   2.593 -0.0283 -0.0903  0.4474
    7CHTO  H153 2668   5.223   0.830   2.498 -3.7676 -1.0752 -0.8563
    7CHTO   N14 2669   5.036   0.836   2.573  0.3000 -0.2478  0.3920
    7CHTO  H141 2670   5.005   0.762   2.503 -0.1838  3.1581 -3.1564
    7CHTO  H142 2671   4.983   0.928   2.558 -0.1810 -0.4801  0.6761
    7CHTO   C79 2672   5.243   0.779   2.710 -0.6342 -0.3867 -0.2386
    7CHTO  H151 2673   5.245   0.677   2.672  1.9516 -0.2609 -0.5465
    7CHTO   O52 2674   5.390   0.807   2.730 -0.0714 -0.4525  0.2502
    7CHTO   C86 2675   5.426   0.946   2.744 -0.0225  0.0513 -0.0388
    7CHTO  H158 2676   5.375   0.977   2.837 -3.4143 -2.4874 -0.9770
    7CHTO   C90 2677   5.583   0.956   2.771  0.2088  0.1145 -0.0138
    7CHTO   O60 2678   5.643   0.859   2.863 -0.0827  0.4259  0.3689
    7CHTO  H138 2679   5.707   0.897   2.920  3.5040 -2.6767 -1.4198
    7CHTO   O50 2680   5.173   0.811   2.837  0.0240  0.2189  0.6109
    7CHTO   C73 2681   5.179   0.701   2.931 -0.4421 -0.6549  0.4998
    7CHTO  H145 2682   5.281   0.660   2.927  0.4138  1.0806  2.9410
    7CHTO   C74 2683   5.061   0.596   2.907 -0.1565 -0.0835 -0.0391
    7CHTO  H146 2684   5.074   0.552   2.807  1.1007 -0.7235  0.3999
    7CHTO   O54 2685   5.077   0.485   2.998 -0.3300 -0.3221  0.0204
    7CHTO  H133 2686   5.079   0.511   3.088 -0.3976  0.3180 -0.1580
    7CHTO   C75 2687   4.923   0.667   2.922 -1.1799 -0.4257  0.4109
    7CHTO  H147 2688   4.924   0.756   2.857 -0.9520 -0.8083 -0.1132
    7CHTO   N13 2689   4.805   0.584   2.880 -0.4691  0.0447  0.1725
    7CHTO  H139 2690   4.747   0.629   2.801 -0.3082  0.5029  0.3169
    7CHTO  H140 2691   4.754   0.536   2.963  0.2630  0.3176  0.7857
    7CHTO   C76 2692   4.910   0.713   3.069  0.1804  0.3199  0.1777
    7CHTO  H148 2693   4.909   0.626   3.135 -1.5083 -0.5608 -0.9626
    7CHTO   O49 2694   5.023   0.802   3.106 -1.2761  0.2706 -0.3730
    7CHTO   C77 2695   5.153   0.753   3.080 -0.2520  0.0814  0.3169
    7CHTO  H149 2696   5.179   0.673   3.150 -0.8744 -2.3713 -2.1594
    7CHTO   C88 2697   5.240   0.874   3.107 -0.4493 -0.1171  0.2669
    7CHTO   O58 2698   5.396   0.839   3.075 -0.7470  0.2595 -0.2671
    7CHTO  H136 2699   5.454   0.913   3.071  0.0278 -0.2943  0.5365
    7CHTO   O51 2700   4.775   0.806   3.095 -0.4165  0.5262 -0.1906
    7CHTO   C78 2701   4.731   0.821   3.244 -0.4022 -0.2361  0.8462
    7CHTO  H150 2702   4.820   0.799   3.307 -1.8209  1.4409  3.4780
    7CHTO   C80 2703   4.623   0.721   3.270  0.7683 -0.5261  0.4388
    7CHTO  H152 2704   4.548   0.737   3.189  1.5113 -2.8296 -0.7551
    7CHTO   O55 2705   4.675   0.595   3.268 -0.4037  0.0460  0.9754
    7CHTO  H134 2706   4.626   0.520   3.295 -0.5853 -0.2118 -0.0254
    7CHTO   C84 2707   4.567   0.748   3.415  0.5724 -0.6153  0.4601
    7CHTO  H156 2708   4.642   0.722   3.490 -1.6826 -0.5306  2.7977
    7CHTO   N15 2709   4.454   0.664   3.446  1.0301 -0.1075 -0.5697
    7CHTO  H143 2710   4.373   0.674   3.376  0.1524 -1.6699  0.1803
    7CHTO  H144 2711   4.417   0.677   3.545 -0.8154  1.7021 -1.4613
    7CHTO   C87 2712   4.529   0.900   3.439 -0.1289 -0.7113  0.0815
    7CHTO  H159 2713   4.442   0.914   3.375 -0.3505  0.9256  0.7185
    7CHTO   O53 2714   4.644   0.987   3.399 -0.0172  0.0606  0.0879
    7CHTO   C82 2715   4.688   0.964   3.269 -0.6654  0.7338 -0.2070
    7CHTO  H154 2716   4.606   0.993   3.203  0.0257 -0.0507 -1.4278
    7CHTO   C89 2717   4.805   1.066   3.239  0.1217 -0.1351  0.9616
    7CHTO   O59 2718   4.905   1.086   3.347  0.1252  0.9800  0.1393
    7CHTO  H137 2719   4.993   1.082   3.313  0.3781  1.3429  0.7581
    7CHTO   O45 2720   4.494   0.939   3.598  0.4903  0.3541 -0.3061
    7CHTO   C67 2721   4.568   1.045   3.661  0.2837 -0.0970 -0.1617
    7CHTO  H124 2722   4.672   1.040   3.631  0.1919 -0.6992 -0.3785
    7CHTO   C65 2723   4.498   1.189   3.630 -0.9522  0.2538 -0.2271
    7CHTO  H122 2724   4.398   1.157   3.602 -1.1773  0.9406 -0.2099
    7CHTO   O44 2725   4.572   1.246   3.518  0.4366  0.4757  0.2264
    7CHTO  H102 2726   4.641   1.302   3.551  0.0499  1.3672 -0.4492
    7CHTO   C63 2727   4.487   1.286   3.751 -0.2077 -0.7168 -0.1842
    7CHTO  H120 2728   4.403   1.260   3.815  0.6407 -0.9406  0.8749
    7CHTO   N11 2729   4.444   1.423   3.723  0.7349 -0.1834  0.2356
    7CHTO  H108 2730   4.506   1.486   3.663  0.6605 -0.6802 -0.3701
    7CHTO  H109 2731   4.403   1.478   3.806 -0.4146 -0.1980 -0.3109
    7CHTO   C61 2732   4.624   1.262   3.831 -0.6053  0.2578 -0.5298
    7CHTO  H118 2733   4.618   1.334   3.914  0.1673 -1.0870  0.6942
    7CHTO   O40 2734   4.646   1.122   3.887  0.0815 -0.3573  0.0760
    7CHTO   C68 2735   4.564   1.024   3.820 -0.8717  0.0642 -0.3137
    7CHTO  H125 2736   4.465   1.029   3.870 -0.3436  0.6572  0.7010
    7CHTO   C72 2737   4.625   0.887   3.865  0.7935 -0.6012  0.0511
    7CHTO   O48 2738   4.533   0.781   3.864  0.0844 -0.1333 -0.2580
    7CHTO  H105 2739   4.577   0.705   3.895  0.5468  0.1344 -0.2485
    7CHTO   O38 2740   4.735   1.295   3.752 -0.1348 -0.4316 -0.2972
    7CHTO   C55 2741   4.867   1.307   3.815 -1.0774  0.3845  0.6406
    7CHTO  H112 2742   4.875   1.254   3.911 -1.9789 -0.8459  0.0522
    7CHTO   C56 2743   4.912   1.454   3.824 -0.1661  0.1309  0.2184
    7CHTO  H113 2744   4.890   1.498   3.725  2.1217 -1.2277 -0.9391
    7CHTO   O42 2745   4.824   1.517   3.922  0.3553  0.0495  0.3750
    7CHTO  H100 2746   4.736   1.526   3.889  0.8364 -2.6215 -1.8672
    7CHTO   C57 2747   5.065   1.473   3.860 -0.9599 -0.5001 -0.6522
    7CHTO  H114 2748   5.073   1.430   3.960  0.0836 -2.7067 -1.6479
    7CHTO   N10 2749   5.102   1.614   3.850  0.3444  0.8157  0.5238
    7CHTO  H106 2750   5.079   1.675   3.936 -0.0769  0.5391  0.6046
    7CHTO  H107 2751   5.209   1.615   3.833  0.6806  0.3497  2.4481
    7CHTO   C58 2752   5.150   1.390   3.762  0.4039 -0.1639 -0.6327
    7CHTO  H115 2753   5.135   1.434   3.661 -0.6776  1.2677  0.1369
    7CHTO   O37 2754   5.110   1.255   3.772  0.2466  0.5368 -0.6605
    7CHTO   C59 2755   4.972   1.231   3.719  0.3272 -0.0993 -0.0620
    7CHTO  H116 2756   4.976   1.262   3.614  2.1233 -0.1461 -0.0248
    7CHTO   C70 2757   4.939   1.082   3.715 -0.2372  0.3702 -0.1302
    7CHTO   O46 2758   5.023   0.988   3.649  0.0886 -0.3728  0.2190
    7CHTO  H103 2759   5.024   1.015   3.559 -0.1510  3.1854  1.2031
    7CHTO   O39 2760   5.317   1.400   3.795  0.7140 -0.3717 -0.0342
    7CHTO   C60 2761   5.394   1.305   3.721 -0.0429  0.1674  0.8426
    7CHTO  H117 2762   5.355   1.205   3.738  1.6156 -0.3989  1.4150
    7CHTO   C62 2763   5.400   1.337   3.561 -0.1052 -0.4094  0.1476
    7CHTO  H119 2764   5.301   1.310   3.521 -0.9774  1.2065  1.1538
    7CHTO   O43 2765   5.444   1.473   3.542  0.0567 -0.1115 -0.2224
    7CHTO  H101 2766   5.462   1.488   3.451  0.6227 -0.8566 -0.2449
    7CHTO   C66 2767   5.498   1.233   3.494 -0.0556 -1.0090 -0.0758
    7CHTO  H123 2768   5.469   1.134   3.530 -0.6904  0.0050  2.3511
    7CHTO   N12 2769   5.491   1.227   3.346  0.0985  0.6173 -0.1095
    7CHTO  H110 2770   5.517   1.323   3.306 -0.7065  0.9377  0.1169
    7CHTO  H111 2771   5.545   1.146   3.299  0.0148 -0.5568  1.7247
    7CHTO   C69 2772   5.645   1.257   3.548  0.1157 -0.1180 -0.4616
    7CHTO  H126 2773   5.682   1.360   3.527  0.3470 -0.5169 -2.0753
    7CHTO   O41 2774   5.644   1.226   3.712  0.0703 -0.8915 -0.3224
    7CHTO   C64 2775   5.533   1.316   3.793 -0.0492  0.1111  0.0383
    7CHTO  H121 2776   5.571   1.417   3.820  0.2247 -0.1857  0.7727
    7CHTO   C71 2777   5.521   1.252   3.933  0.5572 -1.0093  0.3781
    7CHTO   O47 2778   5.651   1.255   3.998  0.0357 -0.2698 -0.1746
    7CHTO  H104 2779   5.650   1.213   4.082 -4.7817  0.5860  0.3716
    7CHTO   O34 2780   5.765   1.148   3.490  0.1615  0.0882 -0.3181
    7CHTO   C49 2781   5.823   1.054   3.389 -0.1649 -0.4116 -0.1818
    7CHTO   H91 2782   5.913   1.010   3.432 -0.1907 -0.2140  0.0760
    7CHTO   C47 2783   5.870   1.125   3.254  0.5780 -0.4763 -0.3293
    7CHTO   H89 2784   5.974   1.161   3.267  0.2259  0.1065  0.9855
    7CHTO   O33 2785   5.779   1.226   3.233 -0.7439 -0.4276 -0.1353
    7CHTO   H70 2786   5.826   1.303   3.207 -0.3739 -0.4734  0.4135
    7CHTO   C45 2787   5.861   1.027   3.124  0.3833 -0.2673 -0.0716
    7CHTO   H87 2788   5.763   1.050   3.079  0.5680  1.2979  0.2906
    7CHTO    N8 2789   5.973   1.058   3.033 -0.5033  0.3676  0.1271
    7CHTO   H75 2790   5.959   1.014   2.936  1.3208 -1.6953  0.7446
    7CHTO   H76 2791   6.065   1.013   3.068 -0.1279  0.1127 -1.1717
    7CHTO   C43 2792   5.856   0.873   3.165 -0.7661 -0.6415  0.3352
    7CHTO   H85 2793   5.845   0.822   3.069  3.0624  2.3334 -1.8606
    7CHTO   O29 2794   5.746   0.842   3.251  0.0662 -0.5550  0.5135
    7CHTO   C50 2795   5.726   0.930   3.361  0.5359  0.1332 -0.3909
    7CHTO   H92 2796   5.628   0.976   3.344  0.2832  0.5080  1.8961
    7CHTO   C54 2797   5.710   0.846   3.485  0.7875  0.1065  0.4230
    7CHTO   O36 2798   5.830   0.802   3.547  0.0264  0.1745  0.6649
    7CHTO   H72 2799   5.855   0.868   3.609 -3.2906  2.3584 -0.1517
    7CHTO   O27 2800   5.971   0.827   3.234  1.1303  0.4437  0.3093
    7CHTO   C37 2801   6.045   0.710   3.282 -0.2796 -0.5340  0.3286
    7CHTO   H79 2802   6.047   0.708   3.392 -2.7354 -0.7094  0.4017
    7CHTO   C38 2803   5.970   0.580   3.242 -0.3273  0.5825 -0.5095
    7CHTO   H80 2804   5.966   0.570   3.133  1.8204  0.0498 -0.5667
    7CHTO   O31 2805   5.836   0.586   3.296 -0.2569 -0.0562 -0.0830
    7CHTO   H68 2806   5.839   0.575   3.390  1.1432  1.9539  0.1465
    7CHTO   C39 2807   6.038   0.446   3.297  0.5725 -0.3415 -0.4579
    7CHTO   H81 2808   6.026   0.442   3.405  2.3646 -0.7970 -0.2536
    7CHTO    N7 2809   5.970   0.316   3.248 -0.6721 -0.3015 -0.5465
    7CHTO   H73 2810   5.876   0.332   3.198 -1.6107 -2.9497  0.2988
    7CHTO   H74 2811   6.037   0.246   3.202  0.4852 -0.7657  1.7798
    7CHTO   C40 2812   6.199   0.447   3.265 -0.4755 -0.3742 -0.0468
    7CHTO   H82 2813   6.215   0.414   3.162  0.3886 -2.2087  0.6466
    7CHTO   O26 2814   6.254   0.575   3.293  0.0344 -0.1020  0.2606
    7CHTO   C41 2815   6.186   0.690   3.225  0.1947  0.2662 -0.0848
    7CHTO   H83 2816   6.176   0.665   3.118  1.6202  0.3444 -0.2439
    7CHTO   C52 2817   6.275   0.818   3.244 -0.0344 -0.2516 -0.0987
    7CHTO   O35 2818   6.393   0.798   3.176 -0.3264 -0.5098  0.1734
    7CHTO   H71 2819   6.443   0.877   3.174  0.2683 -0.8839  0.1179
    7CHTO   O28 2820   6.269   0.348   3.348 -0.1522 -0.5562 -0.4350
    7CHTO   C42 2821   6.400   0.295   3.299 -0.0761  1.0153  0.4784
    7CHTO   H84 2822   6.444   0.232   3.376  0.5999 -0.2617 -0.9302
    7CHTO   C44 2823   6.515   0.399   3.258 -0.4476 -0.3476  0.5163
    7CHTO   H86 2824   6.481   0.464   3.178 -0.3520  0.1852  0.9012
    7CHTO   O32 2825   6.530   0.487   3.377 -0.3430  0.7073 -0.6313
    7CHTO   H69 2826   6.585   0.563   3.377 -0.0592  0.5024 -0.0915
    7CHTO   C48 2827   6.647   0.319   3.214  0.0393 -0.7221  0.0593
    7CHTO   H90 2828   6.673   0.257   3.300 -2.4619 -0.2422  1.2370
    7CHTO    N9 2829   6.754   0.417   3.178  0.0327 -0.0702  0.0765
    7CHTO   H77 2830   6.769   0.483   3.262  2.6985 -1.1532  0.5103
    7CHTO   H78 2831   6.849   0.366   3.165  0.8141  1.0255  1.3443
    7CHTO   C51 2832   6.613   0.228   3.094  0.4968  0.4089  0.8584
    7CHTO   H93 2833   6.576   0.295   3.017  0.1219  0.3744  1.0070
    7CHTO   O30 2834   6.510   0.133   3.137 -0.1247 -0.1919 -0.1133
    7CHTO   C46 2835   6.377   0.201   3.176 -0.2304  0.3544 -0.3244
    7CHTO   H88 2836   6.356   0.250   3.081  1.5989  0.2514 -0.7921
    7CHTO   C53 2837   6.288   0.080   3.217  0.1362  0.4007  0.7198
    7CHTO   O72 2838   6.321   0.042   3.344 -0.1680 -0.3266  0.2109
    7CHTO  H199 2839   6.309   0.115   3.401  0.1020  0.2645 -0.4832
    7CHTO   O22 2840   6.712   0.144   3.038  0.0660 -0.2003  0.1709
    7CHTO   C31 2841   6.697   0.094   2.898 -0.8486 -0.9391 -0.2538
    7CHTO   H59 2842   6.771   0.012   2.885  0.3408 -0.1888  1.6389
    7CHTO   C29 2843   6.564   0.030   2.856  0.6694 -0.2883 -0.2310
    7CHTO   H57 2844   6.479   0.097   2.876  1.3976  1.0910 -1.6388
    7CHTO   O21 2845   6.539  -0.082   2.938 -0.0737  0.7656 -0.1975
    7CHTO   H37 2846   6.606  -0.147   2.947 -0.8522  0.2648  2.5190
    7CHTO   C27 2847   6.567  -0.003   2.703  0.5601  0.2411 -0.3161
    7CHTO   H55 2848   6.641  -0.082   2.683 -1.7844 -2.0714 -0.0394
    7CHTO    N5 2849   6.428  -0.048   2.661 -0.2007 -0.1153  0.7225
    7CHTO   H43 2850   6.430  -0.060   2.554  0.5191  0.9822  0.6064
    7CHTO   H44 2851   6.382  -0.133   2.709  2.2781 -2.6635 -1.3011
    7CHTO   C25 2852   6.595   0.130   2.617 -0.3661  0.4668  0.3229
    7CHTO   H53 2853   6.527   0.212   2.643  1.9183  1.8748  2.0695
    7CHTO   O17 2854   6.732   0.165   2.664 -0.1515  0.5465  0.2210
    7CHTO   C32 2855   6.744   0.198   2.800 -0.5024 -0.4321  0.4785
    7CHTO   H60 2856   6.683   0.286   2.821 -1.4109 -1.2134  1.1634
    7CHTO   C36 2857   6.885   0.248   2.822  0.0732 -0.4192  0.0528
    7CHTO   O25 2858   6.912   0.374   2.759 -0.6499  0.5479  0.2765
    7CHTO   H40 2859   6.980   0.362   2.696  1.4624 -0.3327  2.5923
    7CHTO   O15 2860   6.594   0.117   2.455  0.1287  0.7239  0.2441
    7CHTO   C19 2861   6.585   0.236   2.367 -0.1842  0.0952 -0.1902
    7CHTO   H47 2862   6.603   0.205   2.263  1.5875 -0.3382  0.2279
    7CHTO   C20 2863   6.443   0.310   2.383  0.1466  0.5240  0.1033
    7CHTO   H48 2864   6.417   0.329   2.488 -0.0966 -1.0872  0.3411
    7CHTO   O19 2865   6.345   0.221   2.343  0.0296 -0.2582 -0.0676
    7CHTO   H35 2866   6.376   0.167   2.272  3.8931 -2.0823  2.8079
    7CHTO   C21 2867   6.440   0.448   2.300 -0.3752  0.6199 -0.0126
    7CHTO   H49 2868   6.436   0.425   2.193  0.3680  1.9173 -0.3339
    7CHTO    N4 2869   6.320   0.525   2.339 -0.8394  0.6180  0.2506
    7CHTO   H41 2870   6.306   0.600   2.263 -2.2560 -0.2205 -0.3347
    7CHTO   H42 2871   6.232   0.462   2.345 -0.3892 -0.0296  0.0967
    7CHTO   C22 2872   6.567   0.532   2.315 -0.2796 -0.1474  0.8500
    7CHTO   H50 2873   6.574   0.578   2.413  0.2487  0.4942  0.5130
    7CHTO   O14 2874   6.678   0.445   2.288  0.2697 -0.2508 -1.3153
    7CHTO   C23 2875   6.693   0.337   2.388 -0.4271 -0.5518  0.1179
    7CHTO   H51 2876   6.689   0.386   2.486  0.1340  0.8191 -0.5274
    7CHTO   C34 2877   6.840   0.285   2.377  0.1300 -0.5628  0.1400
    7CHTO   O23 2878   6.872   0.225   2.253 -0.0427 -0.3746  0.3697
    7CHTO   H38 2879   6.897   0.135   2.260  0.6669 -0.3040 -0.9692
    7CHTO   O16 2880   6.588   0.633   2.213  0.1703  0.0142 -0.1916
    7CHTO   C24 2881   6.626   0.774   2.256  0.0873  1.2725 -0.1501
    7CHTO   H52 2882   6.640   0.782   2.364  1.2109 -1.0221 -0.0989
    7CHTO   C26 2883   6.516   0.873   2.214  1.1129  0.1448  0.0896
    7CHTO   H54 2884   6.497   0.869   2.105 -0.8080  1.7034  0.3310
    7CHTO   O20 2885   6.393   0.833   2.290 -0.0080  0.7824 -0.2193
    7CHTO   H36 2886   6.328   0.897   2.273 -1.4066 -0.4349  0.4371
    7CHTO   C30 2887   6.562   1.015   2.256  0.4479  0.2752  0.2748
    7CHTO   H58 2888   6.562   1.026   2.366  0.0876  1.8625  0.1338
    7CHTO    N6 2889   6.463   1.106   2.205 -0.5636  0.1197 -0.2769
    7CHTO   H45 2890   6.370   1.062   2.172  1.0407 -1.2021 -3.2952
    7CHTO   H46 2891   6.508   1.166   2.127  0.0163  0.8968  0.6408
    7CHTO   C33 2892   6.707   1.055   2.213 -0.0413  0.0375  0.3257
    7CHTO   H61 2893   6.712   1.075   2.105  1.8317  2.4080  0.8297
    7CHTO   O18 2894   6.795   0.945   2.245  0.0157  0.0275 -0.2519
    7CHTO   C28 2895   6.755   0.815   2.194 -0.4780 -0.0804 -0.4561
    7CHTO   H56 2896   6.745   0.813   2.085  0.1915  3.8843 -0.6581
    7CHTO   C35 2897   6.859   0.707   2.238 -0.3811 -0.1010 -0.6785
    7CHTO   O24 2898   6.984   0.714   2.164 -0.2386  0.1651  0.0912
    7CHTO   H39 2899   7.056   0.702   2.224  0.0839  1.2710 -0.0757
    7CHTO    O9 2900   6.753   1.172   2.267  0.7934 -0.4272 -0.0540
    7CHTO   C13 2901   6.896   1.205   2.215  0.1000 -0.4569  0.0033
    7CHTO   H26 2902   6.918   1.143   2.126  0.6607 -1.2818  0.7162
    7CHTO   C11 2903   6.987   1.172   2.336  0.3758  0.0664  0.3993
    7CHTO   H24 2904   7.003   1.063   2.337 -0.2619 -0.0302  0.3214
    7CHTO    O8 2905   6.935   1.215   2.467 -0.0858 -0.4044  0.0342
    7CHTO    H3 2906   6.995   1.198   2.537 -0.8007 -0.2402  0.6942
    7CHTO    C9 2907   7.122   1.248   2.308 -0.3337 -0.5350  0.6023
    7CHTO   H22 2908   7.143   1.223   2.203 -2.4921  1.0703 -0.2649
    7CHTO    N2 2909   7.234   1.205   2.387  0.1107  0.3785 -0.2786
    7CHTO   H10 2910   7.223   1.107   2.432  0.0276  0.5937  0.1785
    7CHTO   H11 2911   7.333   1.218   2.347  1.2643 -2.4442  1.4553
    7CHTO    C7 2912   7.102   1.404   2.309 -0.4500  0.1195 -0.1311
    7CHTO   H20 2913   7.179   1.446   2.240  1.1147 -2.4174 -0.0067
    7CHTO    O4 2914   6.971   1.450   2.263  0.7456  0.9686 -0.4272
    7CHTO   C14 2915   6.899   1.363   2.170  0.3011 -0.5457 -0.1600
    7CHTO   H27 2916   6.947   1.369   2.070  0.2213  1.6968 -0.0765
    7CHTO   C18 2917   6.754   1.426   2.160 -0.6883  0.4684  0.5333
    7CHTO   O13 2918   6.750   1.545   2.092 -0.1760  0.2691  0.8388
    7CHTO    H7 2919   6.671   1.555   2.043 -0.4297  0.4566  1.2804
    7CHTO    O2 2920   7.114   1.464   2.466  0.1032 -0.1708 -1.0037
    7CHTO    C1 2921   7.159   1.608   2.466 -0.2527  0.1111  0.2663
    7CHTO   H14 2922   7.108   1.657   2.380  0.6281  0.3960 -0.1026
    7CHTO    C2 2923   7.316   1.638   2.457  0.7833  0.0986  0.6368
    7CHTO   H15 2924   7.368   1.591   2.542  3.3525 -0.1391 -0.9968
    7CHTO    O6 2925   7.374   1.579   2.336  0.5092  0.0890  0.7248
    7CHTO    H1 2926   7.464   1.554   2.349  0.1379 -1.6756  0.1228
    7CHTO    C3 2927   7.325   1.795   2.463 -0.2437 -0.3880  0.0967
    7CHTO   H16 2928   7.277   1.834   2.372  1.4974 -1.4920 -1.3378
    7CHTO    N1 2929   7.472   1.830   2.453  0.2274  0.3746 -0.3731
    7CHTO    H8 2930   7.492   1.907   2.381  0.9570  0.9257  0.4085
    7CHTO    H9 2931   7.508   1.857   2.552 -0.5525 -2.2178  0.6630
    7CHTO    C4 2932   7.256   1.865   2.592  0.1662  0.3171  0.3380
    7CHTO   H17 2933   7.304   1.829   2.683  2.1864 -0.9537 -1.1827
    7CHTO    O1 2934   7.118   1.825   2.596 -0.3072  0.2634 -0.1728
    7CHTO    C5 2935   7.103   1.680   2.599  0.5328  0.6991 -0.1341
    7CHTO   H18 2936   7.160   1.641   2.684 -1.3176 -0.4132  0.6479
    7CHTO   C16 2937   6.955   1.637   2.625  0.4151 -0.0806  0.6557
    7CHTO   O11 2938   6.865   1.702   2.533 -0.1870 -0.7016  0.1805
    7CHTO    H5 2939   6.819   1.636   2.484  0.5754  0.1172 -1.6721
    7CHTO    O3 2940   7.262   2.012   2.591  0.5075  0.2455 -1.2079
    7CHTO    C6 2941   7.337   2.086   2.696  0.4649 -0.8594  0.0407
    7CHTO   H19 2942   7.415   2.025   2.742  2.5371  1.1708 -0.7088
    7CHTO    C8 2943   7.416   2.213   2.639 -0.0353  0.1346 -0.5774
    7CHTO   H21 2944   7.337   2.272   2.593 -1.2192 -0.4167  0.6972
    7CHTO    O7 2945   7.505   2.170   2.537 -0.3719  0.1354 -0.3256
    7CHTO    H2 2946   7.580   2.125   2.571 -0.2354  0.6800  0.0927
    7CHTO   C12 2947   7.489   2.293   2.750  0.1051 -0.0715  0.3073
    7CHTO   H25 2948   7.574   2.241   2.798  1.3559  0.4114 -1.3620
    7CHTO    N3 2949   7.560   2.417   2.699 -0.6327 -0.5455 -0.6518
    7CHTO   H12 2950   7.609   2.474   2.776  0.6047 -2.0683 -0.2902
    7CHTO   H13 2951   7.488   2.483   2.653 -0.9558  0.9895  1.9824
    7CHTO   C15 2952   7.381   2.321   2.858 -0.0940  0.1208  0.1370
    7CHTO   H28 2953   7.322   2.407   2.824  0.8761  0.5022 -0.6133
    7CHTO   O10 2954   7.439   2.372   2.980 -0.3264 -0.6789 -0.0038
    7CHTO    H4 2955   7.484   2.304   3.027 -0.2084  0.0684  0.9682
    7CHTO    O5 2956   7.309   2.209   2.903  0.2097  0.3364  0.0660
    7CHTO   C10 2957   7.239   2.129   2.807 -0.2791 -0.1887 -0.1979
    7CHTO   H23 2958   7.168   2.196   2.758  2.0931  2.2950 -0.3299
    7CHTO   C17 2959   7.151   2.023   2.879 -0.7140 -0.0059  0.5243
    7CHTO   O12 2960   7.074   2.085   2.989 -0.5586  1.0403  0.2941
    7CHTO    H6 2961   6.991   2.118   2.959 -1.6607 -1.1001  0.8955
    8CHTO  H203 2962   6.851   8.407   1.320 -0.5910 -0.6276  1.2458
    8CHTO   O82 2963   6.903   8.458   1.379 -0.1694  0.0624  0.3003
    8CHTO  C123 2964   6.864   8.442   1.518  0.8506  0.0657  0.0127
    8CHTO  H227 2965   6.948   8.440   1.588  1.5559 -1.0940 -0.8422
    8CHTO   O77 2966   6.801   8.574   1.526  0.4131 -0.2167 -0.4517
    8CHTO  C118 2967   6.716   8.610   1.636  0.2116  0.0340 -0.2434
    8CHTO  H222 2968   6.778   8.622   1.726  0.2580 -0.2927 -0.2322
    8CHTO  C125 2969   6.667   8.757   1.596  0.8144 -0.1428  0.3323
    8CHTO   O84 2970   6.777   8.856   1.589 -0.4957  0.2708 -0.1569
    8CHTO  H205 2971   6.795   8.874   1.679 -3.7332 -3.4370  1.4299
    8CHTO  C114 2972   6.606   8.502   1.659  0.0375 -0.5760 -0.6536
    8CHTO  H218 2973   6.544   8.503   1.570  1.2322  1.8766 -1.4883
    8CHTO  C116 2974   6.676   8.369   1.683  0.8035 -0.2283  0.1299
    8CHTO  H220 2975   6.733   8.372   1.778  0.1696 -0.4850  0.5259
    8CHTO   O79 2976   6.578   8.273   1.708  0.5997 -0.0225 -0.3012
    8CHTO  H201 2977   6.613   8.191   1.738 -0.4849 -0.1624  0.6361
    8CHTO  C120 2978   6.757   8.329   1.543  1.4273 -0.3871  0.0452
    8CHTO  H224 2979   6.688   8.326   1.456 -0.3170 -0.8442  1.3882
    8CHTO   N21 2980   6.812   8.194   1.548  0.2156 -0.1273  0.1568
    8CHTO  H211 2981   6.897   8.182   1.482  0.9380  0.8246  0.8938
    8CHTO  H212 2982   6.829   8.171   1.652  0.5863  0.2115  0.1732
    8CHTO   O75 2983   6.526   8.550   1.768  0.2677  0.9893  0.3475
    8CHTO  C112 2984   6.353   8.569   1.729  0.2940 -0.7287 -0.4735
    8CHTO  H216 2985   6.307   8.470   1.713  2.5556 -2.3689  2.5020
    8CHTO   O73 2986   6.339   8.657   1.622 -0.9086  0.1588  0.3265
    8CHTO  C113 2987   6.202   8.672   1.584 -0.4492  0.7565  0.1964
    8CHTO  H217 2988   6.154   8.571   1.584  1.4873 -0.1795  0.2821
    8CHTO  C124 2989   6.193   8.734   1.443 -0.7397 -0.2876 -0.0225
    8CHTO   O83 2990   6.242   8.660   1.336 -0.8377 -0.2036 -0.1468
    8CHTO  H204 2991   6.309   8.697   1.282 -0.1237  2.3944  2.4563
    8CHTO  C109 2992   6.137   8.766   1.692  0.7732 -0.2103 -0.1877
    8CHTO  H213 2993   6.190   8.862   1.686 -0.8253  0.6314 -1.4095
    8CHTO  C110 2994   6.145   8.678   1.826 -0.1205 -0.8931  0.1383
    8CHTO  H214 2995   6.090   8.586   1.811 -1.6469 -0.0570  0.5250
    8CHTO   O78 2996   6.101   8.765   1.931 -0.5708 -0.0300 -0.0945
    8CHTO  H200 2997   6.117   8.723   2.013  0.3585 -0.0630 -0.2955
    8CHTO  C111 2998   6.293   8.639   1.855  0.4586  0.3048 -0.5136
    8CHTO  H215 2999   6.349   8.729   1.884 -2.6759  2.9637 -2.4842
    8CHTO   N19 3000   6.296   8.541   1.973  0.4172  0.7618 -0.1717
    8CHTO  H207 3001   6.246   8.447   1.957 -2.0729  1.7828  1.1567
    8CHTO  H208 3002   6.247   8.590   2.057 -1.9480 -1.0115 -0.4521
    8CHTO   O74 3003   5.999   8.789   1.667  0.4090 -0.3764 -0.3391
    8CHTO  C115 3004   5.894   8.673   1.634 -0.2227  0.3490 -0.0659
    8CHTO  H219 3005   5.939   8.592   1.577  0.2526 -0.0423  0.8603
    8CHTO   O76 3006   5.849   8.602   1.758  0.2706 -0.0584 -0.5719
    8CHTO  C122 3007   5.773   8.688   1.845 -1.0519 -0.1294  0.2850
    8CHTO  H226 3008   5.835   8.776   1.865 -0.0177 -1.0582  1.2091
    8CHTO  C126 3009   5.735   8.627   1.987 -0.3576  0.0791  0.2170
    8CHTO   O85 3010   5.846   8.599   2.072  0.0240  0.0027  0.2470
    8CHTO  H206 3011   5.817   8.607   2.161 -1.7362 -0.0490 -0.3078
    8CHTO  C121 3012   5.639   8.732   1.775  0.3030 -0.6015  0.1082
    8CHTO  H225 3013   5.580   8.645   1.741 -0.5164  0.8494 -2.3013
    8CHTO   O81 3014   5.559   8.811   1.867 -0.1333  0.2906 -0.1122
    8CHTO  H202 3015   5.524   8.749   1.928 -2.1291 -0.5872 -2.0718
    8CHTO  C119 3016   5.676   8.820   1.647  0.3371 -0.1038  0.0627
    8CHTO  H223 3017   5.584   8.853   1.599  0.0817  0.1504  0.7244
    8CHTO  C117 3018   5.775   8.743   1.546  0.3777 -0.6399 -0.1357
    8CHTO  H221 3019   5.832   8.802   1.475 -0.2203 -0.0836 -0.1646
    8CHTO   N20 3020   5.698   8.649   1.462 -0.2174  0.0777  0.3717
    8CHTO  H209 3021   5.605   8.699   1.438 -0.3873 -0.1803  0.4880
    8CHTO  H210 3022   5.692   8.554   1.513  0.0144 -0.5728 -0.7919
    8CHTO   O80 3023   5.740   8.953   1.700 -0.0980 -0.5229 -0.4534
    8CHTO  C103 3024   5.662   9.093   1.687 -0.3455 -0.2842  0.5986
    8CHTO  H190 3025   5.554   9.086   1.693 -0.0988 -3.0078  2.7924
    8CHTO  C101 3026   5.696   9.194   1.799 -1.2527 -1.1093  0.6300
    8CHTO  H188 3027   5.805   9.193   1.811 -1.0407  1.3713 -0.6320
    8CHTO   O68 3028   5.639   9.144   1.941 -0.1334  0.1843  0.0660
    8CHTO  H168 3029   5.545   9.135   1.936 -0.0805 -1.4879  1.4839
    8CHTO   C99 3030   5.668   9.352   1.759  0.2260  0.3393  0.2705
    8CHTO  H186 3031   5.559   9.367   1.760  0.1206 -0.2950 -0.8435
    8CHTO   N17 3032   5.733   9.450   1.853 -0.6054 -0.2926  0.3437
    8CHTO  H174 3033   5.839   9.427   1.857 -0.7144 -0.8205  0.1817
    8CHTO  H175 3034   5.692   9.444   1.953 -2.6286 -0.1573 -0.4574
    8CHTO   C97 3035   5.717   9.376   1.609 -0.0179 -0.1887  0.6788
    8CHTO  H184 3036   5.826   9.369   1.616 -0.1433 -2.4725  0.9576
    8CHTO   O64 3037   5.667   9.280   1.516 -0.6538 -0.1857 -0.2856
    8CHTO  C104 3038   5.704   9.148   1.534  0.0178 -0.1391 -0.6845
    8CHTO  H191 3039   5.811   9.139   1.514 -0.1998 -0.1965 -1.8133
    8CHTO  C108 3040   5.636   9.069   1.419  0.5804 -0.0162 -0.0856
    8CHTO   O71 3041   5.492   9.095   1.429  0.2295 -0.0596  0.7880
    8CHTO  H171 3042   5.458   9.107   1.515 -0.6692  1.8109  0.2064
    8CHTO   O62 3043   5.654   9.502   1.566 -1.1988 -0.6263 -0.0701
    8CHTO   C91 3044   5.732   9.588   1.475  0.0254 -0.1237  0.3748
    8CHTO  H178 3045   5.834   9.558   1.451  0.5709  1.8470  0.1857
    8CHTO   C92 3046   5.753   9.728   1.545 -0.0323 -0.0053  0.2133
    8CHTO  H179 3047   5.659   9.758   1.595 -0.8364 -1.3348 -0.4784
    8CHTO   O66 3048   5.846   9.702   1.651  0.1745 -0.3744 -0.1750
    8CHTO  H166 3049   5.932   9.736   1.636  0.3274  0.8949  3.2084
    8CHTO   C93 3050   5.803   9.841   1.453 -0.2704  0.3656 -0.9426
    8CHTO  H180 3051   5.909   9.816   1.439  0.1425  0.7726  1.3238
    8CHTO   N16 3052   5.788   9.980   1.508 -1.0550  0.1254 -0.0726
    8CHTO  H172 3053   5.696  10.028   1.480 -1.0658  1.1030  1.5720
    8CHTO  H173 3054   5.813   9.981   1.613  1.4986 -0.8768 -0.6224
    8CHTO   C94 3055   5.734   9.836   1.316 -0.0108 -0.2962 -0.1835
    8CHTO  H181 3056   5.635   9.881   1.313  0.3684  0.4875 -1.5570
    8CHTO   O61 3057   5.719   9.702   1.257 -0.2935  0.0482  0.0197
    8CHTO   C95 3058   5.658   9.607   1.339  0.8342  1.1727  0.3160
    8CHTO  H182 3059   5.552   9.632   1.346  0.0054 -2.0020 -0.1588
    8CHTO  C106 3060   5.661   9.472   1.250  0.3709  0.3082 -0.4462
    8CHTO   O69 3061   5.794   9.442   1.207  0.4772 -0.6015  0.3068
    8CHTO  H169 3062   5.805   9.514   1.148 -0.9322 -1.0804 -0.5578
    8CHTO   O63 3063   5.831   9.907   1.194 -0.9169  0.4052  0.0192
    8CHTO   C96 3064   5.762   9.928   1.057  0.0918 -0.1919  0.6026
    8CHTO  H183 3065   5.688   9.848   1.052  0.6897 -0.6282 -2.2536
    8CHTO   C98 3066   5.851   9.896   0.934  0.6341  0.4224 -0.2154
    8CHTO  H185 3067   5.926   9.977   0.933  1.8141 -0.6726 -0.9578
    8CHTO   O67 3068   5.920   9.772   0.955 -0.3909  0.1221 -0.2450
    8CHTO  H167 3069   5.864   9.698   0.947  1.1081 -0.9482 -0.9734
    8CHTO  C102 3070   5.765   9.904   0.798  1.2542  0.6070 -0.2137
    8CHTO  H189 3071   5.686   9.828   0.810  1.6182  0.3659  0.7842
    8CHTO   N18 3072   5.834   9.871   0.673  0.6751 -0.4041 -0.6999
    8CHTO  H176 3073   5.909   9.793   0.682 -0.2586 -1.3462 -0.9561
    8CHTO  H177 3074   5.762   9.836   0.600  1.4541  0.1379 -1.7504
    8CHTO  C105 3075   5.692  10.046   0.797  0.5655  0.1781 -0.5206
    8CHTO  H192 3076   5.763  10.125   0.771 -0.2580  0.6685 -1.2939
    8CHTO   O65 3077   5.617  10.072   0.918  0.4126 -0.4539  0.4385
    8CHTO  C100 3078   5.693  10.072   1.045  0.1642  0.2472  0.2128
    8CHTO  H187 3079   5.768  10.152   1.038 -0.9615  1.2988  0.1766
    8CHTO  C107 3080   5.599  10.107   1.158  0.3427  0.3041 -0.3476
    8CHTO   O70 3081   5.531  10.230   1.142 -0.2625  0.2095 -0.1876
    8CHTO  H170 3082   5.502  10.238   1.053 -0.3891 -1.3599 -0.2881
    8CHTO   O57 3083   5.579  10.022   0.673 -0.0450 -0.6994 -0.0167
    8CHTO   C85 3084   5.514  10.123   0.600 -0.9293 -0.8640  0.4382
    8CHTO  H157 3085   5.592  10.182   0.547 -1.6384 -1.4393 -1.2557
    8CHTO   C83 3086   5.449  10.219   0.699  0.6447 -0.2531  0.7937
    8CHTO  H155 3087   5.529  10.259   0.761  1.0282  0.7639 -0.3572
    8CHTO   O56 3088   5.359  10.143   0.786  0.9634  0.3485  0.0087
    8CHTO  H135 3089   5.299  10.203   0.826 -0.7584 -1.0014 -0.4642
    8CHTO   C81 3090   5.379  10.337   0.617  0.3656 -0.3714 -0.9056
    8CHTO  H153 3091   5.459  10.383   0.559 -0.5521  1.2760 -0.9030
    8CHTO   N14 3092   5.331  10.445   0.709  0.6527  0.3222 -0.4475
    8CHTO  H141 3093   5.285  10.420   0.802  1.6167  1.4685  0.3502
    8CHTO  H142 3094   5.412  10.512   0.730  0.6529  0.3277 -0.4657
    8CHTO   C79 3095   5.278  10.277   0.505 -0.3277 -0.4318  0.0316
    8CHTO  H151 3096   5.255  10.358   0.436 -0.4418  0.8183  1.5135
    8CHTO   O52 3097   5.335  10.167   0.426  0.0365  0.4202 -0.2771
    8CHTO   C86 3098   5.411  10.066   0.499 -0.0773 -0.0954 -0.1534
    8CHTO  H158 3099   5.333  10.001   0.544 -0.2221  1.0227  1.2550
    8CHTO   C90 3100   5.486   9.974   0.399  0.6556  0.4590  0.3577
    8CHTO   O60 3101   5.397   9.906   0.308 -0.6737  0.3642 -0.5505
    8CHTO  H138 3102   5.431   9.827   0.272  1.0883  0.4666  0.7580
    8CHTO   O50 3103   5.162  10.214   0.560 -0.0714  0.1285 -0.1004
    8CHTO   C73 3104   5.024  10.177   0.554  0.7248  0.4548 -0.6451
    8CHTO  H145 3105   4.990  10.146   0.454 -2.2142  1.0711  0.1095
    8CHTO   C74 3106   4.937  10.306   0.600 -0.1816  0.1680  0.4934
    8CHTO  H146 3107   4.964  10.391   0.536  3.5426 -3.0408 -2.4693
    8CHTO   O54 3108   4.803  10.266   0.577  0.0710 -0.4056 -0.1217
    8CHTO  H133 3109   4.744  10.286   0.647  0.8116  2.0468 -0.1453
    8CHTO   C75 3110   4.960  10.335   0.762  0.4523  0.1228 -0.0991
    8CHTO  H147 3111   5.066  10.363   0.778  0.6482 -0.6282 -0.0590
    8CHTO   N13 3112   4.886  10.447   0.825 -0.4578 -0.2382 -0.5107
    8CHTO  H139 3113   4.831  10.508   0.754 -1.2056 -2.0854 -1.5381
    8CHTO  H140 3114   4.815  10.416   0.900  1.0682 -0.3576  0.9006
    8CHTO   C76 3115   4.957  10.195   0.843  0.3953 -0.3276 -0.3019
    8CHTO  H148 3116   4.853  10.163   0.849  0.4097 -0.1642  0.9652
    8CHTO   O49 3117   5.041  10.092   0.776 -0.1854 -0.4136  0.2367
    8CHTO   C77 3118   4.995  10.061   0.644 -0.1571 -0.1566  0.3430
    8CHTO  H149 3119   4.887  10.044   0.649 -0.2002 -0.9060 -2.0933
    8CHTO   C88 3120   5.064   9.933   0.603 -0.6204  0.2594 -0.4070
    8CHTO   O58 3121   5.026   9.913   0.461 -0.0880  0.8958  0.0390
    8CHTO  H136 3122   5.092   9.857   0.427  1.4668  0.8941  2.8577
    8CHTO   O51 3123   5.021  10.208   0.993 -0.2512  0.2250 -0.1541
    8CHTO   C78 3124   4.971  10.105   1.088 -0.6691  0.6987 -0.3954
    8CHTO  H150 3125   4.935  10.012   1.040  2.0439 -1.3280  1.3371
    8CHTO   C80 3126   4.861  10.161   1.183  0.9451  0.1046  0.2078
    8CHTO  H152 3127   4.894  10.256   1.229  0.6261  0.0710  0.5106
    8CHTO   O55 3128   4.735  10.181   1.112 -0.5297 -0.1027 -0.4758
    8CHTO  H134 3129   4.654  10.195   1.158 -1.2061  1.1358 -1.9737
    8CHTO   C84 3130   4.838  10.062   1.305  0.3624 -0.2892  0.6715
    8CHTO  H156 3131   4.781   9.981   1.260  0.7155  0.9989 -2.2006
    8CHTO   N15 3132   4.755  10.119   1.420 -0.2210 -0.2074 -0.2310
    8CHTO  H143 3133   4.675  10.049   1.422 -1.4351  1.1803  0.9573
    8CHTO  H144 3134   4.715  10.211   1.384  0.3079 -0.2068 -0.8310
    8CHTO   C87 3135   4.972   9.999   1.362  0.2031  0.5158 -0.2329
    8CHTO  H159 3136   5.031  10.077   1.410  2.1296 -2.3997  2.2462
    8CHTO   O53 3137   5.057   9.950   1.259  0.1840 -0.0151  0.5059
    8CHTO   C82 3138   5.097  10.062   1.173  0.5249  0.0375  0.3146
    8CHTO  H154 3139   5.126  10.149   1.232  0.7723  0.3251 -0.2321
    8CHTO   C89 3140   5.212  10.025   1.082 -0.3190 -0.0042  0.0796
    8CHTO   O59 3141   5.172   9.927   0.979  0.0257  0.0990 -0.4881
    8CHTO  H137 3142   5.138   9.981   0.910 -0.8968  0.2987  0.1050
    8CHTO   O45 3143   4.929   9.890   1.486  0.3716 -0.9376 -0.3487
    8CHTO   C67 3144   5.014   9.780   1.524 -0.2772 -0.4525  0.6632
    8CHTO  H124 3145   5.015   9.711   1.440 -1.6148 -1.2393  1.2705
    8CHTO   C65 3146   5.160   9.828   1.545 -0.4387 -0.0530 -0.1662
    8CHTO  H122 3147   5.149   9.935   1.561  2.7259  0.6003 -1.8291
    8CHTO   O44 3148   5.234   9.782   1.429  0.2479 -0.4160  0.2372
    8CHTO  H102 3149   5.270   9.852   1.378 -0.4342 -0.0603  0.2383
    8CHTO   C63 3150   5.228   9.781   1.685  0.6373 -0.0899  0.0121
    8CHTO  H120 3151   5.176   9.836   1.763 -2.1793 -0.5609 -1.4836
    8CHTO   N11 3152   5.370   9.816   1.712 -0.4966  0.5385  0.1736
    8CHTO  H108 3153   5.404   9.786   1.809  3.8642  0.1775 -1.3598
    8CHTO  H109 3154   5.437   9.796   1.631  0.1472  1.1042  0.5637
    8CHTO   C61 3155   5.192   9.639   1.714 -1.2945  0.2085  0.0092
    8CHTO  H118 3156   5.211   9.617   1.820 -1.6392  2.6814  0.6313
    8CHTO   O40 3157   5.055   9.609   1.693  0.4154  0.0272 -0.2796
    8CHTO   C68 3158   4.963   9.701   1.642  0.4420 -0.1591  0.9408
    8CHTO  H125 3159   4.937   9.775   1.720  0.9004 -0.4728  1.4028
    8CHTO   C72 3160   4.828   9.626   1.606  0.1969 -0.7996 -0.1815
    8CHTO   O48 3161   4.717   9.710   1.565 -0.0150  0.0902  0.0761
    8CHTO  H105 3162   4.661   9.679   1.496 -0.6954 -0.1599  0.7275
    8CHTO   O38 3163   5.265   9.560   1.624 -0.2707 -0.1580  0.0143
    8CHTO   C55 3164   5.272   9.416   1.620 -0.4636 -0.1783  0.1807
    8CHTO  H112 3165   5.378   9.388   1.617 -0.9717 -2.1831  0.2811
    8CHTO   C56 3166   5.203   9.392   1.483  0.0760 -0.0188 -0.0103
    8CHTO  H113 3167   5.123   9.467   1.474  2.0774  2.1703 -0.0427
    8CHTO   O42 3168   5.301   9.420   1.387 -0.0143 -0.3740  0.1986
    8CHTO  H100 3169   5.274   9.395   1.301 -1.0170  0.6130  0.2137
    8CHTO   C57 3170   5.146   9.245   1.463 -0.5997 -0.8841  1.1907
    8CHTO  H114 3171   5.230   9.178   1.444 -1.7577 -1.8777 -0.6689
    8CHTO   N10 3172   5.062   9.234   1.339  0.7883 -0.1238  0.2308
    8CHTO  H106 3173   5.089   9.320   1.280  3.5695 -2.0708 -1.4956
    8CHTO  H107 3174   4.958   9.233   1.368  1.0235 -1.7428  1.1169
    8CHTO   C58 3175   5.075   9.196   1.590  0.3993 -0.3416 -0.7161
    8CHTO  H115 3176   4.992   9.263   1.619  1.5877 -0.0023  1.9969
    8CHTO   O37 3177   5.167   9.212   1.696 -0.2134  0.5362  0.4774
    8CHTO   C59 3178   5.201   9.346   1.736  0.4452  0.1698  0.1629
    8CHTO  H116 3179   5.110   9.397   1.766  0.3113 -1.4282  2.5718
    8CHTO   C70 3180   5.292   9.333   1.860 -0.9280 -0.4899 -0.0040
    8CHTO   O46 3181   5.230   9.270   1.974  0.1849 -0.1510 -0.1145
    8CHTO  H103 3182   5.156   9.317   2.008 -0.0189 -0.6954  0.2088
    8CHTO   O39 3183   5.014   9.043   1.576  0.4043  0.3356  0.6711
    8CHTO   C60 3184   4.875   9.036   1.607 -0.3972  0.8872  0.2741
    8CHTO  H117 3185   4.839   9.134   1.636 -3.9633 -0.0617 -0.7628
    8CHTO   C62 3186   4.791   8.992   1.485 -0.0139 -0.0779  0.3355
    8CHTO  H119 3187   4.822   9.062   1.404  0.6897 -0.4752  0.2556
    8CHTO   O43 3188   4.829   8.860   1.447 -0.0864 -0.4962 -0.3485
    8CHTO  H101 3189   4.766   8.827   1.386 -2.3804 -0.4963  1.8999
    8CHTO   C66 3190   4.636   9.008   1.513 -0.2870  0.1328 -0.0067
    8CHTO  H123 3191   4.614   9.111   1.538  1.5524  0.5927 -0.2371
    8CHTO   N12 3192   4.557   8.965   1.395  0.6584 -0.3926 -0.5893
    8CHTO  H110 3193   4.489   9.037   1.353  0.6616 -0.9511 -1.5638
    8CHTO  H111 3194   4.621   8.922   1.320  1.6003  0.3792 -0.2381
    8CHTO   C69 3195   4.599   8.921   1.640 -0.0452 -0.0491 -0.2327
    8CHTO  H126 3196   4.582   8.813   1.622 -1.0572  0.0367  0.1497
    8CHTO   O41 3197   4.705   8.938   1.760 -0.0013  0.0879  1.0595
    8CHTO   C64 3198   4.862   8.941   1.729 -0.0777 -0.1854 -0.6475
    8CHTO  H121 3199   4.908   8.842   1.706 -1.9224 -0.1871 -4.7389
    8CHTO   C71 3200   4.923   8.984   1.863 -0.2748  0.5570 -0.5499
    8CHTO   O47 3201   4.921   9.118   1.876  0.1735 -0.2944 -0.4124
    8CHTO  H104 3202   4.874   9.149   1.952  2.5634  1.1726  0.5486
    8CHTO   O34 3203   4.456   8.980   1.701 -0.4426 -0.2993 -0.1447
    8CHTO   C49 3204   4.358   9.089   1.773  0.0734  0.2129  0.2637
    8CHTO   H91 3205   4.318   9.036   1.859 -0.5306 -2.1544 -1.4280
    8CHTO   C47 3206   4.240   9.138   1.684 -0.8342  0.3980  0.1606
    8CHTO   H89 3207   4.173   9.205   1.741  0.8708  2.2313  0.0775
    8CHTO   O33 3208   4.165   9.027   1.625 -0.1010  0.2620  0.1710
    8CHTO   H70 3209   4.105   8.992   1.689 -2.6780 -1.4295 -2.9668
    8CHTO   C45 3210   4.295   9.226   1.557 -0.0856  0.3683 -0.1432
    8CHTO   H87 3211   4.372   9.167   1.507 -1.3422 -1.1729 -0.2744
    8CHTO    N8 3212   4.201   9.276   1.449  0.2343  0.3680  0.0436
    8CHTO   H75 3213   4.121   9.211   1.415 -0.2810 -0.1051  2.1250
    8CHTO   H76 3214   4.256   9.326   1.370 -1.2790 -0.4933 -1.5907
    8CHTO   C43 3215   4.366   9.357   1.616 -0.2247 -0.1621  0.3761
    8CHTO   H85 3216   4.406   9.419   1.536  0.2065  0.9821  1.4615
    8CHTO   O29 3217   4.469   9.313   1.707 -0.2437 -0.1072 -0.1360
    8CHTO   C50 3218   4.444   9.214   1.812  0.1577 -0.4738  0.1095
    8CHTO   H92 3219   4.545   9.181   1.841  0.3169 -0.4834 -0.4527
    8CHTO   C54 3220   4.381   9.277   1.941  0.0301  0.4509 -0.5666
    8CHTO   O36 3221   4.394   9.201   2.061  0.6208  0.4810 -0.1608
    8CHTO   H72 3222   4.473   9.151   2.055 -0.8260 -1.9187  0.2293
    8CHTO   O27 3223   4.275   9.441   1.686  0.4998 -0.2132  0.7286
    8CHTO   C37 3224   4.240   9.568   1.741  0.1989  0.2916 -0.3559
    8CHTO   H79 3225   4.189   9.552   1.837  2.9187  0.1516  1.1036
    8CHTO   C38 3226   4.374   9.648   1.774 -0.0423  0.1894 -0.6824
    8CHTO   H80 3227   4.443   9.644   1.689  1.6176  1.8552  0.5577
    8CHTO   O31 3228   4.439   9.591   1.886 -0.5109 -0.2511 -0.4253
    8CHTO   H68 3229   4.526   9.625   1.890  0.1944 -1.8760 -1.5695
    8CHTO   C39 3230   4.342   9.800   1.802 -0.0650 -0.1693 -0.5948
    8CHTO   H81 3231   4.283   9.805   1.893  0.5511 -1.8617 -0.0771
    8CHTO    N7 3232   4.471   9.879   1.830 -0.3215 -0.1202 -0.5982
    8CHTO   H73 3233   4.560   9.824   1.804  1.9778  2.3633  1.6801
    8CHTO   H74 3234   4.464   9.973   1.778  1.7999  0.0116 -0.6684
    8CHTO   C40 3235   4.254   9.860   1.685 -0.1420  0.3930  0.1303
    8CHTO   H82 3236   4.304   9.867   1.588 -2.1525 -0.5770 -1.0079
    8CHTO   O26 3237   4.130   9.788   1.680  0.0507  0.2808 -0.0194
    8CHTO   C41 3238   4.144   9.645   1.644  0.2388  0.1005 -0.4160
    8CHTO   H83 3239   4.179   9.644   1.540  0.1739 -0.7355 -0.4343
    8CHTO   C52 3240   4.006   9.576   1.652 -0.2700  0.0767  0.1746
    8CHTO   O35 3241   3.920   9.614   1.592 -0.1853  0.1941 -0.0071
    8CHTO   H71 3242   3.839   9.574   1.618  0.4346 -0.6224  0.6745
    8CHTO   O28 3243   4.206   9.996   1.714 -0.4243  0.2706 -0.3761
    8CHTO   C42 3244   4.162  10.086   1.607 -0.7472  0.6049 -0.2973
    8CHTO   H84 3245   4.133  10.173   1.667  0.7513  1.5067 -0.8413
    8CHTO   C44 3246   4.033  10.035   1.535  0.4991 -0.3088 -0.0299
    8CHTO   H86 3247   4.045   9.931   1.502  0.4410 -0.0645 -0.8305
    8CHTO   O32 3248   3.928  10.028   1.634  0.4865 -0.2826 -0.2915
    8CHTO   H69 3249   3.865   9.964   1.605 -2.7229  2.0188  1.2599
    8CHTO   C48 3250   3.988  10.125   1.416  0.3779  0.7896 -0.1370
    8CHTO   H90 3251   3.950  10.221   1.450  0.9723  0.8628  0.3305
    8CHTO    N9 3252   3.881  10.060   1.337 -0.0259 -0.4962  0.1492
    8CHTO   H77 3253   3.892  10.074   1.230  2.2012 -0.4312  0.3539
    8CHTO   H78 3254   3.797  10.111   1.380  1.7976  2.5882  0.2147
    8CHTO   C51 3255   4.111  10.159   1.328  0.0642  0.1289 -0.9662
    8CHTO   H93 3256   4.137  10.065   1.280  0.3620  0.0814 -0.7069
    8CHTO   O30 3257   4.221  10.220   1.396 -0.3735  0.2778  0.0253
    8CHTO   C46 3258   4.271  10.134   1.503  0.2332  0.3438 -0.5321
    8CHTO   H88 3259   4.315  10.042   1.463  2.1116 -0.0096  2.1807
    8CHTO   C53 3260   4.384  10.220   1.578 -0.1831 -0.3251  0.1248
    8CHTO   O72 3261   4.471  10.254   1.471  0.1217 -0.1604  0.1341
    8CHTO  H199 3262   4.552  10.207   1.481  0.5333  0.0930 -1.8431
    8CHTO   O22 3263   4.070  10.263   1.232 -0.2962  0.6179 -0.6269
    8CHTO   C31 3264   4.155  10.293   1.116 -0.2065 -0.1090 -0.0151
    8CHTO   H59 3265   4.100  10.374   1.064 -0.4732 -1.0611 -1.2251
    8CHTO   C29 3266   4.299  10.342   1.148 -0.4625 -0.0651  0.0800
    8CHTO   H57 3267   4.350  10.274   1.217 -0.9499 -0.3520  0.1536
    8CHTO   O21 3268   4.281  10.466   1.221  0.0329 -0.2176  0.0338
    8CHTO   H37 3269   4.350  10.470   1.284  0.4675  0.1119 -0.4601
    8CHTO   C27 3270   4.389  10.368   1.018 -0.2492 -0.4075  0.5178
    8CHTO   H55 3271   4.341  10.444   0.954  2.8775 -0.6994 -2.2747
    8CHTO    N5 3272   4.522  10.413   1.059 -0.1730 -0.0228 -0.0263
    8CHTO   H43 3273   4.514  10.513   1.097 -1.5315 -1.2135  3.0276
    8CHTO   H44 3274   4.594  10.398   0.980 -0.1083 -0.7765  0.1638
    8CHTO   C25 3275   4.388  10.245   0.925  0.0586  0.0642  0.9799
    8CHTO   H53 3276   4.439  10.164   0.978  1.3342  0.7223  0.7711
    8CHTO   O17 3277   4.249  10.218   0.889  0.6523 -0.0684 -0.0369
    8CHTO   C32 3278   4.176  10.177   1.006  0.4234 -0.1511 -0.6925
    8CHTO   H60 3279   4.231  10.096   1.054  2.0000  1.3420  0.0818
    8CHTO   C36 3280   4.036  10.116   0.959 -0.5550  0.4992  0.1641
    8CHTO   O25 3281   3.947  10.229   0.936 -0.0641 -0.6574  0.3011
    8CHTO   H40 3282   3.958  10.255   0.847 -1.9691 -1.4011 -0.1718
    8CHTO   O15 3283   4.478  10.278   0.784  0.2882  0.0767 -0.3645
    8CHTO   C19 3284   4.464  10.185   0.666  0.6936  0.7414 -0.8552
    8CHTO   H47 3285   4.362  10.147   0.658  1.6248 -1.4065 -3.0748
    8CHTO   C20 3286   4.480  10.268   0.539  0.3423  0.0265  0.3022
    8CHTO   H48 3287   4.569  10.332   0.541 -0.1705  0.9117 -2.4291
    8CHTO   O19 3288   4.371  10.357   0.531  0.7099 -0.0502 -0.4765
    8CHTO   H35 3289   4.287  10.314   0.531  0.5566  0.2472  0.2404
    8CHTO   C21 3290   4.487  10.184   0.396 -0.3161 -0.1607  0.0650
    8CHTO   H49 3291   4.391  10.149   0.360 -0.7522  0.6311  0.4618
    8CHTO    N4 3292   4.531  10.274   0.288  0.0591 -0.6828  0.7931
    8CHTO   H41 3293   4.461  10.271   0.207  0.6230 -0.5843  0.2965
    8CHTO   H42 3294   4.523  10.372   0.333  1.1967  0.0016 -0.4442
    8CHTO   C22 3295   4.582  10.064   0.422  0.7695 -0.5127  0.0052
    8CHTO   H50 3296   4.685  10.098   0.435 -0.0353  1.7694  0.5318
    8CHTO   O14 3297   4.539   9.984   0.535 -0.0561  0.1491 -0.5042
    8CHTO   C23 3298   4.558  10.053   0.665  0.1334 -0.4449 -0.8770
    8CHTO   H51 3299   4.665  10.075   0.677  0.8198 -2.1264 -3.3604
    8CHTO   C34 3300   4.516   9.963   0.785 -0.4488 -0.2331  0.0383
    8CHTO   O23 3301   4.398   9.889   0.746 -0.3829  1.0812  0.1222
    8CHTO   H38 3302   4.340   9.878   0.819 -0.4660 -0.9419 -0.2104
    8CHTO   O16 3303   4.565   9.972   0.309 -0.0009 -0.2369  0.4192
    8CHTO   C24 3304   4.686   9.856   0.297  0.1965  0.3338  0.2440
    8CHTO   H52 3305   4.743   9.846   0.389 -0.8345  0.2893  0.8862
    8CHTO   C26 3306   4.787   9.902   0.191 -0.1468  0.2551 -0.3602
    8CHTO   H54 3307   4.731   9.926   0.098  0.0886  1.2164 -0.2547
    8CHTO   O20 3308   4.843  10.027   0.237  0.3731  0.0837  0.0286
    8CHTO   H36 3309   4.777  10.084   0.270  0.6162  0.6132 -0.3964
    8CHTO   C30 3310   4.891   9.789   0.156  0.1940  0.5387 -0.2356
    8CHTO   H58 3311   4.961   9.771   0.238 -1.2363  1.3341  1.1961
    8CHTO    N6 3312   4.972   9.836   0.042 -0.3821 -0.3283 -0.7136
    8CHTO   H45 3313   5.017   9.931   0.066  1.7623 -2.2192  3.3254
    8CHTO   H46 3314   5.048   9.764   0.016 -0.7412 -1.5182  1.4108
    8CHTO   C33 3315   4.813   9.659   0.123 -0.0503 -0.2294  0.2287
    8CHTO   H61 3316   4.751   9.664   0.033  0.3773  1.8220  0.0223
    8CHTO   O18 3317   4.729   9.622   0.237  0.2341  0.1644 -0.1945
    8CHTO   C28 3318   4.626   9.714   0.264 -0.1256  0.1674 -0.0998
    8CHTO   H56 3319   4.566   9.730   0.174  3.5790 -0.3370 -2.7590
    8CHTO   C35 3320   4.542   9.664   0.391  0.1918 -0.0964 -0.1301
    8CHTO   O24 3321   4.423   9.736   0.424 -0.1015  0.1927  0.2169
    8CHTO   H39 3322   4.349   9.691   0.389  1.6385 -3.5048  1.0408
    8CHTO    O9 3323   4.902   9.557   0.094 -0.4761  0.0368 -0.0587
    8CHTO   C13 3324   4.851   9.415   0.010 -0.5817 -0.1122 -0.6049
    8CHTO   H26 3325   4.760   9.444  -0.046  0.1005  3.1802 -0.0736
    8CHTO   C11 3326   4.820   9.290   0.109  0.1476 -0.4753 -0.5044
    8CHTO   H24 3327   4.718   9.301   0.150  0.6224 -0.4417  0.6983
    8CHTO    O8 3328   4.906   9.298   0.226  0.7060 -0.5331 -0.6245
    8CHTO    H3 3329   4.967   9.368   0.238  0.5048 -1.0238  4.0577
    8CHTO    C9 3330   4.834   9.161   0.023  1.0294  0.4962 -0.1072
    8CHTO   H22 3331   4.778   9.188  -0.069 -2.5187 -2.0112  1.1886
    8CHTO    N2 3332   4.769   9.041   0.081  0.1089  0.4897  0.1370
    8CHTO   H10 3333   4.779   8.967   0.002  2.8650  1.9516 -0.9639
    8CHTO   H11 3334   4.804   9.003   0.176  0.6852 -0.6889 -0.5287
    8CHTO    C7 3335   4.975   9.140  -0.027  0.3703  0.5920  0.3740
    8CHTO   H20 3336   4.968   9.100  -0.130 -0.9884  1.4300  0.1365
    8CHTO    O4 3337   5.044   9.264  -0.044  0.9481  0.2150  0.0586
    8CHTO   C14 3338   4.960   9.374  -0.088  0.1513  0.3084 -0.1100
    8CHTO   H27 3339   4.909   9.339  -0.180  0.3113  0.0775 -0.1133
    8CHTO   C18 3340   5.062   9.479  -0.139 -0.1469  0.6436  0.1007
    8CHTO   O13 3341   5.020   9.545  -0.255  0.2428 -0.1494 -0.4895
    8CHTO    H7 3342   4.953   9.605  -0.230  0.6605 -0.2076  0.7852
    8CHTO    O2 3343   5.070   9.036   0.060 -1.0715 -0.2484  0.0461
    8CHTO    C1 3344   5.202   9.012   0.008  0.4458 -0.4491 -0.2114
    8CHTO   H14 3345   5.238   9.084  -0.068  0.0461 -0.2673 -0.2292
    8CHTO    C2 3346   5.219   8.872  -0.045 -1.3217  0.9101 -0.9592
    8CHTO   H15 3347   5.185   8.804   0.035 -2.3802  1.1167 -1.2337
    8CHTO    O6 3348   5.143   8.848  -0.163  0.0381  0.2657  0.4866
    8CHTO    H1 3349   5.117   8.932  -0.197 -1.7648 -0.5752 -0.2235
    8CHTO    C3 3350   5.374   8.834  -0.073  0.1185  0.3618 -0.1207
    8CHTO   H16 3351   5.409   8.897  -0.156  1.7369 -0.8574 -0.3888
    8CHTO    N1 3352   5.400   8.685  -0.112 -0.4212  0.2735  0.5928
    8CHTO    H8 3353   5.315   8.620  -0.096 -1.0836  0.3369 -2.5018
    8CHTO    H9 3354   5.480   8.653  -0.047 -0.4830 -0.8601  0.1121
    8CHTO    C4 3355   5.463   8.880   0.050  0.0450  0.3922 -0.3073
    8CHTO   H17 3356   5.442   8.820   0.139 -2.5005 -0.6114 -1.5521
    8CHTO    O1 3357   5.431   9.017   0.084  0.0568 -0.4673  0.1048
    8CHTO    C5 3358   5.302   9.033   0.127  0.5482 -0.6356  0.2267
    8CHTO   H18 3359   5.286   8.962   0.208 -3.3620  0.5795  0.6005
    8CHTO   C16 3360   5.308   9.166   0.186 -0.7629  0.4112  0.3130
    8CHTO   O11 3361   5.193   9.206   0.252 -0.3568  0.0940 -0.0685
    8CHTO    H5 3362   5.207   9.235   0.341 -1.7984  0.9053 -0.0978
    8CHTO    O3 3363   5.604   8.889   0.025  0.0576  0.2738  0.0970
    8CHTO    C6 3364   5.702   8.870   0.128 -0.0529 -0.1507  0.0550
    8CHTO   H19 3365   5.665   8.874   0.230 -1.8934  2.4914 -0.6770
    8CHTO    C8 3366   5.767   8.728   0.107  0.0377 -0.2629 -0.1277
    8CHTO   H21 3367   5.786   8.711   0.001 -1.7390  0.9595 -0.6648
    8CHTO    O7 3368   5.669   8.632   0.147  0.7061  0.7204 -0.5656
    8CHTO    H2 3369   5.693   8.542   0.141  1.7736  0.9432  0.2933
    8CHTO   C12 3370   5.911   8.706   0.173  0.0804 -0.0456  0.0856
    8CHTO   H25 3371   5.902   8.698   0.284 -0.8920  2.0902  0.1994
    8CHTO    N3 3372   5.966   8.569   0.134 -0.4388  0.0299 -0.9634
    8CHTO   H12 3373   5.885   8.501   0.115  0.1586 -0.2857 -2.5402
    8CHTO   H13 3374   6.028   8.527   0.212 -1.6917 -0.1987 -0.0877
    8CHTO   C15 3375   6.002   8.833   0.141  0.0933 -0.2974 -0.0687
    8CHTO   H28 3376   6.030   8.836   0.036  0.7403 -0.6973  0.0887
    8CHTO   O10 3377   6.143   8.825   0.202  0.2766 -0.4267 -0.3166
    8CHTO    H4 3378   6.149   8.752   0.260 -0.9600  0.9293  1.5663
    8CHTO    O5 3379   5.931   8.952   0.186  0.2772  0.5919  0.2199
    8CHTO   C10 3380   5.809   8.983   0.112  0.1199 -0.2961  0.0408
    8CHTO   H23 3381   5.833   8.991   0.006  1.2241  1.1589  0.3769
    8CHTO   C17 3382   5.758   9.121   0.149 -0.1337  1.2459  0.7396
    8CHTO   O12 3383   5.744   9.133   0.292  0.6504  0.2574 -0.2078
    8CHTO    H6 3384   5.827   9.145   0.334  0.5475 -0.5702  0.2573
    9CHTO  H203 3385   7.595   3.955   1.483 -1.4168  0.2163  1.3057
    9CHTO   O82 3386   7.601   4.042   1.447  0.0846 -0.3397  0.1504
    9CHTO  C123 3387   7.716   4.031   1.360  0.6401 -0.0039 -0.1204
    9CHTO  H227 3388   7.687   3.971   1.272  1.3290 -1.4403  0.6044
    9CHTO   O77 3389   7.749   4.162   1.323 -0.0420  0.3757 -0.5907
    9CHTO  C118 3390   7.857   4.176   1.228  0.3016  0.1080 -0.8222
    9CHTO  H222 3391   7.834   4.117   1.138  0.5659 -1.0710 -0.1276
    9CHTO  C125 3392   7.884   4.332   1.188  0.1999 -0.2214  0.1796
    9CHTO   O84 3393   7.758   4.394   1.143  0.2603 -0.5028 -0.0844
    9CHTO  H205 3394   7.759   4.488   1.148  1.8162 -0.4620 -0.9671
    9CHTO  C114 3395   7.990   4.120   1.291  0.5713 -0.4504 -0.2994
    9CHTO  H218 3396   8.009   4.172   1.385 -0.6212 -2.8876  1.3407
    9CHTO  C116 3397   7.962   3.975   1.330  0.2141 -0.4655 -0.0392
    9CHTO  H220 3398   7.936   3.916   1.239 -0.1638  0.7183 -0.7116
    9CHTO   O79 3399   8.079   3.919   1.397 -0.1436  0.0349  0.3178
    9CHTO  H201 3400   8.158   3.941   1.352  0.1228 -0.3212  0.6156
    9CHTO  C120 3401   7.837   3.956   1.424 -0.1597  0.2339 -0.4575
    9CHTO  H224 3402   7.866   4.012   1.516  1.2920 -1.9193  0.4475
    9CHTO   N21 3403   7.803   3.811   1.454  0.3278  0.4383 -0.2665
    9CHTO  H211 3404   7.890   3.749   1.464 -0.3729 -0.6305 -0.7563
    9CHTO  H212 3405   7.746   3.790   1.543  1.1848 -1.5384 -0.1648
    9CHTO   O75 3406   8.105   4.145   1.213 -0.0695  0.8324 -0.0742
    9CHTO  C112 3407   8.118   4.049   1.066 -0.4365 -0.0506  0.1679
    9CHTO  H216 3408   8.019   4.029   1.022  0.1379 -1.9269 -0.2870
    9CHTO   O73 3409   8.193   3.923   1.098  0.5905 -0.4659  0.3233
    9CHTO  C113 3410   8.188   3.830   0.984  0.0823  0.2526 -0.1684
    9CHTO  H217 3411   8.082   3.819   0.952  0.3529 -0.8459 -0.7178
    9CHTO  C124 3412   8.234   3.694   1.041 -0.1997  0.1614  0.2276
    9CHTO   O83 3413   8.135   3.626   1.126  0.0484 -0.1675  0.2557
    9CHTO  H204 3414   8.172   3.555   1.175 -1.1467 -0.0233  1.3759
    9CHTO  C109 3415   8.272   3.891   0.871  0.0958  0.6502  0.1245
    9CHTO  H213 3416   8.374   3.899   0.909  0.1199  1.7655 -0.1438
    9CHTO  C110 3417   8.232   4.039   0.844  0.3385 -0.3545 -0.7644
    9CHTO  H214 3418   8.140   4.035   0.787  0.5163  2.1895 -1.2983
    9CHTO   O78 3419   8.334   4.103   0.758 -0.1120  0.4792  0.3324
    9CHTO  H200 3420   8.312   4.076   0.670  0.3117  2.5661 -0.4364
    9CHTO  C111 3421   8.221   4.125   0.972 -0.1326 -0.3917  0.2228
    9CHTO  H215 3422   8.320   4.132   1.019 -1.0750  0.3239  2.1597
    9CHTO   N19 3423   8.177   4.260   0.946 -0.2209 -0.5594  0.4794
    9CHTO  H207 3424   8.132   4.304   1.033  0.9173 -0.3212  0.9540
    9CHTO  H208 3425   8.105   4.267   0.865  0.1827 -0.0220  0.1564
    9CHTO   O74 3426   8.271   3.810   0.752 -0.1553  0.3678 -0.4805
    9CHTO  C115 3427   8.412   3.734   0.715  0.7392  0.1105  0.3003
    9CHTO  H219 3428   8.497   3.783   0.762 -0.2017  0.5234  1.5794
    9CHTO   O76 3429   8.415   3.578   0.761  0.1005 -0.3932 -0.2108
    9CHTO  C122 3430   8.325   3.492   0.677 -0.1132  0.6613  0.1468
    9CHTO  H226 3431   8.225   3.537   0.682  0.3272  1.6723 -0.1117
    9CHTO  C126 3432   8.308   3.347   0.736  0.1284 -0.5838  0.6449
    9CHTO   O85 3433   8.304   3.339   0.877 -0.5956 -0.0837  0.2308
    9CHTO  H206 3434   8.306   3.248   0.901 -1.6154  0.0913  1.0023
    9CHTO  C121 3435   8.360   3.492   0.529  0.0107  0.6704  0.0511
    9CHTO  H225 3436   8.458   3.448   0.502 -0.8410 -0.3863 -1.3826
    9CHTO   O81 3437   8.264   3.415   0.454  0.3219 -0.1235 -0.1420
    9CHTO  H202 3438   8.304   3.387   0.374 -1.3767 -0.5863 -0.8414
    9CHTO  C119 3439   8.361   3.644   0.481 -0.3785 -0.4341 -0.3913
    9CHTO  H223 3440   8.388   3.642   0.376 -0.8958  0.3000 -0.5369
    9CHTO  C117 3441   8.452   3.742   0.563 -0.3639  0.2429  0.4180
    9CHTO  H221 3442   8.446   3.846   0.530  0.0057  1.0841  2.8368
    9CHTO   N20 3443   8.595   3.708   0.531 -0.5519 -0.1739  0.2759
    9CHTO  H209 3444   8.659   3.732   0.614 -0.8298  1.7652 -0.0357
    9CHTO  H210 3445   8.636   3.772   0.454  2.2811 -1.4984  0.6274
    9CHTO   O80 3446   8.200   3.711   0.473 -0.2357  0.2452 -0.3068
    9CHTO  C103 3447   8.165   3.818   0.365  0.0261 -0.2998 -0.4716
    9CHTO  H190 3448   8.072   3.865   0.396  1.3228  2.0736 -0.0859
    9CHTO  C101 3449   8.267   3.935   0.321 -0.0462 -0.2164  0.5321
    9CHTO  H188 3450   8.363   3.891   0.294 -0.7196 -0.5126 -1.4795
    9CHTO   O68 3451   8.274   4.041   0.448 -0.4706  0.1925  0.3521
    9CHTO  H168 3452   8.200   4.098   0.457  0.4469  1.3783  0.4117
    9CHTO   C99 3453   8.202   4.013   0.194 -0.3281  0.8294  0.2512
    9CHTO  H186 3454   8.109   4.063   0.226  0.0041  0.0498  2.4889
    9CHTO   N17 3455   8.299   4.123   0.142 -0.4223  1.1235  0.0095
    9CHTO  H174 3456   8.356   4.086   0.058 -0.5557 -0.6423  0.6651
    9CHTO  H175 3457   8.360   4.168   0.218  0.9972 -0.7176  0.0013
    9CHTO   C97 3458   8.161   3.914   0.084 -0.0590  1.0228 -0.5078
    9CHTO  H184 3459   8.253   3.870   0.042  0.6067  2.0964 -0.1985
    9CHTO   O64 3460   8.074   3.812   0.136  0.1623  0.4122  0.3087
    9CHTO  C104 3461   8.127   3.731   0.244 -0.1302  0.0136  0.7850
    9CHTO  H191 3462   8.214   3.677   0.207 -0.1683 -0.1255  0.8998
    9CHTO  C108 3463   8.025   3.619   0.269 -0.3439 -0.5461 -0.0051
    9CHTO   O71 3464   8.018   3.521   0.169 -0.0938 -0.1136  0.4323
    9CHTO  H171 3465   7.996   3.443   0.215  0.0143 -0.3566  0.0756
    9CHTO   O62 3466   8.077   3.985  -0.012  0.0632 -0.0343 -0.0388
    9CHTO   C91 3467   8.081   3.938  -0.149 -0.6199 -0.1610  0.2349
    9CHTO  H178 3468   8.144   3.849  -0.149 -0.2078  0.1124  1.9773
    9CHTO   C92 3469   8.150   4.051  -0.231  0.4985  0.3375  0.0488
    9CHTO  H179 3470   8.250   4.071  -0.191  0.7221 -2.0290  0.7141
    9CHTO   O66 3471   8.177   3.990  -0.362  0.4025  0.4214  0.6813
    9CHTO  H166 3472   8.205   4.043  -0.434 -1.4063  0.1129 -0.2716
    9CHTO   C93 3473   8.065   4.178  -0.260  0.2891 -0.4482  0.2247
    9CHTO  H180 3474   8.106   4.218  -0.354  0.0600  0.7949  0.6402
    9CHTO   N16 3475   8.095   4.286  -0.162 -0.2830  0.2198 -0.0067
    9CHTO  H172 3476   8.174   4.260  -0.094 -0.8896 -0.5221  0.4167
    9CHTO  H173 3477   8.008   4.328  -0.113 -1.0513 -2.2386  0.7867
    9CHTO   C94 3478   7.913   4.143  -0.273  0.1504  0.0348  0.1971
    9CHTO  H181 3479   7.861   4.144  -0.177 -1.8016 -2.4181 -0.7809
    9CHTO   O61 3480   7.904   4.011  -0.323 -0.6271 -0.0361 -0.4666
    9CHTO   C95 3481   7.932   3.917  -0.214 -0.0755 -0.3400  0.3749
    9CHTO  H182 3482   7.863   3.937  -0.133 -2.4197  0.9793 -1.8578
    9CHTO  C106 3483   7.907   3.765  -0.249  0.3384  0.0540 -0.2286
    9CHTO   O69 3484   7.974   3.723  -0.366 -0.5419 -0.2212 -0.3100
    9CHTO  H169 3485   7.930   3.758  -0.440 -0.2844 -1.4928 -1.0811
    9CHTO   O63 3486   7.849   4.244  -0.378 -0.1556 -0.4764 -1.3724
    9CHTO   C96 3487   7.696   4.276  -0.333  0.7695 -0.7152 -0.0547
    9CHTO  H183 3488   7.697   4.288  -0.225 -0.8199  1.5037 -0.2386
    9CHTO   C98 3489   7.585   4.177  -0.376  0.0386 -0.3036  0.0317
    9CHTO  H185 3490   7.583   4.154  -0.484 -1.5730 -1.1513  0.2136
    9CHTO   O67 3491   7.598   4.051  -0.307 -0.0047  0.5013  0.4016
    9CHTO  H167 3492   7.653   3.991  -0.352 -3.0443 -0.0721 -2.7587
    9CHTO  C102 3493   7.431   4.238  -0.336  0.4725  0.2488 -0.7045
    9CHTO  H189 3494   7.421   4.224  -0.228  2.0210 -1.9758 -0.8067
    9CHTO   N18 3495   7.321   4.166  -0.407 -1.1056  0.2193 -0.1562
    9CHTO  H176 3496   7.279   4.230  -0.482 -1.1377 -0.1299 -0.4375
    9CHTO  H177 3497   7.247   4.136  -0.334 -1.9822 -1.8522 -1.8479
    9CHTO  C105 3498   7.418   4.388  -0.356  0.8221 -0.2607 -0.3108
    9CHTO  H192 3499   7.377   4.408  -0.455 -1.2672 -2.3816  0.0793
    9CHTO   O65 3500   7.537   4.470  -0.330  0.1781 -0.2979  1.3148
    9CHTO  C100 3501   7.656   4.422  -0.387  0.3822  0.3393  0.4677
    9CHTO  H187 3502   7.646   4.420  -0.497 -1.0474 -1.2642  0.6162
    9CHTO  C107 3503   7.760   4.531  -0.351 -0.4612  0.1592  0.4997
    9CHTO   O70 3504   7.755   4.564  -0.216  0.0174 -0.1847  0.0473
    9CHTO  H170 3505   7.752   4.488  -0.162  2.5003 -1.1201 -1.0403
    9CHTO   O57 3506   7.307   4.438  -0.251  0.2000 -0.1311  0.1899
    9CHTO   C85 3507   7.245   4.561  -0.279  0.2924 -0.6529 -0.4577
    9CHTO  H157 3508   7.245   4.583  -0.388 -0.4291  0.1444 -0.3051
    9CHTO   C83 3509   7.327   4.675  -0.220  0.4862 -0.1448  0.2164
    9CHTO  H155 3510   7.431   4.673  -0.254 -0.3172  0.5472 -2.4656
    9CHTO   O56 3511   7.342   4.655  -0.074 -0.0605 -0.1342  0.1334
    9CHTO  H135 3512   7.257   4.656  -0.036 -0.0915  0.6437  0.0686
    9CHTO   C81 3513   7.267   4.810  -0.262  0.1658 -0.6218 -0.2112
    9CHTO  H153 3514   7.246   4.803  -0.368 -0.6205  1.3952 -0.2127
    9CHTO   N14 3515   7.362   4.923  -0.242  0.2828  0.0538 -0.2794
    9CHTO  H141 3516   7.307   5.015  -0.251 -2.0050 -0.9578  2.6246
    9CHTO  H142 3517   7.399   4.918  -0.141 -1.3092  1.4704  0.3996
    9CHTO   C79 3518   7.127   4.820  -0.186 -0.7502 -0.2273  0.8515
    9CHTO  H151 3519   7.078   4.911  -0.220  2.0900  1.5452  1.3388
    9CHTO   O52 3520   7.045   4.704  -0.210 -0.1289 -0.5742  0.8101
    9CHTO   C86 3521   7.100   4.572  -0.222 -0.2738 -0.2436  0.2566
    9CHTO  H158 3522   7.095   4.531  -0.119 -3.5016 -0.1178  0.1721
    9CHTO   C90 3523   7.008   4.483  -0.305 -0.3198  0.0267 -0.1846
    9CHTO   O60 3524   6.882   4.461  -0.239  0.3793  0.2190 -0.1787
    9CHTO  H138 3525   6.827   4.536  -0.254  0.2451  0.3155  0.7523
    9CHTO   O50 3526   7.142   4.836  -0.049 -0.7254  0.3590  0.1112
    9CHTO   C73 3527   7.071   4.900   0.059 -0.0008 -0.3501  0.9791
    9CHTO  H145 3528   6.964   4.876   0.047  0.5356 -1.2853 -2.7980
    9CHTO   C74 3529   7.097   5.049   0.080  0.1222  0.4230  0.4956
    9CHTO  H146 3530   7.045   5.094  -0.006  1.8944 -0.2743 -0.9704
    9CHTO   O54 3531   7.031   5.099   0.191  0.8170 -0.0913  0.0999
    9CHTO  H133 3532   7.021   5.193   0.192  1.0582 -0.0682  0.5019
    9CHTO   C75 3533   7.251   5.073   0.072  0.5787  0.9948  0.3086
    9CHTO  H147 3534   7.293   5.030  -0.021  1.0471 -0.7209  1.2786
    9CHTO   N13 3535   7.290   5.210   0.089  0.6816  0.2553  0.7864
    9CHTO  H139 3536   7.392   5.229   0.058 -0.0230 -0.7902 -2.3401
    9CHTO  H140 3537   7.220   5.273   0.035 -1.2021 -1.6845  0.8944
    9CHTO   C76 3538   7.317   4.982   0.182 -0.3197  0.5687  0.5194
    9CHTO  H148 3539   7.303   5.025   0.281  0.4170  1.1346  0.3849
    9CHTO   O49 3540   7.266   4.846   0.183 -0.8981 -0.3463 -0.1217
    9CHTO   C77 3541   7.124   4.837   0.187 -0.4306 -0.5130  0.1557
    9CHTO  H149 3542   7.069   4.880   0.272  0.9305  1.6466 -0.0086
    9CHTO   C88 3543   7.088   4.686   0.183 -0.0640  0.4186  0.0031
    9CHTO   O58 3544   7.153   4.600   0.292  0.4268  0.0356 -0.1485
    9CHTO  H136 3545   7.087   4.548   0.333  0.5933  1.2537  1.7042
    9CHTO   O51 3546   7.473   4.960   0.141  0.2495  0.2911 -0.3317
    9CHTO   C78 3547   7.563   4.905   0.252 -0.0073 -1.2306  0.2311
    9CHTO  H150 3548   7.497   4.870   0.334  0.3704  0.6483  1.3648
    9CHTO   C80 3549   7.645   5.022   0.306  0.1102 -0.7928 -0.2690
    9CHTO  H152 3550   7.714   5.058   0.226  0.5622  0.5326  0.6994
    9CHTO   O55 3551   7.551   5.118   0.354 -0.0853  0.5929 -0.0310
    9CHTO  H134 3552   7.597   5.200   0.362 -1.3130  1.1771  1.2829
    9CHTO   C84 3553   7.739   4.973   0.424 -0.0402  0.0775  0.4661
    9CHTO  H156 3554   7.674   4.946   0.507 -2.6901  0.6812 -1.3537
    9CHTO   N15 3555   7.831   5.082   0.465 -0.0685  0.4271  0.2661
    9CHTO  H143 3556   7.906   5.053   0.536  0.2213  1.4842  0.3961
    9CHTO  H144 3557   7.875   5.132   0.382  1.9421 -2.9140 -0.7901
    9CHTO   C87 3558   7.822   4.851   0.385 -0.5010  0.4263 -0.2378
    9CHTO  H159 3559   7.898   4.879   0.312 -0.2981 -3.8519 -1.7842
    9CHTO   O53 3560   7.732   4.742   0.313 -0.3770  0.0987  0.2978
    9CHTO   C82 3561   7.651   4.787   0.208 -0.3265  0.3633  0.9424
    9CHTO  H154 3562   7.719   4.815   0.128  2.3592 -2.5455  2.1072
    9CHTO   C89 3563   7.564   4.675   0.153  0.1474 -0.0933 -0.1788
    9CHTO   O59 3564   7.480   4.602   0.238  0.1851  0.1706 -0.7619
    9CHTO  H137 3565   7.418   4.557   0.184 -0.0795  0.8872 -1.0577
    9CHTO   O45 3566   7.915   4.783   0.518  0.2775 -0.4089 -0.7318
    9CHTO   C67 3567   7.959   4.651   0.501  0.3889  0.4868 -0.4070
    9CHTO  H124 3568   7.888   4.596   0.439  0.0679  0.2285  0.1786
    9CHTO   C65 3569   8.100   4.643   0.432 -0.0044  0.3403 -0.6491
    9CHTO  H122 3570   8.154   4.732   0.464 -0.1474 -0.4495  1.8850
    9CHTO   O44 3571   8.079   4.659   0.286 -0.6019  0.0774  0.3701
    9CHTO  H102 3572   8.015   4.605   0.244  0.6348 -0.4738 -0.8423
    9CHTO   C63 3573   8.187   4.522   0.486 -0.6439  0.2041 -0.2600
    9CHTO  H120 3574   8.235   4.554   0.578 -1.1576  0.7429 -0.1784
    9CHTO   N11 3575   8.305   4.502   0.400 -0.3884  0.3063  0.1116
    9CHTO  H108 3576   8.379   4.432   0.432  0.8811  1.5747 -0.0301
    9CHTO  H109 3577   8.357   4.594   0.388 -0.0580  0.2047  0.7720
    9CHTO   C61 3578   8.096   4.401   0.516  0.4332  0.0755 -0.2920
    9CHTO  H118 3579   8.158   4.321   0.559 -2.4166 -1.3765  1.2249
    9CHTO   O40 3580   8.007   4.438   0.624  0.4040 -0.0491 -0.0464
    9CHTO   C68 3581   7.966   4.577   0.645  0.0436 -0.0850  0.4619
    9CHTO  H125 3582   8.043   4.626   0.708 -1.5139  1.5025  1.1780
    9CHTO   C72 3583   7.834   4.599   0.715  0.5097 -0.8390 -0.0438
    9CHTO   O48 3584   7.868   4.577   0.845 -0.8051  0.2196 -0.3804
    9CHTO  H105 3585   7.822   4.641   0.896  0.4026  0.7658  0.0595
    9CHTO   O38 3586   8.032   4.359   0.395 -0.3683 -0.2851 -0.1140
    9CHTO   C55 3587   7.918   4.268   0.405 -0.4995  0.2927 -0.1697
    9CHTO  H112 3588   7.846   4.329   0.462  0.3952  1.4705 -0.2808
    9CHTO   C56 3589   7.936   4.128   0.474  0.4622  0.0642  0.4339
    9CHTO  H113 3590   8.011   4.069   0.418  0.1500  1.7506 -1.8198
    9CHTO   O42 3591   7.979   4.140   0.605  0.0822  0.3147 -0.0904
    9CHTO  H100 3592   8.007   4.056   0.638 -0.9805  0.1278  0.3518
    9CHTO   C57 3593   7.801   4.044   0.469 -0.0861  0.5693  0.2680
    9CHTO  H114 3594   7.734   4.094   0.538 -0.8951 -2.4927  1.7851
    9CHTO   N10 3595   7.808   3.900   0.513  0.0210  0.3181  0.2513
    9CHTO  H106 3596   7.899   3.891   0.571 -0.6903 -1.1601  1.1724
    9CHTO  H107 3597   7.724   3.870   0.575 -0.6972 -1.2859 -1.4714
    9CHTO   C58 3598   7.746   4.045   0.327 -0.2629 -0.5747  0.3052
    9CHTO  H115 3599   7.816   3.999   0.254 -0.9798  0.2694 -0.9319
    9CHTO   O37 3600   7.738   4.179   0.276  0.1265 -0.2410 -0.3627
    9CHTO   C59 3601   7.870   4.247   0.265 -0.0772  0.7660 -0.3796
    9CHTO  H116 3602   7.944   4.187   0.212  1.4225  1.3438  1.0164
    9CHTO   C70 3603   7.861   4.379   0.189 -0.0301 -0.0283  0.1952
    9CHTO   O46 3604   7.789   4.370   0.070  0.3292  0.1267  0.4850
    9CHTO  H103 3605   7.830   4.418   0.000  0.8615  0.2179  0.8523
    9CHTO   O39 3606   7.587   3.982   0.308 -0.5978  0.4022  0.4472
    9CHTO   C60 3607   7.582   3.840   0.286 -0.2436 -0.0833  0.2564
    9CHTO  H117 3608   7.684   3.804   0.288 -0.5239 -0.9434 -0.7013
    9CHTO   C62 3609   7.488   3.776   0.393  0.2475  0.2586  0.4035
    9CHTO  H119 3610   7.537   3.788   0.492  0.2023 -0.1681  0.4786
    9CHTO   O43 3611   7.363   3.846   0.388 -0.5497 -0.1279 -0.0219
    9CHTO  H101 3612   7.356   3.916   0.450  1.7228 -0.5171  0.7500
    9CHTO   C66 3613   7.479   3.615   0.368  0.0885 -0.4132 -0.5197
    9CHTO  H123 3614   7.579   3.575   0.382  0.1660 -0.8749 -2.2815
    9CHTO   N12 3615   7.401   3.546   0.471 -0.4544 -0.4822 -0.5593
    9CHTO  H110 3616   7.350   3.464   0.423 -0.6332 -0.6047 -0.1557
    9CHTO  H111 3617   7.465   3.518   0.553 -0.4330 -0.8193 -0.6920
    9CHTO   C69 3618   7.424   3.592   0.225  0.3442  0.0688  0.5026
    9CHTO  H126 3619   7.321   3.634   0.223  0.1642 -0.4036 -0.9708
    9CHTO   O41 3620   7.508   3.671   0.123  0.0493  0.3800 -0.1251
    9CHTO   C64 3621   7.526   3.820   0.139  1.0621  0.0412 -0.9006
    9CHTO  H121 3622   7.429   3.874   0.131  0.8623 -0.4465 -1.8646
    9CHTO   C71 3623   7.608   3.872   0.035  0.0647 -0.7442 -0.2986
    9CHTO   O47 3624   7.649   4.010   0.040  0.4921  0.5570  0.2619
    9CHTO  H104 3625   7.714   4.017   0.106  0.2292  0.7867  0.4964
    9CHTO   O34 3626   7.440   3.435   0.185 -0.4565 -0.5240  0.1460
    9CHTO   C49 3627   7.547   3.371   0.074 -0.6313 -0.1056  0.2527
    9CHTO   H91 3628   7.519   3.404  -0.026  1.4251  0.6762 -0.0846
    9CHTO   C47 3629   7.532   3.221   0.088  0.3109  0.0889  0.2921
    9CHTO   H89 3630   7.579   3.185  -0.006 -0.4364  1.9432 -0.8251
    9CHTO   O33 3631   7.393   3.188   0.079 -0.5637  0.4724  0.0068
    9CHTO   H70 3632   7.347   3.224   0.153  0.3486  3.4251 -0.8098
    9CHTO   C45 3633   7.592   3.158   0.230 -0.4167  0.5188  0.2217
    9CHTO   H87 3634   7.511   3.143   0.303 -0.5094  2.7002  0.6062
    9CHTO    N8 3635   7.653   3.028   0.200  0.5764 -0.3640 -1.1544
    9CHTO   H75 3636   7.648   2.970   0.291  1.0506  2.5537  0.7850
    9CHTO   H76 3637   7.749   3.036   0.151  0.3499  0.0076 -1.5438
    9CHTO   C43 3638   7.690   3.264   0.306  0.2346 -0.0585 -0.5165
    9CHTO   H85 3639   7.616   3.329   0.352 -0.4330 -0.7244 -0.6308
    9CHTO   O29 3640   7.767   3.330   0.206 -0.3171 -0.3803  0.7697
    9CHTO   C50 3641   7.696   3.407   0.104 -0.3971  0.1725  0.0532
    9CHTO   H92 3642   7.717   3.513   0.123  1.8800 -0.1741 -0.4044
    9CHTO   C54 3643   7.778   3.386  -0.029 -0.3205  0.1889 -0.2724
    9CHTO   O36 3644   7.735   3.461  -0.145  0.2779 -0.1115 -0.1470
    9CHTO   H72 3645   7.739   3.409  -0.223  1.9942 -2.3567  1.3741
    9CHTO   O27 3646   7.778   3.205   0.409  0.2275  0.0030 -0.2664
    9CHTO   C37 3647   7.794   3.251   0.547 -0.2919  0.2884  0.7908
    9CHTO   H79 3648   7.871   3.194   0.601  0.9682 -0.2089 -1.4672
    9CHTO   C38 3649   7.846   3.395   0.550 -0.1643 -0.1334  0.1348
    9CHTO   H80 3650   7.762   3.458   0.518 -0.1255 -0.0681  0.1634
    9CHTO   O31 3651   7.966   3.401   0.467  0.2377  0.6264 -0.2878
    9CHTO   H68 3652   8.025   3.473   0.481  2.0747 -0.9172  0.0794
    9CHTO   C39 3653   7.871   3.440   0.698 -0.5051 -0.6476  0.0580
    9CHTO   H81 3654   7.941   3.365   0.734  1.9922  0.2648 -2.7362
    9CHTO    N7 3655   7.938   3.572   0.706 -0.0206  0.0809 -0.8870
    9CHTO   H73 3656   7.926   3.614   0.805  0.7296 -1.3102 -0.1796
    9CHTO   H74 3657   7.898   3.636   0.629 -0.3498  0.3620 -0.4843
    9CHTO   C40 3658   7.730   3.433   0.772 -0.4748 -0.5113  0.5820
    9CHTO   H82 3659   7.669   3.509   0.722  0.1784 -0.4543 -0.1360
    9CHTO   O26 3660   7.675   3.302   0.759 -0.0146 -0.0288 -0.6648
    9CHTO   C41 3661   7.658   3.250   0.622 -0.3250 -0.5124 -0.3136
    9CHTO   H83 3662   7.588   3.321   0.577  0.7630  0.6446 -0.2130
    9CHTO   C52 3663   7.599   3.112   0.628 -0.7463  0.2480 -0.4903
    9CHTO   O35 3664   7.681   3.018   0.703  0.3172  0.6627 -0.0139
    9CHTO   H71 3665   7.761   2.991   0.661 -0.5638 -1.8629 -0.1389
    9CHTO   O28 3666   7.722   3.438   0.916  0.2189 -0.6762 -0.0040
    9CHTO   C42 3667   7.631   3.536   0.966 -0.1351  0.5937  0.0955
    9CHTO   H84 3668   7.645   3.536   1.074  1.6429 -1.0698 -0.1069
    9CHTO   C44 3669   7.482   3.493   0.947 -0.2755 -0.2866 -0.1051
    9CHTO   H86 3670   7.466   3.464   0.843  1.2178 -0.3645 -0.3201
    9CHTO   O32 3671   7.453   3.380   1.031 -0.7591  0.4269 -0.1963
    9CHTO   H69 3672   7.467   3.409   1.119  1.3967 -0.2088 -0.3146
    9CHTO   C48 3673   7.384   3.615   0.988  0.4994 -0.6418  0.1147
    9CHTO   H90 3674   7.388   3.609   1.097 -4.2107 -0.6168  0.3937
    9CHTO    N9 3675   7.245   3.595   0.944  0.4792 -0.1067 -0.2832
    9CHTO   H77 3676   7.236   3.632   0.843 -1.4513  0.6168  0.1290
    9CHTO   H78 3677   7.216   3.491   0.950  1.8914 -0.5446 -0.9900
    9CHTO   C51 3678   7.437   3.753   0.941  0.3464  0.5241 -0.3370
    9CHTO   H93 3679   7.433   3.754   0.833  0.1952  0.5316 -0.3327
    9CHTO   O30 3680   7.568   3.760   0.995 -0.0880  0.2865 -0.6624
    9CHTO   C46 3681   7.648   3.684   0.925 -0.2754 -0.1388 -0.2411
    9CHTO   H88 3682   7.633   3.694   0.818  0.9500 -0.9672 -0.5033
    9CHTO   C53 3683   7.790   3.744   0.957 -0.0722  0.2436  0.6207
    9CHTO   O72 3684   7.826   3.715   1.092  0.0033  0.0269 -0.4921
    9CHTO  H199 3685   7.878   3.637   1.094  0.0901  0.0911 -0.2616
    9CHTO   O22 3686   7.372   3.870   1.004 -0.6420  0.2397 -0.1129
    9CHTO   C31 3687   7.376   4.001   0.936  0.2000 -0.0955  0.9694
    9CHTO   H59 3688   7.326   4.073   1.005  1.0738  0.3331  1.1685
    9CHTO   C29 3689   7.516   4.063   0.912  0.0295  0.1246  0.3988
    9CHTO   H57 3690   7.583   3.991   0.862  1.9331 -0.0465  3.0873
    9CHTO   O21 3691   7.582   4.083   1.033 -0.0384  0.4576 -0.4173
    9CHTO   H37 3692   7.642   4.156   1.032  0.8682 -0.2117  1.5082
    9CHTO   C27 3693   7.507   4.194   0.822  0.8971  0.2873  0.1799
    9CHTO   H55 3694   7.463   4.269   0.891 -1.5479 -0.2714 -0.7410
    9CHTO    N5 3695   7.638   4.242   0.780 -0.6416  0.1828  0.0332
    9CHTO   H43 3696   7.635   4.334   0.723 -0.4248  1.3846  1.9319
    9CHTO   H44 3697   7.682   4.164   0.719 -1.9431  0.6185 -1.5107
    9CHTO   C25 3698   7.405   4.169   0.701 -1.0065 -0.6198 -0.3339
    9CHTO   H53 3699   7.451   4.096   0.633 -0.6648 -2.5518  1.8940
    9CHTO   O17 3700   7.279   4.124   0.748  0.3852  0.0841  0.4123
    9CHTO   C32 3701   7.292   3.994   0.811  0.2155  0.2555 -0.0061
    9CHTO   H60 3702   7.337   3.930   0.735 -1.0857 -0.4178 -0.2063
    9CHTO   C36 3703   7.148   3.942   0.833 -0.5289 -0.1978  0.3257
    9CHTO   O25 3704   7.087   3.919   0.708  0.4982  0.2835 -0.4815
    9CHTO   H40 3705   7.033   3.843   0.708  1.1507 -0.2550 -3.2532
    9CHTO   O15 3706   7.385   4.309   0.617  0.6647 -0.0884 -0.2379
    9CHTO   C19 3707   7.325   4.333   0.486 -0.3310 -0.3107 -0.1014
    9CHTO   H47 3708   7.320   4.443   0.493  0.9495 -0.3374  1.5909
    9CHTO   C20 3709   7.422   4.282   0.376 -0.9377 -0.0180  0.3203
    9CHTO   H48 3710   7.445   4.176   0.390  0.2240  0.2660  0.5975
    9CHTO   O19 3711   7.537   4.364   0.394  0.1533 -0.1042  0.2031
    9CHTO   H35 3712   7.521   4.455   0.375  0.7291 -0.1680 -0.6330
    9CHTO   C21 3713   7.364   4.299   0.233  0.1939  0.0612 -0.3389
    9CHTO   H49 3714   7.345   4.406   0.222  0.0002 -0.0262 -0.8729
    9CHTO    N4 3715   7.466   4.244   0.132 -0.0052  0.6174  0.0274
    9CHTO   H41 3716   7.477   4.137   0.136 -2.8670  0.2573 -0.6482
    9CHTO   H42 3717   7.456   4.276   0.029 -1.0031 -1.6465 -0.6069
    9CHTO   C22 3718   7.216   4.236   0.236  0.4518  0.2035 -0.0358
    9CHTO   H50 3719   7.230   4.130   0.259  1.3728  0.4728  0.6497
    9CHTO   O14 3720   7.130   4.297   0.331 -0.5494  0.2867  0.4671
    9CHTO   C23 3721   7.182   4.281   0.466  0.0594  0.7189 -1.0126
    9CHTO   H51 3722   7.169   4.176   0.494 -2.2855  1.0715 -0.6942
    9CHTO   C34 3723   7.087   4.358   0.550 -0.7171  0.2706 -0.0321
    9CHTO   O23 3724   7.084   4.310   0.684  0.1272 -0.0928  0.1338
    9CHTO   H38 3725   7.169   4.328   0.720 -0.4498  1.7481  0.6567
    9CHTO   O16 3726   7.156   4.253   0.109 -0.4929  0.0259 -0.1182
    9CHTO   C24 3727   7.052   4.146   0.085  0.1399 -0.0285  0.6519
    9CHTO   H52 3728   7.032   4.088   0.176 -0.5939 -0.5593  0.1555
    9CHTO   C26 3729   7.107   4.055  -0.026  0.3368 -0.3824 -0.4031
    9CHTO   H54 3730   7.159   4.114  -0.104  1.6652  0.2888  0.9783
    9CHTO   O20 3731   7.212   3.982   0.035  0.4112 -0.4273 -0.1237
    9CHTO   H36 3732   7.253   3.919  -0.022 -1.3505 -1.4041 -0.3511
    9CHTO   C30 3733   6.999   3.958  -0.075 -0.2550 -0.6309  1.0688
    9CHTO   H58 3734   6.961   3.896   0.008  0.0925 -2.5424 -0.1812
    9CHTO    N6 3735   7.043   3.862  -0.176  0.4677  0.6282  0.2142
    9CHTO   H45 3736   7.099   3.775  -0.144 -1.4676 -0.6902  0.0906
    9CHTO   H46 3737   7.098   3.910  -0.256  1.8966  0.2907  0.9701
    9CHTO   C33 3738   6.871   4.041  -0.115  0.6500 -0.2454  0.0533
    9CHTO   H61 3739   6.901   4.112  -0.194  0.0483 -0.9044 -0.7811
    9CHTO   O18 3740   6.832   4.117   0.002  0.2204 -0.1294 -0.0525
    9CHTO   C28 3741   6.923   4.220   0.047  0.0970  0.2929  0.3328
    9CHTO   H56 3742   6.941   4.278  -0.043  0.4561  1.1145  0.9311
    9CHTO   C35 3743   6.856   4.308   0.159 -0.4829 -0.2769 -0.4185
    9CHTO   O24 3744   6.768   4.401   0.104  0.1982  0.6296  0.3479
    9CHTO   H39 3745   6.715   4.440   0.171  0.1930  1.5160 -0.1604
    9CHTO    O9 3746   6.764   3.962  -0.164  0.0991  0.1889  1.0227
    9CHTO   C13 3747   6.651   4.065  -0.263  0.1398 -0.3889  0.0559
    9CHTO   H26 3748   6.708   4.131  -0.332  0.5339 -0.2160  0.5485
    9CHTO   C11 3749   6.569   4.148  -0.151 -0.2768 -0.1712  0.1149
    9CHTO   H24 3750   6.626   4.242  -0.144  1.3829 -0.9346 -2.5196
    9CHTO    O8 3751   6.542   4.071  -0.033 -0.5939 -0.0247 -0.5736
    9CHTO    H3 3752   6.475   4.115   0.016 -0.4714  0.0277 -0.4564
    9CHTO    C9 3753   6.439   4.201  -0.214 -0.0640 -0.3556 -0.4241
    9CHTO   H22 3754   6.471   4.257  -0.303  2.2070 -0.1031  0.5163
    9CHTO    N2 3755   6.371   4.309  -0.144  0.6126  0.0830 -0.3111
    9CHTO   H10 3756   6.439   4.379  -0.097  1.1232 -1.1343  0.7896
    9CHTO   H11 3757   6.297   4.351  -0.211 -0.4248  0.4503  1.0409
    9CHTO    C7 3758   6.343   4.078  -0.239 -0.5379  0.5857 -0.1088
    9CHTO   H20 3759   6.274   4.117  -0.317  1.1084 -0.4165 -2.1243
    9CHTO    O4 3760   6.420   3.967  -0.289  0.1081  0.1426  0.1371
    9CHTO   C14 3761   6.547   3.984  -0.358  0.4285  0.1585  0.6717
    9CHTO   H27 3762   6.529   4.042  -0.451  1.4435  0.7453  0.8374
    9CHTO   C18 3763   6.594   3.850  -0.398  0.5492  0.0785  0.0944
    9CHTO   O13 3764   6.724   3.841  -0.458 -0.4350  0.1213 -0.4987
    9CHTO    H7 3765   6.732   3.894  -0.535  1.7912  1.2498  0.4501
    9CHTO    O2 3766   6.272   4.026  -0.087  0.0399 -0.5694 -0.1991
    9CHTO    C1 3767   6.132   3.994  -0.078 -1.2356 -0.5896 -0.5936
    9CHTO   H14 3768   6.136   3.920   0.005  1.9895  0.4851  0.2760
    9CHTO    C2 3769   6.063   3.930  -0.202  0.2886  0.1184 -0.4507
    9CHTO   H15 3770   6.073   4.004  -0.283  1.9586  2.3178  1.6971
    9CHTO    O6 3771   6.133   3.812  -0.246  0.1537  0.5791  0.0320
    9CHTO    H1 3772   6.157   3.831  -0.334  1.1812  1.8417  0.5714
    9CHTO    C3 3773   5.904   3.899  -0.172 -0.3132  0.1929 -0.5469
    9CHTO   H16 3774   5.902   3.814  -0.102  0.9916 -0.0907 -0.8548
    9CHTO    N1 3775   5.827   3.860  -0.290 -0.2731  0.3850 -0.0490
    9CHTO    H8 3776   5.723   3.890  -0.299 -0.1733  0.8011  0.1896
    9CHTO    H9 3777   5.879   3.851  -0.384  0.1064 -0.2659  0.2233
    9CHTO    C4 3778   5.838   4.021  -0.090 -0.0289 -0.2923 -0.6089
    9CHTO   H17 3779   5.828   4.104  -0.161 -0.2529 -0.1068 -0.3634
    9CHTO    O1 3780   5.919   4.064   0.024 -0.1914 -0.2819  0.2531
    9CHTO    C5 3781   6.046   4.112  -0.026  0.7245  0.1430  0.3049
    9CHTO   H18 3782   6.034   4.187  -0.103  1.4799  2.0871  2.0518
    9CHTO   C16 3783   6.103   4.181   0.101  0.3918  0.0699  0.0543
    9CHTO   O11 3784   6.178   4.095   0.187  0.1761 -0.0100 -0.3558
    9CHTO    H5 3785   6.166   4.131   0.272 -2.1176  0.8364 -0.9917
    9CHTO    O3 3786   5.709   3.993  -0.039 -0.0420 -0.0347  0.2715
    9CHTO    C6 3787   5.601   4.090  -0.041 -0.4885 -0.0287 -0.2872
    9CHTO   H19 3788   5.629   4.172  -0.107 -0.3761 -0.8085 -1.2243
    9CHTO    C8 3789   5.473   4.010  -0.073 -0.3524 -0.1874  0.0319
    9CHTO   H21 3790   5.469   3.922  -0.009  1.0129  1.2539  2.2098
    9CHTO    O7 3791   5.493   3.960  -0.209  0.2288  0.2883  0.4592
    9CHTO    H2 3792   5.525   4.030  -0.264  0.2013  0.5982  0.8312
    9CHTO   C12 3793   5.338   4.087  -0.053  0.2315 -0.0384 -0.5541
    9CHTO   H25 3794   5.327   4.168  -0.129 -0.1146  1.4819  1.0806
    9CHTO    N3 3795   5.220   3.994  -0.073 -0.2029 -0.2156 -0.3161
    9CHTO   H12 3796   5.225   3.942  -0.167  0.6878 -0.2152 -0.2692
    9CHTO   H13 3797   5.127   4.047  -0.062 -0.6282 -1.0437  0.1892
    9CHTO   C15 3798   5.349   4.165   0.090  0.1122 -0.5529  0.7088
    9CHTO   H28 3799   5.339   4.101   0.178  0.2554 -0.5870  0.7014
    9CHTO   O10 3800   5.245   4.267   0.106  0.3768 -0.6890 -0.1079
    9CHTO    H4 3801   5.170   4.224   0.143  0.0573 -0.3033 -0.3031
    9CHTO    O5 3802   5.472   4.232   0.110  1.0872  0.0357 -0.3999
    9CHTO   C10 3803   5.585   4.150   0.108 -0.6115 -0.0074 -0.2586
    9CHTO   H23 3804   5.576   4.069   0.180 -2.9119  0.5752  0.1669
    9CHTO   C17 3805   5.699   4.248   0.140 -0.4277 -1.4184 -0.6243
    9CHTO   O12 3806   5.708   4.322   0.265  0.3223  0.4431 -0.6843
    9CHTO    H6 3807   5.797   4.315   0.293  0.3350  0.0597 -0.8107
   10CHTO  H203 3808   4.883   6.286  -0.127 -0.0449 -0.3519 -0.4888
   10CHTO   O82 3809   4.823   6.223  -0.093 -0.4641  0.3363  0.0401
   10CHTO  C123 3810   4.688   6.264  -0.128  0.4433 -0.5375 -0.3990
   10CHTO  H227 3811   4.673   6.242  -0.235  0.9365 -1.5290 -0.2770
   10CHTO   O77 3812   4.593   6.182  -0.054  0.2564 -0.2295 -0.1865
   10CHTO  C118 3813   4.457   6.194  -0.101  0.3866 -0.3236  0.8079
   10CHTO  H222 3814   4.457   6.183  -0.211 -0.2725  0.9039  0.6701
   10CHTO  C125 3815   4.361   6.085  -0.036  0.0146  0.5381 -0.1811
   10CHTO   O84 3816   4.417   5.952  -0.041 -0.0673  0.0232 -0.6749
   10CHTO  H205 3817   4.370   5.891   0.012  0.6015  0.1520  0.0726
   10CHTO  C114 3818   4.417   6.335  -0.061  0.5077  0.0664 -0.2351
   10CHTO  H218 3819   4.430   6.345   0.046  0.4438 -2.3355  0.0329
   10CHTO  C116 3820   4.506   6.436  -0.142 -0.5701  0.1880  0.4263
   10CHTO  H220 3821   4.495   6.430  -0.253 -0.4445 -0.3117  0.4401
   10CHTO   O79 3822   4.460   6.572  -0.114 -0.0949  0.3205  0.4566
   10CHTO  H201 3823   4.524   6.627  -0.154  1.0283 -1.0468  0.3090
   10CHTO  C120 3824   4.658   6.417  -0.106 -0.5471 -0.4380  0.8594
   10CHTO  H224 3825   4.664   6.448   0.001  1.3316  1.0487  0.3495
   10CHTO   N21 3826   4.747   6.507  -0.180 -0.4584  0.0528  0.3765
   10CHTO  H211 3827   4.697   6.530  -0.274 -0.9213  1.7378  1.0146
   10CHTO  H212 3828   4.840   6.457  -0.200 -0.1273  0.7637  0.1179
   10CHTO   O75 3829   4.278   6.348  -0.099  0.4485  0.2952 -0.0407
   10CHTO  C112 3830   4.180   6.415   0.032 -0.0003  0.3219 -0.2116
   10CHTO  H216 3831   4.223   6.512   0.059 -1.2246  1.2199 -1.4105
   10CHTO   O73 3832   4.179   6.320   0.145 -0.3335 -0.1385 -0.1574
   10CHTO  C113 3833   4.106   6.365   0.255  0.3991 -0.0411 -0.1849
   10CHTO  H217 3834   4.156   6.449   0.308  1.8138 -0.5516 -0.6802
   10CHTO  C124 3835   4.109   6.252   0.358  0.8849  0.5235  0.5642
   10CHTO   O83 3836   4.062   6.125   0.304  0.2703 -0.3917 -0.0439
   10CHTO  H204 3837   4.099   6.116   0.218 -0.9955 -2.5641 -0.3957
   10CHTO  C109 3838   3.959   6.404   0.225 -0.4705 -0.0060 -0.4401
   10CHTO  H213 3839   3.902   6.314   0.198 -0.9825 -0.1309  1.0214
   10CHTO  C110 3840   3.959   6.502   0.105  0.2349  0.3037 -0.0229
   10CHTO  H214 3841   4.000   6.599   0.135  0.5482 -0.0044  0.5557
   10CHTO   O78 3842   3.820   6.524   0.073  0.4019  0.2285  0.7311
   10CHTO  H200 3843   3.800   6.599   0.022  0.2986  0.4934  1.1543
   10CHTO  C111 3844   4.035   6.444  -0.016 -0.4195 -0.2848  0.9152
   10CHTO  H215 3845   3.980   6.350  -0.035 -2.7961  1.1428  0.5028
   10CHTO   N19 3846   4.027   6.520  -0.140  0.5460  0.2572  0.2388
   10CHTO  H207 3847   3.930   6.527  -0.187  0.8408 -1.2668 -0.6555
   10CHTO  H208 3848   4.065   6.618  -0.118  0.2569  0.5089 -0.3747
   10CHTO   O74 3849   3.902   6.467   0.345  0.0138 -0.0867 -0.5728
   10CHTO  C115 3850   3.756   6.461   0.385 -0.4015 -0.2193  0.1174
   10CHTO  H219 3851   3.702   6.543   0.338 -0.9200 -0.5510  0.1338
   10CHTO   O76 3852   3.677   6.323   0.317  0.3908  0.3146 -0.3016
   10CHTO  C122 3853   3.702   6.205   0.389 -0.1971  0.8199 -0.5487
   10CHTO  H226 3854   3.809   6.184   0.391  0.1790  2.6608 -0.2635
   10CHTO  C126 3855   3.631   6.082   0.317  0.1433  0.0741  0.0480
   10CHTO   O85 3856   3.689   6.070   0.186 -0.2581 -0.2156  0.2887
   10CHTO  H206 3857   3.782   6.058   0.182 -0.5431 -2.5875 -0.0772
   10CHTO  C121 3858   3.646   6.217   0.530  0.1022  0.3461  0.0250
   10CHTO  H225 3859   3.541   6.179   0.531  0.5175 -0.8153  0.4720
   10CHTO   O81 3860   3.721   6.126   0.611 -0.1647 -0.6217  0.2903
   10CHTO  H202 3861   3.760   6.062   0.554  0.5201 -0.5889  0.7143
   10CHTO  C119 3862   3.641   6.363   0.594 -0.1206  0.1443 -0.1900
   10CHTO  H223 3863   3.540   6.392   0.568 -0.8707 -0.5497  1.8505
   10CHTO  C117 3864   3.747   6.465   0.535 -0.5186 -0.5462 -0.1579
   10CHTO  H221 3865   3.847   6.459   0.577 -1.7110  0.0591  2.9274
   10CHTO   N20 3866   3.702   6.605   0.576  0.1046 -0.0516 -0.1572
   10CHTO  H209 3867   3.610   6.614   0.633 -0.1941 -0.5712 -0.5520
   10CHTO  H210 3868   3.693   6.671   0.491  1.4414  1.9370  1.2132
   10CHTO   O80 3869   3.625   6.360   0.768  0.5946  0.1668 -0.3705
   10CHTO  C103 3870   3.508   6.284   0.836  1.4149  0.2162  0.2109
   10CHTO  H190 3871   3.423   6.283   0.768  1.5983 -0.0463 -0.0183
   10CHTO  C101 3872   3.533   6.137   0.912 -0.0816 -0.2944  0.1198
   10CHTO  H188 3873   3.634   6.141   0.954 -0.0585  0.4621  0.0018
   10CHTO   O68 3874   3.540   6.021   0.802 -0.3618  0.0461 -0.0468
   10CHTO  H168 3875   3.559   5.944   0.852 -3.0576 -0.1650  0.7247
   10CHTO   C99 3876   3.423   6.109   1.012 -0.2374 -0.4247 -0.2803
   10CHTO  H186 3877   3.325   6.100   0.961 -0.1954 -0.4962 -0.3496
   10CHTO   N17 3878   3.436   5.974   1.084  0.1319 -0.4239 -0.2034
   10CHTO  H174 3879   3.417   5.978   1.191  3.6102  0.3623  0.4472
   10CHTO  H175 3880   3.381   5.897   1.033 -0.6720  1.6717 -2.5739
   10CHTO   C97 3881   3.420   6.231   1.109  0.1321  0.1340  0.2988
   10CHTO  H184 3882   3.512   6.256   1.163 -0.5386  0.3581  1.3730
   10CHTO   O64 3883   3.371   6.341   1.031  0.3284 -0.0212 -0.7842
   10CHTO  C104 3884   3.476   6.394   0.951 -0.0505 -0.0179 -0.0699
   10CHTO  H191 3885   3.570   6.419   1.001 -0.1673 -1.7042  1.0583
   10CHTO  C108 3886   3.423   6.520   0.884 -0.3477 -0.2280  0.0419
   10CHTO   O71 3887   3.415   6.630   0.977 -0.2281 -0.1025  0.1091
   10CHTO  H171 3888   3.504   6.655   0.993 -0.1977  1.2985 -2.1000
   10CHTO   O62 3889   3.301   6.223   1.200 -0.0013  0.2705 -0.0009
   10CHTO   C91 3890   3.314   6.218   1.337 -0.3193  0.1763 -0.7579
   10CHTO  H178 3891   3.396   6.148   1.349 -0.8373 -0.7992 -2.7262
   10CHTO   C92 3892   3.181   6.160   1.397  0.5414  0.5079 -0.5256
   10CHTO  H179 3893   3.134   6.083   1.334 -0.5327  0.3952  0.3852
   10CHTO   O66 3894   3.207   6.090   1.521  0.0449 -0.1685 -0.6295
   10CHTO  H166 3895   3.125   6.049   1.540 -1.0674  1.8673 -0.8243
   10CHTO   C93 3896   3.065   6.265   1.423 -0.3920 -0.1230 -0.4277
   10CHTO  H180 3897   2.998   6.216   1.496 -0.6308  0.2326 -0.4061
   10CHTO   N16 3898   2.971   6.297   1.304 -0.5961  0.4264  0.1920
   10CHTO  H172 3899   2.907   6.379   1.334  1.5771  2.1686  0.1937
   10CHTO  H173 3900   2.911   6.209   1.289 -1.6722  1.2131 -0.1697
   10CHTO   C94 3901   3.125   6.397   1.494 -0.0747  0.2770  0.7114
   10CHTO  H181 3902   3.103   6.487   1.436  0.6154 -0.2105 -0.3072
   10CHTO   O61 3903   3.262   6.390   1.525  0.4907  0.1687  0.3619
   10CHTO   C95 3904   3.339   6.367   1.408  0.1299  0.1354  0.5203
   10CHTO  H182 3905   3.321   6.447   1.336  0.7336  0.4719  0.7356
   10CHTO  C106 3906   3.495   6.384   1.442 -0.0928 -0.5523  0.4658
   10CHTO   O69 3907   3.526   6.518   1.478  0.2887  0.2235  0.6328
   10CHTO  H169 3908   3.567   6.532   1.562  1.3969  0.3800  0.0725
   10CHTO   O63 3909   3.041   6.415   1.630  0.6218  0.7290 -0.4806
   10CHTO   C96 3910   3.095   6.322   1.762 -0.2513 -0.8929 -0.1644
   10CHTO  H183 3911   3.187   6.267   1.741 -0.9851 -3.2248  2.5062
   10CHTO   C98 3912   2.992   6.220   1.815 -0.0706 -0.2832 -0.0951
   10CHTO  H185 3913   2.894   6.269   1.801 -0.2849 -1.4977 -3.0818
   10CHTO   O67 3914   2.994   6.105   1.726  0.5690 -0.3793  0.0280
   10CHTO  H167 3915   2.987   6.025   1.774  0.0917 -0.1846  0.2934
   10CHTO  C102 3916   3.016   6.169   1.965  0.0458 -1.5594  0.2481
   10CHTO  H189 3917   3.089   6.087   1.956  0.5769 -1.2163  1.2552
   10CHTO   N18 3918   2.906   6.105   2.034  0.9320 -0.0266  0.0564
   10CHTO  H176 3919   2.949   6.070   2.126 -0.2107  1.0445  1.0179
   10CHTO  H177 3920   2.826   6.174   2.056  2.1760  1.2461  0.6208
   10CHTO  C105 3921   3.070   6.278   2.062 -0.1393 -0.0411  0.1889
   10CHTO  H192 3922   2.982   6.335   2.093 -0.8326 -0.5918 -0.7453
   10CHTO   O65 3923   3.173   6.360   2.003  0.4118 -0.1229 -0.5998
   10CHTO  C100 3924   3.141   6.422   1.879  0.8955  0.3386 -0.6142
   10CHTO  H187 3925   3.055   6.489   1.898  1.0969  0.7078 -0.9951
   10CHTO  C107 3926   3.253   6.521   1.843  0.1961 -0.1053 -0.0257
   10CHTO   O70 3927   3.378   6.463   1.857 -0.1040  0.3283 -0.4996
   10CHTO  H170 3928   3.373   6.374   1.828 -0.7554  0.2390 -0.1138
   10CHTO   O57 3929   3.133   6.213   2.196  0.0587 -0.3919  0.0106
   10CHTO   C85 3930   3.081   6.246   2.327 -0.3872  0.5616 -0.3107
   10CHTO  H157 3931   2.971   6.236   2.319 -0.0526 -2.1030 -2.5003
   10CHTO   C83 3932   3.101   6.397   2.346 -0.3912  0.4513  0.7768
   10CHTO  H155 3933   3.049   6.455   2.270 -1.0124 -2.3241 -0.9457
   10CHTO   O56 3934   3.245   6.428   2.336 -0.0093  0.0778 -0.6404
   10CHTO  H135 3935   3.294   6.348   2.335 -2.4354 -1.4876 -0.2146
   10CHTO   C81 3936   3.047   6.443   2.485 -0.7635  0.4307 -0.3393
   10CHTO  H153 3937   2.942   6.414   2.489 -0.0315 -2.3861 -0.3362
   10CHTO   N14 3938   3.040   6.585   2.494  0.6525 -0.1041 -0.3279
   10CHTO  H141 3939   3.137   6.623   2.469  1.6555 -1.1025  1.9319
   10CHTO  H142 3940   2.971   6.628   2.425  1.3374  2.2719  0.4143
   10CHTO   C79 3941   3.118   6.363   2.599 -0.2000 -0.0225 -0.1217
   10CHTO  H151 3942   3.073   6.392   2.694  0.5348  0.2479  0.1390
   10CHTO   O52 3943   3.107   6.215   2.585 -0.3334  0.0486 -0.2694
   10CHTO   C86 3944   3.137   6.159   2.451 -0.4223 -0.7735  0.2772
   10CHTO  H158 3945   3.248   6.155   2.456 -0.2307  2.9942  0.1705
   10CHTO   C90 3946   3.090   6.014   2.434  0.1379  1.0951  0.6250
   10CHTO   O60 3947   2.949   6.017   2.448 -0.2385  0.2181 -0.3944
   10CHTO  H138 3948   2.926   5.931   2.475  2.1693 -0.5407 -0.6134
   10CHTO   O50 3949   3.254   6.390   2.619 -0.3781 -0.6065 -0.1260
   10CHTO   C73 3950   3.353   6.377   2.716 -0.8479 -0.2166 -0.5202
   10CHTO  H145 3951   3.335   6.278   2.762  0.5022 -0.7655 -1.1568
   10CHTO   C74 3952   3.349   6.500   2.810 -0.3454  0.2026 -0.1511
   10CHTO  H146 3953   3.252   6.496   2.861 -0.1276  2.1862  0.4705
   10CHTO   O54 3954   3.452   6.499   2.915 -0.1544 -0.4892 -0.3134
   10CHTO  H133 3955   3.420   6.555   2.984 -0.5435  2.1228 -2.5281
   10CHTO   C75 3956   3.368   6.636   2.723  0.2566 -0.8605  0.0254
   10CHTO  H147 3957   3.283   6.647   2.655 -1.3776  3.1230  2.5721
   10CHTO   N13 3958   3.364   6.756   2.807 -0.6201 -0.0652  0.0770
   10CHTO  H139 3959   3.393   6.842   2.750 -1.1545 -0.8304 -1.3748
   10CHTO  H140 3960   3.267   6.775   2.851  0.2948 -0.9557  2.5731
   10CHTO   C76 3961   3.507   6.608   2.639 -0.4388 -0.9487  0.1199
   10CHTO  H148 3962   3.582   6.599   2.718 -2.2142 -1.2559  1.7994
   10CHTO   O49 3963   3.510   6.486   2.559  0.2207  0.4023 -0.1627
   10CHTO   C77 3964   3.493   6.372   2.642  0.5987 -0.6316 -0.0865
   10CHTO  H149 3965   3.574   6.379   2.715 -0.4077  0.5420  0.9406
   10CHTO   C88 3966   3.506   6.248   2.554  0.4569  0.6818  0.5854
   10CHTO   O58 3967   3.644   6.216   2.523  0.3000  0.0518 -0.5803
   10CHTO  H136 3968   3.657   6.132   2.563  0.5734  0.9053  1.1741
   10CHTO   O51 3969   3.532   6.728   2.536  0.0746 -0.1860  0.5259
   10CHTO   C78 3970   3.682   6.793   2.561  0.3635  0.1095 -0.2647
   10CHTO  H150 3971   3.751   6.710   2.588  1.5349  0.7426 -1.2338
   10CHTO   C80 3972   3.682   6.901   2.679  0.9548 -0.5862  0.2034
   10CHTO  H152 3973   3.599   6.973   2.667  0.0706 -1.2831  1.9173
   10CHTO   O55 3974   3.662   6.828   2.801 -0.1611  0.2238 -0.1084
   10CHTO  H134 3975   3.697   6.876   2.874 -2.3950 -0.1993  1.2828
   10CHTO   C84 3976   3.817   6.984   2.678  0.7512  0.0715 -0.1524
   10CHTO  H156 3977   3.900   6.914   2.693  0.6971 -0.1038 -0.6782
   10CHTO   N15 3978   3.811   7.076   2.797 -0.4511 -0.4716 -0.4379
   10CHTO  H143 3979   3.754   7.025   2.871 -0.5497 -0.1807 -0.3161
   10CHTO  H144 3980   3.751   7.157   2.762 -0.0494  0.0702  0.1151
   10CHTO   C87 3981   3.841   7.046   2.536  0.4081  0.3184  0.1744
   10CHTO  H159 3982   3.762   7.108   2.495  0.7142  1.3391  1.0977
   10CHTO   O53 3983   3.857   6.919   2.432  0.0846  0.1101  0.0724
   10CHTO   C82 3984   3.729   6.853   2.422 -0.2235 -0.2863  0.0108
   10CHTO  H154 3985   3.655   6.917   2.373  0.6053 -0.4858 -1.5237
   10CHTO   C89 3986   3.749   6.736   2.327  0.7443  0.6485  0.4974
   10CHTO   O59 3987   3.766   6.770   2.188 -0.1647 -0.1346  0.1001
   10CHTO  H137 3988   3.719   6.706   2.140  0.7352 -0.7755  0.0574
   10CHTO   O45 3989   3.987   7.130   2.533  0.1144 -0.1525 -0.1201
   10CHTO   C67 3990   4.015   7.166   2.399  0.2111 -0.9787  0.7516
   10CHTO  H124 3991   3.977   7.097   2.323  1.2411 -0.5243 -0.1833
   10CHTO   C65 3992   3.946   7.303   2.376 -0.2804  0.1008 -0.8385
   10CHTO  H122 3993   3.841   7.295   2.402 -0.1654 -0.2924 -0.4882
   10CHTO   O44 3994   3.960   7.351   2.239  0.0404  0.1258  0.4143
   10CHTO  H102 3995   4.029   7.415   2.236  1.0735 -0.9099  1.5162
   10CHTO   C63 3996   4.008   7.404   2.484  0.4578  0.7500  0.5178
   10CHTO  H120 3997   3.988   7.363   2.583  0.1737 -1.4496 -0.4322
   10CHTO   N11 3998   3.943   7.538   2.484 -0.0461 -0.2487 -0.0464
   10CHTO  H108 3999   3.982   7.598   2.564 -0.0928 -0.5501  0.2023
   10CHTO  H109 4000   3.839   7.529   2.505  0.1196 -0.0266  0.9047
   10CHTO   C61 4001   4.163   7.406   2.479  0.0614  0.3554  0.2892
   10CHTO  H118 4002   4.192   7.447   2.577  0.2805  1.0422 -0.0681
   10CHTO   O40 4003   4.223   7.279   2.470  0.3769  0.3340 -0.8254
   10CHTO   C68 4004   4.168   7.167   2.398 -0.5659 -0.2057 -0.7224
   10CHTO  H125 4005   4.197   7.075   2.453  0.2521  1.0324  0.9487
   10CHTO   C72 4006   4.238   7.158   2.256  0.2621  0.2987 -0.1598
   10CHTO   O48 4007   4.209   7.035   2.180 -0.1335  0.1996  0.0791
   10CHTO  H105 4008   4.139   7.059   2.123  0.8352 -0.9840 -1.6578
   10CHTO   O38 4009   4.220   7.482   2.367 -0.2139  0.7775  1.0631
   10CHTO   C55 4010   4.298   7.602   2.381 -0.1418  0.2870  0.2202
   10CHTO  H112 4011   4.389   7.566   2.330 -1.2935 -1.3409 -0.7437
   10CHTO   C56 4012   4.331   7.671   2.524 -0.1975 -0.3788  0.1505
   10CHTO  H113 4013   4.233   7.691   2.570 -0.3831  0.2454 -0.5114
   10CHTO   O42 4014   4.410   7.571   2.593 -0.2773 -0.2970 -0.1519
   10CHTO  H100 4015   4.362   7.495   2.621  1.4166 -0.8990  1.2160
   10CHTO   C57 4016   4.407   7.806   2.499 -0.0003  0.8087  0.1861
   10CHTO  H114 4017   4.507   7.781   2.461  0.3731 -0.2109  1.8189
   10CHTO   N10 4018   4.430   7.881   2.624 -0.1448 -0.2482  0.5115
   10CHTO  H106 4019   4.341   7.876   2.684 -1.4596  0.8132 -1.2938
   10CHTO  H107 4020   4.512   7.828   2.670  1.4079 -0.3929 -2.2871
   10CHTO   C58 4021   4.336   7.901   2.397 -0.4453  0.1720 -0.5400
   10CHTO  H115 4022   4.239   7.940   2.435 -0.4736 -0.6281  0.2226
   10CHTO   O37 4023   4.323   7.821   2.275  0.3245 -0.1152  0.0078
   10CHTO   C59 4024   4.241   7.708   2.279  0.2734 -0.1504 -0.0757
   10CHTO  H116 4025   4.137   7.731   2.303  0.6449 -0.4263  1.8561
   10CHTO   C70 4026   4.229   7.651   2.137 -0.4471  0.0778 -0.7897
   10CHTO   O46 4027   4.356   7.623   2.081  0.1229 -0.2114  0.3639
   10CHTO  H103 4028   4.429   7.610   2.138  0.9275  0.3281 -0.5299
   10CHTO   O39 4029   4.445   8.044   2.356  0.2577  0.6592 -0.3336
   10CHTO   C60 4030   4.367   8.163   2.326  0.2984  0.1196  0.6891
   10CHTO  H117 4031   4.264   8.154   2.359 -0.1899 -0.5758 -0.9670
   10CHTO   C62 4032   4.433   8.269   2.416  0.4178 -0.3193 -0.0345
   10CHTO  H119 4033   4.431   8.222   2.517 -2.4347 -3.6940 -1.5241
   10CHTO   O43 4034   4.571   8.290   2.373 -0.3334 -0.3345  0.2993
   10CHTO  H101 4035   4.601   8.331   2.451  1.1819  0.6047 -0.7525
   10CHTO   C66 4036   4.347   8.401   2.406  0.0960  0.2224 -0.7494
   10CHTO  H123 4037   4.242   8.378   2.421  0.2646  1.1708  2.0201
   10CHTO   N12 4038   4.381   8.508   2.501 -0.0940  0.0062 -0.1997
   10CHTO  H110 4039   4.463   8.571   2.470 -0.3481 -1.1402 -3.4461
   10CHTO  H111 4040   4.388   8.473   2.603 -0.7580  3.9137  1.2698
   10CHTO   C69 4041   4.356   8.456   2.261  0.3638 -0.3400  0.6632
   10CHTO  H126 4042   4.462   8.477   2.235  0.0547 -0.6005 -0.8299
   10CHTO   O41 4043   4.303   8.350   2.163 -0.4339 -0.3861  0.0383
   10CHTO   C64 4044   4.361   8.202   2.175  0.2670  0.5956 -0.5409
   10CHTO  H121 4045   4.464   8.191   2.134 -0.3784 -2.8108 -1.4157
   10CHTO   C71 4046   4.257   8.112   2.098  0.3734 -0.0369 -0.6622
   10CHTO   O47 4047   4.279   8.121   1.957 -0.1309 -0.3869 -0.4050
   10CHTO  H104 4048   4.204   8.077   1.920 -1.0960  2.1082 -1.5315
   10CHTO   O34 4049   4.277   8.606   2.244  0.0825 -0.2187  0.4398
   10CHTO   C49 4050   4.149   8.684   2.199  0.2227  0.6633  0.1347
   10CHTO   H91 4051   4.168   8.787   2.228 -0.7751  1.5081 -2.1304
   10CHTO   C47 4052   4.029   8.639   2.275 -0.4270  0.6043 -0.0802
   10CHTO   H89 4053   4.036   8.702   2.365  2.9467  0.4613 -0.1864
   10CHTO   O33 4054   4.037   8.504   2.309  0.2921  0.4919  0.0691
   10CHTO   H70 4055   4.006   8.453   2.237 -0.9854 -0.4624  1.2706
   10CHTO   C45 4056   3.885   8.668   2.201 -0.1016  0.5596  0.4284
   10CHTO   H87 4057   3.862   8.581   2.138  2.7918 -0.2314  0.4272
   10CHTO    N8 4058   3.773   8.696   2.292 -0.2817 -0.1431 -0.3971
   10CHTO   H75 4059   3.676   8.681   2.247 -0.3914  1.0033 -0.5606
   10CHTO   H76 4060   3.802   8.629   2.372  2.4263  1.7492  0.2651
   10CHTO   C43 4061   3.897   8.784   2.093 -0.3392  0.4179 -0.1397
   10CHTO   H85 4062   3.804   8.797   2.037 -0.3737  2.0747  0.2712
   10CHTO   O29 4063   4.003   8.742   2.003  0.4908 -0.2401  0.3498
   10CHTO   C50 4064   4.127   8.690   2.048 -0.1535 -0.1042 -0.8943
   10CHTO   H92 4065   4.139   8.588   2.008 -0.1813 -0.4573 -0.0075
   10CHTO   C54 4066   4.232   8.775   1.979  0.5849  0.5114  0.4343
   10CHTO   O36 4067   4.236   8.751   1.837  0.0062 -0.2664 -0.4916
   10CHTO   H72 4068   4.303   8.805   1.800  0.4759  2.0025  3.4210
   10CHTO   O27 4069   3.922   8.915   2.136 -0.5647  0.1906 -0.1043
   10CHTO   C37 4070   3.995   9.030   2.086  0.1312 -0.3402 -0.2670
   10CHTO   H79 4071   4.099   9.004   2.061 -0.2391 -1.2714 -0.8970
   10CHTO   C38 4072   3.919   9.082   1.955 -0.1754  0.4716  0.4214
   10CHTO   H80 4073   3.811   9.060   1.960 -0.1867  0.3655 -0.2756
   10CHTO   O31 4074   3.969   9.006   1.845 -0.2055  0.5374 -0.0909
   10CHTO   H68 4075   3.924   9.010   1.763  1.1836  0.4006 -0.8771
   10CHTO   C39 4076   3.947   9.232   1.929 -0.5774  0.0679 -0.4287
   10CHTO   H81 4077   4.048   9.236   1.888  1.0590 -1.5776  3.1925
   10CHTO    N7 4078   3.841   9.291   1.831  0.1708 -0.3848 -0.0567
   10CHTO   H73 4079   3.859   9.261   1.729  3.4003 -0.8228  0.5821
   10CHTO   H74 4080   3.740   9.265   1.861  0.1028  0.1954  0.2239
   10CHTO   C40 4081   3.942   9.324   2.053  0.0803  0.8459 -0.3895
   10CHTO   H82 4082   3.839   9.326   2.087 -0.1336 -1.7454 -0.8022
   10CHTO   O26 4083   4.035   9.269   2.152 -0.6024  0.3313  0.5537
   10CHTO   C41 4084   3.993   9.136   2.200  0.1169  0.0441  0.3220
   10CHTO   H83 4085   3.894   9.140   2.246 -0.2693 -0.8652 -0.4003
   10CHTO   C52 4086   4.081   9.081   2.312  0.2619  0.4296 -0.1338
   10CHTO   O35 4087   4.083   9.167   2.426 -0.6418 -0.3672  0.1493
   10CHTO   H71 4088   4.131   9.132   2.498 -0.6256  1.3339  1.0004
   10CHTO   O28 4089   4.005   9.453   2.030 -0.3497  0.5587  0.4685
   10CHTO   C42 4090   3.971   9.584   2.094  0.1350  0.1293 -0.0928
   10CHTO   H84 4091   3.956   9.564   2.200  0.6213 -1.0566 -0.2405
   10CHTO   C44 4092   3.842   9.656   2.035  0.1658  0.4934 -0.0586
   10CHTO   H86 4093   3.860   9.669   1.928  0.6467 -0.9622 -0.1647
   10CHTO   O32 4094   3.725   9.567   2.043 -0.0544 -0.0244 -0.0131
   10CHTO   H69 4095   3.643   9.607   2.019 -1.1114 -1.0301  1.8489
   10CHTO   C48 4096   3.819   9.794   2.106 -0.1564 -0.1620  0.0573
   10CHTO   H90 4097   3.797   9.788   2.212 -1.0991 -1.8989 -0.2271
   10CHTO    N9 4098   3.696   9.859   2.057 -0.4712  0.6373  0.5914
   10CHTO   H77 4099   3.608   9.814   2.102 -1.2341  1.4898 -0.0426
   10CHTO   H78 4100   3.696   9.859   1.949  0.7854 -1.7429  0.5608
   10CHTO   C51 4101   3.950   9.879   2.094 -0.9169  0.7546  0.3828
   10CHTO   H93 4102   3.968   9.900   1.988 -2.0503  1.3225  0.2964
   10CHTO   O30 4103   4.058   9.803   2.153 -0.3546  0.4232  0.1022
   10CHTO   C46 4104   4.089   9.683   2.085 -0.9851  0.5309  0.3872
   10CHTO   H88 4105   4.107   9.711   1.982  0.0863  1.3406  0.7793
   10CHTO   C53 4106   4.213   9.616   2.158 -0.1586  0.5295 -0.6534
   10CHTO   O72 4107   4.312   9.727   2.179 -0.3904 -0.4859  0.0659
   10CHTO  H199 4108   4.365   9.695   2.250 -1.5317 -0.3688  0.9970
   10CHTO   O22 4109   3.948   9.996   2.179 -0.1662  0.1947  0.1967
   10CHTO   C31 4110   4.049  10.105   2.185  0.0945  0.3192  0.2339
   10CHTO   H59 4111   4.001  10.190   2.237  0.4368  0.0629  0.9757
   10CHTO   C29 4112   4.176  10.076   2.264  0.2234  0.4297 -0.0295
   10CHTO   H57 4113   4.226   9.993   2.212  0.1901  0.3009  0.1449
   10CHTO   O21 4114   4.139  10.014   2.394 -0.1866 -0.3043 -0.2307
   10CHTO   H37 4115   4.221  10.004   2.439  1.2637  2.2506 -2.1472
   10CHTO   C27 4116   4.273  10.197   2.274 -0.4447  0.1948  0.0658
   10CHTO   H55 4117   4.222  10.277   2.330 -0.0007 -0.5182  1.5060
   10CHTO    N5 4118   4.405  10.162   2.333 -0.5846 -0.2795  0.2357
   10CHTO   H43 4119   4.491  10.169   2.268 -1.2261 -0.7963 -0.6759
   10CHTO   H44 4120   4.404  10.063   2.376 -0.6823  1.0930  3.5206
   10CHTO   C25 4121   4.305  10.243   2.120  0.1597  0.1646 -0.0369
   10CHTO   H53 4122   4.348  10.159   2.064  1.7890  0.4342  0.7887
   10CHTO   O17 4123   4.175  10.279   2.062  0.2558 -0.0842  0.6135
   10CHTO   C32 4124   4.095  10.160   2.041  0.1448 -0.3999 -0.3979
   10CHTO   H60 4125   4.156  10.087   1.989  1.4320  0.0336  0.4514
   10CHTO   C36 4126   3.987  10.213   1.945  0.1089 -0.3680  0.2638
   10CHTO   O25 4127   3.885  10.113   1.924 -0.7117 -0.5382  0.2907
   10CHTO   H40 4128   3.914  10.024   1.922  0.8885 -0.0398  0.4490
   10CHTO   O15 4129   4.396  10.375   2.118 -0.0814  0.2426  0.1298
   10CHTO   C19 4130   4.413  10.463   2.008  0.0536 -0.5326 -0.6505
   10CHTO   H47 4131   4.335  10.439   1.935  0.6670 -0.2928 -1.3887
   10CHTO   C20 4132   4.395  10.610   2.057  0.1979 -0.7704  0.5559
   10CHTO   H48 4133   4.460  10.635   2.141  1.6466 -2.4848 -0.0300
   10CHTO   O19 4134   4.263  10.626   2.107  0.5880  0.3660 -0.1191
   10CHTO   H35 4135   4.271  10.672   2.188  1.8028 -0.9950  0.5625
   10CHTO   C21 4136   4.419  10.703   1.933  0.4161  0.1116  0.2459
   10CHTO   H49 4137   4.333  10.687   1.868 -0.7226 -0.8246  1.9552
   10CHTO    N4 4138   4.412  10.850   1.961 -0.1467  0.0047  0.5094
   10CHTO   H41 4139   4.364  10.865   2.056 -0.4178 -0.5026  0.4529
   10CHTO   H42 4140   4.511  10.894   1.962 -0.5539  0.8961  1.4045
   10CHTO   C22 4141   4.549  10.675   1.856  0.1121  0.3459  0.2811
   10CHTO   H50 4142   4.631  10.711   1.917  0.6708  0.1976 -0.3740
   10CHTO   O14 4143   4.555  10.533   1.828 -0.5050  0.7155  0.2432
   10CHTO   C23 4144   4.547  10.448   1.942 -0.6204 -0.1231  0.7556
   10CHTO   H51 4145   4.632  10.467   2.010 -0.0970  0.5448 -0.0728
   10CHTO   C34 4146   4.583  10.307   1.886  0.7406  0.0706  0.1693
   10CHTO   O23 4147   4.626  10.199   1.972 -0.5200  0.5174  0.2874
   10CHTO   H38 4148   4.556  10.138   1.972  0.3322 -0.5098 -1.4938
   10CHTO   O16 4149   4.549  10.730   1.722  0.0587  0.0752 -0.3308
   10CHTO   C24 4150   4.696  10.758   1.668 -0.3111 -0.6343  0.3126
   10CHTO   H52 4151   4.771  10.711   1.731  0.4244  0.9238  0.6097
   10CHTO   C26 4152   4.711  10.910   1.663  0.3857  0.2174 -0.0292
   10CHTO   H54 4153   4.625  10.954   1.607  0.8283  2.5828  1.1082
   10CHTO   O20 4154   4.698  10.963   1.791  0.1491  0.0545 -0.0540
   10CHTO   H36 4155   4.616  10.942   1.831  1.0972  0.6277  2.2828
   10CHTO   C30 4156   4.841  10.952   1.596 -0.5775 -0.5202  0.4431
   10CHTO   H58 4157   4.927  10.933   1.662  0.3973  1.4566 -0.2139
   10CHTO    N6 4158   4.844  11.099   1.566  0.3315 -0.2075  0.3147
   10CHTO   H45 4159   4.770  11.121   1.491  1.2677 -1.3146 -0.9536
   10CHTO   H46 4160   4.941  11.136   1.534 -0.2204  0.8384 -0.1759
   10CHTO   C33 4161   4.881  10.864   1.472 -0.3823 -0.5518 -0.5285
   10CHTO   H61 4162   4.828  10.903   1.384 -0.5330  1.5469  0.4479
   10CHTO   O18 4163   4.845  10.723   1.491  0.4845 -0.3021  0.5007
   10CHTO   C28 4164   4.714  10.696   1.531  0.7181 -0.5354 -0.0153
   10CHTO   H56 4165   4.640  10.739   1.464  1.1965 -1.0411 -0.8823
   10CHTO   C35 4166   4.692  10.546   1.536 -0.8147 -0.0903 -0.3155
   10CHTO   O24 4167   4.684  10.477   1.413 -0.0867  0.4853 -0.4038
   10CHTO   H39 4168   4.616  10.511   1.358 -1.6562 -1.9496 -0.0737
   10CHTO    O9 4169   5.018  10.880   1.446  0.1371  0.0107 -0.3700
   10CHTO   C13 4170   5.076  10.833   1.299 -0.0961 -0.9343 -0.1352
   10CHTO   H26 4171   5.001  10.870   1.226  1.3174  0.8540 -0.7189
   10CHTO   C11 4172   5.087  10.668   1.298  0.3797 -0.5267 -0.5130
   10CHTO   H24 4173   4.987  10.625   1.281  1.4506 -2.4652 -2.1854
   10CHTO    O8 4174   5.134  10.620   1.425 -0.2121 -0.4459  0.3238
   10CHTO    H3 4175   5.186  10.683   1.473 -0.3767  0.6646 -0.9190
   10CHTO    C9 4176   5.165  10.637   1.172 -0.2602 -0.3018  0.0200
   10CHTO   H22 4177   5.123  10.704   1.095 -1.5094 -0.8399  0.2164
   10CHTO    N2 4178   5.149  10.498   1.127  0.4240  0.7878 -0.1965
   10CHTO   H10 4179   5.045  10.476   1.111  0.7140 -0.4100 -0.4562
   10CHTO   H11 4180   5.199  10.476   1.034 -2.6563 -2.5703 -1.1399
   10CHTO    C7 4181   5.310  10.686   1.189 -0.1617 -0.3178 -0.4750
   10CHTO   H20 4182   5.345  10.716   1.088  2.6455 -0.1115  0.5103
   10CHTO    O4 4183   5.330  10.806   1.265 -0.0033  0.1475  0.3962
   10CHTO   C14 4184   5.219  10.904   1.265  0.1992 -0.4171 -0.9244
   10CHTO   H27 4185   5.220  10.955   1.166 -0.4457 -1.5226 -1.5101
   10CHTO   C18 4186   5.268  11.009   1.367  0.1955 -0.0553 -0.0712
   10CHTO   O13 4187   5.172  11.112   1.388  0.3469 -0.2168  0.2737
   10CHTO    H7 4188   5.200  11.159   1.464  1.3158 -0.6530  0.1969
   10CHTO    O2 4189   5.421  10.561   1.252 -0.2061  0.0304 -0.3843
   10CHTO    C1 4190   5.558  10.583   1.213 -0.2591 -0.3794  0.5787
   10CHTO   H14 4191   5.590  10.688   1.230  0.5870 -0.6794  0.8622
   10CHTO    C2 4192   5.575  10.542   1.058 -0.4489  1.1652 -0.1508
   10CHTO   H15 4193   5.506  10.463   1.027 -0.3422  2.0876 -2.8644
   10CHTO    O6 4194   5.536  10.651   0.976 -0.1590 -0.8106 -0.0470
   10CHTO    H1 4195   5.591  10.726   0.989 -0.1943 -0.5965 -1.0669
   10CHTO    C3 4196   5.735  10.501   1.031 -0.7366 -0.2476  0.6292
   10CHTO   H16 4197   5.789  10.596   1.020  2.1378 -1.7219  1.4302
   10CHTO    N1 4198   5.752  10.425   0.908 -0.3594  0.4209  0.2557
   10CHTO    H8 4199   5.672  10.444   0.838 -0.4837 -1.0912 -0.0242
   10CHTO    H9 4200   5.850  10.446   0.868 -0.9961 -0.1735 -1.6888
   10CHTO    C4 4201   5.806  10.439   1.156 -0.0616  0.1032 -0.4910
   10CHTO   H17 4202   5.766  10.339   1.171  3.5812 -1.4385 -0.3275
   10CHTO    O1 4203   5.786  10.525   1.272 -0.2347 -0.5082  0.2851
   10CHTO    C5 4204   5.649  10.502   1.308 -0.5097  0.2032 -0.3351
   10CHTO   H18 4205   5.621  10.397   1.305  2.4067 -0.6353 -0.3131
   10CHTO   C16 4206   5.645  10.546   1.459 -0.1880  0.4686  0.3450
   10CHTO   O11 4207   5.513  10.520   1.522 -0.3097  0.0117 -0.3469
   10CHTO    H5 4208   5.450  10.581   1.490  0.2357  1.1246  0.6585
   10CHTO    O3 4209   5.951  10.436   1.147 -0.0616 -0.0524  0.1725
   10CHTO    C6 4210   6.010  10.307   1.169 -0.3356  0.3830 -0.0415
   10CHTO   H19 4211   5.944  10.221   1.154  1.3343 -0.9850  0.2480
   10CHTO    C8 4212   6.124  10.300   1.063 -0.7125  0.3320 -0.0397
   10CHTO   H21 4213   6.197  10.378   1.084 -0.6016  0.0985  0.4556
   10CHTO    O7 4214   6.062  10.309   0.932 -0.0258  0.2514 -0.2395
   10CHTO    H2 4215   6.117  10.347   0.866  0.4455  3.2086  1.7795
   10CHTO   C12 4216   6.197  10.162   1.076 -0.3035  0.0806  0.5339
   10CHTO   H25 4217   6.121  10.086   1.046  0.0235  0.8020 -2.2001
   10CHTO    N3 4218   6.307  10.153   0.977 -0.5763 -0.0018 -0.0461
   10CHTO   H12 4219   6.264  10.153   0.878 -0.7810  1.6498  0.0250
   10CHTO   H13 4220   6.375  10.237   0.978  1.6870 -1.8027 -0.6826
   10CHTO   C15 4221   6.238  10.133   1.232 -0.2431  0.0249 -0.3981
   10CHTO   H28 4222   6.337  10.173   1.253 -0.1057  0.2000 -1.3797
   10CHTO   O10 4223   6.246   9.967   1.260  0.3733 -0.7466 -0.3839
   10CHTO    H4 4224   6.328   9.938   1.224  0.9794 -1.1816  1.3155
   10CHTO    O5 4225   6.132  10.162   1.323  0.1606  0.2111  0.6571
   10CHTO   C10 4226   6.076  10.297   1.305  0.2585 -0.0646  0.2202
   10CHTO   H23 4227   6.162  10.363   1.320  1.3327 -1.0650 -1.3186
   10CHTO   C17 4228   5.985  10.316   1.427 -0.9244  0.3090  0.0013
   10CHTO   O12 4229   6.071  10.321   1.541  0.0964 -0.5084  0.0048
   10CHTO    H6 4230   6.061  10.238   1.583  3.5793 -1.3493 -0.7046
   11CHTO  H203 4231   7.105   5.144   0.406 -0.0899 -2.7620  1.1913
   11CHTO   O82 4232   7.193   5.163   0.429 -0.3751  0.1341  0.1194
   11CHTO  C123 4233   7.197   5.293   0.484  0.1071 -0.0616 -0.3876
   11CHTO  H227 4234   7.286   5.344   0.443 -0.2481  1.6521  0.9156
   11CHTO   O77 4235   7.081   5.359   0.419  0.2033  0.1090 -0.2843
   11CHTO  C118 4236   7.062   5.497   0.460 -0.1607 -0.2812  0.0824
   11CHTO  H222 4237   7.145   5.563   0.430 -0.9673  0.1421 -1.3070
   11CHTO  C125 4238   6.931   5.556   0.397  0.3456 -0.4471 -0.0318
   11CHTO   O84 4239   6.804   5.492   0.435  0.5206  0.3148 -0.3954
   11CHTO  H205 4240   6.778   5.501   0.525  0.7438  0.3471 -0.3341
   11CHTO  C114 4241   7.048   5.514   0.611  0.1956  0.6265 -0.1158
   11CHTO  H218 4242   6.967   5.449   0.645 -0.2930  1.0287 -0.5081
   11CHTO  C116 4243   7.169   5.455   0.682 -0.3238  0.5010 -0.2931
   11CHTO  H220 4244   7.265   5.505   0.659  1.9756 -2.7267  1.8957
   11CHTO   O79 4245   7.150   5.471   0.823 -0.9206  0.0096  0.6095
   11CHTO  H201 4246   7.079   5.417   0.852 -1.0910  1.2442  2.6067
   11CHTO  C120 4247   7.186   5.298   0.639  0.2145 -0.0269  0.3032
   11CHTO  H224 4248   7.092   5.249   0.672  0.0614 -1.0762 -1.6055
   11CHTO   N21 4249   7.312   5.251   0.709  0.7131  0.1411 -0.5060
   11CHTO  H211 4250   7.314   5.149   0.743  1.1156  0.4708  0.4650
   11CHTO  H212 4251   7.337   5.320   0.788  2.7455  0.1148 -1.1170
   11CHTO   O75 4252   7.031   5.652   0.643 -0.2704  0.0989  0.1339
   11CHTO  C112 4253   6.910   5.684   0.758  0.2949  0.0717 -0.1042
   11CHTO  H216 4254   6.941   5.637   0.852 -1.4899  0.0349  0.4792
   11CHTO   O73 4255   6.781   5.631   0.714 -0.7041  0.9685  0.2337
   11CHTO  C113 4256   6.662   5.673   0.780 -0.3392 -0.0732 -0.0693
   11CHTO  H217 4257   6.676   5.637   0.885  0.4523  0.8709  0.1476
   11CHTO  C124 4258   6.545   5.590   0.715  0.3929 -0.1072  0.0506
   11CHTO   O83 4259   6.531   5.457   0.765 -0.0778 -0.4938  0.2036
   11CHTO  H204 4260   6.596   5.446   0.832 -0.8088 -1.1329  0.8384
   11CHTO  C109 4261   6.656   5.830   0.783  0.0085  1.1244 -0.5693
   11CHTO  H213 4262   6.654   5.858   0.677 -1.9446 -1.7697 -1.3680
   11CHTO  C110 4263   6.781   5.884   0.859  0.2411  0.0977 -0.2990
   11CHTO  H214 4264   6.777   5.833   0.955 -1.2900  0.4564 -0.1624
   11CHTO   O78 4265   6.760   6.025   0.877 -0.0370 -0.0539  0.1705
   11CHTO  H200 4266   6.796   6.055   0.795 -0.5861 -1.8176 -0.7402
   11CHTO  C111 4267   6.907   5.842   0.775  0.0384  0.3420 -0.6393
   11CHTO  H215 4268   6.892   5.887   0.676 -1.4745 -0.1623 -0.6526
   11CHTO   N19 4269   7.035   5.904   0.826  0.4069 -0.4156 -0.0033
   11CHTO  H207 4270   7.062   5.846   0.913 -0.5150  0.3480  0.8165
   11CHTO  H208 4271   7.017   6.007   0.855  0.3873 -0.3597 -0.2116
   11CHTO   O74 4272   6.531   5.872   0.850  0.2382  0.4049 -0.0580
   11CHTO  C115 4273   6.442   5.980   0.759  0.4940 -0.0103  0.4576
   11CHTO  H219 4274   6.497   6.016   0.672 -0.6772  0.7242  0.0063
   11CHTO   O76 4275   6.309   5.916   0.704 -0.3293  0.4139 -0.4514
   11CHTO  C122 4276   6.223   5.859   0.807  0.3471 -0.1266 -0.0171
   11CHTO  H226 4277   6.260   5.766   0.849  1.0687 -0.9653 -2.4431
   11CHTO  C126 4278   6.096   5.817   0.731 -0.2297 -0.1827  0.7713
   11CHTO   O85 4279   5.991   5.786   0.822  0.3252  0.2426 -0.4466
   11CHTO  H206 4280   5.959   5.868   0.855  0.2590 -0.3400  1.0144
   11CHTO  C121 4281   6.181   5.970   0.921  0.0215 -0.4785 -0.0248
   11CHTO  H225 4282   6.071   5.981   0.927  0.2969  2.1873  0.7457
   11CHTO   O81 4283   6.241   5.915   1.040  0.0052  0.1020  0.3504
   11CHTO  H202 4284   6.225   5.982   1.104 -0.0419  1.3406 -0.9268
   11CHTO  C119 4285   6.244   6.111   0.885  0.8347 -0.1096  0.0394
   11CHTO  H223 4286   6.196   6.130   0.789 -0.3866 -3.3546 -0.0868
   11CHTO  C117 4287   6.396   6.107   0.849  0.2537 -0.2807  0.6333
   11CHTO  H221 4288   6.464   6.094   0.932 -0.4847 -0.7415  1.1767
   11CHTO   N20 4289   6.440   6.235   0.782  0.0837 -0.2981 -0.3519
   11CHTO  H209 4290   6.431   6.324   0.842  2.8066  0.3632 -0.8458
   11CHTO  H210 4291   6.546   6.219   0.770 -0.3265 -1.8931 -2.2418
   11CHTO   O80 4292   6.184   6.235   0.978 -0.1179 -0.4850 -0.0594
   11CHTO  C103 4293   6.212   6.240   1.107  0.6632 -0.2844  0.4857
   11CHTO  H190 4294   6.252   6.150   1.152 -0.1088 -0.3174  1.1186
   11CHTO  C101 4295   6.320   6.362   1.145  0.7528 -0.4373 -0.2010
   11CHTO  H188 4296   6.298   6.433   1.065  1.0919 -2.3522 -2.0279
   11CHTO   O68 4297   6.458   6.310   1.125 -0.7651  0.2586  0.3874
   11CHTO  H168 4298   6.499   6.277   1.202  4.4459  1.2224 -1.7585
   11CHTO   C99 4299   6.296   6.439   1.283 -0.7546 -0.4013 -0.2628
   11CHTO  H186 4300   6.331   6.378   1.369 -1.9561 -2.0131 -0.8666
   11CHTO   N17 4301   6.375   6.566   1.286  0.0346 -0.0816  0.3904
   11CHTO  H174 4302   6.451   6.558   1.210 -1.0122 -0.8306 -0.5961
   11CHTO  H175 4303   6.421   6.576   1.383  0.1979  2.4041  0.1013
   11CHTO   C97 4304   6.148   6.449   1.312 -0.3319 -0.6571  0.0794
   11CHTO  H184 4305   6.106   6.511   1.231 -2.6450 -1.2099  0.8444
   11CHTO   O64 4306   6.092   6.315   1.310  0.1311 -0.0975 -0.6333
   11CHTO  C104 4307   6.075   6.264   1.174 -0.1882  0.7017  0.3538
   11CHTO  H191 4308   6.024   6.340   1.115  0.2986 -0.2177 -1.2964
   11CHTO  C108 4309   5.987   6.136   1.177 -0.3045  0.3093 -0.4780
   11CHTO   O71 4310   5.864   6.157   1.241  0.0971  0.9249 -0.4799
   11CHTO  H171 4311   5.867   6.149   1.334  1.0531 -0.4948 -0.6014
   11CHTO   O62 4312   6.124   6.497   1.443 -0.2763 -0.4922 -0.1270
   11CHTO   C91 4313   6.006   6.577   1.447 -0.2962 -0.6782  0.1744
   11CHTO  H178 4314   5.946   6.560   1.357  1.1323  1.3466 -1.2132
   11CHTO   C92 4315   6.053   6.737   1.459  0.9045 -0.4140  0.1401
   11CHTO  H179 4316   6.139   6.757   1.524  2.4622 -1.6866 -1.5014
   11CHTO   O66 4317   6.101   6.776   1.331  0.5202 -0.7816 -0.1454
   11CHTO  H166 4318   6.115   6.868   1.320 -0.0423 -0.8056 -1.1399
   11CHTO   C93 4319   5.936   6.831   1.502  0.3535  0.5861  0.5168
   11CHTO  H180 4320   5.858   6.827   1.425  0.4904  2.4543  0.2638
   11CHTO   N16 4321   5.969   6.978   1.516 -0.6815  0.3758  0.3071
   11CHTO  H172 4322   5.881   7.031   1.547  1.1926  3.6575  0.2462
   11CHTO  H173 4323   6.018   7.018   1.429  1.6917 -0.4922  1.1761
   11CHTO   C94 4324   5.887   6.771   1.629  0.1717 -0.0581 -0.3515
   11CHTO  H181 4325   5.967   6.746   1.699  0.5233 -1.1492 -1.1264
   11CHTO   O61 4326   5.824   6.643   1.600 -0.0343 -0.4957 -0.1662
   11CHTO   C95 4327   5.920   6.541   1.574 -0.6289 -0.2051  0.2929
   11CHTO  H182 4328   5.980   6.523   1.663  1.1330  0.0511 -0.8288
   11CHTO  C106 4329   5.835   6.418   1.536  0.3942  0.0997  0.0873
   11CHTO   O69 4330   5.917   6.303   1.527 -0.0247 -0.2428  1.0050
   11CHTO  H169 4331   5.863   6.227   1.535 -1.6680  0.6661 -1.0131
   11CHTO   O63 4332   5.762   6.871   1.697 -0.1794  0.0131  0.1716
   11CHTO   C96 4333   5.815   6.922   1.832  0.3249 -0.0738  0.0880
   11CHTO  H183 4334   5.918   6.952   1.814  0.5726 -0.5030  0.7812
   11CHTO   C98 4335   5.811   6.804   1.937  0.2089  0.2611  0.0009
   11CHTO  H185 4336   5.759   6.721   1.886 -0.5980 -0.6189  2.2111
   11CHTO   O67 4337   5.943   6.760   1.953 -0.4066 -0.4660 -0.0369
   11CHTO  H167 4338   5.972   6.712   1.878 -1.5650  0.7987 -1.3119
   11CHTO  C102 4339   5.737   6.835   2.081  0.2351  0.8104  0.0437
   11CHTO  H189 4340   5.791   6.772   2.154  1.2978 -0.7915 -2.0737
   11CHTO   N18 4341   5.591   6.803   2.104 -0.6833  0.9973 -1.0195
   11CHTO  H176 4342   5.575   6.700   2.076 -0.0281  0.2019  1.4097
   11CHTO  H177 4343   5.534   6.867   2.038 -1.8883  1.5150  0.5041
   11CHTO  C105 4344   5.775   6.979   2.115 -0.1157  0.0339 -0.4593
   11CHTO  H192 4345   5.709   7.018   2.193 -0.3542 -1.7726  0.2709
   11CHTO   O65 4346   5.766   7.089   2.021 -0.0009  0.7539  0.0599
   11CHTO  C100 4347   5.734   7.049   1.884  0.0702 -0.9933  0.0427
   11CHTO  H187 4348   5.626   7.030   1.877  0.0963 -0.8018 -0.8825
   11CHTO  C107 4349   5.757   7.161   1.784 -0.4997 -0.4414 -0.1197
   11CHTO   O70 4350   5.651   7.256   1.786 -0.0592  0.5364 -0.5596
   11CHTO  H170 4351   5.677   7.340   1.818 -1.4766  0.6599  0.3071
   11CHTO   O57 4352   5.936   6.971   2.163  0.4918 -0.9301 -0.2928
   11CHTO   C85 4353   5.963   7.042   2.287  0.0317  0.0386 -0.0029
   11CHTO  H157 4354   5.872   7.025   2.348  2.0159 -2.4302  2.3647
   11CHTO   C83 4355   5.966   7.195   2.247  0.2603 -0.0772  0.3517
   11CHTO  H155 4356   5.865   7.220   2.215 -0.8960 -2.5469  1.8559
   11CHTO   O56 4357   6.049   7.219   2.136  0.2011  0.5074 -0.0499
   11CHTO  H135 4358   6.004   7.201   2.055  0.8931  1.6694 -0.6967
   11CHTO   C81 4359   6.004   7.280   2.375 -0.5768 -0.4871 -0.4239
   11CHTO  H153 4360   5.933   7.255   2.454 -1.1402  0.8870 -0.4749
   11CHTO   N14 4361   5.983   7.430   2.353  0.2189  0.0260  0.0275
   11CHTO  H141 4362   6.040   7.498   2.413  2.7962 -1.5693 -0.5464
   11CHTO  H142 4363   5.990   7.455   2.249  0.8842 -1.0560 -0.1953
   11CHTO   C79 4364   6.142   7.242   2.433 -0.1166  0.4515  0.4975
   11CHTO  H151 4365   6.155   7.290   2.530  2.3696  1.3270 -0.2475
   11CHTO   O52 4366   6.145   7.102   2.471  0.7592  0.4361 -0.3589
   11CHTO   C86 4367   6.099   7.002   2.369  0.2105 -0.1781  0.0129
   11CHTO  H158 4368   6.185   6.994   2.300  0.1715 -4.0007  0.3224
   11CHTO   C90 4369   6.093   6.867   2.446 -0.2301  0.3132  0.6643
   11CHTO   O60 4370   6.011   6.758   2.400  0.6470 -0.1387 -0.6824
   11CHTO  H138 4371   5.925   6.762   2.438  0.6319  0.1520 -0.7468
   11CHTO   O50 4372   6.255   7.275   2.351  0.1167 -0.5902  0.2393
   11CHTO   C73 4373   6.396   7.241   2.376  0.2029  0.3686 -0.8853
   11CHTO  H145 4374   6.406   7.153   2.441  3.8795  1.2733 -0.1438
   11CHTO   C74 4375   6.468   7.365   2.442  0.0475  0.0158 -0.0612
   11CHTO  H146 4376   6.408   7.387   2.531  0.5350  1.7959 -0.1586
   11CHTO   O54 4377   6.588   7.314   2.490 -0.6099  0.0155  0.2788
   11CHTO  H133 4378   6.627   7.370   2.555 -4.0639  1.5665  1.1149
   11CHTO   C75 4379   6.479   7.491   2.342  1.0160 -0.5343  0.5914
   11CHTO  H147 4380   6.377   7.518   2.310  1.8880 -0.2627 -2.0631
   11CHTO   N13 4381   6.533   7.614   2.401 -0.4399  0.3343  0.1066
   11CHTO  H139 4382   6.576   7.600   2.500 -0.2170  0.5419  0.0406
   11CHTO  H140 4383   6.587   7.677   2.333 -0.4095 -0.0919 -0.2684
   11CHTO   C76 4384   6.545   7.445   2.206 -0.3014 -0.0626  0.0221
   11CHTO  H148 4385   6.644   7.404   2.223  1.1870  2.1340 -2.9431
   11CHTO   O49 4386   6.464   7.336   2.153 -0.0284 -0.6486 -0.1521
   11CHTO   C77 4387   6.469   7.215   2.237 -0.7675  0.3834  0.2005
   11CHTO  H149 4388   6.571   7.181   2.255 -1.6702 -2.7231 -0.1813
   11CHTO   C88 4389   6.406   7.099   2.153 -0.0056 -0.2458  0.2284
   11CHTO   O58 4390   6.450   6.953   2.211  0.1125  0.8776  0.4546
   11CHTO  H136 4391   6.531   6.927   2.171 -2.0243 -0.1896 -3.5045
   11CHTO   O51 4392   6.548   7.562   2.097 -0.0424  0.5670  0.4224
   11CHTO   C78 4393   6.699   7.593   2.029 -0.2739  0.7776 -0.6659
   11CHTO  H150 4394   6.780   7.537   2.081 -0.2869  1.0853 -0.3109
   11CHTO   C80 4395   6.729   7.749   2.035  0.2099 -0.7619 -0.4721
   11CHTO  H152 4396   6.642   7.808   2.001  0.0771 -0.8018 -0.2026
   11CHTO   O55 4397   6.745   7.773   2.176  0.6467 -0.0707 -0.4906
   11CHTO  H134 4398   6.831   7.748   2.204  0.2622  0.2942  1.0640
   11CHTO   C84 4399   6.848   7.788   1.943  0.1197 -0.1686  0.7126
   11CHTO  H156 4400   6.943   7.739   1.965  0.6509  0.7151  0.4470
   11CHTO   N15 4401   6.872   7.935   1.950 -1.0041 -0.0073 -0.5907
   11CHTO  H143 4402   6.959   7.960   1.893 -0.2959 -1.4442 -0.1809
   11CHTO  H144 4403   6.895   7.960   2.052  1.2187  0.4327 -1.1613
   11CHTO   C87 4404   6.808   7.736   1.803  0.1153 -0.0865 -0.0559
   11CHTO  H159 4405   6.713   7.784   1.779 -0.0245  0.8077  2.2449
   11CHTO   O53 4406   6.797   7.565   1.815  0.0910 -0.3815  0.0169
   11CHTO   C82 4407   6.683   7.526   1.895 -0.2087 -0.1104 -0.3111
   11CHTO  H154 4408   6.594   7.555   1.839 -1.3007 -2.3376  0.2049
   11CHTO   C89 4409   6.686   7.374   1.900 -0.2279 -0.3196 -0.6852
   11CHTO   O59 4410   6.781   7.313   1.989 -0.3804 -0.0513  0.1317
   11CHTO  H137 4411   6.784   7.219   1.982  0.0365 -0.2081  1.9713
   11CHTO   O45 4412   6.905   7.771   1.687  0.4261  0.5235  0.0945
   11CHTO   C67 4413   6.852   7.711   1.566  0.6961  0.1446  0.4410
   11CHTO  H124 4414   6.827   7.607   1.584  0.1825  0.1766 -0.1040
   11CHTO   C65 4415   6.723   7.785   1.512 -0.3756 -0.2720  0.0437
   11CHTO  H122 4416   6.715   7.888   1.548  2.5610  1.4363 -3.8289
   11CHTO   O44 4417   6.608   7.708   1.554 -0.5216 -0.0832  0.0968
   11CHTO  H102 4418   6.614   7.704   1.648  0.3645 -0.9117  0.0200
   11CHTO   C63 4419   6.729   7.824   1.361  0.4478 -0.0100 -0.1810
   11CHTO  H120 4420   6.806   7.900   1.345  0.9551 -0.6405 -0.7829
   11CHTO   N11 4421   6.604   7.880   1.303 -0.1900 -0.2664  0.1405
   11CHTO  H108 4422   6.516   7.820   1.294 -0.3922  0.1824 -0.9575
   11CHTO  H109 4423   6.624   7.915   1.203 -0.8581  0.1426  0.1489
   11CHTO   C61 4424   6.784   7.698   1.281 -0.2290  0.2645  0.2959
   11CHTO  H118 4425   6.806   7.732   1.179  0.3525  0.1758  0.3909
   11CHTO   O40 4426   6.907   7.644   1.338  0.7872 -0.1175 -0.1716
   11CHTO   C68 4427   6.960   7.708   1.457 -0.2006 -0.0608  0.0897
   11CHTO  H125 4428   6.993   7.811   1.434  2.4704 -1.0429 -0.7668
   11CHTO   C72 4429   7.085   7.630   1.504 -0.6081  0.3919 -0.5117
   11CHTO   O48 4430   7.061   7.492   1.494  0.1708  0.1013 -0.7153
   11CHTO  H105 4431   7.033   7.451   1.573 -1.3780 -0.1167 -1.3601
   11CHTO   O38 4432   6.688   7.587   1.271 -0.8144 -1.0169 -0.4142
   11CHTO   C55 4433   6.683   7.519   1.148 -0.3756 -0.1292 -0.2418
   11CHTO  H112 4434   6.789   7.505   1.120 -0.3939  3.6744 -2.4795
   11CHTO   C56 4435   6.609   7.586   1.028  0.3583  0.2403  0.6637
   11CHTO  H113 4436   6.508   7.593   1.071  0.2769  0.2140  0.4745
   11CHTO   O42 4437   6.654   7.718   1.013 -0.0082  0.0481  0.0458
   11CHTO  H100 4438   6.733   7.731   1.060  0.1421  1.2636 -0.5333
   11CHTO   C57 4439   6.618   7.494   0.901  0.0257  0.0089  0.5196
   11CHTO  H114 4440   6.725   7.498   0.879  0.2436  0.6039  1.6585
   11CHTO   N10 4441   6.530   7.549   0.796 -0.4129  0.3462  0.1971
   11CHTO  H106 4442   6.444   7.595   0.843 -0.8743 -1.5119  1.2204
   11CHTO  H107 4443   6.499   7.464   0.737  0.6289  1.7562 -2.4437
   11CHTO   C58 4444   6.582   7.350   0.940  0.1391  0.0051 -0.6285
   11CHTO  H115 4445   6.474   7.349   0.968  0.2629  1.7605 -0.0036
   11CHTO   O37 4446   6.664   7.303   1.055 -0.2962  0.3236  0.8110
   11CHTO   C59 4447   6.639   7.375   1.165  0.2923 -0.2441  0.5442
   11CHTO  H116 4448   6.532   7.376   1.189  0.1964  2.1269  0.1637
   11CHTO   C70 4449   6.696   7.303   1.288  0.3863 -0.1428 -0.2600
   11CHTO   O46 4450   6.837   7.276   1.276 -0.4914 -0.2181 -0.7180
   11CHTO  H103 4451   6.893   7.343   1.311 -1.1477  0.5079 -1.0410
   11CHTO   O39 4452   6.613   7.237   0.806 -0.1178 -0.0598  0.2439
   11CHTO   C60 4453   6.515   7.131   0.791 -0.3573 -0.2363  0.5022
   11CHTO  H117 4454   6.458   7.121   0.883  0.1151  0.0965  0.8377
   11CHTO   C62 4455   6.405   7.156   0.688 -0.0416 -0.4418  0.4060
   11CHTO  H119 4456   6.354   7.245   0.730  0.5075 -0.6331  1.4949
   11CHTO   O43 4457   6.463   7.191   0.565  0.0404 -0.5697 -0.1225
   11CHTO  H101 4458   6.407   7.205   0.491 -0.8113  0.3813  0.6768
   11CHTO   C66 4459   6.297   7.032   0.685 -0.1947 -0.5305 -0.1731
   11CHTO  H123 4460   6.254   7.017   0.784  1.6927 -3.0354  0.3077
   11CHTO   N12 4461   6.181   7.060   0.593 -0.0803  0.8321 -0.4663
   11CHTO  H110 4462   6.133   6.965   0.574  1.2633 -0.3098  1.6277
   11CHTO  H111 4463   6.217   7.099   0.499 -1.6393  1.4165 -0.8298
   11CHTO   C69 4464   6.378   6.904   0.640  0.5062  0.2033 -0.2012
   11CHTO  H126 4465   6.417   6.918   0.537 -0.4180  0.5727 -0.5023
   11CHTO   O41 4466   6.496   6.874   0.725  0.0686  0.1255  0.1920
   11CHTO   C64 4467   6.589   7.001   0.765  0.0274 -0.3914  0.3448
   11CHTO  H121 4468   6.656   7.014   0.678  0.9590 -1.8476  0.8147
   11CHTO   C71 4469   6.674   6.965   0.888  0.6203 -0.3088 -0.1144
   11CHTO   O47 4470   6.740   6.841   0.857 -0.5572  0.2463  0.6490
   11CHTO  H104 4471   6.806   6.821   0.921 -1.1404  0.2221  1.2451
   11CHTO   O34 4472   6.283   6.768   0.636  0.2468  0.1268 -0.1300
   11CHTO   C49 4473   6.242   6.668   0.753  0.2417  0.5741  0.0507
   11CHTO   H91 4474   6.324   6.654   0.823 -1.3117 -2.8273  1.3004
   11CHTO   C47 4475   6.213   6.532   0.685  0.1253 -0.4147  0.1189
   11CHTO   H89 4476   6.200   6.459   0.767  0.7929  1.5426  2.0123
   11CHTO   O33 4477   6.330   6.490   0.613  0.3638 -0.5400 -0.1163
   11CHTO   H70 4478   6.316   6.404   0.579  3.1912 -1.3804  0.7234
   11CHTO   C45 4479   6.080   6.541   0.584 -0.5091 -0.2157  0.2609
   11CHTO   H87 4480   6.106   6.619   0.511  1.6906 -0.1158  1.0807
   11CHTO    N8 4481   6.046   6.420   0.513  0.2123  0.2430 -0.0536
   11CHTO   H75 4482   6.120   6.347   0.541 -0.5139 -1.0837 -1.5006
   11CHTO   H76 4483   6.039   6.443   0.408 -1.8575  1.8827  0.4043
   11CHTO   C43 4484   5.952   6.603   0.669 -0.0400  0.0138 -0.1652
   11CHTO   H85 4485   5.879   6.619   0.590 -1.0764 -1.6699  0.4207
   11CHTO   O29 4486   5.986   6.723   0.735  0.1457  0.4052  0.1164
   11CHTO   C50 4487   6.112   6.724   0.815  0.2176  0.1346  0.0532
   11CHTO   H92 4488   6.138   6.829   0.839  1.4553 -0.1621  0.0448
   11CHTO   C54 4489   6.076   6.659   0.953  0.9970  0.1711  0.1076
   11CHTO   O36 4490   6.163   6.698   1.061  0.3512 -0.4754  0.4344
   11CHTO   H72 4491   6.116   6.697   1.143  0.5170  0.3971  0.5504
   11CHTO   O27 4492   5.884   6.511   0.759 -0.9000 -0.8226 -0.5530
   11CHTO   C37 4493   5.771   6.468   0.837 -0.0159  0.1092 -0.3260
   11CHTO   H79 4494   5.790   6.457   0.945  0.0280 -3.3271 -0.6318
   11CHTO   C38 4495   5.662   6.573   0.812 -0.1326 -0.2599  0.8642
   11CHTO   H80 4496   5.638   6.573   0.705  0.0946  0.0684  0.8121
   11CHTO   O31 4497   5.715   6.704   0.850 -0.7428  0.4071 -0.2021
   11CHTO   H68 4498   5.796   6.739   0.817 -1.3914  0.5712 -1.6433
   11CHTO   C39 4499   5.530   6.547   0.885  0.2298 -0.8418  0.2213
   11CHTO   H81 4500   5.549   6.562   0.992  1.3401  0.3740 -0.1458
   11CHTO    N7 4501   5.412   6.632   0.856  0.3131  0.2606  0.8025
   11CHTO   H73 4502   5.319   6.577   0.865  0.0949  0.4244 -0.3015
   11CHTO   H74 4503   5.406   6.682   0.761  1.0804 -3.2646 -1.1780
   11CHTO   C40 4504   5.485   6.394   0.854  0.0882 -0.0125 -1.1451
   11CHTO   H82 4505   5.426   6.389   0.762 -0.1823 -1.8154 -0.8844
   11CHTO   O26 4506   5.596   6.292   0.856 -0.0360  0.1447 -0.4494
   11CHTO   C41 4507   5.725   6.332   0.791 -0.1045  0.6977  0.0942
   11CHTO   H83 4508   5.710   6.341   0.682  0.7206 -1.5544 -0.2385
   11CHTO   C52 4509   5.831   6.219   0.818 -0.1478 -0.3295 -0.3936
   11CHTO   O35 4510   5.766   6.083   0.806  0.1975  0.0827  0.6298
   11CHTO   H71 4511   5.835   6.021   0.820  0.9434 -0.2668 -3.6815
   11CHTO   O28 4512   5.394   6.352   0.956 -0.8325  0.3866 -0.2648
   11CHTO   C42 4513   5.283   6.262   0.947  0.7471  1.0088  0.0161
   11CHTO   H84 4514   5.309   6.196   0.864 -2.1258  0.3308 -0.3849
   11CHTO   C44 4515   5.138   6.312   0.915  0.3205 -0.6334  0.3038
   11CHTO   H86 4516   5.094   6.366   0.999  1.4119 -0.2423  0.6296
   11CHTO   O32 4517   5.141   6.403   0.801  0.0031 -0.2125  0.5309
   11CHTO   H69 4518   5.159   6.343   0.731 -1.2656  1.0522 -0.8884
   11CHTO   C48 4519   5.037   6.199   0.885  0.2376  0.2264  0.0496
   11CHTO   H90 4520   5.069   6.155   0.791  1.2394 -0.4662  0.7082
   11CHTO    N9 4521   4.898   6.243   0.866 -0.3451 -0.2266  0.3357
   11CHTO   H77 4522   4.871   6.346   0.887 -0.2883  0.3119 -2.0299
   11CHTO   H78 4523   4.869   6.227   0.763  2.1817  1.6562 -0.7419
   11CHTO   C51 4524   5.043   6.089   0.998  0.6829  0.1217  0.4846
   11CHTO   H93 4525   4.990   6.131   1.084 -0.9628 -2.2618  0.6874
   11CHTO   O30 4526   5.180   6.058   1.032  0.1028 -0.4416  0.7066
   11CHTO   C46 4527   5.270   6.171   1.069  0.2429 -0.6416  0.1466
   11CHTO   H88 4528   5.233   6.221   1.159  1.2489 -0.4577  0.4572
   11CHTO   C53 4529   5.407   6.112   1.099  0.6591 -0.0894 -0.5107
   11CHTO   O72 4530   5.466   6.036   0.992 -0.1923 -0.3875  0.4537
   11CHTO  H199 4531   5.486   6.093   0.920 -0.8632  0.6012  1.0370
   11CHTO   O22 4532   4.979   5.973   0.955 -0.2953  0.2991  0.5219
   11CHTO   C31 4533   4.950   5.865   1.045  0.1932  0.2497  0.4827
   11CHTO   H59 4534   4.982   5.896   1.147  0.1271 -0.4454  0.7223
   11CHTO   C29 4535   4.797   5.826   1.049 -0.1872  0.1732 -0.5950
   11CHTO   H57 4536   4.778   5.778   0.952 -0.5217  0.2137 -0.5503
   11CHTO   O21 4537   4.725   5.944   1.065  0.5375  0.0262  0.7257
   11CHTO   H37 4538   4.634   5.929   1.053  0.8823 -1.5245 -0.1726
   11CHTO   C27 4539   4.774   5.720   1.169 -0.3323 -0.0686  0.0075
   11CHTO   H55 4540   4.793   5.768   1.266 -4.4058  2.4750 -0.3302
   11CHTO    N5 4541   4.635   5.668   1.173  0.0430  0.0758 -0.3814
   11CHTO   H43 4542   4.604   5.617   1.083 -0.4333 -0.7166  0.2239
   11CHTO   H44 4543   4.569   5.753   1.185 -0.7295 -0.6449  0.6207
   11CHTO   C25 4544   4.873   5.599   1.160  0.4631 -0.4976  0.0666
   11CHTO   H53 4545   4.832   5.531   1.085 -0.5090 -2.0855  1.9700
   11CHTO   O17 4546   5.011   5.644   1.133 -0.2730  0.0481 -0.0171
   11CHTO   C32 4547   5.025   5.737   1.021  0.6837  0.2113 -0.3287
   11CHTO   H60 4548   4.984   5.679   0.938  1.8315 -0.2076 -0.6169
   11CHTO   C36 4549   5.171   5.745   0.984 -0.0568  0.8012  0.4031
   11CHTO   O25 4550   5.205   5.820   0.873  0.0726 -0.9742  0.1994
   11CHTO   H40 4551   5.296   5.802   0.859  0.7866  1.3346  1.5933
   11CHTO   O15 4552   4.883   5.512   1.302  0.3407  0.4432 -0.2609
   11CHTO   C19 4553   4.849   5.374   1.347  0.0729 -0.4700 -0.0728
   11CHTO   H47 4554   4.903   5.361   1.442 -0.0194  2.4957  0.4401
   11CHTO   C20 4555   4.699   5.335   1.373 -0.4304  0.0616  0.8228
   11CHTO   H48 4556   4.638   5.346   1.281  2.0790  0.2025 -0.8622
   11CHTO   O19 4557   4.652   5.426   1.469  0.5619 -0.4177 -0.0043
   11CHTO   H35 4558   4.559   5.420   1.478  0.6954  0.2274  1.9910
   11CHTO   C21 4559   4.674   5.187   1.408 -0.7592  0.8064 -0.9439
   11CHTO   H49 4560   4.720   5.166   1.505 -0.0925  2.7153 -0.8332
   11CHTO    N4 4561   4.532   5.145   1.423  0.4876  0.0429 -0.4050
   11CHTO   H41 4562   4.472   5.177   1.340  0.4902  1.1180  0.0002
   11CHTO   H42 4563   4.519   5.039   1.441  0.8648 -0.2791 -1.9989
   11CHTO   C22 4564   4.737   5.104   1.298 -0.9246  0.4158 -1.1690
   11CHTO   H50 4565   4.681   5.122   1.206 -0.6145  1.0924 -1.2280
   11CHTO   O14 4566   4.879   5.133   1.278  0.2186 -0.3012 -0.1737
   11CHTO   C23 4567   4.916   5.273   1.243  0.2129  0.0021  0.6961
   11CHTO   H51 4568   4.877   5.293   1.142  2.0972  2.0802  0.3439
   11CHTO   C34 4569   5.069   5.296   1.232 -0.4262  0.4303  0.6048
   11CHTO   O23 4570   5.126   5.309   1.361  0.2381  0.2868 -0.0652
   11CHTO   H38 4571   5.213   5.344   1.352  0.4648  0.0956  1.2566
   11CHTO   O16 4572   4.744   4.960   1.330  0.3651  0.2438 -0.3655
   11CHTO   C24 4573   4.738   4.867   1.183  0.5471  0.5678  0.1556
   11CHTO   H52 4574   4.770   4.928   1.099 -0.5791  1.3683  0.2979
   11CHTO   C26 4575   4.597   4.802   1.165  0.0736 -0.2821 -0.9315
   11CHTO   H54 4576   4.580   4.732   1.249 -2.8163 -0.4942 -1.6368
   11CHTO   O20 4577   4.489   4.897   1.150 -0.0021 -0.2478 -0.0241
   11CHTO   H36 4578   4.486   4.962   1.217 -0.7463 -0.2131 -0.0814
   11CHTO   C30 4579   4.596   4.715   1.038 -0.2387 -0.0595  0.4214
   11CHTO   H58 4580   4.595   4.785   0.953  0.6314  0.0817  0.5246
   11CHTO    N6 4581   4.471   4.640   1.026  0.4286 -0.2464 -0.0290
   11CHTO   H45 4582   4.390   4.710   1.036  2.4469  2.0981  0.3966
   11CHTO   H46 4583   4.466   4.580   0.937  1.6116  0.7787 -0.8144
   11CHTO   C33 4584   4.722   4.617   1.025  0.3535 -0.1273  0.7171
   11CHTO   H61 4585   4.692   4.519   1.066  0.2537  0.3731  1.8392
   11CHTO   O18 4586   4.843   4.665   1.088  0.6771 -0.3060 -0.6543
   11CHTO   C28 4587   4.836   4.747   1.204 -0.0647  0.4800 -0.2163
   11CHTO   H56 4588   4.798   4.690   1.289 -2.3667  0.5525 -1.1855
   11CHTO   C35 4589   4.968   4.798   1.254  0.0130  0.7316  0.6306
   11CHTO   O24 4590   5.053   4.684   1.278 -0.5002  0.0590  0.4142
   11CHTO   H39 4591   5.006   4.611   1.316  0.2541 -0.1873  0.8828
   11CHTO    O9 4592   4.741   4.589   0.885  0.6200  0.6196  0.7495
   11CHTO   C13 4593   4.788   4.739   0.801  0.8978  0.6074 -0.4601
   11CHTO   H26 4594   4.799   4.820   0.876 -0.3518  0.7805 -0.4554
   11CHTO   C11 4595   4.689   4.773   0.687  0.1493  0.1591 -0.3456
   11CHTO   H24 4596   4.589   4.782   0.730  0.6835 -0.8725  1.1629
   11CHTO    O8 4597   4.693   4.661   0.597  0.0289 -0.2773  0.5502
   11CHTO    H3 4598   4.613   4.624   0.565  1.1581 -1.3994 -1.0368
   11CHTO    C9 4599   4.717   4.911   0.625  0.4574  0.5029 -0.5286
   11CHTO   H22 4600   4.700   4.986   0.704  1.0664 -1.2528  1.3023
   11CHTO    N2 4601   4.616   4.946   0.526  1.2011  0.4707 -0.2855
   11CHTO   H10 4602   4.603   4.881   0.441 -0.0131 -1.5067  1.3805
   11CHTO   H11 4603   4.633   5.049   0.499  1.8205  0.6032  0.5749
   11CHTO    C7 4604   4.879   4.914   0.591  0.4733 -0.9570  0.2947
   11CHTO   H20 4605   4.926   4.981   0.666  2.0294  1.3554 -2.6442
   11CHTO    O4 4606   4.938   4.785   0.598  0.3881  0.0399 -0.9911
   11CHTO   C14 4607   4.939   4.728   0.734 -0.3794  0.0923  0.7176
   11CHTO   H27 4608   5.002   4.798   0.792 -1.2002  1.9210 -0.5631
   11CHTO   C18 4609   5.000   4.585   0.736  0.1948 -0.3172  0.1079
   11CHTO   O13 4610   4.924   4.491   0.663 -0.2092  0.7122  0.0345
   11CHTO    H7 4611   4.970   4.410   0.676  2.1799  2.1890  1.1731
   11CHTO    O2 4612   4.910   4.978   0.434 -0.0572 -0.0401 -0.2540
   11CHTO    C1 4613   4.990   5.097   0.428 -0.0080  0.8687  0.7471
   11CHTO   H14 4614   5.064   5.092   0.511 -0.6759  0.1597  1.3013
   11CHTO    C2 4615   4.889   5.217   0.449 -0.0441  0.4648 -0.5446
   11CHTO   H15 4616   4.805   5.195   0.381  0.6488 -0.1721 -1.2121
   11CHTO    O6 4617   4.840   5.206   0.583 -0.5277 -0.3268  0.1124
   11CHTO    H1 4618   4.804   5.120   0.590  0.8005 -0.9001  0.1589
   11CHTO    C3 4619   4.960   5.356   0.425 -0.3436 -0.2559  0.0912
   11CHTO   H16 4620   5.028   5.383   0.507 -1.7375  3.5411  0.0747
   11CHTO    N1 4621   4.860   5.468   0.438  0.6241 -0.7895 -0.2838
   11CHTO    H8 4622   4.795   5.441   0.520 -0.6535 -0.3843 -1.1372
   11CHTO    H9 4623   4.801   5.477   0.348  1.0631  0.2894 -0.4753
   11CHTO    C4 4624   5.046   5.352   0.292 -0.4979 -0.0575  0.1774
   11CHTO   H17 4625   4.977   5.353   0.208  0.4037 -0.2554 -0.5728
   11CHTO    O1 4626   5.138   5.241   0.294  0.3384  0.0391 -0.1819
   11CHTO    C5 4627   5.083   5.104   0.296  0.9413 -0.4435 -0.0926
   11CHTO   H18 4628   5.011   5.082   0.216  0.9017  0.4866 -0.3264
   11CHTO   C16 4629   5.197   4.996   0.295  0.0398  0.2484 -0.2536
   11CHTO   O11 4630   5.319   5.031   0.225 -0.1708 -0.1298 -0.2365
   11CHTO    H5 4631   5.315   4.987   0.143 -0.2263  0.5363 -0.5952
   11CHTO    O3 4632   5.122   5.472   0.290 -0.2529 -0.6097  0.2854
   11CHTO    C6 4633   5.176   5.512   0.157  1.0313 -0.0130  0.3482
   11CHTO   H19 4634   5.157   5.454   0.066 -1.6902  2.1098 -0.5335
   11CHTO    C8 4635   5.099   5.649   0.118 -0.1434  0.7018  0.5876
   11CHTO   H21 4636   5.115   5.721   0.198 -0.3177  1.1563  0.2164
   11CHTO    O7 4637   4.960   5.613   0.100  0.6721  0.5963 -0.2239
   11CHTO    H2 4638   4.934   5.578   0.183  1.0180 -0.1231 -0.4177
   11CHTO   C12 4639   5.156   5.708  -0.010 -0.2393 -0.3276 -0.1849
   11CHTO   H25 4640   5.116   5.644  -0.091  1.2356  1.4245 -2.3564
   11CHTO    N3 4641   5.097   5.842  -0.041 -0.6201  0.3759  0.0172
   11CHTO   H12 4642   4.999   5.824  -0.084  0.0362 -1.9234 -0.5601
   11CHTO   H13 4643   5.171   5.898  -0.095 -0.5079  0.3759  0.1704
   11CHTO   C15 4644   5.318   5.697  -0.014  0.2502  0.0969 -0.7578
   11CHTO   H28 4645   5.357   5.774   0.052  2.5804 -2.0372  0.4660
   11CHTO   O10 4646   5.379   5.715  -0.160 -0.4958 -0.1257  0.1333
   11CHTO    H4 4647   5.341   5.647  -0.212  1.1511 -0.2176 -0.9608
   11CHTO    O5 4648   5.365   5.565   0.027 -0.2472 -0.1584  0.2780
   11CHTO   C10 4649   5.324   5.537   0.159  1.1141 -0.6101  0.2053
   11CHTO   H23 4650   5.348   5.617   0.229 -0.6143  0.5980 -0.5538
   11CHTO   C17 4651   5.406   5.421   0.213 -0.1162 -0.8055 -0.0839
   11CHTO   O12 4652   5.545   5.451   0.209  0.6714 -0.4483  0.5192
   11CHTO    H6 4653   5.589   5.381   0.165 -2.0463 -2.5196  0.9322
   12CHTO  H203 4654   5.198  12.112  -0.422 -2.5761 -1.5602 -0.4216
   12CHTO   O82 4655   5.192  12.153  -0.338 -0.0472 -0.3314 -0.7831
   12CHTO  C123 4656   5.184  12.065  -0.220 -0.1041  0.5584  0.0406
   12CHTO  H227 4657   5.206  12.117  -0.126  1.3662 -2.2793  1.3419
   12CHTO   O77 4658   5.049  12.033  -0.231 -0.2800 -0.1097 -0.1083
   12CHTO  C118 4659   4.977  11.951  -0.142 -0.8545 -0.7642 -0.3497
   12CHTO  H222 4660   4.966  12.009  -0.049  1.0110 -0.8513 -0.0609
   12CHTO  C125 4661   4.839  11.934  -0.206 -0.1453  0.6605  0.1192
   12CHTO   O84 4662   4.766  12.054  -0.227  0.4913 -0.2418 -0.4742
   12CHTO  H205 4663   4.684  12.040  -0.183  0.0466 -2.0681 -1.7854
   12CHTO  C114 4664   5.062  11.818  -0.121 -0.0222 -0.1712 -0.3810
   12CHTO  H218 4665   5.056  11.757  -0.211  1.8212  0.2833 -0.8489
   12CHTO  C116 4666   5.217  11.838  -0.107 -0.0478 -0.5626  0.6706
   12CHTO  H220 4667   5.232  11.877  -0.005 -1.7077 -0.4805  0.9112
   12CHTO   O79 4668   5.280  11.709  -0.103 -0.1717 -0.2173  0.2800
   12CHTO  H201 4669   5.373  11.710  -0.091 -0.2581  0.9842  0.8961
   12CHTO  C120 4670   5.269  11.929  -0.221 -0.2471 -1.0575  0.0777
   12CHTO  H224 4671   5.244  11.871  -0.312  2.3443 -2.6415  0.3475
   12CHTO   N21 4672   5.415  11.954  -0.211 -0.0329 -0.1366  0.3041
   12CHTO  H211 4673   5.452  12.038  -0.268 -3.1623 -0.7309 -2.7553
   12CHTO  H212 4674   5.426  11.975  -0.106  0.1832  1.0092  0.0571
   12CHTO   O75 4675   4.995  11.758  -0.010  0.0460  0.1176 -0.2407
   12CHTO  C112 4676   4.949  11.599  -0.036  0.7592 -0.3466  0.3970
   12CHTO  H216 4677   5.021  11.552  -0.105  1.6730  1.8553 -0.2034
   12CHTO   O73 4678   4.817  11.600  -0.088  0.0474  0.0471  0.4159
   12CHTO  C113 4679   4.774  11.474  -0.127  0.2690 -0.1438  0.4936
   12CHTO  H217 4680   4.839  11.447  -0.213 -0.2405  2.2566 -0.6844
   12CHTO  C124 4681   4.637  11.503  -0.193 -0.3170 -0.4190  0.3331
   12CHTO   O83 4682   4.575  11.388  -0.253  0.1369 -0.2180  0.5717
   12CHTO  H204 4683   4.600  11.301  -0.230 -1.2100 -1.0614 -1.0311
   12CHTO  C109 4684   4.764  11.380   0.000  0.2905  0.6976 -0.8182
   12CHTO  H213 4685   4.695  11.430   0.070 -0.1218  1.0675 -1.4874
   12CHTO  C110 4686   4.908  11.366   0.061  0.7548  0.7494  0.4259
   12CHTO  H214 4687   4.971  11.311  -0.009  0.9591 -1.8780  2.5808
   12CHTO   O78 4688   4.902  11.286   0.178  0.4281 -0.4803 -0.7656
   12CHTO  H200 4689   4.955  11.209   0.177 -0.1602 -0.8820 -1.4629
   12CHTO  C111 4690   4.952  11.511   0.091 -0.3310  0.5045 -0.1090
   12CHTO  H215 4691   4.881  11.559   0.160 -0.2592  0.8473 -0.2773
   12CHTO   N19 4692   5.087  11.519   0.158 -0.1983  0.4008  0.2526
   12CHTO  H207 4693   5.097  11.572   0.252 -1.0255  0.6778  0.1825
   12CHTO  H208 4694   5.125  11.417   0.163  1.8472  1.1689  1.2557
   12CHTO   O74 4695   4.707  11.245  -0.030  0.3828 -0.0665 -0.0967
   12CHTO  C115 4696   4.611  11.185   0.092  0.1262 -0.4895 -0.2335
   12CHTO  H219 4697   4.657  11.200   0.189  2.0350  0.9411 -1.3292
   12CHTO   O76 4698   4.460  11.259   0.089  0.6952  0.2136  0.4111
   12CHTO  C122 4699   4.385  11.231   0.207 -0.1327 -0.8365 -0.8051
   12CHTO  H226 4700   4.288  11.277   0.188 -0.0764 -0.7133 -0.7922
   12CHTO  C126 4701   4.445  11.304   0.328 -0.3902  0.3168 -0.0586
   12CHTO   O85 4702   4.439  11.441   0.316  0.2911  0.8954 -0.2921
   12CHTO  H206 4703   4.501  11.483   0.374  0.9419 -0.7217  0.2212
   12CHTO  C121 4704   4.364  11.076   0.216 -0.2365 -0.0944  0.2892
   12CHTO  H225 4705   4.324  11.051   0.316 -1.4101 -0.5376 -0.2823
   12CHTO   O81 4706   4.255  11.047   0.126  0.1831 -0.1574  0.7431
   12CHTO  H202 4707   4.284  10.987   0.060  0.4554 -1.0029  1.6121
   12CHTO  C119 4708   4.496  10.992   0.203  0.7221  0.3688  0.3011
   12CHTO  H223 4709   4.551  11.020   0.293 -0.5252  0.2824  1.1050
   12CHTO  C117 4710   4.592  11.029   0.080  0.0468  0.1873  0.0208
   12CHTO  H221 4711   4.556  11.023  -0.023  1.0545  1.1638 -0.3973
   12CHTO   N20 4712   4.719  10.952   0.082 -0.1279 -0.1078  0.1068
   12CHTO  H209 4713   4.779  10.972   0.170 -0.5866  2.2323 -0.0793
   12CHTO  H210 4714   4.701  10.848   0.062 -2.0904  0.4152 -0.9201
   12CHTO   O80 4715   4.471  10.837   0.230  0.3524 -0.3247  0.1728
   12CHTO  C103 4716   4.372  10.762   0.151  0.0904  0.3228 -0.6391
   12CHTO  H190 4717   4.287  10.827   0.131 -2.0612 -2.5617 -1.2377
   12CHTO  C101 4718   4.422  10.689   0.020  0.5716  0.3099  0.6255
   12CHTO  H188 4719   4.516  10.640   0.042  1.1575  1.0013 -0.3217
   12CHTO   O68 4720   4.468  10.788  -0.080  0.2821 -0.3756 -0.2742
   12CHTO  H168 4721   4.557  10.811  -0.064  0.2502  0.1669 -0.8464
   12CHTO   C99 4722   4.316  10.596  -0.040 -0.5884 -0.3043  0.8126
   12CHTO  H186 4723   4.226  10.657  -0.061 -0.6777 -0.7673 -0.1911
   12CHTO   N17 4724   4.356  10.521  -0.160 -0.4233 -0.4025 -0.0972
   12CHTO  H174 4725   4.270  10.483  -0.213 -1.1263 -0.6806  1.2270
   12CHTO  H175 4726   4.428  10.576  -0.219 -0.5906  1.1082  1.0581
   12CHTO   C97 4727   4.276  10.498   0.071  0.4389 -0.3159 -0.0699
   12CHTO  H184 4728   4.362  10.434   0.093 -3.0511 -3.9980  3.7552
   12CHTO   O64 4729   4.230  10.564   0.188  0.0976 -0.0371  0.0037
   12CHTO  C104 4730   4.324  10.649   0.253  0.2631 -0.1822 -0.2255
   12CHTO  H191 4731   4.412  10.593   0.284 -1.3475 -2.7779 -0.2197
   12CHTO  C108 4732   4.262  10.712   0.379 -0.5123  0.7808 -1.0948
   12CHTO   O71 4733   4.210  10.627   0.482  0.0496 -0.8971  0.2167
   12CHTO  H171 4734   4.167  10.672   0.552 -1.7519 -0.4497 -1.1500
   12CHTO   O62 4735   4.157  10.421   0.030 -0.2381  0.3309 -0.5999
   12CHTO   C91 4736   4.138  10.295   0.103  0.6029 -0.5324 -0.3121
   12CHTO  H178 4737   4.196  10.296   0.196 -1.9240  0.4826  1.3114
   12CHTO   C92 4738   4.181  10.167   0.023 -0.0722  0.5159  0.0616
   12CHTO  H179 4739   4.132  10.170  -0.075 -1.4854 -0.6498  0.7127
   12CHTO   O66 4740   4.322  10.178  -0.006 -0.0223 -0.0051  0.1165
   12CHTO  H166 4741   4.350  10.100  -0.051  1.9378 -1.0986  3.0840
   12CHTO   C93 4742   4.163  10.036   0.100  0.5964 -0.0635  0.0350
   12CHTO  H180 4743   4.224  10.050   0.190  0.3778 -2.4392  0.5757
   12CHTO   N16 4744   4.214   9.917   0.029  0.0311  0.1957  0.1598
   12CHTO  H172 4745   4.246   9.948  -0.069  2.7992 -0.9395  0.6726
   12CHTO  H173 4746   4.278   9.848   0.082  1.0630 -0.9443 -2.4498
   12CHTO   C94 4747   4.019  10.028   0.140  0.1542 -0.1231 -0.0297
   12CHTO  H181 4748   3.955  10.030   0.052  0.5964  1.2121 -0.3460
   12CHTO   O61 4749   3.978  10.146   0.215  0.0314 -0.7090 -0.2542
   12CHTO   C95 4750   3.993  10.268   0.148 -0.1869  0.3672  0.1486
   12CHTO  H182 4751   3.926  10.273   0.062 -0.4976 -0.4309  0.3412
   12CHTO  C106 4752   3.930  10.381   0.234  0.7659 -0.3137  0.4786
   12CHTO   O69 4753   3.983  10.402   0.365  0.5248  0.4305  0.2106
   12CHTO  H169 4754   3.914  10.428   0.423 -0.7645  1.0883 -1.5788
   12CHTO   O63 4755   3.978   9.887   0.226  0.1143  0.4164  0.4326
   12CHTO   C96 4756   4.073   9.837   0.346 -0.6885  0.6151  0.2150
   12CHTO  H183 4757   4.170   9.886   0.333 -1.1830  1.7459  0.7474
   12CHTO   C98 4758   4.087   9.679   0.337  0.6449 -0.6063  0.4090
   12CHTO  H185 4759   3.990   9.643   0.301  0.7360  0.1896 -0.6421
   12CHTO   O67 4760   4.180   9.652   0.233  0.1455  0.0267 -0.3066
   12CHTO  H167 4761   4.147   9.686   0.151 -0.5058  0.8416  0.2846
   12CHTO  C102 4762   4.132   9.609   0.481 -0.6532 -1.2436  0.2713
   12CHTO  H189 4763   4.242   9.606   0.478 -0.2840  3.3994  3.5007
   12CHTO   N18 4764   4.083   9.468   0.500  0.6660 -0.2086  0.1481
   12CHTO  H176 4765   4.130   9.401   0.430  1.3455  1.4122 -0.9915
   12CHTO  H177 4766   4.103   9.437   0.602 -2.0450 -0.1842  0.7144
   12CHTO  C105 4767   4.105   9.694   0.610  0.3090  0.2029  0.2774
   12CHTO  H192 4768   4.000   9.689   0.642 -0.1213  2.5659 -0.6168
   12CHTO   O65 4769   4.131   9.832   0.578  0.0099  0.5923 -0.3009
   12CHTO  C100 4770   4.033   9.883   0.487 -0.1539 -0.4195  0.3966
   12CHTO  H187 4771   3.932   9.842   0.506 -0.0298 -0.5891  0.6815
   12CHTO  C107 4772   4.025  10.038   0.510  0.3100 -0.0453 -0.0818
   12CHTO   O70 4773   3.940  10.069   0.620 -0.0430 -0.4993 -0.1043
   12CHTO  H170 4774   3.853  10.058   0.587 -0.1602  0.7073 -0.2124
   12CHTO   O57 4775   4.209   9.647   0.724  0.1552 -0.0578  0.3624
   12CHTO   C85 4776   4.186   9.569   0.836 -0.3396  0.4282 -0.2045
   12CHTO  H157 4777   4.117   9.488   0.807  1.0911 -0.5653 -0.8945
   12CHTO   C83 4778   4.109   9.655   0.943  0.7996 -0.7360 -0.5245
   12CHTO  H155 4779   4.009   9.685   0.911  1.1065  1.2701  0.3227
   12CHTO   O56 4780   4.187   9.777   0.956 -0.3209 -0.3849 -0.2403
   12CHTO  H135 4781   4.276   9.758   0.975  0.8063  1.9675 -2.7759
   12CHTO   C81 4782   4.090   9.582   1.077  0.1265 -0.0287  0.7110
   12CHTO  H153 4783   4.024   9.496   1.059  1.2090 -0.5044 -1.1586
   12CHTO   N14 4784   4.013   9.660   1.181 -0.8600  0.0950 -0.2698
   12CHTO  H141 4785   4.083   9.734   1.215  0.4472 -0.5045 -1.5842
   12CHTO  H142 4786   3.921   9.701   1.145  0.3783  2.0393 -1.3605
   12CHTO   C79 4787   4.229   9.522   1.132  0.5008 -0.2262 -0.3203
   12CHTO  H151 4788   4.199   9.452   1.209 -0.4528  0.3552 -0.1442
   12CHTO   O52 4789   4.309   9.442   1.034  0.6796  0.3659  0.1224
   12CHTO   C86 4790   4.323   9.513   0.905  0.7792 -0.3120  0.2791
   12CHTO  H158 4791   4.391   9.599   0.916  0.2819  0.3847 -1.7412
   12CHTO   C90 4792   4.386   9.420   0.800 -0.1021 -0.2906 -0.3520
   12CHTO   O60 4793   4.306   9.299   0.790  0.2393 -0.3528 -0.2248
   12CHTO  H138 4794   4.361   9.232   0.754  2.0190 -0.5655  2.6879
   12CHTO   O50 4795   4.319   9.627   1.181  0.4563 -0.3353  0.1305
   12CHTO   C73 4796   4.398   9.637   1.297  0.5641  0.7563 -0.1933
   12CHTO  H145 4797   4.350   9.588   1.384  1.0892  1.8280  0.7080
   12CHTO   C74 4798   4.414   9.787   1.307  0.1204  0.6241  0.6349
   12CHTO  H146 4799   4.311   9.825   1.318 -0.2310  0.2864 -1.1859
   12CHTO   O54 4800   4.489   9.818   1.424 -0.2344  0.7726 -0.1395
   12CHTO  H133 4801   4.579   9.792   1.418 -0.4708  0.0453 -0.5344
   12CHTO   C75 4802   4.482   9.843   1.175 -0.0913 -0.2890 -0.2820
   12CHTO  H147 4803   4.416   9.813   1.092 -3.2018  1.0223  1.6075
   12CHTO   N13 4804   4.496   9.990   1.170 -0.0886  0.3345 -0.4690
   12CHTO  H139 4805   4.464  10.024   1.073  1.9368  0.7691 -1.0093
   12CHTO  H140 4806   4.429  10.038   1.240 -2.2019 -2.6295 -0.3558
   12CHTO   C76 4807   4.624   9.772   1.154  0.5223 -0.6658  0.1341
   12CHTO  H148 4808   4.673   9.790   1.250 -0.0144 -0.7220  0.4223
   12CHTO   O49 4809   4.600   9.629   1.160 -0.6208 -0.6955  0.3685
   12CHTO   C77 4810   4.531   9.573   1.277 -0.4885 -0.2575 -0.2891
   12CHTO  H149 4811   4.591   9.588   1.367 -1.3301  1.2102  0.0534
   12CHTO   C88 4812   4.521   9.422   1.269 -0.3739  0.2370 -0.3400
   12CHTO   O58 4813   4.644   9.371   1.261  0.2458 -0.5611 -0.0508
   12CHTO  H136 4814   4.645   9.283   1.228 -0.3065 -0.8543  0.7134
   12CHTO   O51 4815   4.694   9.798   1.012  0.6145  0.2559  0.7962
   12CHTO   C78 4816   4.823   9.671   0.986 -0.2203  0.3829  0.1338
   12CHTO  H150 4817   4.768   9.574   0.985  1.2629 -0.4828  0.2788
   12CHTO   C80 4818   4.932   9.664   1.094  0.5663 -0.7213 -0.1013
   12CHTO  H152 4819   4.970   9.764   1.126  2.4400 -0.6326 -2.4420
   12CHTO   O55 4820   4.879   9.614   1.215  0.3842 -0.7029 -0.0273
   12CHTO  H134 4821   4.862   9.523   1.226  0.6461 -0.6214  1.1028
   12CHTO   C84 4822   5.053   9.575   1.046 -0.4157  0.2497 -0.4075
   12CHTO  H156 4823   5.015   9.473   1.033 -2.1228  0.8356 -0.0701
   12CHTO   N15 4824   5.177   9.575   1.143  1.4930  0.7295 -0.3380
   12CHTO  H143 4825   5.204   9.475   1.168  0.4057  0.3856 -0.5121
   12CHTO  H144 4826   5.145   9.626   1.232  1.7685  2.1006 -1.0080
   12CHTO   C87 4827   5.107   9.612   0.906 -0.0786  0.4501 -0.1684
   12CHTO  H159 4828   5.152   9.711   0.906 -1.7177  1.2087 -0.1013
   12CHTO   O53 4829   4.983   9.610   0.810 -0.0163  0.3266  0.7751
   12CHTO   C82 4830   4.877   9.694   0.842 -0.5268  0.6169 -0.2380
   12CHTO  H154 4831   4.907   9.798   0.824  0.4769  0.5459  0.9220
   12CHTO   C89 4832   4.762   9.653   0.743  0.0947  0.1796 -0.3426
   12CHTO   O59 4833   4.807   9.680   0.609 -0.1505 -0.4147  0.1899
   12CHTO  H137 4834   4.727   9.691   0.560 -0.9049  0.1208  1.4974
   12CHTO   O45 4835   5.226   9.496   0.858 -0.2252  0.2554  0.0911
   12CHTO   C67 4836   5.277   9.514   0.724  0.4873 -0.2799  0.0385
   12CHTO  H124 4837   5.372   9.461   0.723  0.7174 -0.1124  4.3789
   12CHTO   C65 4838   5.185   9.449   0.615  0.6757 -0.1636 -0.0961
   12CHTO  H122 4839   5.093   9.425   0.668  0.1863  1.8223 -0.0082
   12CHTO   O44 4840   5.252   9.331   0.571 -0.3610  0.0110 -0.1379
   12CHTO  H102 4841   5.322   9.344   0.511 -1.3738 -2.2666 -1.8795
   12CHTO   C63 4842   5.141   9.553   0.500 -1.2505 -0.0658 -0.3635
   12CHTO  H120 4843   5.081   9.632   0.546 -2.0128  0.8705 -2.8745
   12CHTO   N11 4844   5.047   9.504   0.400 -0.3065  0.4703 -0.4130
   12CHTO  H108 4845   4.965   9.452   0.443 -0.5223  0.6391 -0.6156
   12CHTO  H109 4846   5.014   9.587   0.341 -1.0880  0.2108 -0.3377
   12CHTO   C61 4847   5.274   9.618   0.445  1.5794 -0.0893  0.3656
   12CHTO  H118 4848   5.248   9.702   0.379 -1.6391  0.4006  2.1589
   12CHTO   O40 4849   5.360   9.666   0.556 -0.1012  0.3277  0.0846
   12CHTO   C68 4850   5.311   9.664   0.694 -0.3278 -0.0291 -0.6489
   12CHTO  H125 4851   5.221   9.727   0.701 -2.1852 -2.5007 -1.6444
   12CHTO   C72 4852   5.417   9.724   0.788  0.1529  0.1168  0.1665
   12CHTO   O48 4853   5.384   9.735   0.926 -0.1180 -0.1874 -0.5035
   12CHTO  H105 4854   5.293   9.758   0.931  0.8198  4.3451 -1.8171
   12CHTO   O38 4855   5.348   9.517   0.370 -0.1520  0.3418  0.1810
   12CHTO   C55 4856   5.441   9.561   0.269 -0.3204  0.5153 -0.5216
   12CHTO  H112 4857   5.483   9.657   0.302  2.7590 -0.7017 -0.7365
   12CHTO   C56 4858   5.392   9.565   0.115  0.2226  0.1402  0.2604
   12CHTO  H113 4859   5.353   9.468   0.079 -0.2146 -0.4918  2.3488
   12CHTO   O42 4860   5.280   9.650   0.112 -0.3569 -0.3051 -0.0475
   12CHTO  H100 4861   5.228   9.645   0.190 -0.5476  0.7845 -0.1008
   12CHTO   C57 4862   5.503   9.627   0.021  0.1374  0.4705  0.6804
   12CHTO  H114 4863   5.517   9.730   0.054 -0.2930  1.1128 -1.0641
   12CHTO   N10 4864   5.469   9.619  -0.130 -0.2161 -0.0306 -0.5442
   12CHTO  H106 4865   5.417   9.708  -0.162 -2.3738 -1.3003 -0.6517
   12CHTO  H107 4866   5.405   9.534  -0.148 -4.4802  2.9730 -0.4735
   12CHTO   C58 4867   5.635   9.549   0.049  0.0156  0.6066 -0.0769
   12CHTO  H115 4868   5.630   9.451  -0.002  1.9817  1.5430 -2.1522
   12CHTO   O37 4869   5.656   9.535   0.188  0.2661 -0.2151  0.2320
   12CHTO   C59 4870   5.559   9.460   0.272  0.5932 -0.1119  0.1665
   12CHTO  H116 4871   5.539   9.359   0.236  0.4334  0.2211 -0.6761
   12CHTO   C70 4872   5.624   9.449   0.413  0.1568  0.2346 -0.3560
   12CHTO   O46 4873   5.559   9.384   0.522  0.2632 -0.3718  0.2099
   12CHTO  H103 4874   5.624   9.369   0.589 -0.9132  0.8574  1.6580
   12CHTO   O39 4875   5.779   9.648  -0.010  0.2711  0.7119 -0.6696
   12CHTO   C60 4876   5.900   9.635   0.051  0.3822  0.1268  0.8068
   12CHTO  H117 4877   5.885   9.569   0.137 -0.8470  1.0295  1.3014
   12CHTO   C62 4878   5.999   9.562  -0.039 -0.4388  0.7397 -0.1564
   12CHTO  H119 4879   5.966   9.466  -0.084 -1.7649  1.0469  0.1215
   12CHTO   O43 4880   6.043   9.629  -0.158  0.4224  0.1116 -0.8478
   12CHTO  H101 4881   6.083   9.710  -0.130  0.6801 -0.3482  0.1343
   12CHTO   C66 4882   6.123   9.529   0.049 -0.3533 -0.0692  0.2727
   12CHTO  H123 4883   6.091   9.463   0.130  0.1591 -0.6148  0.0414
   12CHTO   N12 4884   6.223   9.431  -0.012  0.2180 -0.1945 -0.1101
   12CHTO  H110 4885   6.187   9.330  -0.022  0.1927 -0.0906 -1.1326
   12CHTO  H111 4886   6.314   9.426   0.046 -0.0571 -0.2029  0.3218
   12CHTO   C69 4887   6.196   9.650   0.113  0.9437  0.0517  0.0290
   12CHTO  H126 4888   6.251   9.712   0.039  1.4957  1.8788  1.9129
   12CHTO   O41 4889   6.088   9.753   0.194  0.5473 -0.0823  0.0072
   12CHTO   C64 4890   5.948   9.773   0.118  0.0083  0.0263  0.0376
   12CHTO  H121 4891   5.972   9.851   0.042  1.1114 -0.8702 -0.5506
   12CHTO   C71 4892   5.839   9.832   0.219  0.1137  0.1327 -0.6334
   12CHTO   O47 4893   5.866   9.962   0.272 -0.2232 -0.0182  0.3750
   12CHTO  H104 4894   5.882  10.019   0.199  0.3352 -1.7317 -0.8822
   12CHTO   O34 4895   6.302   9.598   0.219 -0.4769  0.2321 -0.4074
   12CHTO   C49 4896   6.301   9.587   0.367  0.0553  0.0487  0.0789
   12CHTO   H91 4897   6.366   9.666   0.407  0.6531 -0.0859 -0.6270
   12CHTO   C47 4898   6.366   9.458   0.412  0.1292 -0.7340 -0.1408
   12CHTO   H89 4899   6.369   9.472   0.522  0.3678 -0.8315 -0.1341
   12CHTO   O33 4900   6.504   9.448   0.375 -0.3604 -0.6183 -0.3513
   12CHTO   H70 4901   6.542   9.384   0.431 -1.3915 -0.1594  0.8899
   12CHTO   C45 4902   6.275   9.339   0.375  0.1579  0.0647  0.4446
   12CHTO   H87 4903   6.258   9.328   0.267  0.9529  0.4775  0.2759
   12CHTO    N8 4904   6.345   9.217   0.428  0.0235  0.6862 -0.0346
   12CHTO   H75 4905   6.359   9.224   0.535 -0.0001  2.7024 -0.1621
   12CHTO   H76 4906   6.292   9.131   0.388  1.1630  1.1764 -2.6869
   12CHTO   C43 4907   6.128   9.361   0.431 -0.6192 -0.8257  0.1892
   12CHTO   H85 4908   6.064   9.282   0.392  0.1322 -0.2673 -2.2885
   12CHTO   O29 4909   6.072   9.493   0.405  0.0002 -0.3052 -0.2991
   12CHTO   C50 4910   6.161   9.599   0.430  0.3091  0.3273  1.0233
   12CHTO   H92 4911   6.118   9.696   0.397  2.0599  0.1087 -2.1594
   12CHTO   C54 4912   6.158   9.633   0.575 -0.4282  0.5390 -0.6890
   12CHTO   O36 4913   6.248   9.744   0.609  0.1697  0.8401  0.0622
   12CHTO   H72 4914   6.280   9.781   0.529  1.1675  2.4601  1.1868
   12CHTO   O27 4915   6.125   9.325   0.573 -0.2633 -0.3311  0.5666
   12CHTO   C37 4916   6.027   9.282   0.671  0.3324 -0.0084 -0.5068
   12CHTO   H79 4917   6.091   9.239   0.750  1.3147  2.4768  0.1135
   12CHTO   C38 4918   5.935   9.390   0.734 -0.3195 -0.2996  1.0678
   12CHTO   H80 4919   5.883   9.445   0.655 -0.2446 -1.1614  0.4150
   12CHTO   O31 4920   6.013   9.482   0.812 -0.0360  0.2265  0.1055
   12CHTO   H68 4921   6.076   9.432   0.860  1.0770  2.4665  0.9987
   12CHTO   C39 4922   5.827   9.332   0.836 -0.6047 -0.1891  0.1534
   12CHTO   H81 4923   5.892   9.294   0.914  0.4789 -1.0611 -1.1486
   12CHTO    N7 4924   5.730   9.439   0.881 -0.4052  0.0307 -0.5280
   12CHTO   H73 4925   5.780   9.505   0.950 -2.9724  0.9167  0.5778
   12CHTO   H74 4926   5.658   9.480   0.811 -0.5778  0.0739 -0.3247
   12CHTO   C40 4927   5.754   9.209   0.774  0.9972  0.1188 -0.2365
   12CHTO   H82 4928   5.682   9.240   0.698  0.6323 -1.4257 -0.5529
   12CHTO   O26 4929   5.853   9.121   0.718  0.0805 -0.2416 -0.0446
   12CHTO   C41 4930   5.940   9.175   0.614 -0.3478  0.1083 -0.8062
   12CHTO   H83 4931   5.892   9.208   0.520 -2.1356  0.4229  0.1860
   12CHTO   C52 4932   6.029   9.048   0.571  0.0788 -1.2005  0.1375
   12CHTO   O35 4933   5.934   8.936   0.518  0.4819 -0.0670  0.4382
   12CHTO   H71 4934   5.905   8.879   0.587 -1.1560 -0.0139 -0.1885
   12CHTO   O28 4935   5.695   9.114   0.867  0.4120  0.4007  0.3788
   12CHTO   C42 4936   5.570   9.039   0.841 -0.1667  0.0729  0.1626
   12CHTO   H84 4937   5.574   8.957   0.913  0.6816 -1.5281 -1.6615
   12CHTO   C44 4938   5.570   8.965   0.702 -0.0467  0.1918  0.2338
   12CHTO   H86 4939   5.589   9.036   0.621 -1.6654 -0.0266 -0.3675
   12CHTO   O32 4940   5.672   8.864   0.711  0.1178 -0.5515 -0.0566
   12CHTO   H69 4941   5.755   8.900   0.737  0.8758 -2.1399 -0.2513
   12CHTO   C48 4942   5.430   8.891   0.685  0.7502  0.5920 -0.5034
   12CHTO   H90 4943   5.421   8.809   0.756  0.4235  0.8187 -0.2850
   12CHTO    N9 4944   5.414   8.837   0.541 -0.3105 -0.0815  0.4399
   12CHTO   H77 4945   5.384   8.926   0.487  2.5394  1.1595  0.8447
   12CHTO   H78 4946   5.499   8.794   0.491 -1.5842 -1.6734 -0.4492
   12CHTO   C51 4947   5.312   8.988   0.726 -0.8565  0.6705  0.4307
   12CHTO   H93 4948   5.302   9.063   0.648 -1.3823 -0.1700 -0.3169
   12CHTO   O30 4949   5.331   9.042   0.858 -0.2626  0.1887  0.1858
   12CHTO   C46 4950   5.443   9.125   0.871 -0.4051 -0.1295 -0.1512
   12CHTO   H88 4951   5.428   9.210   0.804 -1.0679  0.8313  1.2090
   12CHTO   C53 4952   5.447   9.182   1.013 -0.2115 -0.7859  0.4499
   12CHTO   O72 4953   5.348   9.283   1.025 -0.1765 -0.1114  0.4229
   12CHTO  H199 4954   5.335   9.303   1.115  1.8854  2.3106  0.2311
   12CHTO   O22 4955   5.187   8.915   0.736 -0.4708  0.0246  0.1449
   12CHTO   C31 4956   5.052   8.970   0.692  0.1476 -0.0682 -0.7925
   12CHTO   H59 4957   4.978   8.890   0.713  0.4336 -0.0828  0.1477
   12CHTO   C29 4958   5.011   9.090   0.776  0.0100  0.4136 -0.2105
   12CHTO   H57 4959   5.068   9.180   0.750 -1.6829  1.3528 -0.7364
   12CHTO   O21 4960   5.039   9.059   0.915 -0.1750  0.3914 -1.0899
   12CHTO   H37 4961   5.132   9.055   0.928 -0.2053 -0.2021 -1.0377
   12CHTO   C27 4962   4.858   9.119   0.756 -0.0140 -0.3710 -0.2148
   12CHTO   H55 4963   4.796   9.034   0.787 -1.8186  1.0897  0.3069
   12CHTO    N5 4964   4.809   9.237   0.832  0.4424  0.0608 -0.1648
   12CHTO   H43 4965   4.859   9.323   0.791  1.3868 -0.4691 -0.1509
   12CHTO   H44 4966   4.705   9.252   0.810 -0.3311 -3.5881  0.6220
   12CHTO   C25 4967   4.819   9.139   0.600  0.4095  0.0994  0.3442
   12CHTO   H53 4968   4.845   9.238   0.559 -1.9215 -0.1613 -1.9370
   12CHTO   O17 4969   4.884   9.034   0.520  0.4286 -0.3757 -0.0427
   12CHTO   C32 4970   5.021   9.000   0.544  0.6924  0.4934  0.0601
   12CHTO   H60 4971   5.083   9.082   0.507  0.5450  0.2263 -0.8090
   12CHTO   C36 4972   5.047   8.877   0.459 -0.9235 -0.2198 -0.3906
   12CHTO   O25 4973   5.069   8.921   0.326  0.1615  0.0969  0.1803
   12CHTO   H40 4974   5.104   8.848   0.278  0.3916  0.4393 -0.1699
   12CHTO   O15 4975   4.656   9.137   0.593  0.3323 -0.1336  0.3825
   12CHTO   C19 4976   4.515   9.112   0.551 -0.2523  0.2065 -0.3966
   12CHTO   H47 4977   4.460   9.165   0.631 -4.7573 -2.6620 -1.4479
   12CHTO   C20 4978   4.473   9.174   0.412 -0.1458  0.1733 -0.5903
   12CHTO   H48 4979   4.526   9.121   0.332 -1.7629 -4.5371  1.2769
   12CHTO   O19 4980   4.503   9.312   0.405 -0.3515 -0.4564 -0.4355
   12CHTO   H35 4981   4.583   9.349   0.438 -0.7501  1.3896 -1.4418
   12CHTO   C21 4982   4.320   9.141   0.373 -0.3907 -0.7796  0.4834
   12CHTO   H49 4983   4.256   9.195   0.443 -1.8221 -2.0605  0.1913
   12CHTO    N4 4984   4.286   9.184   0.230 -0.2360 -0.4535 -0.3019
   12CHTO   H41 4985   4.366   9.158   0.161 -0.4777 -1.6419 -0.1535
   12CHTO   H42 4986   4.198   9.125   0.206  0.1234 -1.2369  0.2678
   12CHTO   C22 4987   4.289   8.992   0.397 -0.3866 -0.4932 -0.2918
   12CHTO   H50 4988   4.345   8.927   0.329  0.5352 -0.2399  0.2233
   12CHTO   O14 4989   4.320   8.963   0.533 -0.0127 -0.7626 -1.0136
   12CHTO   C23 4990   4.465   8.959   0.557 -0.3646 -0.5726  0.0583
   12CHTO   H51 4991   4.526   8.898   0.489  0.5579  1.0503 -0.6085
   12CHTO   C34 4992   4.485   8.908   0.700  0.0724 -0.4480  0.0577
   12CHTO   O23 4993   4.622   8.858   0.721  0.4110  0.9585 -0.3690
   12CHTO   H38 4994   4.628   8.769   0.692  1.3396 -0.5682  4.1443
   12CHTO   O16 4995   4.148   8.971   0.391 -0.4289 -0.0460 -0.2179
   12CHTO   C24 4996   4.106   8.827   0.327 -1.2073 -0.9058  0.2909
   12CHTO   H52 4997   4.187   8.754   0.337  0.0194  0.6278  1.8038
   12CHTO   C26 4998   4.076   8.845   0.176 -0.0056  0.0411 -0.1559
   12CHTO   H54 4999   4.001   8.926   0.165  0.4825  0.4318 -0.6741
   12CHTO   O20 5000   4.192   8.894   0.117 -0.4192 -0.7168  0.2500
   12CHTO   H36 5001   4.203   8.981   0.151  0.1913 -0.6790 -0.0443
   12CHTO   C30 5002   4.027   8.712   0.113  0.5674 -0.2070  0.1523
   12CHTO   H58 5003   4.115   8.647   0.107 -0.8937 -2.3265  1.0713
   12CHTO    N6 5004   3.983   8.738  -0.029  0.0931 -0.4302  0.0336
   12CHTO   H45 5005   3.885   8.701  -0.057  0.6584 -1.0870 -1.1196
   12CHTO   H46 5006   3.991   8.842  -0.058 -0.1516 -0.8189 -1.4608
   12CHTO   C33 5007   3.919   8.644   0.208 -0.6786  0.2469 -0.6086
   12CHTO   H61 5008   3.823   8.698   0.205 -0.1572  1.3503  1.5669
   12CHTO   O18 5009   3.958   8.641   0.345 -0.2951 -0.3967 -0.1963
   12CHTO   C28 5010   3.981   8.771   0.399  0.5185  0.2092  0.4569
   12CHTO   H56 5011   3.902   8.845   0.387 -0.9660 -1.5855 -1.1112
   12CHTO   C35 5012   4.011   8.736   0.545  0.2897 -0.2982  1.0519
   12CHTO   O24 5013   4.007   8.847   0.632 -0.0762 -0.1894  0.2368
   12CHTO   H39 5014   4.082   8.901   0.616  1.6762 -2.2995  1.0249
   12CHTO    O9 5015   3.884   8.514   0.164  0.3117 -0.0169 -0.2519
   12CHTO   C13 5016   3.983   8.403   0.177 -0.8792  0.3950  0.3926
   12CHTO   H26 5017   4.083   8.451   0.166  0.3369 -0.8863  4.8379
   12CHTO   C11 5018   3.957   8.304   0.069  0.3799 -0.1447  0.2937
   12CHTO   H24 5019   3.968   8.356  -0.028  1.1107  2.2890  1.6311
   12CHTO    O8 5020   3.820   8.263   0.068 -0.6767 -0.1436  0.3477
   12CHTO    H3 5021   3.764   8.327   0.029  0.1178 -0.5785 -1.5315
   12CHTO    C9 5022   4.058   8.188   0.079 -0.5450  0.8736 -0.1663
   12CHTO   H22 5023   4.156   8.237   0.090  0.1102 -0.6986  1.3557
   12CHTO    N2 5024   4.059   8.104  -0.048  0.5230  0.0866 -0.1939
   12CHTO   H10 5025   3.967   8.052  -0.072  0.6526 -0.1519 -0.1778
   12CHTO   H11 5026   4.141   8.034  -0.043 -0.5376 -1.0575  3.7932
   12CHTO    C7 5027   4.027   8.108   0.215  0.4879 -0.6801 -0.1216
   12CHTO   H20 5028   4.108   8.031   0.214  2.0562  0.9483 -0.4079
   12CHTO    O4 5029   4.044   8.200   0.327  0.0406  0.6133 -0.3878
   12CHTO   C14 5030   3.979   8.331   0.317  0.1479  0.6853 -0.9385
   12CHTO   H27 5031   4.034   8.399   0.386  0.5414 -0.7955  0.2408
   12CHTO   C18 5032   3.839   8.316   0.374 -0.1312  0.0378 -0.4491
   12CHTO   O13 5033   3.814   8.340   0.516 -0.0302  0.1627  0.4952
   12CHTO    H7 5034   3.727   8.309   0.536  0.1189 -0.3279  0.3869
   12CHTO    O2 5035   3.884   8.018   0.216  0.1042  0.0332  0.2967
   12CHTO    C1 5036   3.889   7.893   0.294 -0.2295 -0.0544  0.5230
   12CHTO   H14 5037   3.956   7.910   0.380  1.5803  2.9681 -1.3726
   12CHTO    C2 5038   3.947   7.766   0.212 -0.3706  0.2765  0.3082
   12CHTO   H15 5039   3.900   7.760   0.112  1.7622  0.3036 -0.7105
   12CHTO    O6 5040   4.086   7.780   0.198  0.2574  0.0600 -0.1774
   12CHTO    H1 5041   4.127   7.759   0.279  0.9368 -0.8702 -0.7570
   12CHTO    C3 5042   3.908   7.626   0.275 -0.2334 -0.0332  0.5576
   12CHTO   H16 5043   3.975   7.602   0.359 -0.1783  0.5101  0.6739
   12CHTO    N1 5044   3.920   7.516   0.175  0.1908 -0.3646 -0.3425
   12CHTO    H8 5045   4.022   7.518   0.139  0.8646  0.5606  1.5391
   12CHTO    H9 5046   3.886   7.420   0.211  0.8705 -1.9505 -3.6899
   12CHTO    C4 5047   3.762   7.621   0.337  0.3393  0.8244  0.7371
   12CHTO   H17 5048   3.685   7.613   0.260  0.8200 -2.5050  0.5483
   12CHTO    O1 5049   3.743   7.736   0.418  0.5411 -0.4048  0.0784
   12CHTO    C5 5050   3.745   7.862   0.347  0.1639 -1.0298  0.1268
   12CHTO   H18 5051   3.683   7.859   0.258 -1.8823  1.8327  1.4218
   12CHTO   C16 5052   3.675   7.969   0.441  0.4795  0.3969  0.1669
   12CHTO   O11 5053   3.628   8.081   0.371 -0.0716 -0.2342 -0.3089
   12CHTO    H5 5054   3.598   8.053   0.286 -3.6561 -0.5703  0.9810
   12CHTO    O3 5055   3.745   7.515   0.429  0.1777 -0.1917  0.5351
   12CHTO    C6 5056   3.622   7.455   0.467  0.5243  0.1636 -0.8020
   12CHTO   H19 5057   3.535   7.503   0.422 -0.3219 -0.1204  0.4924
   12CHTO    C8 5058   3.621   7.315   0.410 -0.3468  0.1762 -0.0163
   12CHTO   H21 5059   3.701   7.255   0.453  0.6323  1.9871  0.7837
   12CHTO    O7 5060   3.626   7.315   0.267  0.0592 -0.0017 -0.0644
   12CHTO    H2 5061   3.697   7.264   0.233  0.0185 -0.4110  0.4569
   12CHTO   C12 5062   3.498   7.224   0.455 -0.5858 -0.2711 -0.3473
   12CHTO   H25 5063   3.412   7.271   0.403 -0.4233  1.4767  0.9325
   12CHTO    N3 5064   3.506   7.081   0.408 -0.1688 -0.0258 -0.2918
   12CHTO   H12 5065   3.435   7.022   0.463  0.6442  0.1283  0.9462
   12CHTO   H13 5066   3.479   7.067   0.304 -0.1989  1.3179 -0.4658
   12CHTO   C15 5067   3.473   7.231   0.611  0.1836 -0.6384 -0.1395
   12CHTO   H28 5068   3.542   7.176   0.674  1.0669  0.2654 -0.2932
   12CHTO   O10 5069   3.328   7.197   0.652  0.1772 -0.2035 -0.3065
   12CHTO    H4 5070   3.306   7.116   0.611  1.8965 -0.3281 -1.0011
   12CHTO    O5 5071   3.476   7.369   0.651  0.0776 -0.0529  0.0746
   12CHTO   C10 5072   3.593   7.446   0.622  1.5348 -0.3579  0.6001
   12CHTO   H23 5073   3.680   7.406   0.674  1.7425  0.2122  0.7000
   12CHTO   C17 5074   3.576   7.587   0.682 -0.0606  0.2431  0.0995
   12CHTO   O12 5075   3.530   7.570   0.817 -0.0852  0.1744 -0.2995
   12CHTO    H6 5076   3.523   7.648   0.870 -0.2876 -0.7062  0.9982
   13CHTO  H203 5077   7.936   4.560   2.115 -1.2984  0.2699  0.6685
   13CHTO   O82 5078   7.932   4.511   2.036  0.0446  0.4460  0.4766
   13CHTO  C123 5079   7.896   4.597   1.930 -0.1220  0.0119 -0.3207
   13CHTO  H227 5080   7.896   4.537   1.838 -1.8555 -1.4189  0.5808
   13CHTO   O77 5081   7.756   4.623   1.958  0.4674 -0.5515 -0.2450
   13CHTO  C118 5082   7.681   4.716   1.878  0.6617  0.1880  0.1601
   13CHTO  H222 5083   7.689   4.685   1.772  1.2312  0.0605  0.2406
   13CHTO  C125 5084   7.526   4.705   1.923 -0.4255  0.2223  0.5833
   13CHTO   O84 5085   7.497   4.727   2.055  0.0230  0.0005 -0.4734
   13CHTO  H205 5086   7.423   4.675   2.080  0.0749  0.0269 -0.2623
   13CHTO  C114 5087   7.749   4.855   1.887 -0.2313  0.3630 -1.0216
   13CHTO  H218 5088   7.750   4.879   1.993 -0.3455 -0.1720 -0.8968
   13CHTO  C116 5089   7.905   4.843   1.845 -0.0990  0.1984  0.0379
   13CHTO  H220 5090   7.908   4.820   1.737  1.1992 -0.1893  0.1462
   13CHTO   O79 5091   7.959   4.977   1.866  0.2529 -0.7436  0.3044
   13CHTO  H201 5092   7.910   5.048   1.830 -0.3645 -1.0671  0.4938
   13CHTO  C120 5093   7.982   4.729   1.921  0.1024 -0.2000 -0.0507
   13CHTO  H224 5094   7.996   4.761   2.026  1.6930  1.3641 -0.7148
   13CHTO   N21 5095   8.120   4.716   1.869 -0.0873 -0.6582 -0.4780
   13CHTO  H211 5096   8.157   4.811   1.834 -1.9973 -0.4150 -1.9147
   13CHTO  H212 5097   8.181   4.681   1.951 -1.9048 -0.9196  0.8048
   13CHTO   O75 5098   7.685   4.947   1.801 -0.0743  0.4372 -0.1166
   13CHTO  C112 5099   7.615   5.075   1.890  0.1713  0.5129 -1.0067
   13CHTO  H216 5100   7.691   5.118   1.957 -2.4844  2.3087  0.9186
   13CHTO   O73 5101   7.498   5.026   1.964  0.2154 -0.2909  0.2327
   13CHTO  C113 5102   7.412   5.130   2.021 -0.0064 -0.3036  0.1154
   13CHTO  H217 5103   7.479   5.199   2.076 -0.0837  1.3377 -1.8044
   13CHTO  C124 5104   7.311   5.077   2.126  0.3521 -0.5570  0.4859
   13CHTO   O83 5105   7.208   5.004   2.078  0.2074 -0.4618 -0.3281
   13CHTO  H204 5106   7.127   5.051   2.076 -1.1067 -2.3279  3.5444
   13CHTO  C109 5107   7.356   5.210   1.900  0.4363 -0.3291 -0.0405
   13CHTO  H213 5108   7.310   5.141   1.828 -2.2126  0.3928  0.9113
   13CHTO  C110 5109   7.477   5.284   1.831 -0.1138 -0.0262 -0.0459
   13CHTO  H214 5110   7.516   5.353   1.906 -0.2159  0.8502 -0.7873
   13CHTO   O78 5111   7.426   5.362   1.723 -0.4667 -0.2821 -0.0219
   13CHTO  H200 5112   7.353   5.411   1.755  0.2560 -0.0502  1.3335
   13CHTO  C111 5113   7.579   5.177   1.780 -1.1105 -0.3199  0.0167
   13CHTO  H215 5114   7.528   5.126   1.697  0.2172  0.4027 -1.2493
   13CHTO   N19 5115   7.705   5.245   1.726 -0.4718  0.2494  0.2576
   13CHTO  H207 5116   7.768   5.290   1.801  0.6740  0.4739 -0.8234
   13CHTO  H208 5117   7.676   5.324   1.658 -1.2546 -0.8749 -0.7261
   13CHTO   O74 5118   7.268   5.307   1.942 -0.4461  0.6042 -0.6345
   13CHTO  C115 5119   7.102   5.298   1.901  0.5717  0.2938  0.2516
   13CHTO  H219 5120   7.072   5.363   1.820  0.3754  1.1176  0.9786
   13CHTO   O76 5121   7.058   5.142   1.854  0.1054  0.1482 -0.0732
   13CHTO  C122 5122   6.912   5.126   1.860 -0.4311 -0.1355  0.1192
   13CHTO  H226 5123   6.895   5.019   1.851 -1.4681  0.0533 -0.2933
   13CHTO  C126 5124   6.845   5.192   1.733 -0.2009 -0.5790  0.6051
   13CHTO   O85 5125   6.706   5.151   1.704  0.0908 -0.2323 -0.6544
   13CHTO  H206 5126   6.716   5.106   1.622  1.3595  2.5143 -2.0602
   13CHTO  C121 5127   6.842   5.168   1.999 -0.1450  0.3702  0.6537
   13CHTO  H225 5128   6.733   5.147   2.006  0.0957 -1.2580 -0.2281
   13CHTO   O81 5129   6.893   5.094   2.104 -0.3210  0.1837  0.3899
   13CHTO  H202 5130   6.876   5.141   2.184  0.3979 -0.0912  0.7119
   13CHTO  C119 5131   6.869   5.317   2.026  0.4238  0.3775  0.3113
   13CHTO  H223 5132   6.843   5.371   1.935 -3.4321 -1.9324 -0.0900
   13CHTO  C117 5133   7.022   5.337   2.033 -0.5085 -0.8671 -0.0929
   13CHTO  H221 5134   7.071   5.282   2.113  1.0647  0.2870 -0.2325
   13CHTO   N20 5135   7.044   5.482   2.069 -0.1695 -0.0530  0.5744
   13CHTO  H209 5136   7.043   5.502   2.175 -0.9347  0.1254  0.5363
   13CHTO  H210 5137   6.976   5.544   2.012 -1.2684  0.1318  2.0528
   13CHTO   O80 5138   6.768   5.398   2.145  0.2269  0.5720  0.3490
   13CHTO  C103 5139   6.625   5.471   2.095  0.0143  0.4654 -0.0418
   13CHTO  H190 5140   6.578   5.529   2.174  2.4985  2.4464  0.0482
   13CHTO  C101 5141   6.651   5.574   1.975 -0.2425  0.5849 -0.1955
   13CHTO  H188 5142   6.707   5.519   1.899  1.2211 -0.9475  1.9182
   13CHTO   O68 5143   6.733   5.690   2.026 -0.5628 -0.3499  0.3214
   13CHTO  H168 5144   6.807   5.660   2.074  0.0655  1.9984  0.8725
   13CHTO   C99 5145   6.505   5.617   1.919  0.1185  0.0249  0.4407
   13CHTO  H186 5146   6.456   5.681   1.996 -0.4956  0.1270 -0.0370
   13CHTO   N17 5147   6.525   5.696   1.793 -0.3733  0.0159  0.5422
   13CHTO  H174 5148   6.445   5.661   1.729 -0.0214  0.4350 -0.1417
   13CHTO  H175 5149   6.507   5.800   1.817 -0.5854 -0.1350  1.0523
   13CHTO   C97 5150   6.415   5.491   1.892  0.5499  0.0798 -0.0050
   13CHTO  H184 5151   6.461   5.438   1.807  1.6860 -0.1744  0.7586
   13CHTO   O64 5152   6.404   5.413   2.007  0.6099 -0.0141  0.7000
   13CHTO  C104 5153   6.528   5.353   2.052  0.0934  0.2172  0.5677
   13CHTO  H191 5154   6.576   5.293   1.975  2.0121  2.1706  0.1689
   13CHTO  C108 5155   6.501   5.259   2.171 -0.0417 -0.4502  1.2148
   13CHTO   O71 5156   6.436   5.136   2.130 -0.1668 -0.6370  0.9071
   13CHTO  H171 5157   6.383   5.103   2.201  0.2321 -1.5815  0.7682
   13CHTO   O62 5158   6.273   5.520   1.876  0.7795  0.0669 -0.1638
   13CHTO   C91 5159   6.179   5.415   1.833 -0.4933 -0.1477 -0.2629
   13CHTO  H178 5160   6.241   5.325   1.836  1.4610  1.1231 -1.0806
   13CHTO   C92 5161   6.133   5.437   1.688 -0.5044  0.0317 -0.3700
   13CHTO  H179 5162   6.096   5.540   1.679  1.5213  0.7022 -1.4907
   13CHTO   O66 5163   6.247   5.423   1.603  0.2447  0.4843 -0.7135
   13CHTO  H166 5164   6.313   5.488   1.617  0.1696  0.0648  1.8935
   13CHTO   C93 5165   6.027   5.324   1.633  1.0250  0.2123  0.2396
   13CHTO  H180 5166   6.078   5.228   1.619  1.0666  0.4840 -1.5836
   13CHTO   N16 5167   5.965   5.368   1.502 -0.2531 -0.0062  0.0350
   13CHTO  H172 5168   5.996   5.302   1.422  0.3332  0.6828 -0.3109
   13CHTO  H173 5169   5.992   5.469   1.478 -0.3650  0.9875  3.8252
   13CHTO   C94 5170   5.917   5.305   1.751 -0.3747  0.4041  0.3399
   13CHTO  H181 5171   5.855   5.395   1.761 -2.0614 -0.2374 -3.6799
   13CHTO   O61 5172   5.971   5.282   1.883  0.6017 -0.6544  0.0584
   13CHTO   C95 5173   6.054   5.395   1.925 -1.0306 -0.8582  0.1147
   13CHTO  H182 5174   5.996   5.487   1.917  0.0365 -0.3194 -1.8523
   13CHTO  C106 5175   6.093   5.367   2.077 -0.1240  0.0196  0.1968
   13CHTO   O69 5176   6.154   5.482   2.140 -0.0526 -0.3150  0.0691
   13CHTO  H169 5177   6.186   5.541   2.075  0.5643 -1.8807 -1.0690
   13CHTO   O63 5178   5.821   5.167   1.715 -0.0692  0.1658  0.1710
   13CHTO   C96 5179   5.665   5.165   1.778 -0.5464  0.1472 -0.4786
   13CHTO  H183 5180   5.601   5.100   1.719  0.6562 -0.6517 -0.9118
   13CHTO   C98 5181   5.597   5.297   1.773 -0.0954 -0.1456  0.6223
   13CHTO  H185 5182   5.650   5.384   1.813 -0.5076  1.3691 -2.0043
   13CHTO   O67 5183   5.576   5.318   1.631  0.1799  0.1705 -0.5434
   13CHTO  H167 5184   5.569   5.410   1.612 -0.9951  0.5425  1.4955
   13CHTO  C102 5185   5.449   5.292   1.849  0.0615 -0.5938 -0.0777
   13CHTO  H189 5186   5.392   5.221   1.786 -1.1166  0.0887  0.1965
   13CHTO   N18 5187   5.372   5.421   1.856 -0.1983 -0.4084  0.0458
   13CHTO  H176 5188   5.275   5.409   1.903 -0.2130  0.2127  0.1767
   13CHTO  H177 5189   5.338   5.451   1.758 -0.6592  0.1995  0.3871
   13CHTO  C105 5190   5.463   5.233   1.991 -0.3034  0.1044  0.0820
   13CHTO  H192 5191   5.508   5.309   2.056  1.4984 -2.2729  1.6933
   13CHTO   O65 5192   5.545   5.113   2.004  0.0685 -0.2700  0.3061
   13CHTO  C100 5193   5.663   5.107   1.922  0.3674  0.2015 -0.5330
   13CHTO  H187 5194   5.739   5.158   1.984  0.5121 -3.1524  2.2399
   13CHTO  C107 5195   5.714   4.958   1.902 -0.5052  0.1454  0.1105
   13CHTO   O70 5196   5.747   4.908   2.030  0.9117 -0.3390 -0.1184
   13CHTO  H170 5197   5.800   4.833   2.013  2.7408  0.7123  0.8662
   13CHTO   O57 5198   5.312   5.198   2.048  0.4993 -0.0951 -0.3987
   13CHTO   C85 5199   5.221   5.099   2.005  0.3746  0.5814 -0.0696
   13CHTO  H157 5200   5.256   5.054   1.910 -2.8276  0.2516 -1.1427
   13CHTO   C83 5201   5.087   5.172   1.963 -0.0342 -0.7723 -0.3091
   13CHTO  H155 5202   5.102   5.246   1.884 -0.2438  2.5393  2.6429
   13CHTO   O56 5203   5.034   5.248   2.074 -0.2134  0.3614 -0.0365
   13CHTO  H135 5204   4.957   5.203   2.102 -0.3826  0.3623 -0.4959
   13CHTO   C81 5205   4.990   5.063   1.910  0.2190  0.1783 -0.0477
   13CHTO  H153 5206   5.030   5.025   1.816  0.6389 -0.0199  0.2136
   13CHTO   N14 5207   4.859   5.118   1.857  0.7076 -0.1357 -0.0709
   13CHTO  H141 5208   4.797   5.036   1.828  1.1739 -0.2650 -0.6934
   13CHTO  H142 5209   4.868   5.197   1.785 -2.6762  1.1401  0.7687
   13CHTO   C79 5210   4.957   4.945   2.009  0.0973  0.9934 -0.2808
   13CHTO  H151 5211   4.910   4.867   1.950 -0.4356  0.6037  0.6477
   13CHTO   O52 5212   5.084   4.884   2.054 -0.1891  0.3069  0.3126
   13CHTO   C86 5213   5.175   4.986   2.106 -0.2611 -0.1329  0.1750
   13CHTO  H158 5214   5.117   5.022   2.194  0.8898  2.4640 -0.0742
   13CHTO   C90 5215   5.303   4.907   2.167 -0.1488 -0.3124 -0.0778
   13CHTO   O60 5216   5.356   4.810   2.082 -0.2856  0.3531  0.1939
   13CHTO  H138 5217   5.434   4.775   2.120 -0.0507  1.7004  0.9851
   13CHTO   O50 5218   4.879   4.979   2.121 -0.1595 -0.2910 -0.1252
   13CHTO   C73 5219   4.739   4.958   2.156  0.7310 -0.2748  0.1570
   13CHTO  H145 5220   4.696   4.887   2.083  1.2000 -1.0491  0.6286
   13CHTO   C74 5221   4.656   5.094   2.151 -0.0160 -0.0449  0.2709
   13CHTO  H146 5222   4.671   5.139   2.052 -0.9552 -2.1381 -0.8311
   13CHTO   O54 5223   4.510   5.075   2.162  1.0511  0.1723 -0.2261
   13CHTO  H133 5224   4.471   5.036   2.086 -1.2025 -0.4110  1.2054
   13CHTO   C75 5225   4.716   5.184   2.266  0.2616 -0.0365 -0.3908
   13CHTO  H147 5226   4.824   5.200   2.251  0.6070 -0.7013  1.2728
   13CHTO   N13 5227   4.661   5.318   2.261  0.8959  0.2565 -0.4026
   13CHTO  H139 5228   4.694   5.382   2.341  0.7897 -1.2487  0.8545
   13CHTO  H140 5229   4.693   5.363   2.168  1.6883 -1.1655 -0.8372
   13CHTO   C76 5230   4.702   5.104   2.406 -0.3912 -0.1582 -0.0767
   13CHTO  H148 5231   4.596   5.086   2.423 -0.4275  0.5207  0.4132
   13CHTO   O49 5232   4.772   4.982   2.394 -0.1731  0.3145 -0.1174
   13CHTO   C77 5233   4.724   4.894   2.290  0.1456  0.7021  0.5140
   13CHTO  H149 5234   4.619   4.877   2.316 -0.5200  2.2182 -1.1063
   13CHTO   C88 5235   4.799   4.762   2.295  0.3893  0.3289 -0.3763
   13CHTO   O58 5236   4.724   4.660   2.210 -0.0029 -0.2202  0.2531
   13CHTO  H136 5237   4.769   4.579   2.226  0.6150 -0.0114 -0.3982
   13CHTO   O51 5238   4.764   5.183   2.522  0.0832 -0.8298  0.3019
   13CHTO   C78 5239   4.950   5.224   2.525 -0.3185  0.1198  0.8411
   13CHTO  H150 5240   4.988   5.250   2.626 -1.9634  0.7309  1.3307
   13CHTO   C80 5241   4.978   5.350   2.439 -0.2476 -0.0904 -0.6171
   13CHTO  H152 5242   4.938   5.332   2.337  0.0818  1.1412 -0.9658
   13CHTO   O55 5243   4.899   5.463   2.491 -0.1328  0.3039 -0.1770
   13CHTO  H134 5244   4.912   5.542   2.441 -1.8360  0.6901 -0.0471
   13CHTO   C84 5245   5.134   5.374   2.424 -0.9646  0.3163 -0.2304
   13CHTO  H156 5246   5.163   5.408   2.523 -0.0051  2.9040 -1.3695
   13CHTO   N15 5247   5.178   5.494   2.340  0.3670 -0.1023  0.2999
   13CHTO  H143 5248   5.273   5.475   2.294 -0.0237 -1.7068  0.1182
   13CHTO  H144 5249   5.188   5.578   2.405  0.9218 -1.0634  1.4800
   13CHTO   C87 5250   5.207   5.247   2.375 -0.1244  0.3804 -0.1603
   13CHTO  H159 5251   5.174   5.202   2.281 -0.5040  3.3017 -1.4698
   13CHTO   O53 5252   5.188   5.159   2.476  0.0614  0.6263  0.0987
   13CHTO   C82 5253   5.049   5.112   2.483 -0.3634 -0.2767 -0.0346
   13CHTO  H154 5254   5.015   5.064   2.391  3.3250 -0.4895 -1.3531
   13CHTO   C89 5255   5.054   5.004   2.590 -0.1559  0.4626  0.1770
   13CHTO   O59 5256   4.927   4.951   2.645  0.0076 -0.0725  0.3694
   13CHTO  H137 5257   4.875   5.012   2.694 -2.1828 -1.2026 -0.4917
   13CHTO   O45 5258   5.377   5.284   2.379  0.0742  0.1869  0.2172
   13CHTO   C67 5259   5.463   5.168   2.395 -0.7053 -0.5921 -0.1852
   13CHTO  H124 5260   5.414   5.080   2.355 -2.0901  0.3707 -0.6538
   13CHTO   C65 5261   5.604   5.183   2.323 -0.6578  0.6592  0.3728
   13CHTO  H122 5262   5.579   5.194   2.218 -0.0524 -2.3596 -0.1313
   13CHTO   O44 5263   5.669   5.059   2.328 -0.4580  0.2382  0.2182
   13CHTO  H102 5264   5.704   5.049   2.414  0.8631  0.1327 -0.3163
   13CHTO   C63 5265   5.683   5.309   2.378 -0.4739 -0.2384  0.1218
   13CHTO  H120 5266   5.623   5.399   2.367 -0.5793  0.1627  3.4951
   13CHTO   N11 5267   5.804   5.333   2.299 -1.2274 -0.1988  0.9511
   13CHTO  H108 5268   5.878   5.256   2.303  0.6004  1.3968 -0.7312
   13CHTO  H109 5269   5.852   5.423   2.333 -0.0680 -0.2680 -0.4296
   13CHTO   C61 5270   5.697   5.288   2.535 -0.2735  0.1003  0.8562
   13CHTO  H118 5271   5.739   5.378   2.583  0.2665  0.1794  0.2454
   13CHTO   O40 5272   5.576   5.252   2.601  0.2639  0.4845 -0.1291
   13CHTO   C68 5273   5.481   5.151   2.550  0.2029 -1.2281  0.0884
   13CHTO  H125 5274   5.386   5.177   2.601 -0.5201  0.3378 -1.9859
   13CHTO   C72 5275   5.515   5.013   2.596 -0.4984  0.0172 -0.1419
   13CHTO   O48 5276   5.430   4.915   2.532  0.4814  0.1786  0.7280
   13CHTO  H105 5277   5.410   4.851   2.597  1.5903 -0.8368  0.0964
   13CHTO   O38 5278   5.791   5.185   2.568  0.0630 -0.2059  0.8302
   13CHTO   C55 5279   5.894   5.216   2.664 -0.1005 -0.4418  0.3067
   13CHTO  H112 5280   5.929   5.112   2.675 -0.2878 -0.4641  0.6997
   13CHTO   C56 5281   5.845   5.283   2.807 -0.3236 -0.0004  0.0322
   13CHTO  H113 5282   5.768   5.360   2.790 -0.2938 -0.0841 -0.4827
   13CHTO   O42 5283   5.759   5.194   2.876 -0.5544  0.3157  0.7386
   13CHTO  H100 5284   5.676   5.233   2.899  0.7036  1.7708  3.0100
   13CHTO   C57 5285   5.962   5.327   2.907 -0.0393 -0.1862  0.5002
   13CHTO  H114 5286   5.990   5.238   2.964  3.4993 -0.1349 -0.9788
   13CHTO   N10 5287   5.922   5.421   3.016 -0.2423 -0.5920  0.3692
   13CHTO  H106 5288   5.818   5.399   3.033  0.0950 -1.5827  1.2497
   13CHTO  H107 5289   5.973   5.398   3.109 -3.2408 -0.0712  2.1831
   13CHTO   C58 5290   6.081   5.387   2.823  0.4385 -0.3587  0.0895
   13CHTO  H115 5291   6.056   5.489   2.787  1.2431  0.2244  1.1725
   13CHTO   O37 5292   6.115   5.302   2.714  0.2079 -0.0892  0.2336
   13CHTO   C59 5293   6.018   5.289   2.610 -0.5149 -0.5184  0.0398
   13CHTO  H116 5294   5.989   5.385   2.568  2.1819  1.4430  2.4496
   13CHTO   C70 5295   6.090   5.207   2.503  0.3242 -0.2748 -0.2891
   13CHTO   O46 5296   6.122   5.078   2.546  0.5528  0.2128 -0.3433
   13CHTO  H103 5297   6.063   5.049   2.612 -0.3631 -0.1009 -1.2767
   13CHTO   O39 5298   6.217   5.393   2.905  0.0952  0.2074 -0.1063
   13CHTO   C60 5299   6.291   5.513   2.887 -0.6320  0.5771  0.5371
   13CHTO  H117 5300   6.286   5.552   2.785  0.2565  1.3209  0.7639
   13CHTO   C62 5301   6.244   5.638   2.969 -0.3597 -0.0003 -0.2974
   13CHTO  H119 5302   6.136   5.657   2.950 -0.0484 -0.4836 -2.6557
   13CHTO   O43 5303   6.261   5.609   3.107 -0.4229 -0.1084  0.0246
   13CHTO  H101 5304   6.211   5.534   3.131 -3.0268  1.3378 -0.6455
   13CHTO   C66 5305   6.339   5.759   2.932 -0.0710 -0.0156  0.7378
   13CHTO  H123 5306   6.339   5.770   2.824 -0.2181 -0.4274  0.6947
   13CHTO   N12 5307   6.292   5.885   2.987 -0.3849  0.6478 -0.0737
   13CHTO  H110 5308   6.321   5.908   3.088  1.8455  0.9534 -0.7634
   13CHTO  H111 5309   6.320   5.956   2.911 -0.7323  0.2596 -0.5775
   13CHTO   C69 5310   6.487   5.737   2.962 -0.7557 -0.3952 -0.4532
   13CHTO  H126 5311   6.523   5.733   3.066 -0.5084 -0.2021 -0.5316
   13CHTO   O41 5312   6.536   5.610   2.883 -0.0556  0.6913  0.4637
   13CHTO   C64 5313   6.443   5.484   2.911 -0.2623  0.1091 -0.7742
   13CHTO  H121 5314   6.462   5.456   3.017 -1.0093  0.9331 -0.4216
   13CHTO   C71 5315   6.493   5.378   2.813 -0.1627 -0.4126  0.3793
   13CHTO   O47 5316   6.620   5.324   2.832 -0.3247 -0.2370 -0.6657
   13CHTO  H104 5317   6.676   5.393   2.862 -0.9573  0.2798 -0.6856
   13CHTO   O34 5318   6.587   5.852   2.893 -0.1708  1.0015 -0.2572
   13CHTO   C49 5319   6.745   5.876   2.904 -0.3606  0.0632 -0.1074
   13CHTO   H91 5320   6.800   5.782   2.895  2.0762  1.3729  0.6550
   13CHTO   C47 5321   6.778   5.924   3.048 -0.1861 -0.5225 -0.8653
   13CHTO   H89 5322   6.888   5.926   3.037 -0.0263  1.6493  0.8213
   13CHTO   O33 5323   6.746   5.827   3.147 -0.3137 -0.1385  0.0370
   13CHTO   H70 5324   6.777   5.742   3.124  2.1299  1.3612 -2.4973
   13CHTO   C45 5325   6.715   6.065   3.075 -0.4339  0.4999 -0.2707
   13CHTO   H87 5326   6.617   6.057   3.124  0.7671  0.0488  2.1127
   13CHTO    N8 5327   6.805   6.132   3.175 -0.3732 -0.1247  0.0187
   13CHTO   H75 5328   6.904   6.150   3.138  0.5416 -2.9702  0.8881
   13CHTO   H76 5329   6.754   6.221   3.209 -0.5134 -0.7882  1.6407
   13CHTO   C43 5330   6.687   6.140   2.933 -0.0555 -0.2865  0.3299
   13CHTO   H85 5331   6.586   6.112   2.903 -0.9555 -0.8426  3.6245
   13CHTO   O29 5332   6.788   6.107   2.832  0.3321 -0.2681  0.0957
   13CHTO   C50 5333   6.790   5.974   2.794 -0.5411  0.4903  0.2188
   13CHTO   H92 5334   6.729   5.956   2.704 -1.5312  3.7861  0.2055
   13CHTO   C54 5335   6.933   5.953   2.752  0.3329  0.1864  0.3545
   13CHTO   O36 5336   6.972   6.013   2.627  0.0730  0.2333  0.2283
   13CHTO   H72 5337   7.061   6.017   2.599  0.5006  0.3118  1.5715
   13CHTO   O27 5338   6.672   6.280   2.954  0.9434 -0.1978 -0.3107
   13CHTO   C37 5339   6.587   6.381   2.995 -0.2397 -0.7870  0.2146
   13CHTO   H79 5340   6.509   6.338   3.060  0.3722 -4.8155 -1.6220
   13CHTO   C38 5341   6.654   6.495   3.076  0.2867 -0.2566  0.3512
   13CHTO   H80 5342   6.750   6.519   3.027  0.8059 -1.5919  0.6764
   13CHTO   O31 5343   6.680   6.434   3.209 -0.0746 -0.1053  0.2132
   13CHTO   H68 5344   6.620   6.371   3.244  1.7742 -1.5841  0.8207
   13CHTO   C39 5345   6.571   6.622   3.106  0.1362  0.4252  0.9200
   13CHTO   H81 5346   6.500   6.592   3.183  0.8680 -3.4524  0.1612
   13CHTO    N7 5347   6.660   6.729   3.160 -0.4962  0.8786 -0.3455
   13CHTO   H73 5348   6.605   6.822   3.162  0.9213  1.7270  0.5274
   13CHTO   H74 5349   6.741   6.746   3.090  0.3979 -0.1825  0.4230
   13CHTO   C40 5350   6.499   6.675   2.978  0.2921 -0.3946 -0.5446
   13CHTO   H82 5351   6.562   6.731   2.909 -2.6797  2.9841 -0.6533
   13CHTO   O26 5352   6.432   6.563   2.914  0.3619 -0.4094  0.5595
   13CHTO   C41 5353   6.511   6.450   2.874  0.3586  0.2863 -0.1784
   13CHTO   H83 5354   6.590   6.484   2.805  0.9115 -0.0431  0.2870
   13CHTO   C52 5355   6.418   6.344   2.798  0.5664 -0.4925  0.1975
   13CHTO   O35 5356   6.316   6.273   2.893 -0.9095 -0.2873  0.2093
   13CHTO   H71 5357   6.368   6.228   2.956 -0.1836  1.1449  0.6512
   13CHTO   O28 5358   6.399   6.779   3.001 -0.4545  0.4056  0.6311
   13CHTO   C42 5359   6.317   6.844   2.900  0.3653  0.9055  0.1532
   13CHTO   H84 5360   6.332   6.782   2.812  1.2510 -0.4136  1.2181
   13CHTO   C44 5361   6.371   6.988   2.871 -0.4806  0.1036  0.5141
   13CHTO   H86 5362   6.391   7.036   2.966  0.9928  1.2634 -0.3648
   13CHTO   O32 5363   6.497   6.967   2.807  0.0221 -0.2991  0.2284
   13CHTO   H69 5364   6.572   6.992   2.858 -0.1694 -0.7435  0.7345
   13CHTO   C48 5365   6.277   7.074   2.778  0.2504 -0.0860 -0.6698
   13CHTO   H90 5366   6.282   7.039   2.675  0.9075 -2.2555  0.0743
   13CHTO    N9 5367   6.338   7.213   2.763 -0.1114 -0.9076  0.5647
   13CHTO   H77 5368   6.265   7.288   2.786  1.1199  0.9180 -1.2780
   13CHTO   H78 5369   6.419   7.230   2.832  0.2598 -0.0733 -0.0675
   13CHTO   C51 5370   6.135   7.074   2.838 -0.2799  0.6011 -0.5835
   13CHTO   H93 5371   6.133   7.130   2.932 -3.1249  1.2462 -0.9834
   13CHTO   O30 5372   6.085   6.942   2.853 -0.0537  0.3238  0.1190
   13CHTO   C46 5373   6.158   6.847   2.927 -0.0887  0.3856  0.0783
   13CHTO   H88 5374   6.142   6.865   3.033 -0.3018 -3.8397  0.8281
   13CHTO   C53 5375   6.112   6.700   2.896 -0.1334 -1.0143 -0.5672
   13CHTO   O72 5376   5.982   6.698   2.952  0.0682  0.6295  0.1983
   13CHTO  H199 5377   5.942   6.618   2.922  0.8059  0.6378 -0.8369
   13CHTO   O22 5378   6.036   7.137   2.748 -0.1897 -0.2218  0.3845
   13CHTO   C31 5379   5.893   7.158   2.773 -0.1909 -0.3935 -0.2957
   13CHTO   H59 5380   5.861   7.233   2.698 -2.3770 -0.7335  0.2451
   13CHTO   C29 5381   5.815   7.031   2.741 -0.7013  0.1035  0.0898
   13CHTO   H57 5382   5.853   6.964   2.819  0.1602  0.4754 -0.0075
   13CHTO   O21 5383   5.850   6.987   2.609  0.6039  0.2186  0.4460
   13CHTO   H37 5384   5.919   6.924   2.617  1.0622  0.5245 -0.9132
   13CHTO   C27 5385   5.658   7.054   2.767 -0.1575 -0.1695 -0.4727
   13CHTO   H55 5386   5.619   7.127   2.695  0.2874  0.0494 -0.4926
   13CHTO    N5 5387   5.586   6.924   2.756 -0.1071 -0.4607 -0.1700
   13CHTO   H43 5388   5.639   6.859   2.688 -0.3261 -0.5559 -0.2501
   13CHTO   H44 5389   5.483   6.938   2.725 -0.1886 -0.9747 -0.1361
   13CHTO   C25 5390   5.638   7.122   2.913 -0.3796  0.1855 -0.2949
   13CHTO   H53 5391   5.682   7.053   2.986 -1.4948  0.6402  0.8114
   13CHTO   O17 5392   5.707   7.242   2.905  0.6975 -0.9012  0.0614
   13CHTO   C32 5393   5.854   7.216   2.914  0.8027 -0.0621  0.0276
   13CHTO   H60 5394   5.879   7.145   2.992  1.1002 -0.6915 -0.6364
   13CHTO   C36 5395   5.923   7.347   2.938  0.1743 -0.4304  1.0342
   13CHTO   O25 5396   5.912   7.381   3.076 -0.2136  0.2370 -0.3576
   13CHTO   H40 5397   5.821   7.375   3.097 -0.1554  2.0908  0.4630
   13CHTO   O15 5398   5.484   7.156   2.965 -0.0515  0.2560 -0.2414
   13CHTO   C19 5399   5.360   7.229   2.941  0.3714 -0.1752  0.8294
   13CHTO   H47 5400   5.320   7.249   3.042  1.2797  0.4971  1.0560
   13CHTO   C20 5401   5.388   7.358   2.860  0.1744 -0.0004  0.0871
   13CHTO   H48 5402   5.437   7.339   2.763 -1.3278 -0.7205 -0.5449
   13CHTO   O19 5403   5.477   7.445   2.934  0.2867 -0.1830  0.2900
   13CHTO   H35 5404   5.508   7.512   2.876  0.6466 -1.8037 -1.4491
   13CHTO   C21 5405   5.255   7.439   2.823 -0.0888  0.1399 -0.7127
   13CHTO   H49 5406   5.207   7.467   2.917 -0.0190 -2.3487  0.1123
   13CHTO    N4 5407   5.280   7.559   2.744 -0.1646 -0.2404  0.5526
   13CHTO   H41 5408   5.329   7.634   2.804 -0.9873 -1.3726  2.6809
   13CHTO   H42 5409   5.337   7.538   2.655 -1.2180 -2.2500  0.3426
   13CHTO   C22 5410   5.154   7.339   2.765  1.0836  0.0052  0.0882
   13CHTO   H50 5411   5.190   7.296   2.672  2.5956  1.2969  0.0604
   13CHTO   O14 5412   5.132   7.232   2.858  0.2022 -0.2772  0.0494
   13CHTO   C23 5413   5.252   7.154   2.870  0.3914  0.0317 -0.2729
   13CHTO   H51 5414   5.283   7.126   2.768 -0.7868 -3.0452  0.1729
   13CHTO   C34 5415   5.219   7.022   2.939  0.1194  0.4253 -0.0501
   13CHTO   O23 5416   5.141   6.942   2.856  0.3280 -0.2036  0.5594
   13CHTO   H38 5417   5.100   6.869   2.897  0.2007 -0.8742 -0.7561
   13CHTO   O16 5418   5.024   7.390   2.735 -0.6417  0.0615  0.0118
   13CHTO   C24 5419   4.883   7.289   2.752  0.0700 -0.3658 -0.2945
   13CHTO   H52 5420   4.884   7.237   2.847  1.8882  1.0019  0.4523
   13CHTO   C26 5421   4.854   7.204   2.630  0.4095  0.6536  0.4910
   13CHTO   H54 5422   4.860   7.269   2.541 -1.5680  0.2342  0.0202
   13CHTO   O20 5423   4.952   7.090   2.620 -0.1033  0.0873  0.5562
   13CHTO   H36 5424   5.004   7.091   2.542 -0.4808  1.2516  0.3111
   13CHTO   C30 5425   4.709   7.150   2.638 -0.6481 -0.0664  0.0047
   13CHTO   H58 5426   4.721   7.072   2.716 -4.8416 -2.2500 -1.4012
   13CHTO    N6 5427   4.667   7.079   2.519 -0.6747  0.6170 -0.0024
   13CHTO   H45 5428   4.605   6.995   2.548  1.3225 -1.0821 -0.6047
   13CHTO   H46 5429   4.753   7.041   2.466 -1.4377 -4.2628  1.9644
   13CHTO   C33 5430   4.608   7.256   2.676 -0.2685 -0.4566  0.6581
   13CHTO   H61 5431   4.594   7.330   2.596 -0.3780  0.6367  1.6904
   13CHTO   O18 5432   4.649   7.330   2.791  0.6963 -0.0208 -0.4447
   13CHTO   C28 5433   4.767   7.393   2.761 -0.6620 -0.3595 -0.0762
   13CHTO   H56 5434   4.757   7.448   2.667 -0.9823 -0.5966 -0.1841
   13CHTO   C35 5435   4.786   7.508   2.863  0.0884 -0.1842  0.3749
   13CHTO   O24 5436   4.666   7.597   2.879 -0.2593  0.1904 -0.0972
   13CHTO   H39 5437   4.590   7.566   2.835 -0.1308 -0.3771  0.0854
   13CHTO    O9 5438   4.479   7.203   2.699  0.5334 -0.1431 -0.6901
   13CHTO   C13 5439   4.453   7.113   2.835 -0.3084 -0.4427  0.1769
   13CHTO   H26 5440   4.553   7.113   2.884  0.1770  0.3616 -0.7758
   13CHTO   C11 5441   4.404   6.968   2.796 -0.5843 -0.0852  0.4196
   13CHTO   H24 5442   4.488   6.923   2.742 -0.4758  2.9653 -2.0336
   13CHTO    O8 5443   4.290   6.982   2.707 -0.1966 -0.4509  0.2858
   13CHTO    H3 5444   4.237   6.905   2.707 -0.2271 -0.4291  0.3504
   13CHTO    C9 5445   4.378   6.884   2.923 -0.9708  0.6836  0.6524
   13CHTO   H22 5446   4.474   6.880   2.976  0.1588 -1.1466 -1.4352
   13CHTO    N2 5447   4.345   6.744   2.899  0.5152 -0.0525  0.5341
   13CHTO   H10 5448   4.302   6.691   2.982 -1.1130 -0.5051 -0.5747
   13CHTO   H11 5449   4.278   6.742   2.814  2.4426 -0.5718 -1.0288
   13CHTO    C7 5450   4.277   6.956   3.022 -0.5585  0.2650 -0.0539
   13CHTO   H20 5451   4.336   6.952   3.116 -0.2195 -0.6322 -0.2923
   13CHTO    O4 5452   4.252   7.098   2.986  0.0582  0.4623  0.2746
   13CHTO   C14 5453   4.352   7.183   2.940 -0.1137 -0.2907 -0.2939
   13CHTO   H27 5454   4.395   7.216   3.036  1.0415 -2.5227 -0.0005
   13CHTO   C18 5455   4.283   7.304   2.883  0.2908  0.7825 -0.1319
   13CHTO   O13 5456   4.189   7.280   2.782 -0.7637  0.1110 -0.0628
   13CHTO    H7 5457   4.181   7.361   2.735  3.6224 -0.3176 -1.7357
   13CHTO    O2 5458   4.145   6.893   3.051  0.2604  0.1482  0.5769
   13CHTO    C1 5459   4.100   6.915   3.186 -0.4547  0.1404 -0.8278
   13CHTO   H14 5460   4.174   6.976   3.242 -0.8653 -1.9708  2.1568
   13CHTO    C2 5461   4.089   6.783   3.276 -0.0868  0.2228  0.3877
   13CHTO   H15 5462   4.014   6.716   3.231 -1.6745  0.9477  1.9069
   13CHTO    O6 5463   4.223   6.719   3.271  0.6007 -0.4748 -0.2712
   13CHTO    H1 5464   4.217   6.625   3.279 -1.1069 -0.3495  0.3224
   13CHTO    C3 5465   4.047   6.814   3.427 -0.6140 -0.5074  0.3647
   13CHTO   H16 5466   4.126   6.870   3.478 -0.3289 -0.7441  0.1818
   13CHTO    N1 5467   4.036   6.689   3.512  0.1103  0.5856 -0.3157
   13CHTO    H8 5468   3.991   6.606   3.460 -0.6205  0.9880 -0.3373
   13CHTO    H9 5469   4.129   6.666   3.562  0.5405  0.6575 -1.0786
   13CHTO    C4 5470   3.923   6.907   3.434  0.3464 -0.1860  0.1247
   13CHTO   H17 5471   3.833   6.847   3.416  1.0632 -0.9822 -0.8751
   13CHTO    O1 5472   3.930   7.015   3.336  0.0308 -0.3290 -0.4758
   13CHTO    C5 5473   3.962   6.990   3.195 -0.2270 -0.4534  0.0730
   13CHTO   H18 5474   3.884   6.924   3.157 -0.3454  0.2845 -0.9799
   13CHTO   C16 5475   3.957   7.124   3.121 -0.1341  0.3069  0.5814
   13CHTO   O11 5476   4.043   7.230   3.171 -0.5806  0.6150 -0.3521
   13CHTO    H5 5477   4.106   7.264   3.110 -0.9735  0.3782 -0.8929
   13CHTO    O3 5478   3.907   6.969   3.558 -0.9419 -0.0688 -0.0818
   13CHTO    C6 5479   3.776   7.029   3.587  0.2556 -0.0154 -0.5587
   13CHTO   H19 5480   3.709   7.033   3.501  0.1306  0.8766 -0.4223
   13CHTO    C8 5481   3.700   6.943   3.695  0.2656 -0.3431 -0.5799
   13CHTO   H21 5482   3.774   6.906   3.766  0.4688 -0.6455 -0.9468
   13CHTO    O7 5483   3.646   6.826   3.628 -0.1060  0.3877 -0.0941
   13CHTO    H2 5484   3.617   6.758   3.686 -0.8263  0.9004  0.1544
   13CHTO   C12 5485   3.584   7.028   3.761 -0.5615  0.1498 -0.7361
   13CHTO   H25 5486   3.506   7.045   3.683  1.2074  1.3191 -2.2868
   13CHTO    N3 5487   3.527   6.940   3.872 -0.7932 -0.4919  0.1920
   13CHTO   H12 5488   3.589   6.937   3.961 -0.2710 -0.2498 -0.1615
   13CHTO   H13 5489   3.422   6.959   3.887 -0.2414  0.9792  2.4759
   13CHTO   C15 5490   3.649   7.167   3.803  0.6215 -0.4050 -0.2930
   13CHTO   H28 5491   3.736   7.153   3.868  0.6183  1.2314  0.0833
   13CHTO   O10 5492   3.540   7.275   3.889 -0.0897  0.3385 -0.8894
   13CHTO    H4 5493   3.550   7.361   3.854  3.4046 -0.0574 -1.0913
   13CHTO    O5 5494   3.685   7.237   3.686 -0.3955 -0.3197 -0.2890
   13CHTO   C10 5495   3.806   7.181   3.637  0.1178  0.2396 -0.5347
   13CHTO   H23 5496   3.881   7.188   3.716 -0.5605 -0.3807  0.1792
   13CHTO   C17 5497   3.847   7.275   3.527  0.2144  0.3327 -0.0268
   13CHTO   O12 5498   3.982   7.241   3.491 -0.3917  0.3425  0.5837
   13CHTO    H6 5499   3.990   7.157   3.449 -0.9001 -0.7941  2.6855
   14CHTO  H203 5500   6.724   4.711   2.625  2.3565 -1.0132  2.4475
   14CHTO   O82 5501   6.785   4.754   2.567 -0.0772 -0.0406  0.5155
   14CHTO  C123 5502   6.728   4.788   2.444  0.1266  0.1374  0.0331
   14CHTO  H227 5503   6.795   4.852   2.385 -0.6264 -0.0723 -1.0780
   14CHTO   O77 5504   6.692   4.665   2.369 -0.1545 -0.2317  0.3545
   14CHTO  C118 5505   6.612   4.697   2.248 -0.0211  0.1158 -0.1951
   14CHTO  H222 5506   6.681   4.763   2.193  1.8308 -1.8231 -0.2710
   14CHTO  C125 5507   6.590   4.560   2.161  0.3620  0.3643 -0.0652
   14CHTO   O84 5508   6.478   4.479   2.198  0.0550 -0.3096  0.4606
   14CHTO  H205 5509   6.508   4.403   2.244  1.5365 -0.4012 -0.6254
   14CHTO  C114 5510   6.483   4.764   2.293  0.3689 -0.8168 -0.7170
   14CHTO  H218 5511   6.433   4.695   2.362 -0.9126  1.8057  1.0627
   14CHTO  C116 5512   6.515   4.901   2.352 -0.2989  0.5306 -0.1198
   14CHTO  H220 5513   6.577   4.955   2.278  1.2921  0.3796  1.0772
   14CHTO   O79 5514   6.389   4.970   2.366  0.4621 -0.1938  0.3144
   14CHTO  H201 5515   6.363   4.999   2.281 -2.1790 -0.3786  1.0248
   14CHTO  C120 5516   6.604   4.882   2.473 -0.1735 -0.3475 -0.4271
   14CHTO  H224 5517   6.544   4.824   2.546  1.3359 -0.2544  0.9164
   14CHTO   N21 5518   6.635   5.013   2.540 -0.2850  0.4192 -0.3742
   14CHTO  H211 5519   6.641   5.009   2.648  1.6149  2.5088 -0.3769
   14CHTO  H212 5520   6.562   5.088   2.515 -0.6049  1.3750  3.1626
   14CHTO   O75 5521   6.396   4.772   2.174  0.1124 -0.2733  0.2886
   14CHTO  C112 5522   6.229   4.732   2.197  0.0616 -0.2728 -0.1661
   14CHTO  H216 5523   6.195   4.785   2.287 -1.5122 -2.0093  0.2901
   14CHTO   O73 5524   6.224   4.585   2.212 -0.0373  0.0830 -0.1659
   14CHTO  C113 5525   6.097   4.542   2.249 -0.5820  0.3570 -0.4169
   14CHTO  H217 5526   6.068   4.606   2.336 -2.0875 -0.4605 -0.3006
   14CHTO  C124 5527   6.110   4.401   2.312  0.4833 -0.1187  0.6485
   14CHTO   O83 5528   5.995   4.343   2.369 -0.4761  0.0254 -0.3989
   14CHTO  H204 5529   6.014   4.316   2.456  2.6440  0.8949 -0.7692
   14CHTO  C109 5530   5.994   4.564   2.130 -0.6734  0.1655 -0.1427
   14CHTO  H213 5531   6.017   4.491   2.051 -3.0574 -1.1075  0.2764
   14CHTO  C110 5532   6.004   4.708   2.067  0.2811  0.3756  0.4277
   14CHTO  H214 5533   5.937   4.774   2.123 -2.2306 -1.4748 -0.3145
   14CHTO   O78 5534   5.949   4.695   1.938 -0.1858 -0.2009 -0.6771
   14CHTO  H200 5535   6.014   4.716   1.875  1.1225 -0.7198  0.4730
   14CHTO  C111 5536   6.142   4.765   2.073 -0.5301 -0.7323 -0.5260
   14CHTO  H215 5537   6.201   4.720   1.992  1.4503 -0.2439  0.5963
   14CHTO   N19 5538   6.140   4.908   2.049 -0.2119 -0.5201 -0.0251
   14CHTO  H207 5539   6.218   4.937   1.980  1.2431 -1.5672  1.1388
   14CHTO  H208 5540   6.178   4.967   2.132 -1.9324 -1.9193  1.8101
   14CHTO   O74 5541   5.860   4.539   2.171  0.3270 -0.0453 -0.6365
   14CHTO  C115 5542   5.789   4.419   2.102 -0.3599  0.1386 -0.2408
   14CHTO  H219 5543   5.792   4.428   1.993 -0.5287  1.0099 -0.1771
   14CHTO   O76 5544   5.852   4.281   2.146 -0.2249 -0.2341  0.3294
   14CHTO  C122 5545   5.784   4.166   2.096  0.2892  0.4142  0.1670
   14CHTO  H226 5546   5.831   4.074   2.132 -1.3739 -0.2100  0.8214
   14CHTO  C126 5547   5.799   4.152   1.934 -0.2522 -0.2244  0.5987
   14CHTO   O85 5548   5.778   4.018   1.879 -0.4693 -0.3934  0.0150
   14CHTO  H206 5549   5.835   4.017   1.804 -1.5288 -2.5315 -0.7915
   14CHTO  C121 5550   5.628   4.153   2.139  0.2082 -0.0593  0.1638
   14CHTO  H225 5551   5.582   4.071   2.080  1.8172 -1.1797  0.4459
   14CHTO   O81 5552   5.610   4.126   2.277 -0.5373 -0.5280  0.1956
   14CHTO  H202 5553   5.520   4.110   2.297 -0.1806 -0.2021  2.1931
   14CHTO  C119 5554   5.556   4.292   2.096  0.3464  0.2023 -0.6848
   14CHTO  H223 5555   5.551   4.293   1.987  1.0898 -0.7850 -0.7285
   14CHTO  C117 5556   5.636   4.417   2.150 -0.4279  0.0092  0.8886
   14CHTO  H221 5557   5.638   4.425   2.259 -0.3623  1.4229  0.7940
   14CHTO   N20 5558   5.565   4.545   2.109  0.1692  0.8674  0.2648
   14CHTO  H209 5559   5.542   4.533   2.004  1.4995 -0.8297  0.1413
   14CHTO  H210 5560   5.480   4.554   2.174 -0.5171 -2.1657 -0.1591
   14CHTO   O80 5561   5.390   4.283   2.137 -0.0058 -0.0933  0.6682
   14CHTO  C103 5562   5.279   4.276   2.031 -0.0054  0.3833 -0.0743
   14CHTO  H190 5563   5.318   4.327   1.943  1.6845 -1.3827 -0.3855
   14CHTO  C101 5564   5.230   4.134   2.000 -0.1115  0.5999  0.0715
   14CHTO  H188 5565   5.215   4.088   2.098  0.2822 -0.7909 -0.5027
   14CHTO   O68 5566   5.343   4.057   1.942  0.1389  0.3100  0.2426
   14CHTO  H168 5567   5.378   4.093   1.863 -0.8047  0.4418 -0.1167
   14CHTO   C99 5568   5.100   4.111   1.918  0.4978 -0.6551 -0.0353
   14CHTO  H186 5569   5.115   4.146   1.814 -2.4934 -0.0062 -0.3119
   14CHTO   N17 5570   5.053   3.973   1.916  0.2625 -0.3645 -1.0064
   14CHTO  H174 5571   5.063   3.934   1.816 -0.5048  0.3462 -1.3647
   14CHTO  H175 5572   4.950   3.957   1.943 -0.6129  1.9949 -2.8280
   14CHTO   C97 5573   4.993   4.203   1.969 -0.3528  0.2896 -0.4752
   14CHTO  H184 5574   4.964   4.166   2.068 -0.0162  0.3712 -0.3472
   14CHTO   O64 5575   5.047   4.338   1.972 -0.4300  0.2367 -0.5313
   14CHTO  C104 5576   5.147   4.349   2.075  0.6307 -0.0487 -0.4042
   14CHTO  H191 5577   5.120   4.320   2.176 -0.2893 -2.0371 -1.1826
   14CHTO  C108 5578   5.177   4.499   2.087  0.5688  0.3913  0.4761
   14CHTO   O71 5579   5.065   4.572   2.122  0.5825  0.2535 -0.0381
   14CHTO  H171 5580   5.003   4.574   2.051 -0.6242 -0.8034  0.9514
   14CHTO   O62 5581   4.885   4.224   1.879  0.1046  0.1234 -0.1407
   14CHTO   C91 5582   4.754   4.217   1.923 -0.0649 -0.0872 -0.1615
   14CHTO  H178 5583   4.735   4.118   1.965 -2.4312  0.6881  0.6616
   14CHTO   C92 5584   4.670   4.213   1.793  0.7236  0.1841 -0.6179
   14CHTO  H179 5585   4.711   4.129   1.734  0.0816  1.4211 -2.8919
   14CHTO   O66 5586   4.531   4.186   1.828  0.3177  0.4310 -0.1898
   14CHTO  H166 5587   4.520   4.133   1.905  2.5548 -0.8811 -0.7264
   14CHTO   C93 5588   4.664   4.351   1.714 -0.6755  0.4469  0.0548
   14CHTO  H180 5589   4.572   4.337   1.655 -1.6341 -0.6945  1.7998
   14CHTO   N16 5590   4.775   4.366   1.618  0.8106 -0.5741  0.0931
   14CHTO  H172 5591   4.859   4.400   1.678  0.2337  0.0253  0.5649
   14CHTO  H173 5592   4.750   4.435   1.539  4.0710 -0.5868 -1.0086
   14CHTO   C94 5593   4.653   4.476   1.809 -0.2648  0.0101 -0.4189
   14CHTO  H181 5594   4.750   4.523   1.824 -0.8376 -0.3497  5.6306
   14CHTO   O61 5595   4.608   4.434   1.941  0.0130 -0.1568 -0.0116
   14CHTO   C95 5596   4.699   4.346   2.010 -0.0276  0.4428  0.6236
   14CHTO  H182 5597   4.785   4.397   2.053  1.1901 -3.1426  2.7049
   14CHTO  C106 5598   4.634   4.289   2.135 -0.5039 -0.8483 -0.2673
   14CHTO   O69 5599   4.647   4.368   2.251 -0.2094 -0.1680 -0.9018
   14CHTO  H169 5600   4.610   4.453   2.235  3.7788  1.8089 -0.3594
   14CHTO   O63 5601   4.548   4.570   1.748  0.0366  0.1954 -0.0159
   14CHTO   C96 5602   4.531   4.703   1.825 -0.1724  0.2093  0.1716
   14CHTO  H183 5603   4.625   4.729   1.874  0.9630 -0.4904 -1.5898
   14CHTO   C98 5604   4.402   4.711   1.915  0.0713  0.2136 -0.0971
   14CHTO  H185 5605   4.332   4.674   1.838  1.6723 -0.9710 -1.0398
   14CHTO   O67 5606   4.403   4.612   2.016  0.7836 -0.3294  0.1567
   14CHTO  H167 5607   4.324   4.622   2.065 -0.0923  0.0682 -1.3236
   14CHTO  C102 5608   4.362   4.854   1.972  0.5508 -0.6335  0.5155
   14CHTO  H189 5609   4.437   4.884   2.046  0.0283  2.1503 -0.0413
   14CHTO   N18 5610   4.235   4.865   2.044  0.2741  0.1530  0.1824
   14CHTO  H176 5611   4.145   4.855   1.985  1.2634 -1.0600 -1.1794
   14CHTO  H177 5612   4.232   4.788   2.120 -0.8040 -0.1196 -0.1314
   14CHTO  C105 5613   4.375   4.967   1.862  0.7727  0.1794  0.1148
   14CHTO  H192 5614   4.290   4.951   1.794  1.0865 -1.3237  0.0570
   14CHTO   O65 5615   4.498   4.951   1.783 -0.5366  0.0714 -0.2297
   14CHTO  C100 5616   4.522   4.825   1.719 -0.2363  0.6215 -0.1402
   14CHTO  H187 5617   4.437   4.806   1.653 -0.9623  0.0559  0.9477
   14CHTO  C107 5618   4.655   4.848   1.643  0.4097  0.7455 -0.2753
   14CHTO   O70 5619   4.690   4.726   1.575 -0.0654 -0.0147 -0.2461
   14CHTO  H170 5620   4.700   4.657   1.638  0.0474  0.8548  0.7119
   14CHTO   O57 5621   4.391   5.104   1.934 -0.0121 -0.2697 -0.0555
   14CHTO   C85 5622   4.314   5.214   1.891  0.2186 -0.5294  0.1500
   14CHTO  H157 5623   4.210   5.185   1.862 -1.2113  3.2771  1.1367
   14CHTO   C83 5624   4.377   5.266   1.761  0.2115  0.3981  0.4695
   14CHTO  H155 5625   4.360   5.189   1.685 -2.6231  0.6947  0.7573
   14CHTO   O56 5626   4.522   5.289   1.774 -0.1333 -0.3533  0.2247
   14CHTO  H135 5627   4.547   5.311   1.862  0.9094  1.0458 -0.4242
   14CHTO   C81 5628   4.294   5.394   1.722  0.3999  0.0560  0.7437
   14CHTO  H153 5629   4.189   5.363   1.720  0.6309 -0.6845 -0.4869
   14CHTO   N14 5630   4.323   5.427   1.581 -0.8112  0.4160  1.0707
   14CHTO  H141 5631   4.283   5.354   1.514  1.3367  1.3087 -1.2576
   14CHTO  H142 5632   4.429   5.432   1.565 -0.7988 -1.9684  0.1465
   14CHTO   C79 5633   4.323   5.510   1.825  0.0430 -0.0347  0.9109
   14CHTO  H151 5634   4.257   5.592   1.793  1.3010  0.3366 -0.8227
   14CHTO   O52 5635   4.284   5.466   1.960  0.0015  0.8011 -0.7463
   14CHTO   C86 5636   4.317   5.331   2.003  0.3811  0.7754  0.3463
   14CHTO  H158 5637   4.416   5.337   2.053  0.4965  1.4253  0.0500
   14CHTO   C90 5638   4.217   5.302   2.109  0.4990  0.0104 -0.0642
   14CHTO   O60 5639   4.081   5.310   2.067 -0.3038  0.3489  0.5139
   14CHTO  H138 5640   4.065   5.394   2.027 -3.6052  0.8860  2.7134
   14CHTO   O50 5641   4.453   5.567   1.819 -0.5834 -0.0347  0.0825
   14CHTO   C73 5642   4.508   5.694   1.873  0.8586  0.5545  0.4012
   14CHTO  H145 5643   4.448   5.724   1.960 -2.1627 -0.2422 -1.3471
   14CHTO   C74 5644   4.491   5.808   1.765 -0.5815 -0.5374 -0.0669
   14CHTO  H146 5645   4.386   5.819   1.735 -0.6504  1.1917  0.7417
   14CHTO   O54 5646   4.529   5.931   1.824  0.8037 -0.3968  0.1596
   14CHTO  H133 5647   4.479   5.940   1.903 -1.3764 -0.7186 -1.1405
   14CHTO   C75 5648   4.584   5.781   1.643  0.1822  0.6318 -0.5846
   14CHTO  H147 5649   4.541   5.691   1.597 -2.1078  1.2304  0.2753
   14CHTO   N13 5650   4.592   5.885   1.537 -0.1908 -0.1371 -0.0348
   14CHTO  H139 5651   4.657   5.851   1.458  2.0454  0.1362  1.6219
   14CHTO  H140 5652   4.638   5.974   1.577  0.2556  0.0707 -1.0179
   14CHTO   C76 5653   4.727   5.746   1.694 -0.5496 -0.0666 -0.3178
   14CHTO  H148 5654   4.757   5.839   1.741 -0.7366 -0.4802  0.6226
   14CHTO   O49 5655   4.733   5.635   1.798  0.2554 -0.2870  0.2604
   14CHTO   C77 5656   4.651   5.659   1.912 -0.3593  0.0685 -0.3504
   14CHTO  H149 5657   4.696   5.747   1.959  0.5802  0.8409 -2.6379
   14CHTO   C88 5658   4.642   5.552   2.020  0.3678 -0.4377  0.1130
   14CHTO   O58 5659   4.780   5.497   2.041  0.0282  0.5602  0.1396
   14CHTO  H136 5660   4.852   5.556   2.037  2.0013 -1.8144 -1.1768
   14CHTO   O51 5661   4.819   5.683   1.562  0.0566  0.1164 -0.3232
   14CHTO   C78 5662   4.978   5.735   1.572  0.2557  0.6937  0.5046
   14CHTO  H150 5663   4.982   5.777   1.675 -1.4968  1.0007  0.4741
   14CHTO   C80 5664   5.018   5.848   1.474 -0.1300 -0.2245 -0.7522
   14CHTO  H152 5665   4.984   5.815   1.374 -1.8905 -2.6210  0.6029
   14CHTO   O55 5666   4.932   5.964   1.503  0.4322 -0.9535 -0.5274
   14CHTO  H134 5667   4.877   5.992   1.433  1.0921  1.0856 -0.2550
   14CHTO   C84 5668   5.169   5.885   1.468 -0.1536  0.2003 -0.6549
   14CHTO  H156 5669   5.190   5.939   1.560  1.3876 -1.4385 -0.0137
   14CHTO   N15 5670   5.196   5.970   1.350  0.2695  0.2408 -0.6919
   14CHTO  H143 5671   5.268   6.044   1.377 -0.6973 -0.3869  4.0791
   14CHTO  H144 5672   5.105   6.021   1.327  0.0800 -0.1185 -0.7452
   14CHTO   C87 5673   5.258   5.756   1.479  0.0824  0.1241  0.1500
   14CHTO  H159 5674   5.259   5.704   1.383  0.4992  0.7854 -0.2043
   14CHTO   O53 5675   5.210   5.651   1.589 -0.5653 -0.4650 -0.4182
   14CHTO   C82 5676   5.073   5.611   1.566 -0.3838  0.7088 -0.0319
   14CHTO  H154 5677   5.069   5.558   1.471 -1.2353  0.6912  0.0152
   14CHTO   C89 5678   5.038   5.507   1.676  0.6440 -0.1208 -0.0477
   14CHTO   O59 5679   5.105   5.382   1.641 -0.3785 -0.1083 -0.2089
   14CHTO  H137 5680   5.067   5.328   1.574 -0.7562 -1.6263  1.2071
   14CHTO   O45 5681   5.406   5.811   1.507  0.0278 -0.3512 -0.3853
   14CHTO   C67 5682   5.502   5.704   1.508 -0.6209 -0.5079  0.1819
   14CHTO  H124 5683   5.466   5.611   1.552  1.4086 -2.3969 -1.9255
   14CHTO   C65 5684   5.549   5.670   1.361  0.2288  0.2795 -0.7169
   14CHTO  H122 5685   5.452   5.654   1.314  0.7708  0.2421 -1.8328
   14CHTO   O44 5686   5.619   5.549   1.355  0.1921 -0.3059  0.4707
   14CHTO  H102 5687   5.608   5.487   1.425  1.6330 -0.2514  0.7743
   14CHTO   C63 5688   5.622   5.791   1.292 -0.1137 -0.0282 -0.0547
   14CHTO  H120 5689   5.551   5.874   1.296 -2.4619 -1.9872 -0.4617
   14CHTO   N11 5690   5.644   5.783   1.149 -0.5187  0.4406  0.0362
   14CHTO  H108 5691   5.699   5.697   1.117  2.5454  1.8837  1.1912
   14CHTO  H109 5692   5.547   5.782   1.104 -1.2285 -1.4934  1.5190
   14CHTO   C61 5693   5.740   5.828   1.377  0.4044 -0.0379 -0.1650
   14CHTO  H118 5694   5.769   5.926   1.336 -0.6605  0.3162 -0.0726
   14CHTO   O40 5695   5.714   5.852   1.521 -0.0637  0.8579 -0.1722
   14CHTO   C68 5696   5.628   5.757   1.595 -0.0908  0.4394 -0.4021
   14CHTO  H125 5697   5.571   5.799   1.680  1.2198 -0.2042  0.8138
   14CHTO   C72 5698   5.712   5.636   1.650  0.6014  0.2762  0.2929
   14CHTO   O48 5699   5.827   5.667   1.720  0.0680 -0.6887  0.2566
   14CHTO  H105 5700   5.810   5.656   1.812 -0.2182 -0.1308  0.2702
   14CHTO   O38 5701   5.844   5.727   1.382 -0.0780  0.1714  0.3575
   14CHTO   C55 5702   5.969   5.748   1.316 -0.1693  0.8520 -0.5897
   14CHTO  H112 5703   5.970   5.848   1.269  1.7550  1.7097  1.1967
   14CHTO   C56 5704   5.995   5.632   1.218 -0.3301 -0.3730  0.2905
   14CHTO  H113 5705   5.968   5.538   1.267 -0.1803  0.2803  1.6466
   14CHTO   O42 5706   5.919   5.645   1.101  0.0948  0.0021  0.0883
   14CHTO  H100 5707   5.830   5.654   1.128  0.8681  0.8268  2.4875
   14CHTO   C57 5708   6.146   5.618   1.170 -0.7293 -0.3295 -0.5497
   14CHTO  H114 5709   6.160   5.685   1.086  1.2218  0.0644  0.0744
   14CHTO   N10 5710   6.168   5.477   1.118 -0.1868  0.5251  0.4267
   14CHTO  H106 5711   6.089   5.430   1.061 -1.1416  1.5107  0.9374
   14CHTO  H107 5712   6.262   5.471   1.064 -0.4266 -0.4240  0.1051
   14CHTO   C58 5713   6.254   5.650   1.280 -0.1574  0.1435 -0.2878
   14CHTO  H115 5714   6.264   5.563   1.348 -0.0884  0.0256 -0.4485
   14CHTO   O37 5715   6.211   5.765   1.353  0.1385  0.1883 -0.1190
   14CHTO   C59 5716   6.081   5.754   1.420  0.2943  0.7601  0.6698
   14CHTO  H116 5717   6.076   5.663   1.480  1.3605  0.3538  0.1435
   14CHTO   C70 5718   6.064   5.871   1.518 -0.5264  0.1058 -0.3117
   14CHTO   O46 5719   6.131   5.838   1.643  0.2996  0.2356 -0.3827
   14CHTO  H103 5720   6.157   5.916   1.689  2.1602 -1.2676  1.2223
   14CHTO   O39 5721   6.383   5.695   1.200 -0.7839  0.6173 -0.0736
   14CHTO   C60 5722   6.514   5.689   1.271  0.0828  0.5221  0.5350
   14CHTO  H117 5723   6.508   5.725   1.374 -1.4844  1.6687  0.0665
   14CHTO   C62 5724   6.561   5.538   1.304  0.4838 -0.4734  0.8998
   14CHTO  H119 5725   6.489   5.509   1.382  0.0688 -0.1303  0.6439
   14CHTO   O43 5726   6.557   5.465   1.182 -0.5393 -0.0068  0.1329
   14CHTO  H101 5727   6.640   5.451   1.141 -0.3607  0.6696  0.2553
   14CHTO   C66 5728   6.697   5.545   1.379 -0.1141  0.2619  0.3304
   14CHTO  H123 5729   6.680   5.607   1.467  0.3765  1.4452 -0.3988
   14CHTO   N12 5730   6.731   5.413   1.431  0.3357  0.1728  0.1688
   14CHTO  H110 5731   6.660   5.365   1.497  0.1350  0.1786 -0.0422
   14CHTO  H111 5732   6.779   5.336   1.372 -1.3147 -0.2059 -0.6876
   14CHTO   C69 5733   6.813   5.602   1.292 -0.3445 -0.3569 -0.2369
   14CHTO  H126 5734   6.809   5.545   1.197 -0.9162 -0.3265 -0.2342
   14CHTO   O41 5735   6.777   5.728   1.263  0.0957 -0.9991 -0.3367
   14CHTO   C64 5736   6.619   5.768   1.199  0.4357 -0.3196 -0.0411
   14CHTO  H121 5737   6.611   5.745   1.091 -0.7714  0.3547 -0.1171
   14CHTO   C71 5738   6.582   5.919   1.226 -0.0769 -0.4336 -0.3978
   14CHTO   O47 5739   6.683   5.993   1.164 -0.4770  0.3084  0.8923
   14CHTO  H104 5740   6.708   6.066   1.217  1.3122 -0.2833  0.8859
   14CHTO   O34 5741   6.952   5.605   1.369  0.4380  0.2874 -0.4020
   14CHTO   C49 5742   7.089   5.653   1.367 -0.9017  0.3494  0.2732
   14CHTO   H91 5743   7.131   5.599   1.282 -3.2644  0.7279 -1.1822
   14CHTO   C47 5744   7.152   5.623   1.504  0.0886 -0.0691 -0.3777
   14CHTO   H89 5745   7.261   5.642   1.495 -0.2051  3.9017  2.9525
   14CHTO   O33 5746   7.134   5.481   1.537  0.2774 -0.2760  0.0438
   14CHTO   H70 5747   7.165   5.458   1.622  0.8405  1.1625  0.2439
   14CHTO   C45 5748   7.093   5.713   1.620 -0.1447 -0.4816  0.3664
   14CHTO   H87 5749   7.015   5.656   1.671  1.0559 -3.2470 -0.8021
   14CHTO    N8 5750   7.203   5.736   1.717  0.3574  0.4450 -0.1886
   14CHTO   H75 5751   7.230   5.638   1.755  1.1595 -0.2126 -2.3627
   14CHTO   H76 5752   7.289   5.779   1.668  1.2220 -0.8542  0.1479
   14CHTO   C43 5753   7.024   5.849   1.557 -0.8189  0.6680  0.3369
   14CHTO   H85 5754   6.926   5.814   1.526 -0.2685 -1.9997  1.4122
   14CHTO   O29 5755   7.102   5.896   1.450  0.3635 -0.0479 -0.3859
   14CHTO   C50 5756   7.104   5.804   1.338 -0.7431 -1.0991 -0.0046
   14CHTO   H92 5757   7.020   5.838   1.276 -0.8402  0.4036  0.9237
   14CHTO   C54 5758   7.241   5.828   1.263 -0.0970  0.2980 -0.0467
   14CHTO   O36 5759   7.241   5.957   1.199  0.2017  0.2852  0.7439
   14CHTO   H72 5760   7.326   5.988   1.173 -0.4095 -0.4004 -2.1861
   14CHTO   O27 5761   6.999   5.948   1.653 -0.0350  0.2781  0.4211
   14CHTO   C37 5762   6.912   6.052   1.677  0.3782  0.0168 -0.6173
   14CHTO   H79 5763   6.966   6.146   1.658 -0.1288  0.5126  0.3449
   14CHTO   C38 5764   6.798   6.053   1.574  0.6179 -0.0381 -0.0158
   14CHTO   H80 5765   6.758   5.950   1.569 -1.0009  0.6666 -1.9687
   14CHTO   O31 5766   6.856   6.089   1.452 -0.5899 -0.6293  0.0672
   14CHTO   H68 5767   6.813   6.037   1.387  0.6058 -1.0616 -0.3975
   14CHTO   C39 5768   6.684   6.145   1.625 -0.4994  0.1311  0.3133
   14CHTO   H81 5769   6.725   6.246   1.620 -0.1401  0.0167  0.9675
   14CHTO    N7 5770   6.567   6.140   1.531  0.2025  0.7377 -0.4969
   14CHTO   H73 5771   6.519   6.043   1.535  1.0127  0.2250 -2.4901
   14CHTO   H74 5772   6.494   6.210   1.569  0.1412  1.2544 -1.5331
   14CHTO   C40 5773   6.641   6.112   1.775  0.1827  0.2532 -0.7982
   14CHTO   H82 5774   6.604   6.010   1.777 -0.8576  0.6230 -0.5531
   14CHTO   O26 5775   6.760   6.130   1.855 -0.6163  0.0176  0.3124
   14CHTO   C41 5776   6.868   6.040   1.821 -0.5818 -0.2513  0.5760
   14CHTO   H83 5777   6.828   5.939   1.840  0.2266 -0.2550  2.3603
   14CHTO   C52 5778   6.995   6.071   1.909  0.5508  0.0171 -0.0747
   14CHTO   O35 5779   6.991   6.054   2.060 -0.1659 -0.5372  0.2008
   14CHTO   H71 5780   7.073   6.020   2.089  0.3369 -0.8995 -1.5606
   14CHTO   O28 5781   6.550   6.207   1.830  0.5643  0.1148 -0.0649
   14CHTO   C42 5782   6.426   6.154   1.891  0.3199 -0.5722  0.0679
   14CHTO   H84 5783   6.388   6.239   1.948 -0.8547 -0.6958 -0.5112
   14CHTO   C44 5784   6.441   6.038   1.993  0.1998  0.8367 -0.1732
   14CHTO   H86 5785   6.491   5.957   1.941  1.2819 -0.0234  2.1264
   14CHTO   O32 5786   6.534   6.076   2.098  0.2086  0.3445 -0.4760
   14CHTO   H69 5787   6.494   6.134   2.160  1.0312  1.2201 -0.7442
   14CHTO   C48 5788   6.304   5.990   2.048 -0.3509 -0.2175  0.3506
   14CHTO   H90 5789   6.272   6.078   2.105  0.5479  0.4718 -0.1988
   14CHTO    N9 5790   6.304   5.867   2.141 -0.8844 -0.2684  0.2533
   14CHTO   H77 5791   6.339   5.777   2.093 -2.2800 -0.7839  0.1590
   14CHTO   H78 5792   6.346   5.895   2.237 -0.0271 -1.5062  0.2458
   14CHTO   C51 5793   6.195   5.975   1.935  0.0569 -0.1013 -0.2770
   14CHTO   H93 5794   6.223   5.888   1.875 -0.0261  0.3060 -0.9038
   14CHTO   O30 5795   6.192   6.098   1.859  0.1471 -0.1182 -0.7771
   14CHTO   C46 5796   6.314   6.121   1.790  0.1450 -0.0305  0.4754
   14CHTO   H88 5797   6.346   6.031   1.737  2.9050  0.2609  1.5785
   14CHTO   C53 5798   6.284   6.237   1.692 -0.5321  0.5201 -0.0342
   14CHTO   O72 5799   6.198   6.210   1.587  0.1782  0.1746  0.5788
   14CHTO  H199 5800   6.128   6.272   1.580 -1.1057 -1.3697 -0.4355
   14CHTO   O22 5801   6.059   5.973   1.994 -0.4398 -0.1090 -0.6661
   14CHTO   C31 5802   5.935   5.898   1.955  0.3120  0.2428 -0.2122
   14CHTO   H59 5803   5.967   5.830   1.873 -0.1600  1.1528 -1.1749
   14CHTO   C29 5804   5.888   5.800   2.072 -0.4113 -0.2158 -0.9799
   14CHTO   H57 5805   5.885   5.864   2.162  2.5635 -0.6974 -0.4972
   14CHTO   O21 5806   5.990   5.703   2.103 -0.2213  0.1984 -0.1384
   14CHTO   H37 5807   6.043   5.671   2.033 -1.5242 -0.7184 -0.7360
   14CHTO   C27 5808   5.740   5.737   2.050  0.0103 -0.4668 -0.0607
   14CHTO   H55 5809   5.751   5.656   1.976 -0.5546  1.0357 -1.8325
   14CHTO    N5 5810   5.679   5.690   2.176  0.3582  0.3717 -0.4610
   14CHTO   H43 5811   5.733   5.599   2.200 -0.5883  0.6191  2.8198
   14CHTO   H44 5812   5.682   5.768   2.250 -2.3353 -0.1828  0.3002
   14CHTO   C25 5813   5.654   5.852   1.994 -0.2835 -0.5178  0.0349
   14CHTO   H53 5814   5.636   5.937   2.061 -0.6221 -0.7071  0.1827
   14CHTO   O17 5815   5.704   5.920   1.874 -0.2425  0.2880 -0.5268
   14CHTO   C32 5816   5.825   5.995   1.896 -0.5680  0.4659  0.3076
   14CHTO   H60 5817   5.803   6.071   1.971 -0.7351  0.1026  0.6266
   14CHTO   C36 5818   5.863   6.061   1.765  0.1353  0.2333  0.3450
   14CHTO   O25 5819   5.773   6.169   1.739 -0.3744 -0.3627 -0.6780
   14CHTO   H40 5820   5.810   6.219   1.669 -1.1194  0.3554 -0.5718
   14CHTO   O15 5821   5.512   5.804   1.953  0.5058  0.4354  0.4326
   14CHTO   C19 5822   5.379   5.847   1.920 -0.5302 -1.2138  0.0731
   14CHTO   H47 5823   5.354   5.777   1.839 -1.8375 -0.7991  0.1013
   14CHTO   C20 5824   5.281   5.820   2.040  1.2949  0.7854  0.3281
   14CHTO   H48 5825   5.307   5.878   2.130  0.1903  0.6678  0.7355
   14CHTO   O19 5826   5.306   5.688   2.087  0.2236  0.2348  0.0563
   14CHTO   H35 5827   5.246   5.669   2.157 -1.6447  2.1395 -0.9674
   14CHTO   C21 5828   5.130   5.846   1.993  0.2790  0.4483 -0.0231
   14CHTO   H49 5829   5.102   5.772   1.918  1.0814  0.5142 -0.3991
   14CHTO    N4 5830   5.033   5.847   2.109 -0.1367  0.3399  0.5590
   14CHTO   H41 5831   5.038   5.758   2.170  1.9357 -0.3644 -0.5765
   14CHTO   H42 5832   5.041   5.935   2.170  1.6259 -0.6628  1.8477
   14CHTO   C22 5833   5.123   5.984   1.916 -0.3692  0.5219  0.2618
   14CHTO   H50 5834   5.142   6.072   1.978  1.5244 -0.2201  0.7584
   14CHTO   O14 5835   5.212   5.991   1.808 -0.2931  0.1494 -0.1709
   14CHTO   C23 5836   5.349   5.984   1.859  0.1122 -0.4431  0.0841
   14CHTO   H51 5837   5.365   6.062   1.934 -0.8813 -0.2560  0.1026
   14CHTO   C34 5838   5.440   6.009   1.741 -0.2702 -0.0066 -0.9446
   14CHTO   O23 5839   5.415   6.129   1.670 -0.5349  0.1922 -0.1301
   14CHTO   H38 5840   5.439   6.115   1.580 -1.7033 -0.5713 -0.3321
   14CHTO   O16 5841   4.993   5.997   1.849  0.4343 -0.1932  0.3736
   14CHTO   C24 5842   4.926   6.164   1.825 -0.3307 -0.3043 -0.9343
   14CHTO   H52 5843   4.843   6.163   1.755 -0.5573  0.8649 -0.6890
   14CHTO   C26 5844   5.035   6.254   1.765 -0.0255 -0.6502  0.5937
   14CHTO   H54 5845   5.125   6.250   1.830  1.4100 -2.8897 -1.4816
   14CHTO   O20 5846   5.073   6.199   1.635  0.1582  0.0933 -0.4353
   14CHTO   H36 5847   4.991   6.193   1.589  0.2091  0.5757 -0.5908
   14CHTO   C30 5848   4.995   6.406   1.754  0.3279 -0.0054 -0.2284
   14CHTO   H58 5849   4.909   6.418   1.686 -0.7454 -1.1749  0.8958
   14CHTO    N6 5850   5.108   6.492   1.701  0.1246  0.1183 -0.0016
   14CHTO   H45 5851   5.169   6.454   1.620  0.4931 -1.9736  1.2067
   14CHTO   H46 5852   5.083   6.595   1.682 -0.1329  0.0533 -0.0178
   14CHTO   C33 5853   4.928   6.448   1.892  0.9667 -0.4353  0.1763
   14CHTO   H61 5854   5.007   6.449   1.968 -0.2160  1.9747  1.4139
   14CHTO   O18 5855   4.822   6.358   1.931  0.6767  0.1061  0.1064
   14CHTO   C28 5856   4.865   6.222   1.959 -0.2791  0.6606 -0.0382
   14CHTO   H56 5857   4.938   6.214   2.039 -0.7664 -1.0312  0.2411
   14CHTO   C35 5858   4.736   6.144   2.005  0.0676  0.4527  0.1736
   14CHTO   O24 5859   4.714   6.161   2.143  0.4825  0.3653  0.2753
   14CHTO   H39 5860   4.632   6.126   2.172  0.3212  0.1375 -0.4358
   14CHTO    O9 5861   4.887   6.587   1.884 -0.6661 -0.2087 -0.4090
   14CHTO   C13 5862   4.858   6.657   2.033  0.0257 -0.7128  1.0633
   14CHTO   H26 5863   4.857   6.579   2.112 -0.1956  0.4169  2.1945
   14CHTO   C11 5864   4.719   6.726   2.019 -0.0878  0.1230  0.3429
   14CHTO   H24 5865   4.640   6.649   2.023 -0.2030  0.2786  0.9523
   14CHTO    O8 5866   4.713   6.800   1.898  0.3420 -0.4911 -0.1510
   14CHTO    H3 5867   4.779   6.866   1.905  1.7952 -2.1330  1.9954
   14CHTO    C9 5868   4.694   6.818   2.143 -0.6498 -0.7770 -0.5459
   14CHTO   H22 5869   4.717   6.755   2.230 -0.2778 -0.5694 -0.4931
   14CHTO    N2 5870   4.556   6.859   2.165 -0.9405 -0.0620 -0.3402
   14CHTO   H10 5871   4.543   6.872   2.272 -0.2827 -2.0460  0.0045
   14CHTO   H11 5872   4.542   6.951   2.110 -1.2187 -0.6910 -1.3281
   14CHTO    C7 5873   4.806   6.937   2.139  0.3596 -0.1320 -0.0201
   14CHTO   H20 5874   4.828   6.938   2.248  1.3108  0.3424 -0.2128
   14CHTO    O4 5875   4.930   6.897   2.074 -0.1033  0.9079 -0.4120
   14CHTO   C14 5876   4.971   6.760   2.071 -1.1902  0.6858  0.3208
   14CHTO   H27 5877   5.023   6.734   2.166 -1.6976 -0.3211  0.3307
   14CHTO   C18 5878   5.084   6.776   1.964  0.2164  0.0613  0.1795
   14CHTO   O13 5879   5.188   6.686   1.979 -0.5483 -0.0517 -0.2155
   14CHTO    H7 5880   5.249   6.714   2.044 -0.9987  2.3629 -0.7876
   14CHTO    O2 5881   4.766   7.073   2.078  0.0711  0.4206  0.3231
   14CHTO    C1 5882   4.817   7.205   2.113 -0.1100  0.6262  0.3590
   14CHTO   H14 5883   4.793   7.259   2.019 -1.2193 -0.9150 -0.2558
   14CHTO    C2 5884   4.972   7.214   2.137 -0.1060  0.5387 -0.0451
   14CHTO   H15 5885   4.986   7.146   2.222 -2.5956 -1.6387 -1.3245
   14CHTO    O6 5886   5.056   7.168   2.029  0.2989 -0.4672  0.0979
   14CHTO    H1 5887   5.043   7.077   2.009  0.8221 -0.3121 -0.9742
   14CHTO    C3 5888   5.015   7.371   2.166 -0.7705 -0.0944 -0.3374
   14CHTO   H16 5889   5.009   7.426   2.071  1.1032 -0.6748 -0.8006
   14CHTO    N1 5890   5.152   7.390   2.223 -0.0901 -0.3733 -0.6022
   14CHTO    H8 5891   5.221   7.360   2.146  1.0564 -0.6626  0.5136
   14CHTO    H9 5892   5.156   7.497   2.234  0.1133 -0.5211  0.8838
   14CHTO    C4 5893   4.913   7.449   2.260  0.3859  0.4685 -0.0417
   14CHTO   H17 5894   4.933   7.422   2.364  1.5719 -0.6371 -0.5484
   14CHTO    O1 5895   4.775   7.416   2.229  0.0716  0.2185 -0.4928
   14CHTO    C5 5896   4.741   7.275   2.222  0.1018  0.0210 -0.4209
   14CHTO   H18 5897   4.769   7.225   2.315 -2.2002 -0.5383  0.0063
   14CHTO   C16 5898   4.592   7.257   2.197 -0.5435  0.4092 -0.4663
   14CHTO   O11 5899   4.519   7.317   2.304 -0.5184  0.5602 -0.6730
   14CHTO    H5 5900   4.472   7.252   2.352  0.7504  0.0796 -0.0529
   14CHTO    O3 5901   4.916   7.584   2.224  0.1524 -0.2553  0.3919
   14CHTO    C6 5902   4.845   7.682   2.319  0.6766  0.4441 -0.8271
   14CHTO   H19 5903   4.747   7.643   2.344 -0.9852  3.5492 -2.2301
   14CHTO    C8 5904   4.916   7.720   2.455 -0.8431 -0.0461 -0.3142
   14CHTO   H21 5905   5.020   7.744   2.434 -1.3976  2.6589 -0.0787
   14CHTO    O7 5906   4.903   7.596   2.535 -0.5194  0.3445  0.6241
   14CHTO    H2 5907   4.985   7.571   2.573  1.1784  1.1133 -2.3684
   14CHTO   C12 5908   4.832   7.838   2.521 -0.1229 -1.2720 -0.2468
   14CHTO   H25 5909   4.731   7.804   2.552  0.0472 -0.6835  0.9707
   14CHTO    N3 5910   4.898   7.879   2.651 -0.0141 -0.4035 -0.3550
   14CHTO   H12 5911   5.002   7.905   2.633 -0.6053  0.6456 -2.5184
   14CHTO   H13 5912   4.888   7.799   2.722 -0.3221 -0.6330 -0.6569
   14CHTO   C15 5913   4.824   7.959   2.425 -0.4256 -0.3390  0.1647
   14CHTO   H28 5914   4.922   8.001   2.403 -0.0659  0.1516  2.5054
   14CHTO   O10 5915   4.723   8.083   2.474 -0.8135  0.2401  0.9693
   14CHTO    H4 5916   4.704   8.139   2.401  2.1039 -1.7141 -1.3884
   14CHTO    O5 5917   4.753   7.911   2.311  0.3051  0.0911 -0.6516
   14CHTO   C10 5918   4.820   7.811   2.231 -0.0606  0.6228  0.0833
   14CHTO   H23 5919   4.920   7.844   2.202  0.8731 -0.8044  1.6098
   14CHTO   C17 5920   4.739   7.783   2.111 -0.0662  0.2640  0.3622
   14CHTO   O12 5921   4.600   7.759   2.142  0.1216  0.3537  0.9271
   14CHTO    H6 5922   4.573   7.700   2.075 -1.6906  1.7847  0.3781
   15CHTO  H203 5923   7.047   4.836   2.094  0.3311 -0.2375  1.3165
   15CHTO   O82 5924   6.983   4.771   2.119  0.0715 -0.4478  0.1265
   15CHTO  C123 5925   6.940   4.688   2.014 -0.6505  0.8412 -0.0681
   15CHTO  H227 5926   6.902   4.596   2.058  2.3508 -0.3695  0.1284
   15CHTO   O77 5927   6.835   4.767   1.965  0.1247  0.5045 -0.3871
   15CHTO  C118 5928   6.765   4.716   1.848 -0.5367 -0.2253 -0.1997
   15CHTO  H222 5929   6.722   4.617   1.871  0.0422 -0.0356  1.8605
   15CHTO  C125 5930   6.653   4.825   1.817 -0.3173  0.9018 -0.6266
   15CHTO   O84 5931   6.549   4.817   1.914 -0.3844 -0.2786  0.0911
   15CHTO  H205 5932   6.502   4.737   1.902  1.2814 -1.0401 -1.5030
   15CHTO  C114 5933   6.858   4.705   1.728  0.3020 -0.1066  0.3871
   15CHTO  H218 5934   6.888   4.807   1.703  0.0974  0.7018  3.2133
   15CHTO  C116 5935   6.984   4.632   1.760 -0.7607 -0.2587 -0.1148
   15CHTO  H220 5936   6.967   4.522   1.759  0.0924 -0.4546  2.8511
   15CHTO   O79 5937   7.076   4.656   1.653 -0.5688 -0.3824  0.0047
   15CHTO  H201 5938   7.147   4.595   1.660 -1.0880 -0.9011  1.0214
   15CHTO  C120 5939   7.048   4.663   1.905 -0.4488 -0.1198 -0.7975
   15CHTO  H224 5940   7.105   4.758   1.896 -0.6219 -0.0338 -0.9811
   15CHTO   N21 5941   7.164   4.570   1.942  0.3554  0.1517  0.2989
   15CHTO  H211 5942   7.261   4.594   1.903  0.8738  2.0628  2.6343
   15CHTO  H212 5943   7.182   4.528   2.040  0.5159 -0.0226  0.1948
   15CHTO   O75 5944   6.770   4.647   1.624  0.1671  0.1521  0.6036
   15CHTO  C112 5945   6.734   4.498   1.613  0.7802  0.4277 -0.1729
   15CHTO  H216 5946   6.699   4.464   1.712  1.3845  3.7488  1.2501
   15CHTO   O73 5947   6.851   4.422   1.566  0.0349  0.2755 -0.6389
   15CHTO  C113 5948   6.820   4.280   1.565 -0.4261 -0.3177  0.0940
   15CHTO  H217 5949   6.791   4.256   1.670  1.0059 -2.9388 -0.0763
   15CHTO  C124 5950   6.952   4.204   1.543 -0.0683  0.1856 -0.4961
   15CHTO   O83 5951   7.018   4.222   1.418  0.2250 -0.2052  0.1884
   15CHTO  H204 5952   6.982   4.170   1.348  0.7431  0.2098 -0.3918
   15CHTO  C109 5953   6.710   4.251   1.460  0.2531 -0.2883 -0.4549
   15CHTO  H213 5954   6.753   4.275   1.362 -1.1241 -0.3730 -1.0919
   15CHTO  C110 5955   6.579   4.331   1.485  0.8484 -0.8380  0.4161
   15CHTO  H214 5956   6.535   4.292   1.577  0.3515 -1.1183  0.0621
   15CHTO   O78 5957   6.498   4.331   1.366  0.0781 -0.3968 -0.5108
   15CHTO  H200 5958   6.537   4.383   1.300  0.8847  1.3793  1.3207
   15CHTO  C111 5959   6.610   4.481   1.516 -0.2308 -0.4006  0.6845
   15CHTO  H215 5960   6.636   4.538   1.426  0.1633 -1.7108 -0.0415
   15CHTO   N19 5961   6.493   4.557   1.576  0.1469  0.6111  0.6791
   15CHTO  H207 5962   6.529   4.655   1.604 -0.7420  0.7808  1.2525
   15CHTO  H208 5963   6.418   4.574   1.500 -0.6868  3.2400  2.0398
   15CHTO   O74 5964   6.686   4.108   1.468 -0.3265 -0.3383 -0.4505
   15CHTO  C115 5965   6.631   4.042   1.328  0.2743  1.0730  0.4376
   15CHTO  H219 5966   6.600   4.120   1.259  1.9829  2.6704  1.4425
   15CHTO   O76 5967   6.746   3.964   1.252 -0.7808  0.4524 -0.0200
   15CHTO  C122 5968   6.794   3.855   1.326  0.3581 -0.3021  0.2093
   15CHTO  H226 5969   6.823   3.888   1.426 -0.2195 -0.3077  0.3788
   15CHTO  C126 5970   6.925   3.792   1.258  0.1789  0.2535 -0.2523
   15CHTO   O85 5971   7.038   3.879   1.256 -0.4611  0.1581  0.5160
   15CHTO  H206 5972   7.047   3.915   1.170 -1.0110  0.6551  0.6569
   15CHTO  C121 5973   6.674   3.746   1.356  1.6951 -0.1065 -0.2957
   15CHTO  H225 5974   6.693   3.654   1.298 -0.2491 -1.2337  0.7898
   15CHTO   O81 5975   6.677   3.710   1.496  0.0110 -0.0794 -0.2846
   15CHTO  H202 5976   6.758   3.669   1.520 -1.0821 -0.0269  3.8882
   15CHTO  C119 5977   6.532   3.797   1.315 -0.3378  0.2649  0.5391
   15CHTO  H223 5978   6.522   3.789   1.206 -1.2057 -2.6128  0.8081
   15CHTO  C117 5979   6.503   3.945   1.365  0.0918  0.1787  0.6303
   15CHTO  H221 5980   6.481   3.964   1.470  2.0975 -3.1693  1.7167
   15CHTO   N20 5981   6.376   3.992   1.298 -0.1598  0.2147  0.4493
   15CHTO  H209 5982   6.384   4.013   1.193 -2.0738  3.5615  0.8981
   15CHTO  H210 5983   6.333   4.081   1.342  2.3472  0.7823  1.8415
   15CHTO   O80 5984   6.414   3.682   1.362 -0.0913  0.0797 -0.1321
   15CHTO  C103 5985   6.340   3.592   1.248 -0.5289 -0.3002 -0.4535
   15CHTO  H190 5986   6.265   3.530   1.298 -0.2490  1.2431  1.9600
   15CHTO  C101 5987   6.257   3.658   1.129 -0.0024 -0.3414  0.3468
   15CHTO  H188 5988   6.327   3.701   1.057  1.2767  0.1598  1.8434
   15CHTO   O68 5989   6.164   3.767   1.184 -0.3321 -0.4405 -0.1079
   15CHTO  H168 5990   6.215   3.812   1.249 -1.5259  1.2897 -0.3385
   15CHTO   C99 5991   6.181   3.539   1.050  0.8567 -0.4819  0.6933
   15CHTO  H186 5992   6.112   3.483   1.117 -1.8162  3.5366  1.4454
   15CHTO   N17 5993   6.103   3.587   0.931 -0.2179 -0.4093  0.4307
   15CHTO  H174 5994   6.143   3.686   0.913  0.1159 -0.5297  0.5023
   15CHTO  H175 5995   5.999   3.593   0.958 -0.5346 -0.5259 -0.7231
   15CHTO   C97 5996   6.283   3.437   1.005  0.4074  0.1340 -0.2554
   15CHTO  H184 5997   6.344   3.487   0.928 -1.1770  0.5939 -1.2263
   15CHTO   O64 5998   6.364   3.394   1.116  0.4520 -0.1051 -0.0958
   15CHTO  C104 5999   6.440   3.501   1.179  0.0043  0.4042 -0.2673
   15CHTO  H191 6000   6.498   3.555   1.104  1.6084 -0.4428  0.3366
   15CHTO  C108 6001   6.539   3.433   1.275  0.0545 -0.5913  0.2462
   15CHTO   O71 6002   6.480   3.357   1.374  0.5712 -0.3861 -0.6707
   15CHTO  H171 6003   6.513   3.274   1.402 -1.7617 -0.1372  3.1979
   15CHTO   O62 6004   6.222   3.321   0.950 -0.3218 -0.8541 -0.4433
   15CHTO   C91 6005   6.286   3.250   0.842  0.2034 -0.3369  0.3231
   15CHTO  H178 6006   6.322   3.321   0.767 -2.2822 -0.2120 -0.8140
   15CHTO   C92 6007   6.177   3.164   0.770 -0.5195 -0.9071  0.5339
   15CHTO  H179 6008   6.095   3.230   0.740 -1.5232 -2.0543  0.6917
   15CHTO   O66 6009   6.227   3.110   0.647 -0.3225 -0.4729  0.0517
   15CHTO  H166 6010   6.177   3.150   0.577  1.8881  0.0435 -1.2859
   15CHTO   C93 6011   6.122   3.042   0.852  0.2632  0.7368 -0.7801
   15CHTO  H180 6012   6.072   2.975   0.780 -0.6570 -0.2984  0.7899
   15CHTO   N16 6013   6.016   3.082   0.949  0.0462  0.7784  0.8337
   15CHTO  H172 6014   5.992   2.996   1.010 -0.1277  1.5966  1.9422
   15CHTO  H173 6015   5.935   3.122   0.890 -1.2653  1.2988  2.9299
   15CHTO   C94 6016   6.243   2.960   0.906  0.1155 -0.3321  0.0842
   15CHTO  H181 6017   6.244   2.953   1.015  2.0134  0.1035  0.1100
   15CHTO   O61 6018   6.367   3.012   0.868  0.0414  0.4041  0.4570
   15CHTO   C95 6019   6.393   3.151   0.893 -0.2216  0.4316  0.3634
   15CHTO  H182 6020   6.405   3.166   1.001  4.0342 -2.4205  0.3987
   15CHTO  C106 6021   6.532   3.183   0.841  0.4210 -0.8189 -0.1369
   15CHTO   O69 6022   6.541   3.162   0.699 -0.5003 -0.1017  0.0846
   15CHTO  H169 6023   6.630   3.158   0.672  0.4265 -0.7545  3.0390
   15CHTO   O63 6024   6.245   2.827   0.837  0.0892  0.1155  0.0848
   15CHTO   C96 6025   6.287   2.702   0.922 -0.1793  0.5359  0.3801
   15CHTO  H183 6026   6.302   2.735   1.025 -0.5153 -0.0425  0.6201
   15CHTO   C98 6027   6.417   2.620   0.860 -0.0948 -0.6098  0.2532
   15CHTO  H185 6028   6.415   2.628   0.750 -1.2502 -0.0533  0.3113
   15CHTO   O67 6029   6.536   2.686   0.900 -0.4509 -0.3351 -0.5844
   15CHTO  H167 6030   6.536   2.778   0.882  3.0116 -0.1759 -0.2304
   15CHTO  C102 6031   6.423   2.464   0.901 -0.2969 -0.4170  0.0668
   15CHTO  H189 6032   6.453   2.460   1.007 -1.6486  0.9332  0.5018
   15CHTO   N18 6033   6.517   2.373   0.829  0.0435  0.8254  0.4023
   15CHTO  H176 6034   6.476   2.364   0.729  1.4587  1.9348 -0.2843
   15CHTO  H177 6035   6.619   2.408   0.823 -0.0791  1.0589 -0.3062
   15CHTO  C105 6036   6.278   2.406   0.900 -0.3594 -0.3536  0.2642
   15CHTO  H192 6037   6.237   2.413   0.799 -0.2157  0.9511  0.2850
   15CHTO   O65 6038   6.187   2.487   0.975 -0.4319 -0.1350 -0.1543
   15CHTO  C100 6039   6.163   2.618   0.923  0.5722 -0.0696 -0.1249
   15CHTO  H187 6040   6.125   2.612   0.820  1.5955  0.5403 -0.5523
   15CHTO  C107 6041   6.036   2.683   0.990 -0.2943 -0.1274  0.1421
   15CHTO   O70 6042   6.065   2.745   1.111 -0.3081 -0.1398 -0.7279
   15CHTO  H170 6043   6.006   2.710   1.176 -0.3618 -1.1634 -1.3113
   15CHTO   O57 6044   6.271   2.253   0.949  0.1276 -0.3797 -0.0776
   15CHTO   C85 6045   6.291   2.213   1.088 -0.2450  0.6301  0.4393
   15CHTO  H157 6046   6.334   2.290   1.155 -0.2004 -0.3707  1.5819
   15CHTO   C83 6047   6.407   2.113   1.074 -0.7360 -0.4838  0.6575
   15CHTO  H155 6048   6.495   2.158   1.029 -0.9996 -0.3535  0.2668
   15CHTO   O56 6049   6.370   1.995   0.989 -0.2335 -0.0089  0.3683
   15CHTO  H135 6050   6.298   1.945   1.021 -0.2661 -0.1635  0.0483
   15CHTO   C81 6051   6.444   2.056   1.213 -1.1317 -0.5364 -0.7651
   15CHTO  H153 6052   6.468   2.143   1.273 -2.2398 -0.3177 -0.6268
   15CHTO   N14 6053   6.573   1.973   1.212  0.4124 -0.4956 -0.0068
   15CHTO  H141 6054   6.639   1.989   1.130  0.1411  1.9347  0.2143
   15CHTO  H142 6055   6.550   1.869   1.220  1.4115 -0.7854 -0.9279
   15CHTO   C79 6056   6.324   1.987   1.285  1.1217 -0.4394  0.5990
   15CHTO  H151 6057   6.355   1.970   1.389  1.1398  3.1050  1.2240
   15CHTO   O52 6058   6.200   2.071   1.285 -0.1006 -0.7773  0.4673
   15CHTO   C86 6059   6.169   2.142   1.158 -0.7632 -0.5621 -0.6968
   15CHTO  H158 6060   6.129   2.066   1.089 -0.8245 -1.0202 -0.1611
   15CHTO   C90 6061   6.056   2.237   1.192 -0.2918 -0.0035 -0.2418
   15CHTO   O60 6062   6.003   2.293   1.074  0.0495 -0.2042 -0.1968
   15CHTO  H138 6063   5.998   2.387   1.069  0.9535 -0.1978 -1.1461
   15CHTO   O50 6064   6.285   1.866   1.228 -0.4514  0.0004  0.3214
   15CHTO   C73 6065   6.178   1.774   1.205  0.5103  0.4161  0.2375
   15CHTO  H145 6066   6.088   1.827   1.170 -0.6087 -1.0288  0.8895
   15CHTO   C74 6067   6.125   1.716   1.337 -0.0345  0.8108  0.1827
   15CHTO  H146 6068   6.091   1.798   1.402  1.5105 -0.4151  2.6278
   15CHTO   O54 6069   6.017   1.626   1.316 -0.3331 -0.0488 -1.0093
   15CHTO  H133 6070   5.956   1.667   1.258 -1.6190  2.0018  1.6817
   15CHTO   C75 6071   6.238   1.637   1.411 -0.2908  0.9577  0.1589
   15CHTO  H147 6072   6.319   1.706   1.440  0.6458 -0.5146  1.1309
   15CHTO   N13 6073   6.196   1.576   1.541 -0.2204  0.2693 -0.0800
   15CHTO  H139 6074   6.189   1.469   1.540 -2.9429  0.4112 -0.0434
   15CHTO  H140 6075   6.258   1.606   1.625  1.4038 -0.0136 -1.1465
   15CHTO   C76 6076   6.301   1.532   1.317 -0.3302 -0.0282  0.4681
   15CHTO  H148 6077   6.233   1.447   1.320  1.7728 -1.7059  2.1766
   15CHTO   O49 6078   6.312   1.577   1.180 -0.4463  0.0641  0.1709
   15CHTO   C77 6079   6.214   1.653   1.111  0.5074 -0.3105  0.5882
   15CHTO  H149 6080   6.122   1.604   1.081  1.0223 -1.5723  1.0578
   15CHTO   C88 6081   6.277   1.681   0.976  0.1808 -0.6747 -0.2849
   15CHTO   O58 6082   6.183   1.737   0.888  0.1413  0.2879 -0.0176
   15CHTO  H136 6083   6.105   1.762   0.935  1.0252  2.5125  0.3311
   15CHTO   O51 6084   6.457   1.497   1.359 -0.4536  0.3555  0.0634
   15CHTO   C78 6085   6.534   1.405   1.289  0.3252 -0.3813  0.8034
   15CHTO  H150 6086   6.501   1.406   1.183 -0.7217 -0.0438  1.1328
   15CHTO   C80 6087   6.524   1.264   1.353 -0.3458  0.0139  0.4410
   15CHTO  H152 6088   6.529   1.283   1.463 -0.1408 -1.4236  0.6979
   15CHTO   O55 6089   6.393   1.207   1.330  0.2939 -0.0460  0.3006
   15CHTO  H134 6090   6.328   1.246   1.386 -1.3330 -1.7742 -0.3370
   15CHTO   C84 6091   6.639   1.169   1.301  0.4109 -0.1358  0.2293
   15CHTO  H156 6092   6.619   1.141   1.197 -0.1136 -1.6493  0.7119
   15CHTO   N15 6093   6.651   1.049   1.389 -1.1739 -0.5709  0.4250
   15CHTO  H143 6094   6.721   0.980   1.345 -0.8948  0.8495 -1.4132
   15CHTO  H144 6095   6.684   1.074   1.488  0.0751 -0.8624  0.0911
   15CHTO   C87 6096   6.777   1.247   1.297 -0.1643  0.2750 -0.3962
   15CHTO  H159 6097   6.821   1.267   1.394 -0.7064 -3.0543  0.6124
   15CHTO   O53 6098   6.753   1.381   1.218  0.5733  0.7103  0.2149
   15CHTO   C82 6099   6.675   1.475   1.290  0.0221 -0.6454 -0.0919
   15CHTO  H154 6100   6.718   1.498   1.387  0.5943 -0.3379 -0.4153
   15CHTO   C89 6101   6.675   1.608   1.214  0.9394 -0.3669 -0.2029
   15CHTO   O59 6102   6.807   1.660   1.198 -0.2562 -0.0225 -0.6555
   15CHTO  H137 6103   6.809   1.742   1.152  0.1683  0.9823  1.1216
   15CHTO   O45 6104   6.893   1.166   1.215  0.1079  0.1204 -0.5328
   15CHTO   C67 6105   7.024   1.237   1.215 -0.0824  0.0636 -0.5253
   15CHTO  H124 6106   7.012   1.339   1.254  0.8419  0.7808 -2.0530
   15CHTO   C65 6107   7.121   1.166   1.306  0.8485 -0.2520 -0.4895
   15CHTO  H122 6108   7.080   1.065   1.311  1.5987 -0.5559 -0.5489
   15CHTO   O44 6109   7.118   1.239   1.430  0.2888 -0.3142  0.4839
   15CHTO  H102 6110   7.163   1.186   1.494  1.4467 -3.1542 -2.5143
   15CHTO   C63 6111   7.266   1.138   1.248 -0.2465 -0.0941  0.3303
   15CHTO  H120 6112   7.260   1.068   1.164  0.1261 -0.6771  0.7809
   15CHTO   N11 6113   7.363   1.065   1.330  0.7960  0.4518 -0.2178
   15CHTO  H108 6114   7.367   1.108   1.428  2.7588 -0.2686  0.0353
   15CHTO  H109 6115   7.334   0.963   1.342 -0.9856  1.1077  1.2843
   15CHTO   C61 6116   7.321   1.273   1.179  0.1970 -0.2437  0.4660
   15CHTO  H118 6117   7.413   1.256   1.121 -0.4014 -1.4984 -0.1490
   15CHTO   O40 6118   7.224   1.324   1.082  0.3742 -0.1323 -0.2872
   15CHTO   C68 6119   7.093   1.250   1.070 -0.1644 -0.5746 -0.0237
   15CHTO  H125 6120   7.114   1.158   1.011 -0.1334 -1.2114  0.9596
   15CHTO   C72 6121   6.999   1.337   0.982 -0.2888  0.6754  0.1689
   15CHTO   O48 6122   6.886   1.269   0.919  0.5826  0.0660  0.3603
   15CHTO  H105 6123   6.906   1.254   0.828  0.7298  1.2235  0.1976
   15CHTO   O38 6124   7.344   1.372   1.284 -0.1769  0.3362  0.8756
   15CHTO   C55 6125   7.383   1.504   1.242  0.4037 -0.9715 -0.3457
   15CHTO  H112 6126   7.328   1.532   1.151  0.7033  0.1591 -0.1848
   15CHTO   C56 6127   7.545   1.532   1.233 -0.3331 -0.2232  0.1738
   15CHTO  H113 6128   7.583   1.485   1.325  1.5792 -0.6081 -0.7839
   15CHTO   O42 6129   7.593   1.451   1.125  0.1855 -0.0812 -0.2122
   15CHTO  H100 6130   7.685   1.435   1.125  0.3143  0.6065  0.5625
   15CHTO   C57 6131   7.568   1.687   1.223 -0.7759 -0.6937 -0.0117
   15CHTO  H114 6132   7.543   1.704   1.119  1.0367  0.8055 -0.2362
   15CHTO   N10 6133   7.713   1.717   1.236 -0.4774  0.3686  0.3795
   15CHTO  H106 6134   7.716   1.820   1.267 -2.5049  0.1897  1.2529
   15CHTO  H107 6135   7.765   1.702   1.142 -2.6094  1.3838 -0.9948
   15CHTO   C58 6136   7.481   1.779   1.308 -0.6622 -0.9102 -0.5901
   15CHTO  H115 6137   7.513   1.777   1.415  0.6085 -1.4162 -0.9675
   15CHTO   O37 6138   7.348   1.734   1.301  0.2818 -0.1671 -0.0875
   15CHTO   C59 6139   7.330   1.599   1.351  0.1796  0.3709  0.6034
   15CHTO  H116 6140   7.394   1.587   1.439  1.2483  1.7356  0.0399
   15CHTO   C70 6141   7.181   1.587   1.386  0.3040  0.1921 -0.3680
   15CHTO   O46 6142   7.097   1.608   1.270 -0.7801  0.2302  0.2259
   15CHTO  H103 6143   7.042   1.535   1.248  1.0421 -0.6403 -1.7256
   15CHTO   O39 6144   7.478   1.949   1.248 -0.1778  0.1524 -0.1096
   15CHTO   C60 6145   7.396   1.963   1.127  0.7804 -0.2001 -0.1974
   15CHTO  H117 6146   7.401   1.869   1.072 -1.5925 -0.8070  0.5603
   15CHTO   C62 6147   7.246   1.991   1.158  0.7435  0.6590 -1.2680
   15CHTO  H119 6148   7.212   1.900   1.212  0.8103  0.0605 -2.2300
   15CHTO   O43 6149   7.225   2.116   1.227 -0.0131  0.2409 -0.2221
   15CHTO  H101 6150   7.134   2.115   1.251  0.3142 -0.6026  1.0305
   15CHTO   C66 6151   7.167   1.986   1.028  0.6814 -0.1622 -0.0565
   15CHTO  H123 6152   7.187   1.889   0.982 -0.6183  0.1348 -1.2770
   15CHTO   N12 6153   7.020   1.988   1.043  0.2142 -0.5612 -0.8328
   15CHTO  H110 6154   7.000   2.078   1.099  1.6734 -1.5856  1.4088
   15CHTO  H111 6155   6.989   1.898   1.094 -1.3975  1.5509  2.0458
   15CHTO   C69 6156   7.220   2.102   0.942 -1.2881  0.0301  0.4618
   15CHTO  H126 6157   7.192   2.194   0.999 -0.0094  1.6393 -1.4152
   15CHTO   O41 6158   7.379   2.080   0.913 -0.1088 -0.4164  0.5574
   15CHTO   C64 6159   7.458   2.072   1.039  0.2049 -0.3957 -0.0672
   15CHTO  H121 6160   7.450   2.169   1.091  1.7840  0.4334 -1.3172
   15CHTO   C71 6161   7.612   2.041   1.017  0.0816 -0.3029 -0.0496
   15CHTO   O47 6162   7.682   2.142   0.944 -0.6781 -0.3253 -0.3863
   15CHTO  H104 6163   7.645   2.227   0.958 -1.1309 -0.6104  0.1048
   15CHTO   O34 6164   7.157   2.109   0.805 -0.2595 -0.1810 -0.0685
   15CHTO   C49 6165   7.119   2.181   0.676 -0.3724  0.6704  0.5511
   15CHTO   H91 6166   7.091   2.104   0.603  1.1921  0.9704 -0.3939
   15CHTO   C47 6167   7.240   2.255   0.624 -0.1963 -0.2149 -0.9024
   15CHTO   H89 6168   7.214   2.284   0.520 -0.1200 -1.6035 -1.3110
   15CHTO   O33 6169   7.350   2.160   0.622 -0.1577 -0.2430  0.1048
   15CHTO   H70 6170   7.416   2.170   0.556 -1.3630  0.0598 -1.0814
   15CHTO   C45 6171   7.272   2.386   0.714  0.1210  0.4324  1.0909
   15CHTO   H87 6172   7.310   2.356   0.813  1.9657 -0.6434  0.0806
   15CHTO    N8 6173   7.396   2.455   0.651 -0.1114 -0.0092  0.0142
   15CHTO   H75 6174   7.450   2.514   0.723 -1.0880  1.8513 -0.7520
   15CHTO   H76 6175   7.369   2.512   0.563 -1.6865 -0.8169 -0.0343
   15CHTO   C43 6176   7.148   2.484   0.728  0.5594 -0.1671  0.1539
   15CHTO   H85 6177   7.177   2.545   0.813  0.2872  0.5915 -0.2980
   15CHTO   O29 6178   7.033   2.404   0.761  0.2436 -0.1512 -0.6059
   15CHTO   C50 6179   7.003   2.279   0.696  0.2750  0.4836  0.4078
   15CHTO   H92 6180   6.934   2.234   0.769  3.2861  1.0670  3.7079
   15CHTO   C54 6181   6.926   2.292   0.572 -0.3778 -0.1394  0.0144
   15CHTO   O36 6182   6.806   2.369   0.602 -0.0405  0.7422  0.7282
   15CHTO   H72 6183   6.740   2.361   0.536  0.0534 -2.1150  0.9080
   15CHTO   O27 6184   7.131   2.561   0.604  0.1090  0.4946  0.3873
   15CHTO   C37 6185   7.041   2.644   0.523  0.6001  0.3913 -0.0268
   15CHTO   H79 6186   6.968   2.577   0.475  0.8944  2.2244 -3.1401
   15CHTO   C38 6187   6.948   2.735   0.614 -0.8904  0.4852  1.2219
   15CHTO   H80 6188   7.008   2.802   0.677  3.6988 -0.7666 -1.5808
   15CHTO   O31 6189   6.877   2.650   0.693 -0.2035  0.3035  0.0585
   15CHTO   H68 6190   6.800   2.697   0.720 -0.7358 -0.7338  0.3855
   15CHTO   C39 6191   6.853   2.816   0.515  0.3985 -0.2913  0.6287
   15CHTO   H81 6192   6.790   2.742   0.466 -0.0217  1.4461 -1.5468
   15CHTO    N7 6193   6.758   2.901   0.588 -0.5030  0.4087 -0.0845
   15CHTO   H73 6194   6.693   2.833   0.641  2.2011 -2.7158 -0.6373
   15CHTO   H74 6195   6.812   2.940   0.672 -0.0580 -0.2204 -0.0777
   15CHTO   C40 6196   6.929   2.896   0.398 -0.3257  0.1785  0.2262
   15CHTO   H82 6197   6.971   2.990   0.435  0.2064 -0.7860  2.1232
   15CHTO   O26 6198   7.029   2.812   0.337  0.5144 -0.0085  0.4752
   15CHTO   C41 6199   7.113   2.732   0.422 -0.7905  0.5364  0.1213
   15CHTO   H83 6200   7.163   2.811   0.481  1.2649  0.6855 -1.7502
   15CHTO   C52 6201   7.220   2.642   0.334  0.0686  0.3282 -0.3765
   15CHTO   O35 6202   7.319   2.732   0.283 -0.5105 -0.3284  0.0228
   15CHTO   H71 6203   7.401   2.704   0.318  0.1736  0.4782 -0.8900
   15CHTO   O28 6204   6.843   2.918   0.285 -0.2150 -0.0943  0.1484
   15CHTO   C42 6205   6.844   3.033   0.199  0.9983 -0.5850  0.5161
   15CHTO   H84 6206   6.799   2.993   0.108 -1.1971  1.1725  0.7911
   15CHTO   C44 6207   6.978   3.095   0.152  0.4015 -0.6917  0.3543
   15CHTO   H86 6208   7.036   3.126   0.239  1.8437  2.5572 -1.6644
   15CHTO   O32 6209   7.055   2.993   0.085  0.0544 -0.1339  0.2273
   15CHTO   H69 6210   7.009   2.963   0.009  4.5078 -1.2401 -2.1805
   15CHTO   C48 6211   6.965   3.220   0.054 -0.4210  0.0138 -0.2560
   15CHTO   H90 6212   6.920   3.178  -0.036 -2.8786  1.0087  0.4638
   15CHTO    N9 6213   7.099   3.280   0.005 -0.0979  0.6352  0.1911
   15CHTO   H77 6214   7.138   3.197  -0.053 -0.3196 -0.0525  1.0181
   15CHTO   H78 6215   7.164   3.300   0.089 -0.4771 -0.6060  0.7835
   15CHTO   C51 6216   6.879   3.331   0.109 -0.1797  0.6035  0.0158
   15CHTO   H93 6217   6.924   3.372   0.199  0.0626 -0.3162  0.3192
   15CHTO   O30 6218   6.750   3.271   0.135 -0.2515 -0.5931 -0.0983
   15CHTO   C46 6219   6.755   3.144   0.253  0.4317  0.2653 -0.5456
   15CHTO   H88 6220   6.801   3.182   0.345 -0.7621  1.3714 -0.3876
   15CHTO   C53 6221   6.607   3.104   0.290  0.3515 -0.2979  0.0321
   15CHTO   O72 6222   6.513   3.151   0.186 -0.0792 -0.1735  0.1113
   15CHTO  H199 6223   6.439   3.192   0.227  0.6175 -1.6450  2.9793
   15CHTO   O22 6224   6.853   3.437   0.016 -0.3233  0.1943 -0.0166
   15CHTO   C31 6225   6.806   3.571   0.056  0.4396  0.2222  0.0806
   15CHTO   H59 6226   6.834   3.631  -0.034 -2.4886 -0.5611 -1.4057
   15CHTO   C29 6227   6.647   3.579   0.054 -0.9497  0.3394 -0.0587
   15CHTO   H57 6228   6.614   3.511   0.134 -0.3621  2.4376  2.0467
   15CHTO   O21 6229   6.606   3.528  -0.078 -0.0900  0.0376 -0.2801
   15CHTO   H37 6230   6.653   3.574  -0.145 -1.3147  0.3542 -0.9489
   15CHTO   C27 6231   6.588   3.714   0.084 -0.3944 -0.5448  0.0315
   15CHTO   H55 6232   6.612   3.782   0.001 -2.4239  2.5235  1.8301
   15CHTO    N5 6233   6.442   3.711   0.100 -0.4111 -0.2520  0.5402
   15CHTO   H43 6234   6.413   3.636   0.172  1.4127 -0.3194  1.2097
   15CHTO   H44 6235   6.403   3.811   0.116  0.8653 -0.0451  2.5327
   15CHTO   C25 6236   6.661   3.772   0.215 -0.2187 -0.3536 -0.2106
   15CHTO   H53 6237   6.630   3.708   0.299 -0.0459 -0.4680 -0.2354
   15CHTO   O17 6238   6.807   3.772   0.190 -0.4911  0.2110 -0.4705
   15CHTO   C32 6239   6.873   3.641   0.180 -0.8009 -0.6241  0.0555
   15CHTO   H60 6240   6.859   3.577   0.267 -0.4375 -1.4968 -0.5231
   15CHTO   C36 6241   7.023   3.662   0.158 -0.0944  0.4809  0.7562
   15CHTO   O25 6242   7.090   3.714   0.273  0.2843 -0.8535 -0.2662
   15CHTO   H40 6243   7.179   3.687   0.265  0.1369 -1.1974 -0.8324
   15CHTO   O15 6244   6.613   3.913   0.246  0.2385 -0.1352 -0.6333
   15CHTO   C19 6245   6.624   4.032   0.334  0.5051  0.2404  0.3216
   15CHTO   H47 6246   6.697   4.093   0.279  0.2923 -1.2129 -1.6283
   15CHTO   C20 6247   6.494   4.131   0.347 -0.0463 -0.3731  0.3759
   15CHTO   H48 6248   6.413   4.086   0.406 -0.8869 -1.1821 -1.3626
   15CHTO   O19 6249   6.462   4.149   0.207  0.1531 -0.1223  0.0315
   15CHTO   H35 6250   6.436   4.068   0.168  0.1487  0.6630 -1.5947
   15CHTO   C21 6251   6.528   4.269   0.406 -0.0089 -0.3449  0.2257
   15CHTO   H49 6252   6.603   4.317   0.344 -0.0695  1.9732  1.8504
   15CHTO    N4 6253   6.409   4.359   0.416 -0.7120  0.3183 -0.0498
   15CHTO   H41 6254   6.364   4.362   0.318  0.3552  1.9139 -0.5164
   15CHTO   H42 6255   6.445   4.459   0.436 -0.9341  0.3443  0.2377
   15CHTO   C22 6256   6.597   4.252   0.545 -0.3685  0.2868 -0.5414
   15CHTO   H50 6257   6.522   4.230   0.621 -0.0803  0.5879 -0.1701
   15CHTO   O14 6258   6.697   4.149   0.542 -0.2617 -0.1441 -0.4054
   15CHTO   C23 6259   6.670   4.014   0.481  0.6796  0.0253 -1.1099
   15CHTO   H51 6260   6.594   3.969   0.547  3.3350  2.5354  3.9980
   15CHTO   C34 6261   6.799   3.931   0.499 -0.0731  0.4046  0.1138
   15CHTO   O23 6262   6.892   3.994   0.414 -0.0299 -0.0056  0.0840
   15CHTO   H38 6263   6.938   3.924   0.371  0.1660 -0.6994  1.4005
   15CHTO   O16 6264   6.683   4.366   0.574 -0.1758  0.1037 -0.0239
   15CHTO   C24 6265   6.660   4.421   0.719  0.2670  0.2345 -0.1081
   15CHTO   H52 6266   6.568   4.384   0.763 -0.1192  1.1379 -0.1435
   15CHTO   C26 6267   6.653   4.577   0.715 -0.4627  0.8720  0.2907
   15CHTO   H54 6268   6.735   4.612   0.649  0.6592 -1.4660  0.3917
   15CHTO   O20 6269   6.521   4.604   0.677  1.0114 -0.0904  0.0765
   15CHTO   H36 6270   6.505   4.564   0.594  0.4827  0.1765  0.0522
   15CHTO   C30 6271   6.673   4.637   0.855 -0.5656 -0.0728  0.0487
   15CHTO   H58 6272   6.592   4.598   0.918 -0.0803  0.1005  0.7881
   15CHTO    N6 6273   6.682   4.785   0.846 -0.3939 -0.1393  0.0073
   15CHTO   H45 6274   6.767   4.807   0.783  0.9853 -0.2222  1.7877
   15CHTO   H46 6275   6.707   4.820   0.945  2.4437  0.3267 -0.8396
   15CHTO   C33 6276   6.800   4.575   0.924 -0.5484  0.1353 -0.0707
   15CHTO   H61 6277   6.879   4.582   0.848 -1.0169  0.5075 -0.5221
   15CHTO   O18 6278   6.778   4.433   0.940 -0.7255  0.7814  0.2179
   15CHTO   C28 6279   6.774   4.370   0.808  0.6518  0.1971  0.1176
   15CHTO   H56 6280   6.869   4.388   0.757  0.1589 -0.1885 -0.9379
   15CHTO   C35 6281   6.756   4.220   0.838  0.4020  0.3305 -0.0010
   15CHTO   O24 6282   6.882   4.171   0.884  0.0723  0.3288 -0.0767
   15CHTO   H39 6283   6.950   4.196   0.825  0.5783  0.4188  0.5336
   15CHTO    O9 6284   6.851   4.637   1.045 -0.1226 -0.1890 -0.1040
   15CHTO   C13 6285   7.026   4.686   1.040  0.4194 -0.4556  0.7142
   15CHTO   H26 6286   7.034   4.784   0.989  0.8814 -1.1732 -0.6395
   15CHTO   C11 6287   7.107   4.576   0.968  0.5010 -0.0871  0.2289
   15CHTO   H24 6288   7.071   4.563   0.865 -1.6807  2.4119  0.6115
   15CHTO    O8 6289   7.088   4.445   1.022 -0.2396 -0.3024  0.3305
   15CHTO    H3 6290   7.066   4.381   0.957 -1.2097 -1.7318  2.0339
   15CHTO    C9 6291   7.247   4.629   0.953  0.2822  0.0422  0.1330
   15CHTO   H22 6292   7.236   4.725   0.900 -0.1366 -0.3687 -0.5285
   15CHTO    N2 6293   7.343   4.565   0.859  0.2728  0.6182  0.0831
   15CHTO   H10 6294   7.447   4.585   0.881  0.8443 -1.0808 -1.0024
   15CHTO   H11 6295   7.331   4.459   0.839  2.4255  0.9426 -3.1514
   15CHTO    C7 6296   7.306   4.651   1.104 -0.4430  0.3924 -0.4421
   15CHTO   H20 6297   7.401   4.705   1.085  0.7642 -1.5092  0.0888
   15CHTO    O4 6298   7.220   4.708   1.201 -0.1902 -0.2794 -0.5500
   15CHTO   C14 6299   7.075   4.706   1.191  0.3422  0.8332  0.1005
   15CHTO   H27 6300   7.035   4.804   1.226  0.4695  1.9983 -2.8396
   15CHTO   C18 6301   7.029   4.598   1.291 -0.4259 -0.0755 -0.5337
   15CHTO   O13 6302   6.897   4.601   1.323  0.3690  0.1507  0.3001
   15CHTO    H7 6303   6.885   4.672   1.383  0.7411  0.5022 -0.0314
   15CHTO    O2 6304   7.353   4.506   1.160 -0.0470  0.2299  0.2122
   15CHTO    C1 6305   7.385   4.505   1.301 -0.4328  0.3973 -0.6193
   15CHTO   H14 6306   7.304   4.546   1.366  0.4636  2.0061 -0.5068
   15CHTO    C2 6307   7.514   4.590   1.347 -0.1891 -0.4895  0.3971
   15CHTO   H15 6308   7.590   4.567   1.271  1.2196 -0.3457  1.7236
   15CHTO    O6 6309   7.481   4.727   1.349  0.7659  0.4135 -0.2371
   15CHTO    H1 6310   7.393   4.741   1.379  1.6611  2.4042  1.5504
   15CHTO    C3 6311   7.576   4.559   1.490 -0.0648  0.6878 -0.5485
   15CHTO   H16 6312   7.509   4.612   1.559 -1.3502 -1.1305 -0.3716
   15CHTO    N1 6313   7.718   4.602   1.506 -1.0801 -0.4068 -0.2228
   15CHTO    H8 6314   7.777   4.527   1.455 -0.2276  0.2563 -0.2197
   15CHTO    H9 6315   7.728   4.695   1.453  0.8625 -0.2810  0.3455
   15CHTO    C4 6316   7.564   4.405   1.524 -0.5703  0.2831 -0.1396
   15CHTO   H17 6317   7.644   4.347   1.477 -1.8920 -1.0841 -0.7681
   15CHTO    O1 6318   7.436   4.355   1.484  0.3742  0.0666  0.3498
   15CHTO    C5 6319   7.414   4.361   1.344  0.1381 -0.1358 -0.2117
   15CHTO   H18 6320   7.503   4.331   1.287 -0.2782  2.1874 -2.1551
   15CHTO   C16 6321   7.293   4.270   1.299 -0.2790  0.6504 -0.4002
   15CHTO   O11 6322   7.257   4.256   1.158 -0.0761 -0.1355 -0.3422
   15CHTO    H5 6323   7.182   4.312   1.148  0.4671  0.7584  0.4622
   15CHTO    O3 6324   7.555   4.378   1.668  0.4862  0.1927  0.2273
   15CHTO    C6 6325   7.611   4.251   1.721 -0.5541 -0.0902  0.4614
   15CHTO   H19 6326   7.591   4.166   1.657  0.2657  1.7028 -2.2612
   15CHTO    C8 6327   7.767   4.258   1.740 -0.3777  0.4465  0.1533
   15CHTO   H21 6328   7.792   4.349   1.795 -0.2115 -0.8441  2.2574
   15CHTO    O7 6329   7.822   4.262   1.610  0.3458 -0.5553  0.4472
   15CHTO    H2 6330   7.915   4.255   1.616  0.3352 -1.5928 -0.4595
   15CHTO   C12 6331   7.825   4.130   1.811  0.1735 -0.2277  0.6976
   15CHTO   H25 6332   7.809   4.047   1.738 -0.4940 -0.4246  1.0590
   15CHTO    N3 6333   7.974   4.122   1.818 -0.1123 -0.8348 -0.2265
   15CHTO   H12 6334   8.015   4.036   1.871  1.3613 -0.7670 -1.2387
   15CHTO   H13 6335   8.028   4.213   1.836  0.5518 -1.4214  0.8541
   15CHTO   C15 6336   7.743   4.098   1.936  0.2118  0.7032 -0.6373
   15CHTO   H28 6337   7.761   4.166   2.019  0.2839 -1.0257  0.7917
   15CHTO   O10 6338   7.765   3.955   2.007  0.7766 -0.2053  0.6516
   15CHTO    H4 6339   7.794   3.894   1.942 -0.4471 -0.0418 -0.0633
   15CHTO    O5 6340   7.602   4.091   1.903 -0.6088 -0.1033  0.3257
   15CHTO   C10 6341   7.545   4.217   1.855  0.2219  0.2494 -0.2709
   15CHTO   H23 6342   7.559   4.299   1.926 -0.0036 -3.0047  3.7467
   15CHTO   C17 6343   7.396   4.203   1.830  0.2134 -0.1282  0.0226
   15CHTO   O12 6344   7.303   4.190   1.935 -0.6034 -0.0463  0.0703
   15CHTO    H6 6345   7.228   4.139   1.911 -0.1219 -1.5519  1.6861
   16CHTO  H203 6346   6.035   4.747   0.473  0.6778  0.3248  0.2164
   16CHTO   O82 6347   5.986   4.667   0.472  0.6598  0.3357  0.2596
   16CHTO  C123 6348   5.998   4.594   0.597  0.2176  0.5652  0.2605
   16CHTO  H227 6349   5.917   4.619   0.667  1.3134  0.4465  1.6153
   16CHTO   O77 6350   5.989   4.456   0.543  0.2560  0.0823  0.2179
   16CHTO  C118 6351   5.982   4.364   0.662 -0.5709  0.0224 -0.0348
   16CHTO  H222 6352   5.897   4.400   0.721  0.6270 -0.8009  2.2383
   16CHTO  C125 6353   5.961   4.224   0.616  0.0034  0.2026  0.9742
   16CHTO   O84 6354   5.827   4.230   0.572  0.6251  0.4970  0.1866
   16CHTO  H205 6355   5.793   4.143   0.575  0.0662  0.4959 -3.5576
   16CHTO  C114 6356   6.117   4.374   0.727 -0.1610  0.8008  0.6235
   16CHTO  H218 6357   6.192   4.343   0.655 -1.1092  0.7714 -0.3616
   16CHTO  C116 6358   6.155   4.511   0.786  0.1771  0.6087 -0.6938
   16CHTO  H220 6359   6.083   4.537   0.867  1.6579 -0.3538  0.9746
   16CHTO   O79 6360   6.285   4.515   0.855 -0.4717 -0.0292 -0.9311
   16CHTO  H201 6361   6.297   4.605   0.880  1.0363 -0.5443  0.2338
   16CHTO  C120 6362   6.140   4.604   0.667  0.3639  0.3932 -0.0259
   16CHTO  H224 6363   6.229   4.581   0.605  1.4196  2.0319  0.8381
   16CHTO   N21 6364   6.166   4.745   0.705  0.7733 -0.0548  0.0599
   16CHTO  H211 6365   6.117   4.774   0.797 -2.1844 -0.1385 -1.4423
   16CHTO  H212 6366   6.139   4.822   0.635 -0.1680 -1.7056 -1.4123
   16CHTO   O75 6367   6.129   4.280   0.830  0.2136 -0.1005  0.3227
   16CHTO  C112 6368   6.260   4.158   0.796 -0.3700  0.2493  0.4501
   16CHTO  H216 6369   6.326   4.207   0.722 -0.7772  0.5691  0.2945
   16CHTO   O73 6370   6.196   4.043   0.737 -0.0015 -0.9425  0.8659
   16CHTO  C113 6371   6.285   3.944   0.685 -0.1317  1.3028 -0.5521
   16CHTO  H217 6372   6.353   4.000   0.616  1.2627 -1.3387 -1.3912
   16CHTO  C124 6373   6.219   3.828   0.608  0.3747 -0.1766 -0.0462
   16CHTO   O83 6374   6.311   3.772   0.514 -0.1371 -0.2038  0.3023
   16CHTO  H204 6375   6.291   3.819   0.435 -0.9663 -1.2076 -0.0874
   16CHTO  C109 6376   6.380   3.884   0.793  0.1169 -0.5538 -0.3331
   16CHTO  H213 6377   6.324   3.807   0.848 -0.3411  0.7868  1.1179
   16CHTO  C110 6378   6.438   3.997   0.884 -0.1731 -0.4410 -0.0338
   16CHTO  H214 6379   6.514   4.041   0.819  0.8490 -0.3129  1.2274
   16CHTO   O78 6380   6.500   3.945   1.004 -0.0032 -0.2383  0.2865
   16CHTO  H200 6381   6.594   3.937   1.000 -0.1196 -1.0210 -1.4236
   16CHTO  C111 6382   6.338   4.117   0.922 -0.0418  0.1388 -0.1077
   16CHTO  H215 6383   6.261   4.086   0.994  0.4937  1.4425  1.0417
   16CHTO   N19 6384   6.406   4.231   0.981  0.0281  0.7345 -0.5216
   16CHTO  H207 6385   6.463   4.198   1.067  1.3174  2.0096 -0.8634
   16CHTO  H208 6386   6.477   4.275   0.913 -0.5519 -1.8010 -2.8316
   16CHTO   O74 6387   6.487   3.824   0.731  0.1179  0.1644  0.2778
   16CHTO  C115 6388   6.530   3.681   0.786 -0.5156  0.7527 -0.3145
   16CHTO  H219 6389   6.503   3.666   0.891  0.0310 -2.1601 -0.5451
   16CHTO   O76 6390   6.464   3.571   0.712  0.0810  0.3069 -0.1004
   16CHTO  C122 6391   6.528   3.543   0.584 -0.4133  0.0773  0.3179
   16CHTO  H226 6392   6.520   3.633   0.522 -4.9479 -0.6138 -0.2691
   16CHTO  C126 6393   6.452   3.428   0.507 -0.3281 -0.0662  0.2528
   16CHTO   O85 6394   6.492   3.408   0.376 -0.1579  0.2077  0.0516
   16CHTO  H206 6395   6.514   3.319   0.358 -1.6725 -0.0417 -0.6818
   16CHTO  C121 6396   6.676   3.501   0.607  0.1627 -0.5561 -0.0374
   16CHTO  H225 6397   6.693   3.393   0.590 -0.1186 -0.5015 -0.6565
   16CHTO   O81 6398   6.765   3.569   0.511 -0.2181  0.0353 -0.9495
   16CHTO  H202 6399   6.856   3.567   0.535 -0.2801 -1.1712 -0.8060
   16CHTO  C119 6400   6.727   3.526   0.750  0.4296 -0.2763  0.1330
   16CHTO  H223 6401   6.668   3.474   0.826  0.3960 -0.3829  0.0344
   16CHTO  C117 6402   6.694   3.676   0.788  0.0076 -0.0941  0.1854
   16CHTO  H221 6403   6.726   3.756   0.721  0.8688  1.2380  2.1267
   16CHTO   N20 6404   6.746   3.719   0.923 -0.6519 -0.8252  0.0103
   16CHTO  H209 6405   6.804   3.639   0.967 -0.2182  0.3968  1.7181
   16CHTO  H210 6406   6.793   3.816   0.923 -2.7113  0.2158 -1.9394
   16CHTO   O80 6407   6.861   3.486   0.780 -0.6989  0.3276 -0.1783
   16CHTO  C103 6408   6.913   3.341   0.766  0.2478 -0.1103  0.9601
   16CHTO  H190 6409   6.835   3.266   0.755  0.7370 -0.3399 -1.0986
   16CHTO  C101 6410   7.026   3.313   0.663 -0.7284  0.6446 -0.2513
   16CHTO  H188 6411   7.117   3.369   0.682 -0.5309 -0.0693  0.9744
   16CHTO   O68 6412   6.976   3.357   0.521  0.0374  0.2222 -0.6328
   16CHTO  H168 6413   6.915   3.296   0.485 -1.7082  2.4490 -1.6032
   16CHTO   C99 6414   7.074   3.159   0.662 -0.1089  0.0403 -0.5263
   16CHTO  H186 6415   6.989   3.094   0.631 -0.6004 -1.1913  3.1556
   16CHTO   N17 6416   7.193   3.130   0.577  0.5847  0.5213 -0.3163
   16CHTO  H174 6417   7.227   3.232   0.563 -0.2407  1.0256  1.1879
   16CHTO  H175 6418   7.165   3.083   0.484 -1.0193  2.0643 -0.6568
   16CHTO   C97 6419   7.091   3.121   0.810 -0.2709  0.9761  0.5725
   16CHTO  H184 6420   7.192   3.149   0.845 -0.8297 -0.6846  3.6936
   16CHTO   O64 6421   6.993   3.163   0.902 -0.5734 -0.2412 -0.1454
   16CHTO  C104 6422   6.977   3.308   0.911  0.1238  0.3247  0.3901
   16CHTO  H191 6423   7.075   3.355   0.925  0.1564  0.6666 -0.9041
   16CHTO  C108 6424   6.892   3.338   1.032 -0.3159 -0.2825 -0.1783
   16CHTO   O71 6425   6.761   3.273   1.024  0.1289 -0.2087 -0.4527
   16CHTO  H171 6426   6.781   3.187   0.992  1.7265  0.2457 -0.7530
   16CHTO   O62 6427   7.071   2.976   0.813 -0.4500  0.2320  0.0968
   16CHTO   C91 6428   7.098   2.906   0.937  0.3435  0.2275 -0.3735
   16CHTO  H178 6429   7.125   2.975   1.018  0.4537  0.7703 -0.8671
   16CHTO   C92 6430   7.228   2.816   0.914 -0.5871 -0.4589  0.5280
   16CHTO  H179 6431   7.217   2.748   0.829 -1.2412  0.3013 -0.0017
   16CHTO   O66 6432   7.334   2.903   0.868  0.1701  0.0955 -0.7551
   16CHTO  H166 6433   7.402   2.849   0.832 -0.6044 -2.0552  0.9185
   16CHTO   C93 6434   7.259   2.730   1.044 -0.0957 -0.2237  1.1503
   16CHTO  H180 6435   7.297   2.807   1.114  0.0262  0.6838  0.0962
   16CHTO   N16 6436   7.376   2.640   1.032 -0.1894 -0.5003  0.1271
   16CHTO  H172 6437   7.352   2.542   0.995  0.3358 -0.8497  0.7213
   16CHTO  H173 6438   7.421   2.635   1.130  0.6194  1.7627 -0.0920
   16CHTO   C94 6439   7.136   2.657   1.100 -0.2415 -0.0182 -0.2449
   16CHTO  H181 6440   7.093   2.584   1.032  1.5736 -0.9843 -0.3833
   16CHTO   O61 6441   7.033   2.758   1.122 -0.0239  0.4469 -0.0749
   16CHTO   C95 6442   6.987   2.815   1.000 -0.8356  0.6305  0.9615
   16CHTO  H182 6443   6.955   2.733   0.936  1.7127 -0.0269  0.4475
   16CHTO  C106 6444   6.864   2.890   1.040 -0.1489  0.1790  0.4473
   16CHTO   O69 6445   6.813   2.959   0.917 -0.1788  0.2138  0.2591
   16CHTO  H169 6446   6.872   3.025   0.886  1.2189 -1.4977 -0.7975
   16CHTO   O63 6447   7.174   2.575   1.253 -0.1409 -0.0603  0.0373
   16CHTO   C96 6448   7.059   2.529   1.350 -0.4732 -0.5701 -0.6894
   16CHTO  H183 6449   7.089   2.464   1.432  1.2239  3.4195  2.0303
   16CHTO   C98 6450   6.956   2.444   1.260  0.6528 -0.0179 -0.0235
   16CHTO  H185 6451   6.945   2.482   1.157  0.4580 -1.3302 -0.4937
   16CHTO   O67 6452   7.006   2.313   1.241  0.4327  0.0244  0.2206
   16CHTO  H167 6453   7.022   2.268   1.322 -0.8260 -0.8110  0.0116
   16CHTO  C102 6454   6.810   2.435   1.330  0.1804 -0.4300 -0.0993
   16CHTO  H189 6455   6.830   2.390   1.429  0.6169  2.1033  1.0128
   16CHTO   N18 6456   6.712   2.342   1.273 -0.1318 -0.8411 -0.2012
   16CHTO  H176 6457   6.686   2.372   1.173  0.8509 -1.5076 -0.6692
   16CHTO  H177 6458   6.623   2.332   1.334  0.0821  0.5555  0.3539
   16CHTO  C105 6459   6.765   2.587   1.346  0.1781  0.4457 -0.2541
   16CHTO  H192 6460   6.783   2.637   1.250  0.5083  0.2860 -0.2772
   16CHTO   O65 6461   6.848   2.653   1.439  0.3563 -0.8563  0.0218
   16CHTO  C100 6462   6.985   2.662   1.411  0.0528  0.5402 -0.4140
   16CHTO  H187 6463   7.002   2.747   1.343  1.6079  1.2385  0.8174
   16CHTO  C107 6464   7.043   2.710   1.536  0.5068  0.0572 -0.1009
   16CHTO   O70 6465   7.046   2.613   1.645  0.4518  0.1419 -0.1018
   16CHTO  H170 6466   7.101   2.648   1.713 -0.2148  0.6879  0.1616
   16CHTO   O57 6467   6.609   2.606   1.394 -0.1752 -0.5656  0.0521
   16CHTO   C85 6468   6.522   2.694   1.314 -0.6169  0.1566 -0.1322
   16CHTO  H157 6469   6.551   2.670   1.209  0.4561  1.1510 -0.0780
   16CHTO   C83 6470   6.571   2.832   1.342  0.0333  0.0067  0.2227
   16CHTO  H155 6471   6.677   2.838   1.316 -0.1679 -0.2324 -0.6588
   16CHTO   O56 6472   6.557   2.868   1.483 -0.2088  0.2315  0.9720
   16CHTO  H135 6473   6.480   2.833   1.524  1.4431 -0.8386  3.2567
   16CHTO   C81 6474   6.491   2.931   1.246 -0.4891  0.0018 -0.0901
   16CHTO  H153 6475   6.498   2.900   1.142 -0.6515  0.6908 -0.3107
   16CHTO   N14 6476   6.560   3.065   1.245  0.1129 -0.2608  0.7512
   16CHTO  H141 6477   6.544   3.116   1.338  4.0546 -0.3589  1.5746
   16CHTO  H142 6478   6.517   3.118   1.163  0.8308 -3.4831 -1.8093
   16CHTO   C79 6479   6.338   2.933   1.283 -0.7589  0.0637 -1.1155
   16CHTO  H151 6480   6.284   2.993   1.210 -2.9570  0.0021  0.4089
   16CHTO   O52 6481   6.294   2.791   1.270 -0.0819 -0.8698  0.0262
   16CHTO   C86 6482   6.358   2.688   1.340  0.1075  0.0476  0.1307
   16CHTO  H158 6483   6.340   2.693   1.449  2.5620  1.2318  0.5207
   16CHTO   C90 6484   6.316   2.546   1.289  0.2939 -0.1153 -0.0120
   16CHTO   O60 6485   6.181   2.528   1.327  0.3218 -0.2967 -0.1078
   16CHTO  H138 6486   6.162   2.438   1.346  1.3062 -0.5585 -0.3327
   16CHTO   O50 6487   6.303   2.984   1.417  0.1981  0.2591  0.1551
   16CHTO   C73 6488   6.190   2.986   1.499 -0.2993 -0.3219 -0.7027
   16CHTO  H145 6489   6.169   2.882   1.527  1.2381 -0.8310 -1.4159
   16CHTO   C74 6490   6.068   3.047   1.421  0.1516 -0.0708 -0.3443
   16CHTO  H146 6491   6.059   2.989   1.328  2.7594 -3.3630  1.3592
   16CHTO   O54 6492   5.952   3.022   1.494  0.0518 -0.1611  0.1144
   16CHTO  H133 6493   5.877   3.051   1.445  1.1635  2.4131 -0.1445
   16CHTO   C75 6494   6.102   3.201   1.393 -0.6581  0.2448 -0.0082
   16CHTO  H147 6495   6.188   3.209   1.326 -1.0696  1.3144 -0.4213
   16CHTO   N13 6496   5.982   3.280   1.340 -0.6755  0.4381  0.2907
   16CHTO  H139 6497   5.969   3.378   1.383  1.1730  0.4873  0.7509
   16CHTO  H140 6498   5.974   3.297   1.233 -1.6507 -1.6873 -0.0073
   16CHTO   C76 6499   6.152   3.272   1.531 -0.2346 -0.1222 -0.4972
   16CHTO  H148 6500   6.063   3.277   1.595  0.5094  0.1779  0.5295
   16CHTO   O49 6501   6.259   3.200   1.587 -0.0322  0.2150 -0.0971
   16CHTO   C77 6502   6.225   3.067   1.625  0.5609 -0.0963  0.5548
   16CHTO  H149 6503   6.138   3.066   1.691  1.4551  0.3853  1.7635
   16CHTO   C88 6504   6.348   3.014   1.704  0.2995  0.1932 -0.1265
   16CHTO   O58 6505   6.474   3.058   1.668 -0.3093  0.1742 -0.0061
   16CHTO  H136 6506   6.535   2.997   1.705  1.1957  1.5477 -0.1606
   16CHTO   O51 6507   6.212   3.444   1.501 -0.1954 -0.6595 -0.6096
   16CHTO   C78 6508   6.148   3.540   1.600  0.2497 -0.6117 -0.1393
   16CHTO  H150 6509   6.086   3.485   1.673 -2.4145  1.8166 -0.4915
   16CHTO   C80 6510   6.048   3.645   1.533 -0.2860 -0.2153 -0.6210
   16CHTO  H152 6511   6.099   3.689   1.444  1.2234 -0.9101 -0.1101
   16CHTO   O55 6512   5.946   3.578   1.465  0.2165 -0.5406  0.2447
   16CHTO  H134 6513   5.921   3.503   1.517 -1.0049  1.3600  2.4892
   16CHTO   C84 6514   5.993   3.744   1.638  0.8504 -0.2713 -0.2791
   16CHTO  H156 6515   5.954   3.682   1.718 -0.4848 -0.3135 -0.9496
   16CHTO   N15 6516   5.886   3.835   1.580  0.1019 -0.3928 -0.2952
   16CHTO  H143 6517   5.866   3.910   1.654 -2.2498 -0.6419 -0.6532
   16CHTO  H144 6518   5.796   3.788   1.548 -0.0763 -0.0676 -0.2750
   16CHTO   C87 6519   6.111   3.827   1.685 -0.6175 -0.6427  0.7580
   16CHTO  H159 6520   6.164   3.865   1.597  1.0980 -0.3929  1.8780
   16CHTO   O53 6521   6.199   3.714   1.771  0.6605 -0.0473 -0.1832
   16CHTO   C82 6522   6.258   3.619   1.682  0.0637 -0.2254 -0.3847
   16CHTO  H154 6523   6.329   3.670   1.617  1.3509  0.1943  1.3226
   16CHTO   C89 6524   6.341   3.513   1.765  0.0483 -0.0341 -0.3377
   16CHTO   O59 6525   6.445   3.441   1.697 -0.6693  0.5264 -0.2624
   16CHTO  H137 6526   6.524   3.489   1.710  0.7944 -1.7191 -0.5934
   16CHTO   O45 6527   6.083   3.941   1.796  0.0966 -0.0542 -0.0165
   16CHTO   C67 6528   6.198   4.012   1.840  0.2157  0.4573 -0.6504
   16CHTO  H124 6529   6.288   3.961   1.808  0.9604  1.1905  0.2761
   16CHTO   C65 6530   6.205   4.166   1.790  0.7089  0.3067 -0.3906
   16CHTO  H122 6531   6.106   4.202   1.761 -0.2227 -0.5636  1.5738
   16CHTO   O44 6532   6.279   4.153   1.673 -0.0082  0.6083  0.1680
   16CHTO  H102 6533   6.249   4.202   1.598  1.7165  0.3293 -0.7363
   16CHTO   C63 6534   6.251   4.264   1.907 -0.3383  0.2262  0.3937
   16CHTO  H120 6535   6.170   4.276   1.978 -0.8476  0.1814 -0.1709
   16CHTO   N11 6536   6.255   4.403   1.850 -0.0335  0.3535  0.3904
   16CHTO  H108 6537   6.323   4.467   1.903 -0.2878 -0.0808  1.2571
   16CHTO  H109 6538   6.155   4.440   1.856  0.1820  0.8908  0.7458
   16CHTO   C61 6539   6.363   4.196   1.991 -0.0853 -0.0254 -0.3449
   16CHTO  H118 6540   6.386   4.267   2.072  3.0929  2.0139 -2.8865
   16CHTO   O40 6541   6.315   4.067   2.055 -0.5463 -0.2050 -0.4441
   16CHTO   C68 6542   6.194   4.002   2.004 -0.1503  0.2842 -0.5851
   16CHTO  H125 6543   6.104   4.060   2.033 -0.2631 -0.4493  0.5744
   16CHTO   C72 6544   6.188   3.861   2.068  0.4746  0.6613  0.2123
   16CHTO   O48 6545   6.068   3.784   2.078 -0.5388 -0.1854 -0.3724
   16CHTO  H105 6546   6.000   3.829   2.125  1.3902  1.7330  0.6528
   16CHTO   O38 6547   6.483   4.180   1.908  0.4279  0.0512  0.0450
   16CHTO   C55 6548   6.589   4.101   1.954 -0.3839 -0.0168 -0.0140
   16CHTO  H112 6549   6.554   4.025   2.026 -0.2290 -1.3124 -1.2824
   16CHTO   C56 6550   6.702   4.195   2.020 -0.5294  0.3256 -0.0757
   16CHTO  H113 6551   6.715   4.267   1.937 -3.3066  1.8161  0.7226
   16CHTO   O42 6552   6.659   4.251   2.140  0.4020  0.0495 -0.1704
   16CHTO  H100 6553   6.722   4.306   2.182 -2.4686  3.0190  0.4207
   16CHTO   C57 6554   6.843   4.115   2.032 -0.1706  0.5935 -0.3414
   16CHTO  H114 6555   6.846   4.049   2.118 -1.8790 -0.3604 -0.9817
   16CHTO   N10 6556   6.959   4.208   2.039  0.0858  0.4556  0.1183
   16CHTO  H106 6557   6.954   4.297   1.978  1.4198 -0.0379 -0.7258
   16CHTO  H107 6558   6.985   4.236   2.140  0.6591  0.7961 -0.1229
   16CHTO   C58 6559   6.865   4.024   1.907  0.1746  0.5304 -0.2669
   16CHTO  H115 6560   6.882   4.088   1.818 -0.3883 -1.8639 -2.1427
   16CHTO   O37 6561   6.754   3.933   1.885 -0.0085 -0.3735  0.0348
   16CHTO   C59 6562   6.641   4.008   1.835 -0.4651 -0.9678  0.0605
   16CHTO  H116 6563   6.658   4.075   1.751  0.5698 -0.0042  1.0255
   16CHTO   C70 6564   6.540   3.907   1.782 -0.2945 -0.1948  0.0726
   16CHTO   O46 6565   6.504   3.804   1.875 -0.1299  0.0104  0.4037
   16CHTO  H103 6566   6.415   3.816   1.902 -0.8470  0.0312 -1.9258
   16CHTO   O39 6567   7.005   3.921   1.919 -0.1114  0.2342 -0.1583
   16CHTO   C60 6568   7.027   3.851   1.799  0.2368  0.1709  0.1415
   16CHTO  H117 6569   6.945   3.876   1.731 -0.4979  0.9462  1.3025
   16CHTO   C62 6570   7.151   3.907   1.727 -0.0506 -0.0072  0.0825
   16CHTO  H119 6571   7.131   4.015   1.712  0.3922 -0.2121 -2.1141
   16CHTO   O43 6572   7.264   3.883   1.806  0.6051  0.1393 -0.6761
   16CHTO  H101 6573   7.340   3.885   1.751  0.0791 -2.4668 -1.5993
   16CHTO   C66 6574   7.160   3.851   1.575 -0.2742 -0.4456 -0.1867
   16CHTO  H123 6575   7.070   3.886   1.526 -0.2285  0.9297  0.6856
   16CHTO   N12 6576   7.271   3.905   1.494  0.1845  0.0011  0.0340
   16CHTO  H110 6577   7.333   3.825   1.456  0.8127  0.2605  0.5114
   16CHTO  H111 6578   7.340   3.965   1.552 -2.0611  0.7047  2.0611
   16CHTO   C69 6579   7.164   3.691   1.583 -0.3484  0.0367 -0.4493
   16CHTO  H126 6580   7.258   3.663   1.635  0.9921  2.5216 -1.4341
   16CHTO   O41 6581   7.037   3.635   1.672 -0.1822 -0.2417  0.0096
   16CHTO   C64 6582   7.039   3.694   1.809 -0.4693  0.7345  0.0887
   16CHTO  H121 6583   7.126   3.656   1.866  0.1361 -0.7408 -1.7606
   16CHTO   C71 6584   6.907   3.634   1.869  0.0030  0.0031 -0.4058
   16CHTO   O47 6585   6.883   3.688   1.988 -0.0956  0.4301 -0.4571
   16CHTO  H104 6586   6.837   3.626   2.041  0.6694  1.2381  1.1888
   16CHTO   O34 6587   7.152   3.629   1.428 -0.3862  0.5908  0.0071
   16CHTO   C49 6588   7.265   3.531   1.364  0.3459 -0.0785 -0.1570
   16CHTO   H91 6589   7.312   3.585   1.282 -0.7371  1.1630  0.0260
   16CHTO   C47 6590   7.187   3.413   1.310  0.0475 -0.5186 -0.4660
   16CHTO   H89 6591   7.257   3.343   1.260 -0.2173 -1.8862  1.0660
   16CHTO   O33 6592   7.100   3.465   1.210  0.6393  0.4827 -0.2415
   16CHTO   H70 6593   7.058   3.397   1.161 -2.2174  0.3788  2.1576
   16CHTO   C45 6594   7.114   3.334   1.428  0.3769  0.0217 -0.1291
   16CHTO   H87 6595   7.051   3.405   1.484 -0.5610  1.7265 -3.2851
   16CHTO    N8 6596   7.013   3.235   1.383  0.2005  0.0662  0.3355
   16CHTO   H75 6597   6.935   3.296   1.339  1.3410  1.7666  0.6225
   16CHTO   H76 6598   7.047   3.151   1.324 -0.0767 -0.6197  1.1640
   16CHTO   C43 6599   7.224   3.285   1.535  0.1548  0.3386  0.5114
   16CHTO   H85 6600   7.168   3.247   1.621  1.0065 -0.6068  0.6583
   16CHTO   O29 6601   7.321   3.390   1.569  0.2547 -0.4640 -0.1350
   16CHTO   C50 6602   7.365   3.484   1.466 -0.4844 -0.0567 -0.1972
   16CHTO   H92 6603   7.415   3.569   1.513  1.4301 -1.2622  0.0039
   16CHTO   C54 6604   7.483   3.418   1.397 -0.6139 -0.0043  0.3034
   16CHTO   O36 6605   7.582   3.512   1.344  0.0700  0.7741 -0.1180
   16CHTO   H72 6606   7.551   3.554   1.267 -1.9348 -1.3370 -0.5268
   16CHTO   O27 6607   7.296   3.168   1.491  0.2920 -0.2184  0.1226
   16CHTO   C37 6608   7.376   3.069   1.548 -0.5016 -0.5982  0.5472
   16CHTO   H79 6609   7.480   3.104   1.542  0.1855 -1.9405  3.7682
   16CHTO   C38 6610   7.350   3.051   1.700  0.2233 -0.2537  0.0369
   16CHTO   H80 6611   7.242   3.035   1.712 -0.0849  2.2936  1.0806
   16CHTO   O31 6612   7.390   3.166   1.775 -0.8501  0.1071  0.0740
   16CHTO   H68 6613   7.352   3.245   1.740  1.8084  0.8315 -1.3007
   16CHTO   C39 6614   7.431   2.929   1.758 -0.2987 -0.0685  0.2100
   16CHTO   H81 6615   7.536   2.959   1.757 -0.1596 -0.5461  0.5115
   16CHTO    N7 6616   7.399   2.891   1.903  0.6499  0.1878 -0.9453
   16CHTO   H73 6617   7.464   2.809   1.926 -2.5272 -2.1964 -0.1471
   16CHTO   H74 6618   7.431   2.971   1.968  0.7130 -1.3054  0.9001
   16CHTO   C40 6619   7.414   2.802   1.659 -0.3249  0.3015  0.9446
   16CHTO   H82 6620   7.308   2.780   1.671 -0.3596  1.6616  3.4895
   16CHTO   O26 6621   7.450   2.833   1.522  0.3336 -0.8440  0.0732
   16CHTO   C41 6622   7.363   2.937   1.459  0.4283 -0.8036 -0.3139
   16CHTO   H83 6623   7.257   2.908   1.455 -0.1035  0.9426  0.6756
   16CHTO   C52 6624   7.420   2.956   1.317 -0.0936 -0.0224  0.3225
   16CHTO   O35 6625   7.339   3.060   1.220 -0.2473  0.0942 -0.3725
   16CHTO   H71 6626   7.281   3.017   1.161  0.2687  0.3935 -1.1181
   16CHTO   O28 6627   7.516   2.702   1.690  0.1485 -0.5927  0.7164
   16CHTO   C42 6628   7.497   2.548   1.680  0.4366 -0.2385  0.5490
   16CHTO   H84 6629   7.591   2.508   1.719  1.3066  0.9202 -0.3334
   16CHTO   C44 6630   7.487   2.498   1.535 -0.2503  0.4926 -0.0689
   16CHTO   H86 6631   7.403   2.552   1.490  0.8408  1.2053 -1.2779
   16CHTO   O32 6632   7.607   2.532   1.465 -0.0779 -0.0690 -0.3752
   16CHTO   H69 6633   7.620   2.625   1.466  0.1541 -0.1030 -0.0628
   16CHTO   C48 6634   7.454   2.347   1.528 -0.1982  0.0957 -0.2247
   16CHTO   H90 6635   7.550   2.303   1.554 -0.3919 -1.2432 -1.6901
   16CHTO    N9 6636   7.426   2.292   1.394  0.3008 -0.1799 -0.5009
   16CHTO   H77 6637   7.429   2.185   1.383  0.6195 -0.0151 -2.0527
   16CHTO   H78 6638   7.481   2.346   1.319  1.0135  1.9635  1.4723
   16CHTO   C51 6639   7.355   2.300   1.641 -0.0305  0.3485 -0.1218
   16CHTO   H93 6640   7.255   2.330   1.609 -0.6884 -0.9674  0.6769
   16CHTO   O30 6641   7.389   2.346   1.769  0.2062 -0.0414 -0.0691
   16CHTO   C46 6642   7.382   2.501   1.779 -0.1054 -0.8542 -0.5222
   16CHTO   H88 6643   7.285   2.536   1.746  0.1821  0.1937 -0.2873
   16CHTO   C53 6644   7.418   2.538   1.931 -0.5400 -0.1538 -0.2429
   16CHTO   O72 6645   7.302   2.516   2.014 -0.0094 -0.1961  0.1744
   16CHTO  H199 6646   7.303   2.564   2.095  0.8781  1.8705 -1.0195
   16CHTO   O22 6647   7.351   2.161   1.664 -0.3246  0.2476 -0.0650
   16CHTO   C31 6648   7.214   2.097   1.685  0.0799  0.3434  0.1048
   16CHTO   H59 6649   7.153   2.175   1.736  0.4668  0.4378  0.4292
   16CHTO   C29 6650   7.131   2.049   1.563 -0.5333 -0.5633  0.2332
   16CHTO   H57 6651   7.185   1.984   1.493 -0.2170  0.9509 -0.9550
   16CHTO   O21 6652   7.112   2.173   1.482 -0.1224 -0.0695  0.1651
   16CHTO   H37 6653   7.056   2.172   1.406 -1.2457 -1.3041  1.0080
   16CHTO   C27 6654   6.992   1.982   1.598 -0.3958 -0.1050 -0.0902
   16CHTO   H55 6655   6.933   2.057   1.653  1.4087  2.2251 -1.2550
   16CHTO    N5 6656   6.919   1.938   1.473  0.2533 -0.3756 -1.0326
   16CHTO   H43 6657   6.898   1.832   1.482  0.2154 -0.4541 -1.9899
   16CHTO   H44 6658   6.973   1.970   1.385 -1.2315 -1.4482 -2.3745
   16CHTO   C25 6659   7.015   1.872   1.705  1.0423 -0.0472  0.3079
   16CHTO   H53 6660   7.080   1.802   1.652 -0.0398  0.0297 -1.1614
   16CHTO   O17 6661   7.080   1.927   1.819 -0.0557  0.3760 -0.4789
   16CHTO   C32 6662   7.213   1.978   1.792  0.6063 -0.2335 -1.0903
   16CHTO   H60 6663   7.272   1.892   1.760  0.3324 -0.5840 -0.6796
   16CHTO   C36 6664   7.272   2.044   1.917  0.4142 -0.0369 -0.0106
   16CHTO   O25 6665   7.303   1.937   2.016 -0.3260  0.2571  0.3183
   16CHTO   H40 6666   7.224   1.889   2.032  0.1211 -0.3683  0.6875
   16CHTO   O15 6667   6.885   1.801   1.753 -0.2263  0.4308  0.1839
   16CHTO   C19 6668   6.768   1.808   1.834 -0.0540 -0.0664 -0.0852
   16CHTO   H47 6669   6.758   1.705   1.871 -0.4054  0.5232  1.4807
   16CHTO   C20 6670   6.791   1.910   1.956  0.7797  0.2413 -0.2315
   16CHTO   H48 6671   6.819   2.011   1.926  2.8594  0.1886  1.4479
   16CHTO   O19 6672   6.904   1.873   2.028  0.1780 -0.3732  0.7011
   16CHTO   H35 6673   6.985   1.880   1.981  0.0834 -0.8859  0.4539
   16CHTO   C21 6674   6.657   1.911   2.050 -0.2834 -0.0102 -0.0720
   16CHTO   H49 6675   6.646   1.811   2.092  0.6991 -1.3967 -2.9981
   16CHTO    N4 6676   6.667   2.004   2.164  0.0949 -0.4712  0.8128
   16CHTO   H41 6677   6.747   1.972   2.230  0.2802  1.0444  1.3290
   16CHTO   H42 6678   6.706   2.090   2.111 -1.3592 -0.5764 -0.4554
   16CHTO   C22 6679   6.539   1.939   1.953  0.4431  0.5259 -0.1776
   16CHTO   H50 6680   6.558   2.038   1.912  0.2523 -0.0971 -1.8434
   16CHTO   O14 6681   6.535   1.843   1.844  0.2272  0.8481 -0.8404
   16CHTO   C23 6682   6.644   1.849   1.755 -0.1329  0.0579  0.2275
   16CHTO   H51 6683   6.654   1.953   1.723  3.0337 -0.4451 -0.5722
   16CHTO   C34 6684   6.622   1.758   1.633  0.1071 -0.2617 -0.2448
   16CHTO   O23 6685   6.529   1.797   1.529  0.0107  0.1336 -0.1011
   16CHTO   H38 6686   6.564   1.867   1.477  2.6942 -1.9250 -1.2273
   16CHTO   O16 6687   6.414   1.927   2.024  0.2014 -0.9828  0.1186
   16CHTO   C24 6688   6.304   2.037   1.960 -0.0184  0.0532  0.5526
   16CHTO   H52 6689   6.328   2.063   1.857 -1.0958 -0.8995  0.0475
   16CHTO   C26 6690   6.282   2.157   2.055 -0.1689  0.0729  0.0519
   16CHTO   H54 6691   6.279   2.114   2.157 -0.0940 -3.6433 -1.4501
   16CHTO   O20 6692   6.401   2.243   2.047  0.0898 -0.0978 -0.5080
   16CHTO   H36 6693   6.407   2.281   1.961 -4.6040  2.4199  0.0904
   16CHTO   C30 6694   6.159   2.246   2.022  0.7971  0.5858 -0.2259
   16CHTO   H58 6695   6.170   2.286   1.920 -1.1335  1.7679  0.0057
   16CHTO    N6 6696   6.135   2.357   2.112  0.3163  0.2125  0.6819
   16CHTO   H45 6697   6.202   2.438   2.089 -0.2348 -0.0074 -1.7641
   16CHTO   H46 6698   6.034   2.396   2.112  1.2640  2.7757 -0.4357
   16CHTO   C33 6699   6.038   2.144   2.016 -0.1113 -0.0974 -0.2168
   16CHTO   H61 6700   6.033   2.097   2.116  1.8727 -0.6875 -0.3858
   16CHTO   O18 6701   6.071   2.046   1.919  0.0555 -0.9971  0.5084
   16CHTO   C28 6702   6.176   1.957   1.951  0.3376 -0.0154  0.0739
   16CHTO   H56 6703   6.154   1.900   2.041  0.2250 -0.5102 -0.2665
   16CHTO   C35 6704   6.186   1.861   1.832 -0.3020  0.3489 -0.5885
   16CHTO   O24 6705   6.072   1.775   1.840 -0.3468  0.0789  0.5742
   16CHTO   H39 6706   6.076   1.716   1.913 -1.0438  0.0082  0.5564
   16CHTO    O9 6707   5.909   2.206   1.990  0.2824 -0.0203  0.4851
   16CHTO   C13 6708   5.789   2.175   2.095  1.0248 -0.3252 -0.3254
   16CHTO   H26 6709   5.823   2.187   2.200 -1.2155 -2.5787  0.7111
   16CHTO   C11 6710   5.745   2.021   2.058  0.1316 -0.0514  0.3082
   16CHTO   H24 6711   5.824   1.960   2.104  0.8113  1.5478  1.3155
   16CHTO    O8 6712   5.759   1.988   1.918 -0.1793 -0.2869 -0.3811
   16CHTO    H3 6713   5.775   1.898   1.898 -0.0123 -0.0980 -1.0918
   16CHTO    C9 6714   5.606   1.994   2.123  1.2626  0.7488 -0.5951
   16CHTO   H22 6715   5.618   2.022   2.228 -0.0851 -1.0341  0.0637
   16CHTO    N2 6716   5.555   1.856   2.122 -0.4585  0.6507  0.7430
   16CHTO   H10 6717   5.575   1.832   2.019  1.0703 -2.4894  1.6880
   16CHTO   H11 6718   5.614   1.794   2.189 -0.3592  1.1658  1.1347
   16CHTO    C7 6719   5.507   2.091   2.046 -0.1216 -0.1896  0.0515
   16CHTO   H20 6720   5.438   2.117   2.130 -0.5181  1.0110 -0.6435
   16CHTO    O4 6721   5.555   2.220   2.007 -0.2462  0.0635  0.2803
   16CHTO   C14 6722   5.665   2.275   2.079 -0.5250  1.0507 -0.1384
   16CHTO   H27 6723   5.633   2.318   2.176  1.0830 -0.3229  1.0367
   16CHTO   C18 6724   5.704   2.390   1.993  0.3017 -0.3304  0.1984
   16CHTO   O13 6725   5.813   2.462   2.042 -0.2763  0.0157 -0.1103
   16CHTO    H7 6726   5.865   2.494   1.971  0.3762  0.1957  0.4388
   16CHTO    O2 6727   5.431   2.015   1.904 -0.2429  0.1115 -0.6586
   16CHTO    C1 6728   5.303   2.063   1.867  0.4424  0.1797  0.2912
   16CHTO   H14 6729   5.263   1.985   1.799  1.1323  1.1885 -1.3126
   16CHTO    C2 6730   5.303   2.195   1.787 -0.3443  0.5303  0.0016
   16CHTO   H15 6731   5.350   2.278   1.842  3.4510 -0.2672 -1.8628
   16CHTO    O6 6732   5.377   2.172   1.663  0.1276 -0.2265 -0.3244
   16CHTO    H1 6733   5.363   2.244   1.605  0.3939 -2.0196 -2.6961
   16CHTO    C3 6734   5.156   2.236   1.756 -0.1329 -0.4068  0.6169
   16CHTO   H16 6735   5.116   2.157   1.691  0.8994 -0.6685  0.2820
   16CHTO    N1 6736   5.149   2.372   1.691  1.0093  0.2640 -0.2152
   16CHTO    H8 6737   5.193   2.449   1.753 -0.2887 -1.2667  2.6977
   16CHTO    H9 6738   5.168   2.362   1.585  2.0329 -0.6858  0.0534
   16CHTO    C4 6739   5.065   2.231   1.882  0.1389 -0.3019 -0.6334
   16CHTO   H17 6740   5.091   2.316   1.944 -0.3835  0.0057 -0.8343
   16CHTO    O1 6741   5.078   2.101   1.952 -0.1670  0.3931 -0.2889
   16CHTO    C5 6742   5.213   2.070   1.993  0.9339 -0.5095 -0.2322
   16CHTO   H18 6743   5.250   2.141   2.067 -0.1674 -0.2638  0.1015
   16CHTO   C16 6744   5.199   1.937   2.078  0.3895 -0.2594  0.1610
   16CHTO   O11 6745   5.173   1.817   2.011 -0.0283 -0.2297 -0.4758
   16CHTO    H5 6746   5.203   1.807   1.923  0.9091  1.2675 -0.3256
   16CHTO    O3 6747   4.928   2.248   1.849 -0.1833 -0.0829 -0.9990
   16CHTO    C6 6748   4.840   2.273   1.959 -0.0441 -0.3345  0.2803
   16CHTO   H19 6749   4.896   2.275   2.053  0.6872  2.9352 -0.1635
   16CHTO    C8 6750   4.779   2.406   1.921  0.4668  0.6988 -0.0760
   16CHTO   H21 6751   4.752   2.405   1.815 -1.0091 -1.7063  0.2828
   16CHTO    O7 6752   4.883   2.507   1.925 -0.0799  0.4242 -0.3264
   16CHTO    H2 6753   4.853   2.586   1.965  1.5690 -0.4121  2.6656
   16CHTO   C12 6754   4.649   2.441   2.010  0.2443 -0.2739  0.0566
   16CHTO   H25 6755   4.666   2.464   2.118  1.0276 -0.7934  0.0444
   16CHTO    N3 6756   4.576   2.560   1.947 -0.0056 -0.1975  0.9137
   16CHTO   H12 6757   4.473   2.571   1.975  0.4349  2.7614  1.6210
   16CHTO   H13 6758   4.630   2.654   1.938  3.3505 -1.9438  1.9838
   16CHTO   C15 6759   4.552   2.315   2.011  0.5349  0.4152 -0.3112
   16CHTO   H28 6760   4.495   2.291   1.921  1.0002  0.0215 -0.5053
   16CHTO   O10 6761   4.435   2.340   2.128  0.5687 -0.6895  0.2910
   16CHTO    H4 6762   4.481   2.372   2.204 -1.1628  0.5264  0.8709
   16CHTO    O5 6763   4.624   2.204   2.055 -0.4337 -0.2555  0.3969
   16CHTO   C10 6764   4.733   2.161   1.969 -0.3065  0.7908 -0.1999
   16CHTO   H23 6765   4.697   2.129   1.871  0.6284  1.1831 -0.6730
   16CHTO   C17 6766   4.796   2.039   2.033  0.0799 -0.0270  0.4576
   16CHTO   O12 6767   4.708   1.926   2.037 -0.2052  0.1640  0.7556
   16CHTO    H6 6768   4.641   1.940   2.101 -0.7660 -0.6085  0.3440
   17CHTO  H203 6769   5.682   4.434   0.701  0.5284  1.4433 -0.3025
   17CHTO   O82 6770   5.665   4.454   0.791 -0.0456  0.6441 -0.2262
   17CHTO  C123 6771   5.530   4.516   0.795  0.3796  0.6254 -0.1975
   17CHTO  H227 6772   5.460   4.435   0.820  1.0815  0.1424  0.1958
   17CHTO   O77 6773   5.540   4.616   0.903 -0.3541  0.2365  0.2517
   17CHTO  C118 6774   5.421   4.692   0.930 -0.1505  0.5166  0.3108
   17CHTO  H222 6775   5.333   4.626   0.929  1.2793 -1.4067 -0.4442
   17CHTO  C125 6776   5.430   4.762   1.082  0.2042  0.3848 -0.2391
   17CHTO   O84 6777   5.454   4.658   1.181  0.2977  0.0419 -0.0335
   17CHTO  H205 6778   5.483   4.681   1.266 -2.1383 -1.7070  1.3491
   17CHTO  C114 6779   5.404   4.789   0.814  0.2896  0.3401 -0.6177
   17CHTO  H218 6780   5.494   4.849   0.800 -2.0618  3.8981 -1.3167
   17CHTO  C116 6781   5.377   4.705   0.687  0.1209  0.1638  0.1809
   17CHTO  H220 6782   5.274   4.665   0.689  1.0653 -2.3479  1.3717
   17CHTO   O79 6783   5.384   4.800   0.572 -0.3350 -0.0028  0.1669
   17CHTO  H201 6784   5.333   4.767   0.500 -1.2235  1.9426 -0.1136
   17CHTO  C120 6785   5.491   4.591   0.663 -0.1722 -0.5123  0.0048
   17CHTO  H224 6786   5.581   4.648   0.632 -0.4281  0.2187  0.5871
   17CHTO   N21 6787   5.455   4.498   0.550 -0.3645  0.3042 -0.6164
   17CHTO  H211 6788   5.541   4.458   0.499 -1.0528 -2.1156  0.0748
   17CHTO  H212 6789   5.392   4.539   0.472 -2.5485  0.6179  1.2861
   17CHTO   O75 6790   5.295   4.876   0.851 -0.4389 -0.5641  0.6691
   17CHTO  C112 6791   5.247   5.012   0.760 -0.4820  0.2303  0.1417
   17CHTO  H216 6792   5.175   4.971   0.688 -1.1185 -0.1078  0.9629
   17CHTO   O73 6793   5.363   5.066   0.696 -0.0959  0.1891 -0.1326
   17CHTO  C113 6794   5.343   5.185   0.613  0.1467  0.5243 -0.1914
   17CHTO  H217 6795   5.262   5.156   0.543 -0.7539 -2.4407  1.9485
   17CHTO  C124 6796   5.475   5.223   0.539 -0.3113 -0.1467  0.8152
   17CHTO   O83 6797   5.532   5.131   0.441 -0.5365  0.4933 -0.2968
   17CHTO  H204 6798   5.615   5.112   0.479 -0.3515  1.0020 -0.4453
   17CHTO  C109 6799   5.277   5.302   0.689  0.0139 -0.4538  0.3616
   17CHTO  H213 6800   5.349   5.345   0.761  2.1098 -0.0921 -1.9082
   17CHTO  C110 6801   5.150   5.248   0.771 -0.6618  0.2889 -0.1407
   17CHTO  H214 6802   5.059   5.231   0.713 -2.3703  2.0325  1.9110
   17CHTO   O78 6803   5.107   5.356   0.855  0.0400  0.0977  0.3221
   17CHTO  H200 6804   5.030   5.395   0.819 -0.3945 -0.3657  0.7313
   17CHTO  C111 6805   5.190   5.124   0.850  0.0488  0.1301  0.6042
   17CHTO  H215 6806   5.266   5.151   0.926 -1.7290  0.7504  2.2112
   17CHTO   N19 6807   5.077   5.071   0.932  0.0997  0.1925  0.5840
   17CHTO  H207 6808   5.066   5.121   1.027  0.3595 -0.5056  0.9854
   17CHTO  H208 6809   4.989   5.069   0.870  0.0470  0.2141  0.6581
   17CHTO   O74 6810   5.239   5.408   0.603  0.6170 -0.5130 -0.2662
   17CHTO  C115 6811   5.274   5.562   0.657 -0.0914 -0.9533  0.3605
   17CHTO  H219 6812   5.215   5.587   0.746  0.6955 -0.3095  0.7021
   17CHTO   O76 6813   5.423   5.568   0.729  0.5420  0.4113 -0.6354
   17CHTO  C122 6814   5.524   5.587   0.633 -0.5103  0.2937  0.1294
   17CHTO  H226 6815   5.516   5.508   0.558  0.4252 -0.0439  0.3739
   17CHTO  C126 6816   5.676   5.575   0.694 -0.0006  0.0534 -0.6200
   17CHTO   O85 6817   5.720   5.681   0.783 -0.3391 -0.2831  0.0363
   17CHTO  H206 6818   5.768   5.635   0.849  0.9704 -0.1848 -0.8313
   17CHTO  C121 6819   5.517   5.730   0.563 -0.3944  0.4548  0.1881
   17CHTO  H225 6820   5.575   5.806   0.620  0.8250  1.1575 -1.9114
   17CHTO   O81 6821   5.575   5.725   0.428  0.2355  0.1782 -0.1936
   17CHTO  H202 6822   5.515   5.753   0.362 -2.2504 -3.4625  0.3719
   17CHTO  C119 6823   5.370   5.778   0.559  0.9374 -0.9789  0.1918
   17CHTO  H223 6824   5.343   5.820   0.656 -0.9703 -1.0997 -0.2836
   17CHTO  C117 6825   5.263   5.664   0.537  0.9101 -0.0734 -0.4472
   17CHTO  H221 6826   5.274   5.603   0.446 -1.5615  0.0645 -0.8581
   17CHTO   N20 6827   5.118   5.712   0.532 -0.2946 -0.4203 -0.1105
   17CHTO  H209 6828   5.106   5.808   0.485  2.9503  0.0549 -0.0744
   17CHTO  H210 6829   5.048   5.641   0.490  0.6100 -0.1547 -2.1038
   17CHTO   O80 6830   5.349   5.916   0.463 -0.6942 -0.7502 -0.4821
   17CHTO  C103 6831   5.404   6.039   0.503  0.3089 -0.3686 -0.3452
   17CHTO  H190 6832   5.421   6.038   0.611  0.2965 -2.0206 -0.3393
   17CHTO  C101 6833   5.536   6.093   0.427 -0.4059 -0.1862  0.4940
   17CHTO  H188 6834   5.541   6.069   0.321  1.3299 -0.6968  0.6634
   17CHTO   O68 6835   5.646   6.011   0.492  0.2140  0.4587 -0.4845
   17CHTO  H168 6836   5.734   6.043   0.492  0.1923  0.5316  0.1981
   17CHTO   C99 6837   5.559   6.245   0.448 -0.0994  0.0110 -0.0366
   17CHTO  H186 6838   5.578   6.261   0.556 -0.4142 -0.2863  0.0630
   17CHTO   N17 6839   5.684   6.294   0.378 -0.6377  0.2316  0.3219
   17CHTO  H174 6840   5.700   6.400   0.374 -0.8514  0.2533 -0.0005
   17CHTO  H175 6841   5.678   6.263   0.275 -0.1675 -1.2294  0.7251
   17CHTO   C97 6842   5.434   6.331   0.417 -0.6917  0.0052  0.3212
   17CHTO  H184 6843   5.413   6.324   0.309  0.8857  0.8214 -0.0480
   17CHTO   O64 6844   5.322   6.275   0.496 -0.1751 -0.4334 -0.1678
   17CHTO  C104 6845   5.287   6.138   0.471  0.4538 -0.6057 -0.9589
   17CHTO  H191 6846   5.262   6.120   0.367 -2.2699  0.7324 -0.5711
   17CHTO  C108 6847   5.161   6.098   0.555 -0.0814 -0.1018 -0.3623
   17CHTO   O71 6848   5.050   6.192   0.541  0.4591 -0.1521 -0.2090
   17CHTO  H171 6849   5.082   6.277   0.519 -0.5615  0.3817  0.3791
   17CHTO   O62 6850   5.442   6.474   0.458  0.2267  0.1016 -0.4628
   17CHTO   C91 6851   5.340   6.562   0.407 -0.3663  0.6551  0.4116
   17CHTO  H178 6852   5.277   6.503   0.340  0.6587 -0.2634  0.2372
   17CHTO   C92 6853   5.414   6.667   0.313 -0.5260 -0.2583 -0.1803
   17CHTO  H179 6854   5.485   6.621   0.242  2.9383  0.6028  2.6233
   17CHTO   O66 6855   5.310   6.734   0.236  0.7243  0.1392  0.1164
   17CHTO  H166 6856   5.340   6.808   0.188 -2.2927  2.1677  1.2139
   17CHTO   C93 6857   5.489   6.777   0.398 -0.4466 -0.9005  0.2054
   17CHTO  H180 6858   5.501   6.860   0.327  1.3698  1.2526  2.9673
   17CHTO   N16 6859   5.629   6.742   0.439  0.2660  0.4549  0.2068
   17CHTO  H172 6860   5.685   6.834   0.451  0.2110  0.9416 -2.9736
   17CHTO  H173 6861   5.679   6.680   0.366  0.0263  0.8831 -0.3199
   17CHTO   C94 6862   5.402   6.831   0.520  0.9944  0.2360 -0.3698
   17CHTO  H181 6863   5.442   6.794   0.615  0.8141  1.1448  0.0597
   17CHTO   O61 6864   5.265   6.785   0.498  0.4851  0.2265 -0.1668
   17CHTO   C95 6865   5.257   6.641   0.516  0.0585  0.0213 -0.6077
   17CHTO  H182 6866   5.307   6.622   0.610 -0.1619 -0.0316 -0.5027
   17CHTO  C106 6867   5.101   6.586   0.512 -0.1699 -0.3680 -0.5688
   17CHTO   O69 6868   5.018   6.651   0.609  0.0966  0.4892 -0.5773
   17CHTO  H169 6869   5.021   6.744   0.605  0.9652  0.4791 -0.2083
   17CHTO   O63 6870   5.415   6.967   0.515 -0.0147  0.0549  0.4357
   17CHTO   C96 6871   5.367   7.045   0.634 -0.9935 -0.3704 -1.0840
   17CHTO  H183 6872   5.379   6.974   0.716  1.9116 -0.1397 -1.2542
   17CHTO   C98 6873   5.227   7.090   0.644 -0.5279  0.1694 -0.1079
   17CHTO  H185 6874   5.208   7.141   0.548  2.1243  0.5477 -0.4664
   17CHTO   O67 6875   5.140   6.977   0.648  0.0602  0.5722  0.4042
   17CHTO  H167 6876   5.144   6.944   0.560 -0.0123 -1.9243  1.2942
   17CHTO  C102 6877   5.207   7.201   0.764  0.4280 -0.2797 -0.6681
   17CHTO  H189 6878   5.201   7.143   0.857 -1.0475 -0.1577 -0.6723
   17CHTO   N18 6879   5.078   7.277   0.753  0.5610  0.2848 -0.2765
   17CHTO  H176 6880   5.073   7.322   0.655 -0.4992 -2.3503 -1.4793
   17CHTO  H177 6881   5.066   7.351   0.830 -0.5125  1.2384 -1.3550
   17CHTO  C105 6882   5.321   7.299   0.779 -0.2605  0.3321 -0.6957
   17CHTO  H192 6883   5.314   7.378   0.704  1.5122  1.1224 -0.0599
   17CHTO   O65 6884   5.450   7.234   0.776  1.1023 -0.2867  0.0669
   17CHTO  C100 6885   5.472   7.161   0.656 -0.1832  0.8263  0.3271
   17CHTO  H187 6886   5.461   7.233   0.574 -0.1947  0.4759  0.0205
   17CHTO  C107 6887   5.618   7.118   0.662 -0.1858 -0.3427  0.0442
   17CHTO   O70 6888   5.721   7.213   0.690 -0.3931  0.7120 -0.5921
   17CHTO  H170 6889   5.710   7.248   0.776 -2.6341 -0.0273 -0.5598
   17CHTO   O57 6890   5.317   7.365   0.924 -0.1161  0.0525  0.3154
   17CHTO   C85 6891   5.361   7.503   0.950  0.0126 -0.2729  0.2180
   17CHTO  H157 6892   5.355   7.562   0.856  0.9193  1.4357  1.2143
   17CHTO   C83 6893   5.515   7.508   0.980 -0.2410  0.4229 -0.2078
   17CHTO  H155 6894   5.558   7.495   0.881 -0.6988  1.2539 -0.5176
   17CHTO   O56 6895   5.555   7.389   1.060  0.2795  0.4223 -0.1648
   17CHTO  H135 6896   5.546   7.310   1.009 -0.3857 -0.4056  1.2158
   17CHTO   C81 6897   5.553   7.640   1.043  0.5848 -0.2937  0.2740
   17CHTO  H153 6898   5.529   7.718   0.971 -0.2447 -1.7107 -1.0031
   17CHTO   N14 6899   5.699   7.658   1.074  0.0858  0.0457 -0.3399
   17CHTO  H141 6900   5.753   7.603   1.000  0.3123 -0.3200  0.0948
   17CHTO  H142 6901   5.711   7.601   1.163  0.7164 -1.2159 -1.2074
   17CHTO   C79 6902   5.470   7.671   1.170 -0.0564  0.2645  0.5000
   17CHTO  H151 6903   5.490   7.773   1.201 -1.7015  0.1252  2.1324
   17CHTO   O52 6904   5.318   7.670   1.138 -0.4929  0.3843  0.6704
   17CHTO   C86 6905   5.267   7.562   1.059  0.1893  0.6608 -0.8748
   17CHTO  H158 6906   5.249   7.484   1.136 -2.5796  1.6954 -0.4327
   17CHTO   C90 6907   5.125   7.594   1.002 -0.4364 -0.3893  0.3539
   17CHTO   O60 6908   5.017   7.569   1.097 -0.4176  0.0151 -0.3582
   17CHTO  H138 6909   4.947   7.511   1.074 -0.7694 -0.3547  1.5357
   17CHTO   O50 6910   5.498   7.582   1.276 -0.2246 -0.6611 -0.6949
   17CHTO   C73 6911   5.518   7.557   1.420 -1.0300 -0.5090  0.2697
   17CHTO  H145 6912   5.497   7.642   1.486  2.2660  0.9904 -0.4763
   17CHTO   C74 6913   5.670   7.536   1.446 -0.1260  0.5358  0.2321
   17CHTO  H146 6914   5.712   7.627   1.401 -2.5659  2.7724  2.2992
   17CHTO   O54 6915   5.689   7.542   1.583 -0.4824 -0.3482  0.3598
   17CHTO  H133 6916   5.729   7.465   1.619 -0.2512  0.6991  2.4207
   17CHTO   C75 6917   5.722   7.400   1.382 -0.3721 -0.2950 -0.4165
   17CHTO  H147 6918   5.718   7.403   1.272  0.7035  1.5790 -0.4142
   17CHTO   N13 6919   5.866   7.373   1.411  0.2506 -0.3564  0.3967
   17CHTO  H139 6920   5.878   7.377   1.518 -0.8676  0.7527  0.4893
   17CHTO  H140 6921   5.889   7.270   1.386 -0.5567 -0.7720  1.3260
   17CHTO   C76 6922   5.629   7.277   1.430  0.1099  0.2039 -0.0064
   17CHTO  H148 6923   5.645   7.255   1.535 -1.6651  0.7384  0.3849
   17CHTO   O49 6924   5.492   7.318   1.402  1.0801  0.2712 -0.0786
   17CHTO   C77 6925   5.439   7.430   1.468  0.6061  0.5379  0.1124
   17CHTO  H149 6926   5.449   7.419   1.575  0.9608 -1.4185 -0.1016
   17CHTO   C88 6927   5.287   7.434   1.433  0.1765  0.4635 -0.4408
   17CHTO   O58 6928   5.216   7.288   1.478 -0.5148  0.1052  0.1163
   17CHTO  H136 6929   5.123   7.303   1.474 -0.8569 -1.9852 -0.2902
   17CHTO   O51 6930   5.645   7.149   1.328 -0.0122 -0.4099 -0.0696
   17CHTO   C78 6931   5.536   7.044   1.338  0.5137 -0.7950  0.1883
   17CHTO  H150 6932   5.437   7.093   1.336  1.9237  2.1380 -0.5660
   17CHTO   C80 6933   5.539   6.959   1.463  0.3862 -0.8857  0.6973
   17CHTO  H152 6934   5.644   6.934   1.489  0.2129 -1.7880  0.5510
   17CHTO   O55 6935   5.498   7.040   1.577 -0.1455 -0.5382  0.4287
   17CHTO  H134 6936   5.417   7.088   1.566  1.3275  1.8978 -0.1577
   17CHTO   C84 6937   5.456   6.820   1.452 -0.4037  0.4470 -0.0010
   17CHTO  H156 6938   5.351   6.848   1.452 -0.1546  1.4055  0.2197
   17CHTO   N15 6939   5.464   6.726   1.561 -0.1052 -0.6302  0.2369
   17CHTO  H143 6940   5.372   6.671   1.558 -0.0886 -0.5812 -2.0610
   17CHTO  H144 6941   5.477   6.780   1.652 -0.8131 -1.7645  1.0306
   17CHTO   C87 6942   5.490   6.750   1.316 -0.0756  0.5541  0.6058
   17CHTO  H159 6943   5.594   6.724   1.298 -0.7689 -1.0851 -1.2995
   17CHTO   O53 6944   5.453   6.849   1.209  0.4116 -0.2432  0.1901
   17CHTO   C82 6945   5.544   6.962   1.206  0.7229  0.1524 -0.4587
   17CHTO  H154 6946   5.646   6.929   1.188  0.6131 -0.7991  0.5211
   17CHTO   C89 6947   5.499   7.036   1.080  0.3491  0.7214  0.4011
   17CHTO   O59 6948   5.374   7.102   1.093 -0.1349 -0.3037 -0.0154
   17CHTO  H137 6949   5.304   7.042   1.107 -1.7082  1.4378 -0.1673
   17CHTO   O45 6950   5.383   6.618   1.271 -0.0636  0.0704  0.0235
   17CHTO   C67 6951   5.248   6.607   1.314  0.2934  1.2874  0.0674
   17CHTO  H124 6952   5.247   6.629   1.421 -0.8747  0.7103  0.1790
   17CHTO   C65 6953   5.149   6.704   1.245 -0.1641 -0.2908  0.1224
   17CHTO  H122 6954   5.202   6.770   1.177  0.4192  0.6994  1.5336
   17CHTO   O44 6955   5.084   6.769   1.355 -0.8770 -0.1584  0.1833
   17CHTO  H102 6956   5.052   6.854   1.333  2.4478  1.0075 -0.5292
   17CHTO   C63 6957   5.052   6.621   1.151  0.2467 -0.9344 -0.4723
   17CHTO  H120 6958   5.104   6.577   1.066  0.6668  0.6648 -1.0618
   17CHTO   N11 6959   4.947   6.701   1.081 -0.7109  0.4488  0.4082
   17CHTO  H108 6960   4.873   6.735   1.152 -1.6517 -1.3549  0.3301
   17CHTO  H109 6961   4.895   6.654   1.000  2.0444  0.2297 -1.2719
   17CHTO   C61 6962   4.993   6.497   1.233  0.7096  0.2067 -0.7010
   17CHTO  H118 6963   4.944   6.431   1.160 -0.7627  1.2015 -0.6508
   17CHTO   O40 6964   5.085   6.423   1.310  0.6031 -0.2090 -0.4696
   17CHTO   C68 6965   5.231   6.455   1.301 -0.1628 -0.1667 -0.5551
   17CHTO  H125 6966   5.254   6.437   1.194 -0.9604 -0.1755 -0.7304
   17CHTO   C72 6967   5.324   6.363   1.390  0.4556 -0.3461  0.0949
   17CHTO   O48 6968   5.459   6.410   1.422 -0.1360  0.4261 -0.0511
   17CHTO  H105 6969   5.514   6.410   1.346 -1.1149 -0.7487 -0.7817
   17CHTO   O38 6970   4.893   6.544   1.332  0.0729 -0.0438  0.1173
   17CHTO   C55 6971   4.802   6.450   1.398  0.6093 -0.2181  0.5584
   17CHTO  H112 6972   4.844   6.416   1.494 -1.8280 -0.1710  1.6838
   17CHTO   C56 6973   4.747   6.329   1.312  0.1867 -0.4358  0.1027
   17CHTO  H113 6974   4.725   6.376   1.215  0.7358 -1.2159 -0.4051
   17CHTO   O42 6975   4.862   6.243   1.298 -0.3618 -0.2462 -0.5413
   17CHTO  H100 6976   4.838   6.198   1.219 -1.0471  0.3839 -0.6908
   17CHTO   C57 6977   4.628   6.248   1.371  0.5286  0.0440  0.4672
   17CHTO  H114 6978   4.671   6.195   1.456  3.2230  1.6191  0.1501
   17CHTO   N10 6979   4.575   6.161   1.268 -0.1769  0.1011  0.1124
   17CHTO  H106 6980   4.591   6.186   1.165  1.5142 -1.4904 -0.0299
   17CHTO  H107 6981   4.617   6.065   1.292 -0.0570  0.4366  1.2825
   17CHTO   C58 6982   4.524   6.350   1.435 -0.4495  0.2551  0.0471
   17CHTO  H115 6983   4.465   6.399   1.354  1.1235 -0.1397 -1.3892
   17CHTO   O37 6984   4.581   6.461   1.509  0.7845  0.5646 -0.5857
   17CHTO   C59 6985   4.683   6.537   1.445 -1.4507  0.5392 -0.6064
   17CHTO  H116 6986   4.639   6.592   1.361  1.1228  1.0177 -1.6905
   17CHTO   C70 6987   4.732   6.649   1.540 -0.2203 -0.4426 -0.0988
   17CHTO   O46 6988   4.619   6.742   1.561  0.7546 -0.4587 -0.7911
   17CHTO  H103 6989   4.552   6.692   1.603  0.0917 -0.7174 -2.1383
   17CHTO   O39 6990   4.428   6.266   1.546  0.3069 -0.2869  0.0767
   17CHTO   C60 6991   4.318   6.339   1.597  0.7128 -0.4214  0.8830
   17CHTO  H117 6992   4.337   6.445   1.588 -2.2129  0.0230 -0.6485
   17CHTO   C62 6993   4.183   6.302   1.532 -0.4184  0.3521  0.6235
   17CHTO  H119 6994   4.200   6.332   1.426 -1.8712  2.3098  0.9178
   17CHTO   O43 6995   4.136   6.160   1.551 -0.2051  0.3281  0.2655
   17CHTO  H101 6996   4.144   6.131   1.640  0.2074 -1.0058 -0.1900
   17CHTO   C66 6997   4.072   6.401   1.594  0.3670 -0.3773  0.2649
   17CHTO  H123 6998   4.106   6.500   1.565 -0.2708 -0.1699  0.2170
   17CHTO   N12 6999   3.948   6.387   1.514 -0.7609 -0.0346 -0.3760
   17CHTO  H110 7000   3.877   6.455   1.558  0.8346  1.7510 -0.4695
   17CHTO  H111 7001   3.968   6.431   1.417 -0.7758 -1.7114 -1.1490
   17CHTO   C69 7002   4.063   6.389   1.748 -0.3582  0.1968 -0.2909
   17CHTO  H126 7003   4.016   6.291   1.773 -1.8956  0.5835 -1.5816
   17CHTO   O41 7004   4.194   6.396   1.815  0.1255 -0.1728 -0.1444
   17CHTO   C64 7005   4.313   6.314   1.751  0.0889 -0.6075  0.2569
   17CHTO  H121 7006   4.303   6.204   1.761 -0.0390 -0.5841  0.4029
   17CHTO   C71 7007   4.436   6.352   1.825 -0.1369 -0.1870 -0.0171
   17CHTO   O47 7008   4.444   6.292   1.955  0.4898 -0.0848 -0.6671
   17CHTO  H104 7009   4.532   6.262   1.968  0.9768  1.8383  0.6779
   17CHTO   O34 7010   3.981   6.505   1.809  0.1028 -0.1775 -0.3316
   17CHTO   C49 7011   3.866   6.569   1.873  0.0252 -0.1384  0.0448
   17CHTO   H91 7012   3.893   6.673   1.892  0.0551 -0.1253 -0.0685
   17CHTO   C47 7013   3.822   6.504   2.010  0.2973  0.5422  0.9517
   17CHTO   H89 7014   3.743   6.571   2.048  0.3608  0.9870  0.3157
   17CHTO   O33 7015   3.934   6.503   2.103 -0.3228 -0.1908 -0.4515
   17CHTO   H70 7016   3.907   6.448   2.174  1.8431  2.3570  2.4549
   17CHTO   C45 7017   3.762   6.364   1.990  0.1832 -0.6319  0.3089
   17CHTO   H87 7018   3.838   6.288   2.010 -0.4411 -1.0620  1.0809
   17CHTO    N8 7019   3.658   6.344   2.093 -0.0045  0.1986 -0.2047
   17CHTO   H75 7020   3.656   6.260   2.161 -0.7341  1.2535  1.0920
   17CHTO   H76 7021   3.553   6.346   2.069  0.1847 -0.9768 -1.1978
   17CHTO   C43 7022   3.713   6.336   1.836 -0.1286  0.2312  0.5635
   17CHTO   H85 7023   3.803   6.319   1.776 -0.9203  0.4339 -0.6977
   17CHTO   O29 7024   3.648   6.455   1.789 -0.5822  0.5391 -0.1586
   17CHTO   C50 7025   3.745   6.567   1.766 -0.0042 -0.7011 -1.0458
   17CHTO   H92 7026   3.786   6.570   1.664  3.0153  1.2922  0.1571
   17CHTO   C54 7027   3.667   6.701   1.769 -0.2896 -0.8105 -0.4444
   17CHTO   O36 7028   3.588   6.711   1.888 -0.4159  0.7474 -0.0256
   17CHTO   H72 7029   3.502   6.739   1.865 -0.1900 -0.3523 -2.3627
   17CHTO   O27 7030   3.620   6.226   1.817 -0.1448 -0.7252  0.2624
   17CHTO   C37 7031   3.597   6.087   1.829 -0.1652 -0.5572 -0.0248
   17CHTO   H79 7032   3.641   6.053   1.924 -1.5380  0.9106  1.1669
   17CHTO   C38 7033   3.441   6.061   1.845  0.2953 -0.0869  0.0651
   17CHTO   H80 7034   3.388   6.112   1.763 -0.6202  1.1724  1.4266
   17CHTO   O31 7035   3.410   6.118   1.975  0.4031  0.7050  0.7171
   17CHTO   H68 7036   3.318   6.103   1.987  0.7459  0.3302  3.0565
   17CHTO   C39 7037   3.404   5.907   1.838 -0.2930  0.3637  0.3574
   17CHTO   H81 7038   3.431   5.863   1.934 -3.4066  1.3655  1.7522
   17CHTO    N7 7039   3.256   5.884   1.842 -0.6200  0.1983 -0.0767
   17CHTO   H73 7040   3.225   5.868   1.740  0.7996  2.4763 -0.9007
   17CHTO   H74 7041   3.226   5.800   1.903  1.2340  0.5513  1.3517
   17CHTO   C40 7042   3.481   5.844   1.722  0.2293 -0.3494 -0.8139
   17CHTO   H82 7043   3.443   5.902   1.638 -0.5864 -0.6683 -0.6683
   17CHTO   O26 7044   3.625   5.867   1.736  0.5077 -0.1881 -0.0826
   17CHTO   C41 7045   3.658   6.014   1.712 -0.1335 -0.5543  0.3321
   17CHTO   H83 7046   3.614   6.046   1.617  1.6777  0.3826 -0.2172
   17CHTO   C52 7047   3.806   6.041   1.707 -0.3554  0.2981 -0.2177
   17CHTO   O35 7048   3.870   5.977   1.581  0.0485 -0.2937  0.4756
   17CHTO   H71 7049   3.937   6.037   1.552  1.5085 -2.3590 -0.5571
   17CHTO   O28 7050   3.458   5.696   1.708  0.2312  0.1163 -0.6616
   17CHTO   C42 7051   3.545   5.613   1.636  0.2269  0.6905  0.0925
   17CHTO   H84 7052   3.482   5.524   1.627 -1.2909  1.6270  1.1786
   17CHTO   C44 7053   3.680   5.573   1.706  0.3831  0.5318  0.0683
   17CHTO   H86 7054   3.732   5.661   1.744 -0.3839  1.3162 -0.6838
   17CHTO   O32 7055   3.635   5.492   1.819  0.2898 -0.0494 -0.1240
   17CHTO   H69 7056   3.698   5.473   1.886 -0.9826 -2.0702  0.5323
   17CHTO   C48 7057   3.784   5.496   1.616 -0.5525  0.4228  0.5617
   17CHTO   H90 7058   3.743   5.400   1.586  1.3326  0.3703 -2.0035
   17CHTO    N9 7059   3.911   5.466   1.677 -0.3774  0.3150 -0.0372
   17CHTO   H77 7060   3.970   5.557   1.676 -0.6535  0.5211  1.3092
   17CHTO   H78 7061   3.897   5.439   1.780 -1.5427  0.2843 -0.2035
   17CHTO   C51 7062   3.806   5.575   1.476  0.0345 -0.2871  0.3869
   17CHTO   H93 7063   3.844   5.676   1.494  0.2721  0.1302 -2.3354
   17CHTO   O30 7064   3.687   5.576   1.404 -0.4330  0.5408 -0.0083
   17CHTO   C46 7065   3.572   5.663   1.491 -0.8202 -0.1831 -0.6898
   17CHTO   H88 7066   3.610   5.765   1.492  0.4235 -0.6523  0.8037
   17CHTO   C53 7067   3.442   5.656   1.408  0.8167  0.7068 -0.0988
   17CHTO   O72 7068   3.336   5.746   1.439 -0.4343  0.4386 -0.5248
   17CHTO  H199 7069   3.256   5.719   1.398  0.6644  0.4567 -2.7710
   17CHTO   O22 7070   3.897   5.504   1.381 -0.3705  0.0209  0.5458
   17CHTO   C31 7071   3.964   5.564   1.257 -0.2518 -0.4025  0.3411
   17CHTO   H59 7072   4.042   5.492   1.225  0.9212  0.7340  0.6033
   17CHTO   C29 7073   3.869   5.586   1.133  0.0754 -0.5626  1.0345
   17CHTO   H57 7074   3.777   5.640   1.159 -0.9864 -1.8665  0.0856
   17CHTO   O21 7075   3.826   5.459   1.088  0.5489  0.0365  0.0137
   17CHTO   H37 7076   3.805   5.395   1.154 -0.8257  0.5081  0.0565
   17CHTO   C27 7077   3.939   5.659   1.013 -0.8452  0.7122 -0.2124
   17CHTO   H55 7078   4.015   5.594   0.967 -1.1406  1.2305 -1.4421
   17CHTO    N5 7079   3.843   5.698   0.907 -0.0658  0.8400  0.1551
   17CHTO   H43 7080   3.770   5.771   0.937 -1.3415  0.0930 -1.0407
   17CHTO   H44 7081   3.883   5.719   0.809  0.4966 -0.2869  0.1357
   17CHTO   C25 7082   4.025   5.781   1.056  0.1055  0.0780  0.0579
   17CHTO   H53 7083   3.954   5.857   1.091 -0.9824 -1.5430  1.4778
   17CHTO   O17 7084   4.109   5.739   1.163  0.1766  0.2069 -0.5839
   17CHTO   C32 7085   4.043   5.701   1.283 -0.4343  0.0420  0.1621
   17CHTO   H60 7086   3.967   5.778   1.300  1.5192  2.1626 -0.5682
   17CHTO   C36 7087   4.148   5.678   1.398 -0.2763 -0.2738  0.1169
   17CHTO   O25 7088   4.246   5.777   1.413 -0.2062 -0.0044 -0.9765
   17CHTO   H40 7089   4.235   5.816   1.497  0.1587 -0.5990 -0.6515
   17CHTO   O15 7090   4.110   5.843   0.926  0.2339 -0.2137 -0.5232
   17CHTO   C19 7091   4.133   5.980   0.898  0.1810  0.5373 -0.8366
   17CHTO   H47 7092   4.176   5.978   0.797  0.6158  0.7838 -0.6569
   17CHTO   C20 7093   4.005   6.075   0.896  0.0637  0.3671  0.1583
   17CHTO   H48 7094   3.942   6.056   0.984  2.2866 -2.2833  1.2557
   17CHTO   O19 7095   3.924   6.025   0.788  0.1519 -0.2518 -0.4991
   17CHTO   H35 7096   3.971   6.039   0.708 -1.3110  0.1958 -1.2923
   17CHTO   C21 7097   4.030   6.230   0.882  0.3540 -0.0516 -0.2731
   17CHTO   H49 7098   4.064   6.255   0.782 -0.4604  1.3300 -0.2196
   17CHTO    N4 7099   3.908   6.308   0.916 -0.5258 -0.4108 -0.1708
   17CHTO   H41 7100   3.921   6.410   0.881  1.4459 -0.1375  1.2424
   17CHTO   H42 7101   3.823   6.264   0.866 -1.1006  0.1739  0.2851
   17CHTO   C22 7102   4.145   6.264   0.979  0.4389  0.0745  0.8046
   17CHTO   H50 7103   4.111   6.249   1.082  1.9203  1.3974  1.5240
   17CHTO   O14 7104   4.258   6.179   0.942  0.4391  0.5601  0.3621
   17CHTO   C23 7105   4.239   6.048   0.982  0.1859 -0.3461 -0.4059
   17CHTO   H51 7106   4.218   6.035   1.089  0.2398  0.0578 -0.3455
   17CHTO   C34 7107   4.375   5.976   0.963 -0.2056 -0.1354 -0.2172
   17CHTO   O23 7108   4.376   5.853   1.029  0.4535  0.1127  0.3079
   17CHTO   H38 7109   4.291   5.819   1.050  0.0019  1.8741  1.4343
   17CHTO   O16 7110   4.185   6.399   0.956 -0.3705 -0.2440  0.0035
   17CHTO   C24 7111   4.276   6.462   1.079  0.6888  0.0014  0.1452
   17CHTO   H52 7112   4.319   6.387   1.146 -0.8426  0.5627  1.7863
   17CHTO   C26 7113   4.195   6.560   1.172  0.2407 -0.0948 -1.1124
   17CHTO   H54 7114   4.135   6.625   1.106  0.3748  0.6132 -0.5399
   17CHTO   O20 7115   4.109   6.469   1.237 -0.5654  0.1806 -0.0007
   17CHTO   H36 7116   4.039   6.521   1.270 -0.4748 -0.4150  1.1482
   17CHTO   C30 7117   4.286   6.638   1.275 -0.1682 -0.3178  0.0362
   17CHTO   H58 7118   4.335   6.566   1.342  0.0916 -0.5529 -0.4076
   17CHTO    N6 7119   4.207   6.729   1.363 -0.3358  0.6154  0.5049
   17CHTO   H45 7120   4.141   6.790   1.302 -0.6701 -0.1738  0.0648
   17CHTO   H46 7121   4.272   6.796   1.416  1.2270  0.4659 -1.1678
   17CHTO   C33 7122   4.397   6.712   1.190 -0.0172 -0.7421 -0.5329
   17CHTO   H61 7123   4.350   6.788   1.127 -0.4504  1.8314  2.7892
   17CHTO   O18 7124   4.465   6.614   1.105 -0.5071  0.1573  0.4810
   17CHTO   C28 7125   4.389   6.535   1.013 -0.0197  0.6340  0.2261
   17CHTO   H56 7126   4.346   6.594   0.932  0.8007  2.7370  1.2675
   17CHTO   C35 7127   4.487   6.432   0.956  0.3271 -0.6110 -0.9047
   17CHTO   O24 7128   4.602   6.500   0.907  0.1143 -0.5726 -0.1235
   17CHTO   H39 7129   4.590   6.554   0.831  0.9549 -0.4053 -0.1468
   17CHTO    O9 7130   4.488   6.792   1.272 -0.0193  0.6336  0.0054
   17CHTO   C13 7131   4.588   6.893   1.186 -0.7069  0.9415 -0.4037
   17CHTO   H26 7132   4.627   6.843   1.094  2.6188  2.7105 -0.0518
   17CHTO   C11 7133   4.707   6.960   1.270  0.0145 -0.9384  0.6237
   17CHTO   H24 7134   4.768   6.872   1.297  0.2120 -1.0591 -0.2137
   17CHTO    O8 7135   4.659   7.018   1.390  0.3285 -0.0124 -0.1791
   17CHTO    H3 7136   4.711   7.013   1.467 -0.2313  1.9486  0.3463
   17CHTO    C9 7137   4.793   7.055   1.175  0.3362  0.2244 -0.0849
   17CHTO   H22 7138   4.817   6.992   1.088 -2.7822 -1.1095 -0.0558
   17CHTO    N2 7139   4.918   7.105   1.240 -0.0275  0.4233 -0.1982
   17CHTO   H10 7140   4.910   7.205   1.281  1.0000  0.5102 -0.1962
   17CHTO   H11 7141   4.999   7.111   1.168  1.8695  1.8211  1.9701
   17CHTO    C7 7142   4.695   7.173   1.132  0.2348  0.3781  0.7243
   17CHTO   H20 7143   4.754   7.238   1.064 -0.5179  0.6583  0.3314
   17CHTO    O4 7144   4.579   7.121   1.054  0.0352 -0.3296  0.1474
   17CHTO   C14 7145   4.505   7.010   1.118 -0.9586 -0.5187  0.6588
   17CHTO   H27 7146   4.444   6.970   1.034 -0.9420 -0.3807  0.5804
   17CHTO   C18 7147   4.397   7.062   1.221 -0.1032  0.0068  0.1521
   17CHTO   O13 7148   4.305   7.153   1.155  0.2539  0.1685 -0.4712
   17CHTO    H7 7149   4.229   7.112   1.119 -1.0579  1.7709  0.4072
   17CHTO    O2 7150   4.645   7.273   1.244 -0.1760  0.1449 -0.7626
   17CHTO    C1 7151   4.581   7.396   1.209  0.6257  0.2133 -0.5539
   17CHTO   H14 7152   4.499   7.369   1.139  0.2993  2.0740 -0.9105
   17CHTO    C2 7153   4.674   7.507   1.145  0.6446  0.0007  0.5922
   17CHTO   H15 7154   4.765   7.497   1.206  0.4911 -0.0753  0.8121
   17CHTO    O6 7155   4.706   7.476   1.007 -0.1871  0.0772 -0.4551
   17CHTO    H1 7156   4.729   7.386   1.000 -1.7959 -0.3452 -0.5475
   17CHTO    C3 7157   4.616   7.664   1.156  0.7152 -0.2576 -0.0171
   17CHTO   H16 7158   4.535   7.666   1.081 -1.6746 -1.3205  2.4628
   17CHTO    N1 7159   4.723   7.763   1.129  0.1812  0.4184  0.4163
   17CHTO    H8 7160   4.796   7.723   1.061 -0.6114 -0.8073  0.2533
   17CHTO    H9 7161   4.680   7.850   1.083 -0.7560 -0.6674 -0.8272
   17CHTO    C4 7162   4.546   7.685   1.287  0.0737  0.2074  0.1659
   17CHTO   H17 7163   4.623   7.699   1.362  0.4021 -1.0429  0.0823
   17CHTO    O1 7164   4.447   7.580   1.312 -0.1781  0.0911  0.5694
   17CHTO    C5 7165   4.519   7.455   1.337  0.4319 -0.4762 -0.0096
   17CHTO   H18 7166   4.603   7.475   1.402  1.2423 -1.8606 -0.5943
   17CHTO   C16 7167   4.413   7.364   1.409 -0.6119 -0.4570 -0.0889
   17CHTO   O11 7168   4.282   7.363   1.357 -0.1618 -0.2969 -0.3427
   17CHTO    H5 7169   4.230   7.337   1.430 -0.4626  2.8568  0.6626
   17CHTO    O3 7170   4.470   7.807   1.281  0.2818 -0.1602  0.3473
   17CHTO    C6 7171   4.442   7.884   1.398 -0.2636  0.0715  0.4051
   17CHTO   H19 7172   4.354   7.947   1.384  0.0094  0.9705  2.5674
   17CHTO    C8 7173   4.403   7.798   1.527  0.0180 -0.3161  0.3787
   17CHTO   H21 7174   4.482   7.724   1.542 -0.8761 -1.4070 -0.2430
   17CHTO    O7 7175   4.280   7.733   1.499 -0.0597 -0.8006  0.3196
   17CHTO    H2 7176   4.274   7.644   1.529 -2.7664 -0.8938 -0.4512
   17CHTO   C12 7177   4.394   7.894   1.658 -0.3555 -0.2270 -0.3781
   17CHTO   H25 7178   4.321   7.976   1.645 -2.5909 -2.1132 -0.0292
   17CHTO    N3 7179   4.343   7.825   1.784 -0.2475  0.5096 -0.0131
   17CHTO   H12 7180   4.398   7.872   1.864  0.6695 -0.4547 -0.0618
   17CHTO   H13 7181   4.239   7.849   1.800 -0.5332 -0.9261  0.2942
   17CHTO   C15 7182   4.541   7.951   1.673 -0.0917  0.4947  0.1049
   17CHTO   H28 7183   4.612   7.868   1.682 -0.3895  0.3701  1.4939
   17CHTO   O10 7184   4.559   8.046   1.785  0.5541 -0.4776 -0.4597
   17CHTO    H4 7185   4.515   8.128   1.776  1.0828 -0.2160 -0.6936
   17CHTO    O5 7186   4.559   8.037   1.553  0.0647 -0.0331  0.1595
   17CHTO   C10 7187   4.561   7.975   1.421 -0.1805 -0.1092 -0.8677
   17CHTO   H23 7188   4.655   7.921   1.409 -0.1112 -0.1703 -0.0801
   17CHTO   C17 7189   4.560   8.082   1.310  0.4164 -0.0914 -0.3783
   17CHTO   O12 7190   4.452   8.161   1.305  0.2501 -0.1550  0.3543
   17CHTO    H6 7191   4.468   8.224   1.238 -1.2272  0.8901  0.9581
   18CHTO  H203 7192   5.874   7.971   2.184 -1.4100  2.0320 -2.7061
   18CHTO   O82 7193   5.951   7.953   2.133 -0.0295  0.0015 -0.0320
   18CHTO  C123 7194   5.904   7.965   1.999  0.2758  0.3513 -0.2129
   18CHTO  H227 7195   5.812   8.025   2.003  0.2673  0.3526 -0.4540
   18CHTO   O77 7196   6.005   8.052   1.938  0.5467  0.2276 -0.1126
   18CHTO  C118 7197   5.969   8.095   1.804  0.0249 -0.4439  0.5096
   18CHTO  H222 7198   5.872   8.148   1.800  0.9147  1.1002 -2.2275
   18CHTO  C125 7199   6.078   8.202   1.756  0.4511  0.2775  0.5931
   18CHTO   O84 7200   6.032   8.294   1.661 -0.1645 -0.1797  0.8068
   18CHTO  H205 7201   6.011   8.249   1.581  1.3434 -0.9333  0.8152
   18CHTO  C114 7202   5.968   7.968   1.716 -0.1984 -0.4393  0.2363
   18CHTO  H218 7203   6.064   7.920   1.734  0.0843 -0.8503 -2.1783
   18CHTO  C116 7204   5.866   7.862   1.773  0.2711  0.2023  0.2275
   18CHTO  H220 7205   5.764   7.906   1.770  0.8165  1.5281  0.5686
   18CHTO   O79 7206   5.869   7.745   1.690 -0.1702 -0.5617 -0.3895
   18CHTO  H201 7207   5.824   7.750   1.608 -0.6142  0.5077 -0.0950
   18CHTO  C120 7208   5.898   7.826   1.923 -0.0716  0.2106  0.0747
   18CHTO  H224 7209   5.996   7.774   1.930 -0.3996 -0.2859  1.0449
   18CHTO   N21 7210   5.791   7.745   1.984 -1.0793 -0.0912 -0.2483
   18CHTO  H211 7211   5.823   7.642   1.978 -2.3813 -0.4838 -0.6275
   18CHTO  H212 7212   5.797   7.771   2.088  0.2609 -0.6950 -0.1763
   18CHTO   O75 7213   5.936   8.017   1.581 -0.0056 -0.3333  1.0875
   18CHTO  C112 7214   6.090   7.983   1.479  0.0708 -0.2227  0.1847
   18CHTO  H216 7215   6.149   7.909   1.536  1.6968  0.6990 -0.2827
   18CHTO   O73 7216   6.158   8.109   1.461  0.0391  0.3877  0.2877
   18CHTO  C113 7217   6.269   8.112   1.366 -0.4102 -0.0864 -0.1951
   18CHTO  H217 7218   6.346   8.038   1.393 -0.7813 -0.3249  0.2199
   18CHTO  C124 7219   6.326   8.253   1.371 -0.0340 -0.3399  0.4427
   18CHTO   O83 7220   6.358   8.315   1.494 -0.2291 -0.0788  0.1839
   18CHTO  H204 7221   6.412   8.250   1.536 -1.7440 -0.7492  1.1489
   18CHTO  C109 7222   6.218   8.073   1.231 -0.1915  0.4950  1.1411
   18CHTO  H213 7223   6.145   8.147   1.195  1.1804  0.2832 -2.3395
   18CHTO  C110 7224   6.143   7.936   1.229  0.4999  0.4344  0.1840
   18CHTO  H214 7225   6.215   7.855   1.244  1.1096  0.8088 -0.6535
   18CHTO   O78 7226   6.091   7.901   1.098  0.0592 -0.0822 -0.0330
   18CHTO  H200 7227   6.099   7.811   1.073  0.7049  0.0143 -0.1812
   18CHTO  C111 7228   6.033   7.928   1.343 -0.1588  0.3978  0.1530
   18CHTO  H215 7229   5.950   7.994   1.313 -0.9751 -0.6187  0.1535
   18CHTO   N19 7230   5.976   7.797   1.370  0.1060  0.5300 -0.5688
   18CHTO  H207 7231   5.924   7.769   1.280  0.9022  1.9068 -1.4763
   18CHTO  H208 7232   6.053   7.735   1.413  0.7731  2.4900  1.1437
   18CHTO   O74 7233   6.336   8.077   1.147 -0.8346  0.2949 -0.7558
   18CHTO  C115 7234   6.312   8.138   0.993 -0.2922 -0.2155  0.2721
   18CHTO  H219 7235   6.231   8.082   0.946 -0.5295 -1.5147  2.1652
   18CHTO   O76 7236   6.261   8.298   0.996 -0.0079  0.6350  0.6284
   18CHTO  C122 7237   6.265   8.375   0.871 -0.0906 -0.2411 -0.0789
   18CHTO  H226 7238   6.297   8.479   0.885 -2.1167  0.9593 -3.7060
   18CHTO  C126 7239   6.121   8.383   0.817  0.2455  0.3872 -0.6255
   18CHTO   O85 7240   6.101   8.437   0.685  0.0155  0.4639  0.1235
   18CHTO  H206 7241   6.166   8.502   0.669 -1.7942  2.2701 -0.1091
   18CHTO  C121 7242   6.376   8.330   0.763  0.2568 -0.0802  0.3698
   18CHTO  H225 7243   6.346   8.365   0.662 -0.9893 -1.0012  0.4101
   18CHTO   O81 7244   6.504   8.396   0.778 -0.0802 -0.4304 -0.8725
   18CHTO  H202 7245   6.526   8.421   0.866  1.4528  1.6062 -1.8001
   18CHTO  C119 7246   6.401   8.179   0.757  0.2768 -0.2403  0.4681
   18CHTO  H223 7247   6.306   8.136   0.725  0.2380 -0.0111  0.2730
   18CHTO  C117 7248   6.440   8.125   0.898  0.2897 -0.6367  0.3270
   18CHTO  H221 7249   6.528   8.175   0.936  0.8732 -1.0688 -0.4456
   18CHTO   N20 7250   6.473   7.980   0.893  0.2347  0.4731 -0.3664
   18CHTO  H209 7251   6.554   7.956   0.826  1.0698 -1.0584  1.1678
   18CHTO  H210 7252   6.494   7.931   0.986 -0.1502  0.0709 -0.4905
   18CHTO   O80 7253   6.495   8.131   0.640 -0.2524 -0.2599 -0.2477
   18CHTO  C103 7254   6.431   8.051   0.510  0.3092  0.3641 -0.8601
   18CHTO  H190 7255   6.501   8.039   0.428  0.2781 -1.0531 -0.6798
   18CHTO  C101 7256   6.380   7.906   0.547  0.5658  0.5630 -1.2381
   18CHTO  H188 7257   6.316   7.921   0.634  0.7979  0.3759 -1.0309
   18CHTO   O68 7258   6.496   7.804   0.595 -0.5695 -0.2218 -0.2389
   18CHTO  H168 7259   6.542   7.791   0.514  1.6340  0.9888  0.7591
   18CHTO   C99 7260   6.290   7.847   0.424 -0.0902 -0.4574  0.4582
   18CHTO  H186 7261   6.355   7.852   0.334  0.2409  0.8742  0.7606
   18CHTO   N17 7262   6.227   7.707   0.437 -0.0725  0.4439 -0.5415
   18CHTO  H174 7263   6.157   7.715   0.519  0.5418  2.7207 -0.2055
   18CHTO  H175 7264   6.161   7.696   0.352 -2.0690 -0.4825  1.0860
   18CHTO   C97 7265   6.178   7.948   0.398 -0.0773 -0.1902 -0.0071
   18CHTO  H184 7266   6.126   7.964   0.494 -1.3222 -0.0984 -0.6873
   18CHTO   O64 7267   6.237   8.068   0.352  0.1931  0.2406 -0.1975
   18CHTO  C104 7268   6.311   8.143   0.451  0.6615 -0.1858  0.4944
   18CHTO  H191 7269   6.239   8.173   0.527 -1.1486  1.7813 -1.9040
   18CHTO  C108 7270   6.365   8.272   0.389  0.2029  0.2892 -0.6010
   18CHTO   O71 7271   6.263   8.349   0.333  0.4058  0.2272  0.3377
   18CHTO  H171 7272   6.234   8.308   0.254  1.0560  1.9482 -0.8200
   18CHTO   O62 7273   6.085   7.925   0.292 -0.4415  0.3498  0.1079
   18CHTO   C91 7274   5.943   7.958   0.308  0.2461  0.2553  0.8135
   18CHTO  H178 7275   5.928   7.945   0.415  1.7536  0.0624  1.0030
   18CHTO   C92 7276   5.859   7.843   0.249  0.1442  0.0835  0.5091
   18CHTO  H179 7277   5.890   7.832   0.144 -0.8613 -0.3125  0.2527
   18CHTO   O66 7278   5.889   7.713   0.312 -0.3213  0.3214  0.2872
   18CHTO  H166 7279   5.980   7.689   0.310 -0.5555 -0.4974 -1.5300
   18CHTO   C93 7280   5.709   7.870   0.267  0.1930  0.5024 -0.5153
   18CHTO  H180 7281   5.681   7.856   0.373 -0.7618 -0.7782 -0.9220
   18CHTO   N16 7282   5.623   7.770   0.193 -0.4553  0.5220 -0.2516
   18CHTO  H172 7283   5.527   7.807   0.160 -0.8426 -0.7575 -0.5674
   18CHTO  H173 7284   5.609   7.684   0.256  3.4393  1.0642  1.4833
   18CHTO   C94 7285   5.660   8.014   0.231 -0.3298  0.3857 -0.0326
   18CHTO  H181 7286   5.657   8.027   0.122  1.6550  0.1083 -0.1424
   18CHTO   O61 7287   5.743   8.111   0.285 -0.4418 -0.3294 -0.1292
   18CHTO   C95 7288   5.883   8.100   0.259 -0.0597  1.2792 -1.0425
   18CHTO  H182 7289   5.892   8.106   0.151 -2.6037 -3.1650 -1.6180
   18CHTO  C106 7290   5.956   8.220   0.317 -0.2400 -1.0627  0.6088
   18CHTO   O69 7291   5.947   8.220   0.457 -0.0197 -0.4079  0.0241
   18CHTO  H169 7292   6.008   8.156   0.487  1.7440  2.5310  3.1321
   18CHTO   O63 7293   5.513   8.050   0.300  0.3644  0.1008 -0.1482
   18CHTO   C96 7294   5.449   8.166   0.235  0.9103 -0.5075  0.0191
   18CHTO  H183 7295   5.497   8.169   0.137 -2.5427 -0.4917 -1.7433
   18CHTO   C98 7296   5.467   8.308   0.301  0.7614  0.1029 -0.1091
   18CHTO  H185 7297   5.438   8.305   0.407  2.8658 -1.5895  0.4755
   18CHTO   O67 7298   5.609   8.344   0.303 -0.3723  0.2789  0.0167
   18CHTO  H167 7299   5.635   8.418   0.356 -1.3925  0.1042  0.7773
   18CHTO  C102 7300   5.384   8.419   0.217 -0.1547  0.5574  0.9971
   18CHTO  H189 7301   5.449   8.436   0.129 -1.0612 -0.5453  0.0886
   18CHTO   N18 7302   5.371   8.545   0.285 -0.6151  0.4302  0.5701
   18CHTO  H176 7303   5.341   8.523   0.386  1.8608  1.6314  1.6181
   18CHTO  H177 7304   5.467   8.595   0.281 -0.6159  0.3722 -0.1279
   18CHTO  C105 7305   5.254   8.366   0.150 -0.5209 -0.7599  0.3336
   18CHTO  H192 7306   5.179   8.368   0.229 -0.0926  1.4703  0.7412
   18CHTO   O65 7307   5.254   8.225   0.105  0.5035  0.0698  0.9365
   18CHTO  C100 7308   5.300   8.135   0.209  0.4432  0.3500 -0.2130
   18CHTO  H187 7309   5.264   8.150   0.312  0.3008  2.3068 -0.5434
   18CHTO  C107 7310   5.269   7.985   0.173 -0.5201  0.1870 -0.0920
   18CHTO   O70 7311   5.314   7.929   0.054  0.3422 -0.4859 -0.0982
   18CHTO  H170 7312   5.408   7.923   0.061  0.1174 -0.3306  3.8095
   18CHTO   O57 7313   5.207   8.476   0.034 -0.3565 -0.3955  0.3813
   18CHTO   C85 7314   5.085   8.469  -0.046 -0.0915  0.0211 -0.6163
   18CHTO  H157 7315   5.114   8.542  -0.125  1.8419 -1.5329 -1.3779
   18CHTO   C83 7316   4.971   8.533   0.034 -0.2915 -0.3910 -1.1029
   18CHTO  H155 7317   5.008   8.633   0.059  1.1239 -0.9744 -0.8366
   18CHTO   O56 7318   4.949   8.479   0.164 -0.1682  0.0296  0.2043
   18CHTO  H135 7319   5.026   8.459   0.214  0.2298  1.2718  0.1139
   18CHTO   C81 7320   4.848   8.538  -0.058  0.0003 -0.0279 -0.5576
   18CHTO  H153 7321   4.874   8.582  -0.154 -0.2300  0.9281 -0.1819
   18CHTO   N14 7322   4.738   8.624   0.001  0.1225  0.3658  0.2710
   18CHTO  H141 7323   4.649   8.576   0.035  1.0755 -1.4918  0.1550
   18CHTO  H142 7324   4.713   8.697  -0.073 -0.9947  0.5462  0.8218
   18CHTO   C79 7325   4.793   8.394  -0.090  0.0239 -0.0966  0.0112
   18CHTO  H151 7326   4.707   8.410  -0.154 -0.7255  1.8923  1.4547
   18CHTO   O52 7327   4.899   8.307  -0.155 -0.2386  0.9182  0.0042
   18CHTO   C86 7328   5.039   8.326  -0.107 -0.0144 -0.1104  0.1201
   18CHTO  H158 7329   5.048   8.254  -0.022 -1.8904 -0.3211  0.1491
   18CHTO   C90 7330   5.148   8.283  -0.208  0.0321 -0.3805  0.0702
   18CHTO   O60 7331   5.129   8.151  -0.247  0.4158 -0.5710  0.4453
   18CHTO  H138 7332   5.038   8.129  -0.251  0.9117 -2.5260 -0.9266
   18CHTO   O50 7333   4.740   8.328   0.024  0.4607 -0.0918 -0.3140
   18CHTO   C73 7334   4.669   8.232   0.097  0.1723  0.3139 -0.3109
   18CHTO  H145 7335   4.653   8.145   0.032 -0.2354 -2.2087  3.0185
   18CHTO   C74 7336   4.532   8.297   0.143 -0.1212  0.5333  0.0627
   18CHTO  H146 7337   4.479   8.328   0.052  1.2755  1.4510 -0.4663
   18CHTO   O54 7338   4.443   8.194   0.195  0.5808 -0.3768 -0.1059
   18CHTO  H133 7339   4.416   8.141   0.123 -0.5034 -0.4740  0.3755
   18CHTO   C75 7340   4.549   8.416   0.244  0.1977 -0.0272 -0.1817
   18CHTO  H147 7341   4.623   8.482   0.198 -0.8702  3.0896  2.3806
   18CHTO   N13 7342   4.422   8.491   0.276 -0.4867 -0.1887  0.7857
   18CHTO  H139 7343   4.334   8.429   0.282 -0.1595 -0.5615  1.9340
   18CHTO  H140 7344   4.414   8.582   0.218 -0.2926 -0.2212  0.7037
   18CHTO   C76 7345   4.622   8.362   0.364 -0.5235 -0.1271 -0.4159
   18CHTO  H148 7346   4.557   8.296   0.423  0.9369 -1.7425 -0.5888
   18CHTO   O49 7347   4.742   8.294   0.324  0.7701  0.9199 -0.6018
   18CHTO   C77 7348   4.739   8.187   0.226  1.0442 -0.2323 -0.6544
   18CHTO  H149 7349   4.697   8.089   0.251  2.6221 -0.8919 -0.5256
   18CHTO   C88 7350   4.881   8.141   0.194 -0.0420 -0.5511 -0.5421
   18CHTO   O58 7351   4.959   8.139   0.294 -0.1469 -0.0683 -0.1410
   18CHTO  H136 7352   5.034   8.194   0.279 -1.2700  1.8068  0.9101
   18CHTO   O51 7353   4.694   8.498   0.446 -0.0387  0.5241  0.0729
   18CHTO   C78 7354   4.723   8.480   0.563 -0.4030  0.0745 -0.2491
   18CHTO  H150 7355   4.747   8.374   0.586  0.7302 -0.0623 -1.9680
   18CHTO   C80 7356   4.612   8.521   0.660  0.6858 -0.7010 -0.0132
   18CHTO  H152 7357   4.592   8.629   0.641  0.1142 -1.2966 -3.1505
   18CHTO   O55 7358   4.484   8.459   0.621  0.2340 -0.2129 -0.3507
   18CHTO  H134 7359   4.421   8.509   0.573 -0.5029 -0.0758  0.7431
   18CHTO   C84 7360   4.650   8.482   0.804 -0.5772  0.0345 -0.0597
   18CHTO  H156 7361   4.664   8.374   0.808  1.6171  0.2538 -0.8276
   18CHTO   N15 7362   4.542   8.512   0.901  0.2453 -0.5829  0.4989
   18CHTO  H143 7363   4.520   8.429   0.965  0.3228 -0.3560  0.8200
   18CHTO  H144 7364   4.450   8.542   0.855  1.1773 -1.1384 -1.8389
   18CHTO   C87 7365   4.787   8.546   0.846  0.4441  0.2943  0.0977
   18CHTO  H159 7366   4.774   8.654   0.852  0.3399  0.1891  2.0240
   18CHTO   O53 7367   4.885   8.519   0.748 -0.2140  0.1236  0.0745
   18CHTO   C82 7368   4.849   8.550   0.610  0.3129  0.6052 -0.1017
   18CHTO  H154 7369   4.837   8.657   0.596  2.9025  1.0845  0.9935
   18CHTO   C89 7370   4.976   8.510   0.528  0.5266 -0.1836  0.2033
   18CHTO   O59 7371   5.014   8.370   0.519 -0.1145 -0.0059 -0.2473
   18CHTO  H137 7372   5.048   8.353   0.433 -0.4219  0.6640 -0.5067
   18CHTO   O45 7373   4.849   8.499   0.992 -0.5037  0.3044  1.0196
   18CHTO   C67 7374   4.986   8.527   1.019 -0.4468 -0.3022 -0.5665
   18CHTO  H124 7375   5.049   8.498   0.934  1.2994  1.4793  0.0958
   18CHTO   C65 7376   5.012   8.677   1.053  0.6514  0.3731  1.2936
   18CHTO  H122 7377   4.919   8.716   1.095 -0.0178  0.8230 -0.5675
   18CHTO   O44 7378   5.045   8.732   0.923 -0.0928 -0.2903  0.1284
   18CHTO  H102 7379   5.057   8.823   0.941 -0.2773  0.0783 -1.5493
   18CHTO   C63 7380   5.112   8.699   1.169 -0.1554 -0.4617 -0.1103
   18CHTO  H120 7381   5.067   8.670   1.264  0.3918 -0.8710  0.0268
   18CHTO   N11 7382   5.152   8.841   1.199 -0.3197  0.9020 -0.6364
   18CHTO  H108 7383   5.087   8.871   1.278 -0.3989 -2.1109  0.5013
   18CHTO  H109 7384   5.123   8.898   1.113 -3.4680 -2.8235 -2.1752
   18CHTO   C61 7385   5.234   8.601   1.152  0.8435 -0.3184 -0.3095
   18CHTO  H118 7386   5.300   8.606   1.241  0.1205 -0.4404  0.2339
   18CHTO   O40 7387   5.184   8.462   1.142 -0.2151  0.1851  0.6684
   18CHTO   C68 7388   5.034   8.432   1.133 -1.2259 -0.8067 -1.1890
   18CHTO  H125 7389   4.984   8.445   1.231 -0.3741 -1.8237 -0.5997
   18CHTO   C72 7390   5.022   8.282   1.099  0.0674  0.2381  1.0097
   18CHTO   O48 7391   4.890   8.226   1.075  0.0908  0.6402 -0.3112
   18CHTO  H105 7392   4.895   8.141   1.034 -0.1333  0.9086 -0.9030
   18CHTO   O38 7393   5.310   8.630   1.034  0.2757 -0.1763  0.6990
   18CHTO   C55 7394   5.445   8.580   1.019 -0.3742 -0.3187  0.5072
   18CHTO  H112 7395   5.467   8.499   1.090  0.5793 -0.1395  0.4167
   18CHTO   C56 7396   5.548   8.701   1.035  0.1941 -0.4850 -0.0039
   18CHTO  H113 7397   5.536   8.759   0.943 -1.7501  2.1180  1.8098
   18CHTO   O42 7398   5.524   8.791   1.149  0.4235  0.3399  0.2726
   18CHTO  H100 7399   5.542   8.749   1.231  0.1780  0.1590  0.2364
   18CHTO   C57 7400   5.690   8.639   1.046 -0.3721  0.2265  0.2111
   18CHTO  H114 7401   5.671   8.586   1.138 -2.8978 -0.6661 -0.7732
   18CHTO   N10 7402   5.798   8.746   1.042 -0.3113  0.0265  0.5165
   18CHTO  H106 7403   5.779   8.818   0.964 -1.7778 -0.3884  0.4834
   18CHTO  H107 7404   5.793   8.804   1.133 -0.0233  3.3798 -1.4948
   18CHTO   C58 7405   5.712   8.529   0.928 -0.9200  0.8249  0.1185
   18CHTO  H115 7406   5.751   8.583   0.838  0.3492  1.0027  0.7628
   18CHTO   O37 7407   5.601   8.451   0.888 -0.2056 -0.3322  0.5707
   18CHTO   C59 7408   5.472   8.513   0.885  0.2091  0.1028  0.2773
   18CHTO  H116 7409   5.471   8.582   0.800 -1.2573 -0.4072 -0.1459
   18CHTO   C70 7410   5.371   8.394   0.852 -0.2891  0.3934  0.4558
   18CHTO   O46 7411   5.357   8.299   0.961 -0.0137 -0.5978  0.2241
   18CHTO  H103 7412   5.316   8.219   0.936 -0.4308 -0.9158  1.8614
   18CHTO   O39 7413   5.824   8.423   0.978  0.4982  0.1583 -0.5732
   18CHTO   C60 7414   5.775   8.336   1.080  0.2573  0.6832 -0.2130
   18CHTO  H117 7415   5.695   8.375   1.142  2.2227  0.3661  2.6260
   18CHTO   C62 7416   5.714   8.209   1.012 -0.2324  0.3812 -0.4843
   18CHTO  H119 7417   5.648   8.245   0.931  0.2798  0.3337 -0.9193
   18CHTO   O43 7418   5.825   8.149   0.938  0.3383  0.2332  0.2380
   18CHTO  H101 7419   5.868   8.084   0.991 -2.1764 -1.0043  0.8434
   18CHTO   C66 7420   5.624   8.124   1.112  0.1866  0.1347  0.3747
   18CHTO  H123 7421   5.561   8.197   1.162  1.2854  1.6377 -0.3810
   18CHTO   N12 7422   5.541   8.014   1.049  0.6143 -0.1341 -0.6363
   18CHTO  H110 7423   5.568   8.012   0.945 -1.3307  1.2009 -1.1906
   18CHTO  H111 7424   5.434   8.025   1.061  0.0683 -2.7046 -2.7601
   18CHTO   C69 7425   5.719   8.083   1.228 -0.0632  0.1209  0.0181
   18CHTO  H126 7426   5.765   7.989   1.192 -0.3383 -0.2866  0.7192
   18CHTO   O41 7427   5.835   8.208   1.272 -0.8210 -0.2430 -0.4078
   18CHTO   C64 7428   5.896   8.286   1.166  0.3315 -0.1620 -0.2526
   18CHTO  H121 7429   5.969   8.224   1.110  2.0645  2.6215 -1.2186
   18CHTO   C71 7430   5.977   8.396   1.234 -0.5958 -0.4764 -0.1509
   18CHTO   O47 7431   6.039   8.484   1.143  0.1318 -0.1840 -0.0137
   18CHTO  H104 7432   5.971   8.543   1.116  0.6414 -0.0624 -1.0263
   18CHTO   O34 7433   5.647   8.037   1.354 -0.0237  0.3765 -0.6748
   18CHTO   C49 7434   5.612   8.098   1.499 -0.0637 -0.3607  0.0129
   18CHTO   H91 7435   5.701   8.105   1.561 -2.0262  1.6208  2.7939
   18CHTO   C47 7436   5.506   7.989   1.549 -0.7514  0.4332 -0.0509
   18CHTO   H89 7437   5.481   8.011   1.654  1.5692 -2.0891  1.1124
   18CHTO   O33 7438   5.576   7.856   1.540  0.0153 -0.1595  0.1368
   18CHTO   H70 7439   5.658   7.857   1.587 -0.6457 -0.4592  1.3032
   18CHTO   C45 7440   5.379   7.979   1.451  0.5140  0.3240  0.4934
   18CHTO   H87 7441   5.411   7.967   1.347 -0.2926  0.7539  0.1891
   18CHTO    N8 7442   5.279   7.876   1.482 -0.4684  0.2197  0.3661
   18CHTO   H75 7443   5.261   7.881   1.588  0.7068 -0.1200  0.5916
   18CHTO   H76 7444   5.186   7.907   1.438 -0.2889 -0.7898 -0.7732
   18CHTO   C43 7445   5.321   8.127   1.445 -0.1433  0.0399 -0.2116
   18CHTO   H85 7446   5.247   8.117   1.366 -0.2830  1.3184 -0.2527
   18CHTO   O29 7447   5.417   8.234   1.416 -0.7587  0.2527  0.3040
   18CHTO   C50 7448   5.546   8.235   1.483 -0.5450  0.2602  0.3690
   18CHTO   H92 7449   5.607   8.284   1.407  1.0335 -1.8478  0.2328
   18CHTO   C54 7450   5.545   8.321   1.609 -0.0333 -0.2838 -0.0826
   18CHTO   O36 7451   5.676   8.349   1.663  0.2087 -0.4890 -0.4189
   18CHTO   H72 7452   5.696   8.426   1.614  0.0359  0.0592  0.3602
   18CHTO   O27 7453   5.258   8.155   1.568  0.0617 -0.9461 -0.1121
   18CHTO   C37 7454   5.148   8.248   1.604  0.2086 -0.8847  0.4608
   18CHTO   H79 7455   5.093   8.206   1.690  1.6398  1.6382  2.6839
   18CHTO   C38 7456   5.207   8.381   1.655  0.8022 -0.0499 -0.9156
   18CHTO   H80 7457   5.276   8.416   1.576  3.5692 -1.2772  0.8820
   18CHTO   O31 7458   5.286   8.364   1.770 -0.8298 -0.4148  0.1734
   18CHTO   H68 7459   5.369   8.335   1.737  0.0986  0.3964  1.7367
   18CHTO   C39 7460   5.103   8.491   1.680 -0.0107 -0.5096 -0.3038
   18CHTO   H81 7461   5.037   8.463   1.762  1.0327  1.6797  1.3115
   18CHTO    N7 7462   5.155   8.628   1.714 -0.3755 -0.4270  0.5690
   18CHTO   H73 7463   5.124   8.665   1.810 -1.2236  2.1524 -0.6358
   18CHTO   H74 7464   5.131   8.703   1.640  1.2946  1.2119  1.6569
   18CHTO   C40 7465   5.007   8.499   1.546 -0.1138 -0.4423  0.0163
   18CHTO   H82 7466   5.059   8.533   1.457  0.5951 -1.4211  0.0469
   18CHTO   O26 7467   4.957   8.367   1.531  0.3668 -0.0936 -0.0474
   18CHTO   C41 7468   5.047   8.268   1.485  0.1701 -0.2184 -0.4402
   18CHTO   H83 7469   5.094   8.303   1.392 -1.1919 -2.3747 -1.9951
   18CHTO   C52 7470   4.957   8.149   1.444  0.0358 -0.1518 -0.3507
   18CHTO   O35 7471   4.838   8.137   1.529 -0.6336 -0.6027 -0.2507
   18CHTO   H71 7472   4.836   8.044   1.535  0.7334 -0.6870 -0.7735
   18CHTO   O28 7473   4.907   8.603   1.554  0.5951  0.3902  0.5507
   18CHTO   C42 7474   4.769   8.585   1.591 -0.4574 -0.4202  0.3594
   18CHTO   H84 7475   4.743   8.690   1.585  0.5982 -0.1290  0.8158
   18CHTO   C44 7476   4.718   8.533   1.720 -0.6818  0.0492 -0.5079
   18CHTO   H86 7477   4.769   8.439   1.741  0.4926  0.9292  0.6339
   18CHTO   O32 7478   4.788   8.606   1.823  0.0592  0.3361 -0.3050
   18CHTO   H69 7479   4.780   8.567   1.908 -1.2512 -1.1422 -1.0600
   18CHTO   C48 7480   4.559   8.532   1.746 -0.0794 -0.3175  0.4463
   18CHTO   H90 7481   4.526   8.634   1.766 -0.4747 -0.5087  0.7921
   18CHTO    N9 7482   4.524   8.450   1.867  0.2186  0.1293 -0.0482
   18CHTO   H77 7483   4.582   8.498   1.945  2.5029  1.3179 -2.3733
   18CHTO   H78 7484   4.536   8.345   1.846  0.0648  0.0426  0.2952
   18CHTO   C51 7485   4.480   8.485   1.615 -0.1261  0.2528  0.1763
   18CHTO   H93 7486   4.487   8.376   1.608 -1.7440  0.2377 -1.3668
   18CHTO   O30 7487   4.536   8.548   1.497 -0.6329  0.6078 -0.5519
   18CHTO   C46 7488   4.689   8.508   1.476 -0.1613 -0.1101 -0.4435
   18CHTO   H88 7489   4.705   8.401   1.489 -0.2472 -0.1630 -0.7767
   18CHTO   C53 7490   4.726   8.552   1.327  0.6123 -0.1572  0.2925
   18CHTO   O72 7491   4.653   8.476   1.229 -0.0064 -0.6261  0.3474
   18CHTO  H199 7492   4.563   8.499   1.235  0.3020  0.1886  2.2592
   18CHTO   O22 7493   4.340   8.522   1.628 -0.4176  0.3905  0.1408
   18CHTO   C31 7494   4.246   8.516   1.520  0.7692 -0.2664  0.3243
   18CHTO   H59 7495   4.151   8.533   1.576  1.9624  2.4678  1.5957
   18CHTO   C29 7496   4.250   8.613   1.399  1.0546  0.3593 -0.0023
   18CHTO   H57 7497   4.355   8.603   1.367  1.4672  1.0906  1.1092
   18CHTO   O21 7498   4.229   8.752   1.437 -0.7837 -0.4273  0.2558
   18CHTO   H37 7499   4.281   8.806   1.380  0.8776 -2.1906  0.0618
   18CHTO   C27 7500   4.155   8.586   1.276  0.1180 -0.4427  0.1238
   18CHTO   H55 7501   4.057   8.626   1.305  0.4207  0.3400  0.1023
   18CHTO    N5 7502   4.201   8.646   1.148  0.5963 -0.2027 -0.5674
   18CHTO   H43 7503   4.124   8.616   1.078  0.9081  0.8601 -1.3902
   18CHTO   H44 7504   4.194   8.753   1.163 -1.4880 -0.2391 -1.0771
   18CHTO   C25 7505   4.146   8.435   1.254 -0.7485  0.4575 -0.5005
   18CHTO   H53 7506   4.238   8.396   1.209 -0.2822  1.8444 -0.7742
   18CHTO   O17 7507   4.122   8.359   1.373 -0.2407  0.8445 -0.2154
   18CHTO   C32 7508   4.227   8.369   1.463  0.2588  0.0585  0.2186
   18CHTO   H60 7509   4.322   8.341   1.416  0.1644  0.9464 -0.5003
   18CHTO   C36 7510   4.180   8.268   1.578 -0.4721 -0.1818  0.0246
   18CHTO   O25 7511   4.261   8.270   1.691 -0.3679 -0.1744  0.0740
   18CHTO   H40 7512   4.334   8.217   1.665 -0.1233  1.3655 -2.5548
   18CHTO   O15 7513   4.021   8.399   1.147  0.0095  0.6887 -0.2290
   18CHTO   C19 7514   4.047   8.298   1.034  0.0015  0.2450 -0.7243
   18CHTO   H47 7515   3.943   8.267   1.014  0.2308  0.0251 -1.6149
   18CHTO   C20 7516   4.109   8.364   0.911 -0.2539 -0.0298  0.2280
   18CHTO   H48 7517   4.207   8.409   0.933 -1.0383  1.6538  0.4002
   18CHTO   O19 7518   4.024   8.468   0.860 -0.6110  0.4272 -0.3581
   18CHTO   H35 7519   4.016   8.530   0.931  1.2622 -0.4550  0.6758
   18CHTO   C21 7520   4.136   8.255   0.793 -0.2219  0.4197  0.2132
   18CHTO   H49 7521   4.037   8.216   0.767  1.4014 -4.0021  0.2730
   18CHTO    N4 7522   4.196   8.318   0.671  0.1227  0.3684  0.0743
   18CHTO   H41 7523   4.293   8.356   0.697  1.1587 -2.6311  0.7565
   18CHTO   H42 7524   4.127   8.396   0.641 -0.1164 -0.5206 -1.7235
   18CHTO   C22 7525   4.213   8.138   0.864 -0.3791 -0.2153  0.7066
   18CHTO   H50 7526   4.307   8.187   0.891  0.2079  1.1512 -3.3752
   18CHTO   O14 7527   4.139   8.073   0.968 -0.0441 -0.2621 -0.4155
   18CHTO   C23 7528   4.122   8.168   1.074 -0.4234 -0.2493 -0.1876
   18CHTO   H51 7529   4.227   8.183   1.106 -1.2256  0.7053  2.1309
   18CHTO   C34 7530   4.049   8.099   1.188  0.0961  0.1526 -0.7300
   18CHTO   O23 7531   4.128   7.986   1.230 -0.4194 -0.1815 -0.1269
   18CHTO   H38 7532   4.085   7.948   1.305 -0.1481 -0.5172 -0.1384
   18CHTO   O16 7533   4.244   8.032   0.766 -0.2442 -0.9334 -0.2382
   18CHTO   C24 7534   4.388   8.042   0.709  0.4582  0.0444  0.2828
   18CHTO   H52 7535   4.424   8.145   0.707 -0.4715  0.4000  1.2936
   18CHTO   C26 7536   4.378   7.981   0.568 -0.3245  0.0273 -0.2775
   18CHTO   H54 7537   4.332   7.880   0.566 -0.1583 -0.0183 -3.8659
   18CHTO   O20 7538   4.287   8.061   0.495 -0.4678  0.0338 -0.2068
   18CHTO   H36 7539   4.334   8.140   0.478  1.2742 -0.8789  0.3075
   18CHTO   C30 7540   4.520   7.965   0.500 -1.0774 -0.7487  0.3676
   18CHTO   H58 7541   4.546   8.069   0.471  0.1447 -0.9605  0.6586
   18CHTO    N6 7542   4.522   7.881   0.379  0.6966 -0.7584  0.0396
   18CHTO   H45 7543   4.577   7.788   0.387  1.5053 -0.2315  0.6924
   18CHTO   H46 7544   4.422   7.854   0.348 -0.5691  0.7854  2.6339
   18CHTO   C33 7545   4.633   7.924   0.600 -0.4957 -0.0371  0.1474
   18CHTO   H61 7546   4.624   7.816   0.620 -1.0563 -0.0704 -0.2793
   18CHTO   O18 7547   4.615   7.996   0.720  0.0582 -0.3301 -0.3720
   18CHTO   C28 7548   4.488   7.963   0.785  0.0485  0.5024 -0.3700
   18CHTO   H56 7549   4.472   7.855   0.788  3.1978 -0.0050  0.1925
   18CHTO   C35 7550   4.502   8.011   0.926  0.4224  0.2789 -0.1798
   18CHTO   O24 7551   4.400   7.957   1.010 -0.3256  0.0210 -0.6829
   18CHTO   H39 7552   4.316   7.932   0.976  0.4233 -1.4717 -1.4867
   18CHTO    O9 7553   4.768   7.939   0.543 -0.3067  0.8697 -0.5221
   18CHTO   C13 7554   4.890   7.877   0.650 -0.6491 -0.2401  0.4562
   18CHTO   H26 7555   4.836   7.833   0.737  1.7869 -1.2247  1.5067
   18CHTO   C11 7556   4.981   7.992   0.695 -0.4271  0.3021  0.7741
   18CHTO   H24 7557   4.919   8.065   0.749  1.3075  0.2558  2.8725
   18CHTO    O8 7558   5.039   8.058   0.581 -0.1731 -0.2707 -0.1995
   18CHTO    H3 7559   4.968   8.079   0.524 -1.5100  0.5708  1.7328
   18CHTO    C9 7560   5.091   7.936   0.790  0.5018  0.0548 -0.9258
   18CHTO   H22 7561   5.036   7.888   0.872  0.5582  2.8641  0.8092
   18CHTO    N2 7562   5.171   8.042   0.857  0.5489  0.2145  0.0245
   18CHTO   H10 7563   5.140   8.053   0.960  3.5504  1.4860  0.8326
   18CHTO   H11 7564   5.276   8.016   0.860  0.3333 -0.6241  0.7162
   18CHTO    C7 7565   5.175   7.825   0.709  0.7039 -0.3839 -0.9055
   18CHTO   H20 7566   5.240   7.780   0.787  0.8589  1.3843 -0.0038
   18CHTO    O4 7567   5.095   7.721   0.655  0.6594  0.0204  0.1825
   18CHTO   C14 7568   4.982   7.761   0.576 -1.0897 -0.0824  0.1329
   18CHTO   H27 7569   4.924   7.667   0.570 -3.7717  1.1730  4.5478
   18CHTO   C18 7570   5.034   7.791   0.432 -0.6387 -0.4192  0.1416
   18CHTO   O13 7571   4.928   7.810   0.339 -0.2460  0.1515 -0.1890
   18CHTO    H7 7572   4.885   7.727   0.335 -0.9641  0.5450 -0.7898
   18CHTO    O2 7573   5.282   7.892   0.586 -0.7121 -0.3128  0.2219
   18CHTO    C1 7574   5.413   7.835   0.565 -0.2772  0.2609 -0.2333
   18CHTO   H14 7575   5.438   7.866   0.461 -1.5808  0.6575 -0.4502
   18CHTO    C2 7576   5.429   7.677   0.567 -0.1488  0.2545  0.3919
   18CHTO   H15 7577   5.387   7.650   0.665  0.2869 -1.3898  0.1349
   18CHTO    O6 7578   5.341   7.623   0.458  0.0832 -0.7890  0.3506
   18CHTO    H1 7579   5.254   7.657   0.457 -0.0566 -1.1114 -1.7575
   18CHTO    C3 7580   5.574   7.630   0.541  0.3294  0.2321  0.5082
   18CHTO   H16 7581   5.613   7.667   0.445 -3.1290 -0.5430 -1.3010
   18CHTO    N1 7582   5.586   7.483   0.550  0.7635  0.0368 -0.5679
   18CHTO    H8 7583   5.657   7.452   0.626 -0.5223 -0.5117  0.4435
   18CHTO    H9 7584   5.608   7.441   0.454 -0.9724 -0.8760 -0.5919
   18CHTO    C4 7585   5.662   7.691   0.655 -0.2669  0.9663 -0.2490
   18CHTO   H17 7586   5.638   7.642   0.749  2.5090  0.9445  0.4818
   18CHTO    O1 7587   5.642   7.832   0.667 -0.8924 -0.1404 -0.4552
   18CHTO    C5 7588   5.518   7.897   0.661  0.1923 -0.1864  0.3613
   18CHTO   H18 7589   5.475   7.892   0.761  0.8735 -0.7950  0.6316
   18CHTO   C16 7590   5.556   8.043   0.620  0.0567  0.2657  0.1448
   18CHTO   O11 7591   5.445   8.123   0.605  0.3356 -0.4367  0.1202
   18CHTO    H5 7592   5.457   8.187   0.672 -1.7301 -1.7556  1.7883
   18CHTO    O3 7593   5.798   7.674   0.623 -0.0261 -0.4648 -0.4866
   18CHTO    C6 7594   5.881   7.665   0.749  0.1766  0.2211  0.6967
   18CHTO   H19 7595   5.828   7.691   0.840  1.2078  0.1421  1.3233
   18CHTO    C8 7596   5.929   7.516   0.772 -0.5583  1.3649 -0.7225
   18CHTO   H21 7597   5.960   7.473   0.677  1.9963 -0.2067  0.7749
   18CHTO    O7 7598   5.814   7.451   0.814  0.4145 -0.2887 -0.3353
   18CHTO    H2 7599   5.835   7.365   0.844 -2.3316 -0.6093  0.8612
   18CHTO   C12 7600   6.042   7.513   0.887 -0.3640 -0.5104  0.2731
   18CHTO   H25 7601   6.002   7.535   0.989 -0.5480 -0.3209  0.1592
   18CHTO    N3 7602   6.097   7.374   0.902  0.2236 -0.3175  0.1755
   18CHTO   H12 7603   6.063   7.330   0.995  2.7299 -1.1010  0.7795
   18CHTO   H13 7604   6.205   7.373   0.904  0.2586  2.1042  0.6265
   18CHTO   C15 7605   6.148   7.626   0.849  0.2713 -0.2016  0.2935
   18CHTO   H28 7606   6.201   7.602   0.757  0.4618  0.2129  0.2937
   18CHTO   O10 7607   6.253   7.635   0.963  0.1619 -0.0967  0.3390
   18CHTO    H4 7608   6.303   7.557   0.977  0.4707 -0.0979 -0.7744
   18CHTO    O5 7609   6.094   7.757   0.841  0.4427 -0.3644  0.1348
   18CHTO   C10 7610   5.995   7.778   0.735 -0.7719  0.1354 -0.1313
   18CHTO   H23 7611   6.041   7.769   0.636 -0.8700  3.1016 -0.4885
   18CHTO   C17 7612   5.951   7.924   0.745 -0.3019  0.3454 -0.6538
   18CHTO   O12 7613   6.060   8.024   0.739  0.2835 -0.2081  0.3719
   18CHTO    H6 7614   6.065   8.048   0.649  0.0752 -1.0816  0.1266
   19CHTO  H203 7615   4.592   9.748   2.611  1.0198 -0.6961 -0.0559
   19CHTO   O82 7616   4.526   9.748   2.545  0.4888  0.0690  0.4657
   19CHTO  C123 7617   4.503   9.618   2.487 -0.0685 -0.6437 -0.4084
   19CHTO  H227 7618   4.420   9.631   2.416 -0.5517 -0.4394  0.1921
   19CHTO   O77 7619   4.623   9.598   2.406  0.6020  0.6869  0.3041
   19CHTO  C118 7620   4.596   9.483   2.318  0.2141 -0.3527 -0.5753
   19CHTO  H222 7621   4.499   9.500   2.270  0.7103  1.0201 -1.1301
   19CHTO  C125 7622   4.716   9.490   2.211  0.2803 -0.1709  0.0928
   19CHTO   O84 7623   4.691   9.408   2.102  0.2425 -0.1035  0.3004
   19CHTO  H205 7624   4.758   9.414   2.037  0.4942  1.5722  0.7037
   19CHTO  C114 7625   4.600   9.352   2.398  0.1275 -0.0506  0.9477
   19CHTO  H218 7626   4.702   9.336   2.435 -0.1071  1.1597  2.1476
   19CHTO  C116 7627   4.503   9.367   2.520  0.5355 -0.3514  0.1020
   19CHTO  H220 7628   4.402   9.342   2.480  0.9998  0.6655 -1.7658
   19CHTO   O79 7629   4.522   9.262   2.620 -0.4744 -0.1457  0.7143
   19CHTO  H201 7630   4.474   9.187   2.592 -1.0260  0.1064  0.9746
   19CHTO  C120 7631   4.490   9.509   2.591 -0.2341  0.3185  0.0942
   19CHTO  H224 7632   4.567   9.509   2.671 -0.3928 -0.4334  0.2485
   19CHTO   N21 7633   4.363   9.514   2.665  0.0879  0.1783  0.3158
   19CHTO  H211 7634   4.323   9.428   2.716  1.4022 -1.2957 -1.0769
   19CHTO  H212 7635   4.358   9.601   2.728 -0.4891 -0.6100  1.3813
   19CHTO   O75 7636   4.568   9.246   2.308 -0.0267 -0.3416 -0.2841
   19CHTO  C112 7637   4.642   9.106   2.341 -0.7441 -0.0804 -0.2438
   19CHTO  H216 7638   4.667   9.114   2.448 -1.0643 -0.4815 -0.1365
   19CHTO   O73 7639   4.759   9.102   2.260 -0.8117 -0.0479 -0.5345
   19CHTO  C113 7640   4.845   8.998   2.308 -0.7217 -0.7653 -0.4405
   19CHTO  H217 7641   4.844   9.012   2.418 -0.5192  2.0774 -0.7709
   19CHTO  C124 7642   4.978   9.036   2.238 -0.2113 -0.2689  0.0777
   19CHTO   O83 7643   5.039   9.159   2.283  0.4152 -0.2073 -0.7743
   19CHTO  H204 7644   5.059   9.151   2.375  0.6337 -1.0950 -0.8934
   19CHTO  C109 7645   4.779   8.860   2.267  0.4005  0.6579  0.2136
   19CHTO  H213 7646   4.756   8.862   2.159 -1.2082 -1.1362  0.4999
   19CHTO  C110 7647   4.637   8.850   2.338  0.3287 -0.3176 -0.3607
   19CHTO  H214 7648   4.650   8.845   2.446 -1.4485 -0.6070 -0.1443
   19CHTO   O78 7649   4.568   8.733   2.283  0.3007 -0.0355 -0.1075
   19CHTO  H200 7650   4.493   8.749   2.228 -2.2180 -0.9468  2.9038
   19CHTO  C111 7651   4.553   8.984   2.315  0.6261  0.0054  0.0503
   19CHTO  H215 7652   4.523   8.992   2.209 -2.7398  2.8166  1.1110
   19CHTO   N19 7653   4.424   8.989   2.390  0.0122 -0.6061 -0.3762
   19CHTO  H207 7654   4.436   8.980   2.496  0.0106  1.4870 -0.1740
   19CHTO  H208 7655   4.372   9.082   2.368 -0.6655 -0.7565  0.5604
   19CHTO   O74 7656   4.858   8.744   2.292  0.0903  0.6014 -0.1099
   19CHTO  C115 7657   4.899   8.670   2.161 -0.5347 -0.0495 -1.1816
   19CHTO  H219 7658   4.815   8.669   2.091 -2.9837  1.0918  1.6408
   19CHTO   O76 7659   5.016   8.743   2.092  0.4938  0.2190  0.7094
   19CHTO  C122 7660   5.148   8.696   2.133  0.5170  0.6797 -0.2419
   19CHTO  H226 7661   5.159   8.741   2.232  2.1533  0.4389 -0.3040
   19CHTO  C126 7662   5.259   8.766   2.046  0.1320  0.5994 -0.4410
   19CHTO   O85 7663   5.248   8.909   2.036 -0.3700 -0.0765 -0.4097
   19CHTO  H206 7664   5.162   8.928   2.004 -0.0478  0.3521 -1.0404
   19CHTO  C121 7665   5.183   8.542   2.143 -0.5125 -0.6196  0.2096
   19CHTO  H225 7666   5.259   8.523   2.064  1.6271  1.7395  1.6260
   19CHTO   O81 7667   5.254   8.515   2.264  0.0952 -0.0388 -0.3685
   19CHTO  H202 7668   5.278   8.424   2.273 -0.9865 -0.2312  0.7099
   19CHTO  C119 7669   5.058   8.462   2.127  0.1806  0.2956  0.4486
   19CHTO  H223 7670   5.025   8.470   2.023  0.6227 -0.5588  0.2319
   19CHTO  C117 7671   4.932   8.524   2.215 -0.2671  1.7270  0.0339
   19CHTO  H221 7672   4.952   8.535   2.322 -0.9816  1.0234  0.2452
   19CHTO   N20 7673   4.812   8.440   2.212 -0.5322 -0.0027 -0.1090
   19CHTO  H209 7674   4.733   8.482   2.272 -1.0026 -0.9950 -0.0279
   19CHTO  H210 7675   4.840   8.343   2.251  0.0505  0.4166  0.5294
   19CHTO   O80 7676   5.082   8.318   2.147  0.0520  0.1359  0.5756
   19CHTO  C103 7677   5.143   8.239   2.040 -0.6678  0.3126 -0.0466
   19CHTO  H190 7678   5.134   8.288   1.944  0.8324 -1.5564 -1.1644
   19CHTO  C101 7679   5.295   8.188   2.061  1.0747 -0.1942  0.5353
   19CHTO  H188 7680   5.306   8.150   2.163 -0.2566 -0.2325  0.6718
   19CHTO   O68 7681   5.392   8.291   2.044  0.2715  0.0341 -0.6404
   19CHTO  H168 7682   5.480   8.258   2.044  0.0528 -0.6182  1.0601
   19CHTO   C99 7683   5.334   8.070   1.957 -0.2634 -0.4207 -0.7597
   19CHTO  H186 7684   5.332   8.113   1.855 -0.5206  0.2385 -0.4826
   19CHTO   N17 7685   5.471   8.010   1.980  0.5634  0.4345 -0.3928
   19CHTO  H174 7686   5.486   8.012   2.086  0.5851  0.3402 -0.3941
   19CHTO  H175 7687   5.538   8.084   1.938 -0.5597  0.5538 -2.0638
   19CHTO   C97 7688   5.228   7.960   1.959 -0.0622  0.3520  0.0885
   19CHTO  H184 7689   5.234   7.907   2.055 -0.4659 -2.1711 -1.2423
   19CHTO   O64 7690   5.102   8.013   1.938  0.8394  0.0800 -0.4546
   19CHTO  C104 7691   5.055   8.111   2.034  0.3643  0.0296 -0.2985
   19CHTO  H191 7692   5.059   8.058   2.129 -2.1093  1.6849  0.7407
   19CHTO  C108 7693   4.907   8.138   2.005 -0.4503 -0.1501 -0.6933
   19CHTO   O71 7694   4.881   8.234   1.902  0.4749 -0.6349 -0.1191
   19CHTO  H171 7695   4.829   8.306   1.931  1.2984 -0.0756  0.0017
   19CHTO   O62 7696   5.241   7.876   1.842 -0.1927 -0.1950 -0.5759
   19CHTO   C91 7697   5.185   7.747   1.859  0.1491  0.1193 -0.5021
   19CHTO  H178 7698   5.155   7.744   1.964  4.2020  2.4598  0.8372
   19CHTO   C92 7699   5.291   7.629   1.836  0.0321 -0.4001 -0.5167
   19CHTO  H179 7700   5.334   7.641   1.735 -1.0217 -1.1702 -1.0626
   19CHTO   O66 7701   5.398   7.661   1.922  0.3397 -0.1476  0.1087
   19CHTO  H166 7702   5.463   7.712   1.878  1.6813  0.2907  2.4826
   19CHTO   C93 7703   5.229   7.488   1.864 -0.5334 -0.2018 -0.9237
   19CHTO  H180 7704   5.204   7.479   1.971  2.0630 -2.0409 -0.4178
   19CHTO   N16 7705   5.332   7.382   1.831 -0.7002 -0.3912  0.3530
   19CHTO  H172 7706   5.369   7.401   1.731 -0.6211  3.2715  1.0021
   19CHTO  H173 7707   5.409   7.392   1.906 -1.1762 -0.0391  0.8025
   19CHTO   C94 7708   5.095   7.475   1.778  0.0944 -0.4396 -0.3833
   19CHTO  H181 7709   5.119   7.471   1.672 -1.6326 -4.9827 -0.7173
   19CHTO   O61 7710   5.005   7.589   1.805  1.0302  0.2999 -0.1805
   19CHTO   C95 7711   5.061   7.715   1.764 -0.3120 -0.6096 -0.1626
   19CHTO  H182 7712   5.104   7.705   1.664 -0.4946 -1.5569 -0.1559
   19CHTO  C106 7713   4.944   7.816   1.758 -0.1932  0.7160 -0.2169
   19CHTO   O69 7714   4.883   7.789   1.631 -0.8420 -0.2799 -0.5001
   19CHTO  H169 7715   4.803   7.838   1.630  0.1338  1.3782 -0.3296
   19CHTO   O63 7716   5.015   7.352   1.806 -0.6051 -0.0517  0.0470
   19CHTO   C96 7717   4.931   7.303   1.676  0.4084  0.7579  0.0244
   19CHTO  H183 7718   5.005   7.283   1.598 -0.1256 -3.5052  0.5127
   19CHTO   C98 7719   4.833   7.401   1.619  0.1700  0.8281 -0.4580
   19CHTO  H185 7720   4.875   7.502   1.611  0.4322  0.7689  0.1460
   19CHTO   O67 7721   4.806   7.357   1.489  0.7250 -0.5198  0.4273
   19CHTO  H167 7722   4.736   7.405   1.448  0.4368 -0.9474  0.4184
   19CHTO  C102 7723   4.701   7.393   1.702  0.2508 -0.0444  0.2958
   19CHTO  H189 7724   4.625   7.442   1.639  1.3072 -1.2332 -1.9585
   19CHTO   N18 7725   4.698   7.471   1.833 -0.3927  0.3113  0.3683
   19CHTO  H176 7726   4.759   7.560   1.825 -0.5162  0.3577 -0.0383
   19CHTO  H177 7727   4.594   7.494   1.852 -0.3157  0.1949  0.9418
   19CHTO  C105 7728   4.646   7.244   1.728 -0.5985 -0.2399 -0.5168
   19CHTO  H192 7729   4.653   7.218   1.833 -1.1548 -2.0886 -0.9267
   19CHTO   O65 7730   4.725   7.152   1.652 -1.1005  0.2076 -0.4097
   19CHTO  C100 7731   4.864   7.158   1.705 -0.2435 -0.0094 -0.2139
   19CHTO  H187 7732   4.862   7.150   1.814  1.1106  3.3200  0.1467
   19CHTO  C107 7733   4.941   7.039   1.646  0.0902  0.2269  0.0332
   19CHTO   O70 7734   5.066   6.999   1.713 -0.0347  0.2609  0.4241
   19CHTO  H170 7735   5.091   7.071   1.767 -0.9190  0.5428  0.4636
   19CHTO   O57 7736   4.501   7.248   1.699 -0.1404  0.4781  0.2877
   19CHTO   C85 7737   4.421   7.167   1.790 -0.4232  0.0068  0.3163
   19CHTO  H157 7738   4.475   7.142   1.885  1.0541 -1.8313 -0.9572
   19CHTO   C83 7739   4.408   7.025   1.721 -0.2357  0.6431  0.2196
   19CHTO  H155 7740   4.512   6.995   1.709 -0.1577  0.6813  0.7716
   19CHTO   O56 7741   4.343   7.042   1.595 -0.0752  0.0137 -0.6517
   19CHTO  H135 7742   4.376   6.982   1.532 -1.5008 -1.1874 -0.2754
   19CHTO   C81 7743   4.338   6.921   1.811  0.1142 -0.1228 -0.5863
   19CHTO  H153 7744   4.394   6.909   1.904 -0.1243 -1.7715 -0.6268
   19CHTO   N14 7745   4.342   6.779   1.762 -0.2923  0.1879  0.2382
   19CHTO  H141 7746   4.438   6.732   1.771  0.0017  0.6441 -0.5069
   19CHTO  H142 7747   4.305   6.768   1.662 -0.1452  1.7366  0.0006
   19CHTO   C79 7748   4.193   6.976   1.848 -0.3259  0.3297  0.5015
   19CHTO  H151 7749   4.163   6.923   1.939  0.0948 -0.0179  0.4405
   19CHTO   O52 7750   4.192   7.123   1.884  0.0659  0.7317  0.1081
   19CHTO   C86 7751   4.270   7.221   1.812 -0.1119 -0.3524 -0.5850
   19CHTO  H158 7752   4.211   7.255   1.723  0.9045 -0.0009 -1.1334
   19CHTO   C90 7753   4.284   7.343   1.907 -0.5241  0.2745 -0.0575
   19CHTO   O60 7754   4.159   7.406   1.944  0.4357  0.4970 -0.6461
   19CHTO  H138 7755   4.179   7.496   1.960  1.8371 -0.2305  1.9283
   19CHTO   O50 7756   4.086   6.952   1.754 -0.2530  0.0397  0.2124
   19CHTO   C73 7757   3.950   6.949   1.718  0.6450 -0.2727 -0.0014
   19CHTO  H145 7758   3.914   6.845   1.720 -1.0026  0.2596 -0.9980
   19CHTO   C74 7759   3.931   6.996   1.571 -0.5207  0.5818 -0.1166
   19CHTO  H146 7760   4.000   6.936   1.509  0.2657  0.7734  0.5581
   19CHTO   O54 7761   3.803   6.951   1.532  0.6842  0.0747  0.0831
   19CHTO  H133 7762   3.793   6.948   1.439 -1.8515 -1.3607  0.3576
   19CHTO   C75 7763   3.962   7.152   1.561 -0.0970 -0.5782 -0.1874
   19CHTO  H147 7764   4.069   7.168   1.579  0.0303 -0.6300 -0.8645
   19CHTO   N13 7765   3.927   7.204   1.423  0.1303  0.1672  0.6743
   19CHTO  H139 7766   3.843   7.148   1.385 -0.1598  2.0657 -1.6364
   19CHTO  H140 7767   3.889   7.304   1.438  0.1727 -0.0319  2.2253
   19CHTO   C76 7768   3.884   7.237   1.672  0.0978  0.3144  0.8667
   19CHTO  H148 7769   3.777   7.241   1.650 -0.4736  0.1468  3.4061
   19CHTO   O49 7770   3.898   7.172   1.800  0.7346  0.4350 -0.1004
   19CHTO   C77 7771   3.857   7.035   1.801  0.2369 -0.2537 -0.1676
   19CHTO  H149 7772   3.752   7.019   1.774 -1.1519  1.4511  3.9611
   19CHTO   C88 7773   3.866   6.995   1.950 -0.3379  0.1720  0.5126
   19CHTO   O58 7774   3.821   7.065   2.034  0.3353 -0.7600  0.0230
   19CHTO  H136 7775   3.877   7.060   2.109  0.3632 -0.3110  0.0363
   19CHTO   O51 7776   3.955   7.387   1.695 -0.3368  0.1553  0.2920
   19CHTO   C78 7777   3.880   7.520   1.677  0.4453  0.0941 -0.0253
   19CHTO  H150 7778   3.784   7.510   1.623  0.3004 -1.7669  0.5251
   19CHTO   C80 7779   3.965   7.621   1.602 -0.2474  0.0703  0.0007
   19CHTO  H152 7780   4.068   7.628   1.644 -0.6954 -0.1980  1.1569
   19CHTO   O55 7781   3.977   7.575   1.469 -0.7284 -0.1084  0.2262
   19CHTO  H134 7782   3.902   7.599   1.417 -0.3628 -1.5177 -0.9727
   19CHTO   C84 7783   3.901   7.769   1.596  0.6542 -0.0716  0.1562
   19CHTO  H156 7784   3.804   7.764   1.547  0.2472  0.6522  0.8769
   19CHTO   N15 7785   3.990   7.874   1.537  0.3206 -0.0594  0.0442
   19CHTO  H143 7786   3.955   7.975   1.543  2.4901  0.9196 -2.6347
   19CHTO  H144 7787   4.015   7.847   1.436  4.9083  0.7135  0.8330
   19CHTO   C87 7788   3.864   7.811   1.739 -0.7910  0.5663  0.6702
   19CHTO  H159 7789   3.944   7.829   1.811 -1.2504  0.3851  1.2314
   19CHTO   O53 7790   3.775   7.704   1.786 -0.1885 -0.3125 -0.2528
   19CHTO   C82 7791   3.838   7.578   1.812 -0.2404  0.5748  0.4900
   19CHTO  H154 7792   3.926   7.592   1.875  0.3765 -0.6654 -0.0738
   19CHTO   C89 7793   3.736   7.501   1.897 -0.2535 -0.0834  0.4852
   19CHTO   O59 7794   3.766   7.370   1.946 -0.0546  0.5202 -0.2060
   19CHTO  H137 7795   3.684   7.327   1.960  0.5919 -1.0013 -0.9808
   19CHTO   O45 7796   3.773   7.952   1.734 -0.3916 -0.2117  0.2052
   19CHTO   C67 7797   3.777   8.027   1.856  0.0821 -0.3854 -0.5062
   19CHTO  H124 7798   3.783   7.955   1.937  0.8136 -0.1308 -0.3305
   19CHTO   C65 7799   3.906   8.117   1.849 -0.0189 -0.3499  0.7801
   19CHTO  H122 7800   3.934   8.112   1.744 -0.8798 -2.3804  0.6202
   19CHTO   O44 7801   4.000   8.049   1.925 -0.3232 -0.1238  0.1065
   19CHTO  H102 7802   4.004   8.099   2.005 -0.3801 -1.0383  0.6861
   19CHTO   C63 7803   3.872   8.267   1.896 -0.2322  0.1505  0.0106
   19CHTO  H120 7804   3.805   8.310   1.821 -0.7798 -0.9555 -0.1504
   19CHTO   N11 7805   3.991   8.359   1.894 -0.4701  0.2315 -0.1346
   19CHTO  H108 7806   4.076   8.323   1.948 -1.1002 -2.1790 -0.6531
   19CHTO  H109 7807   3.982   8.464   1.876 -1.1931  0.0488 -0.8845
   19CHTO   C61 7808   3.783   8.260   2.018  0.4618  0.3327 -0.2918
   19CHTO  H118 7809   3.766   8.365   2.045  1.0604  0.5546 -0.7679
   19CHTO   O40 7810   3.654   8.211   1.988  0.2843 -0.3681 -0.1762
   19CHTO   C68 7811   3.652   8.111   1.882 -0.2847 -0.3305  0.8828
   19CHTO  H125 7812   3.635   8.175   1.793  2.2199 -1.0715 -0.1657
   19CHTO   C72 7813   3.522   8.028   1.904  0.3798 -0.5307  0.1874
   19CHTO   O48 7814   3.532   7.957   2.025  0.4719 -0.3035 -0.6942
   19CHTO  H105 7815   3.537   8.016   2.099  0.1533  0.1737 -1.0540
   19CHTO   O38 7816   3.837   8.189   2.133 -0.6041 -0.2639  0.3014
   19CHTO   C55 7817   3.759   8.140   2.244  0.2310 -0.4499  0.0477
   19CHTO  H112 7818   3.679   8.078   2.201 -0.1919 -0.9685  1.5661
   19CHTO   C56 7819   3.702   8.251   2.337 -0.3745  0.1744 -0.2581
   19CHTO  H113 7820   3.785   8.299   2.392 -1.4531  0.5598  1.0838
   19CHTO   O42 7821   3.628   8.348   2.261  0.6736 -0.3682  0.7367
   19CHTO  H100 7822   3.672   8.430   2.261  3.1999 -1.6270 -1.4453
   19CHTO   C57 7823   3.613   8.190   2.448 -0.4777  0.0864  0.8382
   19CHTO  H114 7824   3.530   8.167   2.381  1.3853  0.5792 -1.7206
   19CHTO   N10 7825   3.570   8.277   2.560  0.1987  0.4249  0.0488
   19CHTO  H106 7826   3.489   8.334   2.517 -0.5913 -0.3719  0.4573
   19CHTO  H107 7827   3.652   8.338   2.594 -0.4743  1.5620 -0.3333
   19CHTO   C58 7828   3.668   8.057   2.512  0.1457 -0.4474  0.3774
   19CHTO  H115 7829   3.730   8.078   2.602 -0.9077  1.9498  0.5768
   19CHTO   O37 7830   3.753   7.988   2.426  0.1043  0.2748  0.3322
   19CHTO   C59 7831   3.847   8.041   2.335  1.2062 -0.1401 -0.1353
   19CHTO  H116 7832   3.927   8.097   2.384  0.9886  0.0031  0.0576
   19CHTO   C70 7833   3.920   7.926   2.259  0.4750  0.2128 -0.0159
   19CHTO   O46 7834   3.834   7.868   2.163 -0.3854  0.4009 -0.0841
   19CHTO  H103 7835   3.867   7.781   2.152  1.6213  1.0920  0.1093
   19CHTO   O39 7836   3.536   7.945   2.558 -0.1798  0.1941  0.6663
   19CHTO   C60 7837   3.483   7.869   2.447 -0.8103  0.4945  0.0542
   19CHTO  H117 7838   3.507   7.924   2.356 -1.8180 -0.1082 -0.5816
   19CHTO   C62 7839   3.573   7.745   2.428 -0.2357  0.6089 -0.8767
   19CHTO  H119 7840   3.676   7.782   2.409 -0.6703  1.6171 -1.3502
   19CHTO   O43 7841   3.585   7.670   2.549 -0.2922 -0.3139  0.5730
   19CHTO  H101 7842   3.615   7.582   2.536 -0.6850 -0.3331 -0.2480
   19CHTO   C66 7843   3.523   7.668   2.291 -0.4935 -0.0144 -0.4981
   19CHTO  H123 7844   3.522   7.740   2.209  0.0430  0.4486 -0.0994
   19CHTO   N12 7845   3.611   7.562   2.249  0.2046  0.2476  0.1825
   19CHTO  H110 7846   3.640   7.593   2.150  0.0079  0.1558  0.0956
   19CHTO  H111 7847   3.553   7.472   2.258 -0.3349  0.4541 -1.1587
   19CHTO   C69 7848   3.370   7.641   2.307  0.0456  0.4146  0.0156
   19CHTO  H126 7849   3.343   7.578   2.394 -0.2371 -0.3035 -0.5821
   19CHTO   O41 7850   3.303   7.772   2.311  0.0403  0.4678 -0.0243
   19CHTO   C64 7851   3.331   7.845   2.446 -0.5984 -0.0591  0.0414
   19CHTO  H121 7852   3.303   7.771   2.524 -1.3531  0.0492 -0.1158
   19CHTO   C71 7853   3.249   7.979   2.457  0.1525  0.4290 -0.4219
   19CHTO   O47 7854   3.272   8.070   2.349  0.1869  0.0199  0.0866
   19CHTO  H104 7855   3.202   8.059   2.287  0.9485  0.8772 -0.9523
   19CHTO   O34 7856   3.317   7.571   2.180 -0.3691 -0.0700 -0.6311
   19CHTO   C49 7857   3.225   7.595   2.061  0.4319  0.1972 -0.7144
   19CHTO   H91 7858   3.130   7.599   2.113  1.8124  2.5844  1.7736
   19CHTO   C47 7859   3.220   7.470   1.972  0.1818 -0.1113 -0.2040
   19CHTO   H89 7860   3.133   7.474   1.903 -0.8854  2.0994  1.2175
   19CHTO   O33 7861   3.192   7.367   2.066 -0.1247 -0.1233 -0.2457
   19CHTO   H70 7862   3.186   7.282   2.026  0.4641  0.2095 -1.0554
   19CHTO   C45 7863   3.360   7.460   1.886  0.2212 -0.2871 -0.1672
   19CHTO   H87 7864   3.449   7.450   1.950 -0.5929 -0.2715  0.9906
   19CHTO    N8 7865   3.351   7.339   1.806 -0.3722 -0.3544 -0.1007
   19CHTO   H75 7866   3.452   7.323   1.769  0.1996  0.1761  1.2066
   19CHTO   H76 7867   3.323   7.249   1.859  1.5654 -1.6777 -1.2229
   19CHTO   C43 7868   3.388   7.605   1.807 -0.0599  0.1559 -0.0066
   19CHTO   H85 7869   3.489   7.591   1.770  0.7027  1.3893  1.5614
   19CHTO   O29 7870   3.373   7.717   1.897 -0.1064  0.2032 -0.0012
   19CHTO   C50 7871   3.256   7.721   1.980 -0.5868  0.9432  0.3597
   19CHTO   H92 7872   3.282   7.800   2.052  3.4990 -0.4748  0.5879
   19CHTO   C54 7873   3.133   7.775   1.910  0.2583  0.7912 -0.0944
   19CHTO   O36 7874   3.166   7.904   1.865  0.2668  0.4655 -0.7995
   19CHTO   H72 7875   3.143   7.964   1.933  1.9498 -2.5869  2.6561
   19CHTO   O27 7876   3.306   7.628   1.687  0.1509  0.5262 -0.4017
   19CHTO   C37 7877   3.345   7.676   1.554  0.0153  0.8325 -0.2773
   19CHTO   H79 7878   3.258   7.727   1.510 -1.4457 -0.8533  0.5215
   19CHTO   C38 7879   3.454   7.783   1.549  0.0222 -0.7267 -0.5143
   19CHTO   H80 7880   3.547   7.739   1.589  0.4957  1.3354  0.7139
   19CHTO   O31 7881   3.403   7.895   1.630  0.3138  0.1211  0.1041
   19CHTO   H68 7882   3.467   7.962   1.644 -0.7815  1.1902  0.0633
   19CHTO   C39 7883   3.473   7.828   1.401 -0.0989  0.4767 -1.3778
   19CHTO   H81 7884   3.375   7.859   1.364 -0.2372  0.2833 -1.1725
   19CHTO    N7 7885   3.561   7.958   1.394 -0.4893  0.1184 -0.5358
   19CHTO   H73 7886   3.523   8.040   1.334  0.7084  0.9858 -0.1159
   19CHTO   H74 7887   3.660   7.932   1.362 -0.4612 -0.5476  0.0843
   19CHTO   C40 7888   3.525   7.706   1.329 -0.1222 -0.2466 -0.2282
   19CHTO   H82 7889   3.617   7.686   1.384 -0.1909 -1.3395 -0.4930
   19CHTO   O26 7890   3.436   7.595   1.335  0.3717  0.6164 -0.3422
   19CHTO   C41 7891   3.385   7.555   1.461 -0.1829 -0.2185 -0.6733
   19CHTO   H83 7892   3.468   7.491   1.493 -2.5243 -3.5374 -1.0134
   19CHTO   C52 7893   3.267   7.457   1.424  0.1114 -0.7087  0.9253
   19CHTO   O35 7894   3.308   7.317   1.376  0.4347  0.3588 -0.5383
   19CHTO   H71 7895   3.334   7.260   1.445  2.0742 -0.9853 -2.2256
   19CHTO   O28 7896   3.558   7.725   1.192  0.0637  0.1564 -0.1641
   19CHTO   C42 7897   3.677   7.765   1.130  0.2106 -0.1378  0.1072
   19CHTO   H84 7898   3.734   7.821   1.204 -0.7754 -1.0177  1.5430
   19CHTO   C44 7899   3.647   7.870   1.013  0.5104  0.2753  0.2283
   19CHTO   H86 7900   3.602   7.819   0.928  0.5026  1.8423 -0.7051
   19CHTO   O32 7901   3.566   7.984   1.066  0.3851  0.7323  0.3064
   19CHTO   H69 7902   3.567   8.058   1.008  1.1484  0.1762 -0.4252
   19CHTO   C48 7903   3.789   7.907   0.961 -0.1368 -0.7242  0.3808
   19CHTO   H90 7904   3.830   7.961   1.046 -0.6688 -1.7564  1.3089
   19CHTO    N9 7905   3.784   8.007   0.847  0.1813 -0.5361  0.3309
   19CHTO   H77 7906   3.721   8.093   0.866 -0.0384 -0.8670  1.1337
   19CHTO   H78 7907   3.753   7.959   0.755 -0.4675 -0.0735  0.3066
   19CHTO   C51 7908   3.868   7.778   0.918 -0.9221 -0.2775 -0.1053
   19CHTO   H93 7909   3.810   7.725   0.842  0.3216  1.3088 -2.2003
   19CHTO   O30 7910   3.895   7.696   1.035 -0.0894 -0.6752 -0.0493
   19CHTO   C46 7911   3.751   7.648   1.081 -0.6598  0.2205  0.2929
   19CHTO   H88 7912   3.696   7.609   0.995 -1.8614  0.9724  0.7094
   19CHTO   C53 7913   3.775   7.542   1.191 -0.6369  0.0154 -0.0734
   19CHTO   O72 7914   3.855   7.432   1.151  0.2485 -0.3495 -0.4329
   19CHTO  H199 7915   3.818   7.385   1.079  2.4241 -1.7545 -0.6753
   19CHTO   O22 7916   4.003   7.801   0.865 -0.2103  0.5578 -0.8350
   19CHTO   C31 7917   4.090   7.689   0.833 -0.0558 -0.6320 -0.2619
   19CHTO   H59 7918   4.036   7.596   0.861 -0.3172 -1.0303 -2.0640
   19CHTO   C29 7919   4.119   7.672   0.680 -0.3872 -0.3771 -0.6444
   19CHTO   H57 7920   4.137   7.771   0.635 -1.5789 -0.4457 -1.2990
   19CHTO   O21 7921   3.987   7.652   0.620  0.0602  0.3084 -0.2591
   19CHTO   H37 7922   3.939   7.733   0.612 -0.2304  0.0743 -0.9268
   19CHTO   C27 7923   4.222   7.571   0.638 -0.0002  0.0039 -0.5312
   19CHTO   H55 7924   4.179   7.471   0.653 -0.0581  0.0492 -0.3897
   19CHTO    N5 7925   4.262   7.592   0.496 -0.1950  0.0670 -0.4947
   19CHTO   H43 7926   4.238   7.689   0.455 -0.2619 -0.1306 -0.9191
   19CHTO   H44 7927   4.360   7.551   0.480  0.1676  0.8519 -0.2859
   19CHTO   C25 7928   4.340   7.566   0.745  0.4980 -0.4094 -0.0002
   19CHTO   H53 7929   4.405   7.653   0.728 -0.1451  0.3391  1.2744
   19CHTO   O17 7930   4.287   7.569   0.882 -0.0707 -0.2176 -0.3054
   19CHTO   C32 7931   4.224   7.694   0.921  0.0290 -1.1733  0.2789
   19CHTO   H60 7932   4.290   7.774   0.888  0.9452 -1.5576  1.1334
   19CHTO   C36 7933   4.207   7.703   1.070  0.0948  0.2981  0.2711
   19CHTO   O25 7934   4.136   7.595   1.134 -0.1476  0.2193 -0.6727
   19CHTO   H40 7935   4.112   7.614   1.223  3.7815  2.1561  0.0784
   19CHTO   O15 7936   4.424   7.443   0.732 -0.6802  0.4579 -0.1518
   19CHTO   C19 7937   4.485   7.351   0.643 -0.4810  0.5479 -0.1324
   19CHTO   H47 7938   4.431   7.363   0.547 -2.2242  0.7512  0.8489
   19CHTO   C20 7939   4.631   7.376   0.606  0.0331 -0.2079 -0.1341
   19CHTO   H48 7940   4.698   7.369   0.693 -0.3356  1.3474  0.2952
   19CHTO   O19 7941   4.642   7.514   0.564 -0.1389 -0.2545  0.1634
   19CHTO   H35 7942   4.659   7.568   0.638  3.9491 -3.4663  1.8154
   19CHTO   C21 7943   4.684   7.278   0.503 -0.3300 -0.2783 -0.9898
   19CHTO   H49 7944   4.637   7.298   0.406 -1.2515  2.1456 -0.1036
   19CHTO    N4 7945   4.827   7.295   0.469 -0.5861  0.4954  0.4481
   19CHTO   H41 7946   4.865   7.395   0.454  3.0218 -1.1004 -1.7866
   19CHTO   H42 7947   4.876   7.233   0.396 -2.5481  0.1138 -0.5602
   19CHTO   C22 7948   4.655   7.140   0.545  0.4509  0.4919  0.5764
   19CHTO   H50 7949   4.725   7.116   0.625 -0.7620  0.3100  1.5829
   19CHTO   O14 7950   4.514   7.117   0.575  0.4836  0.0197  0.1434
   19CHTO   C23 7951   4.469   7.197   0.684  0.7775  1.8239 -0.4490
   19CHTO   H51 7952   4.528   7.168   0.772 -1.6420 -0.0483  0.6078
   19CHTO   C34 7953   4.329   7.152   0.721  1.1335 -0.0574 -0.3371
   19CHTO   O23 7954   4.320   7.023   0.782  0.6908  0.0250  0.1307
   19CHTO   H38 7955   4.389   6.962   0.762 -0.0408  0.1203 -2.9073
   19CHTO   O16 7956   4.656   7.054   0.424  0.4826 -0.1456  0.6686
   19CHTO   C24 7957   4.748   6.930   0.420  0.0246 -0.6498 -0.7790
   19CHTO   H52 7958   4.845   6.948   0.466 -0.4515 -0.4316  0.1629
   19CHTO   C26 7959   4.780   6.902   0.275 -0.5903  0.2083  0.2203
   19CHTO   H54 7960   4.686   6.910   0.216  0.4158  0.5337 -1.3779
   19CHTO   O20 7961   4.865   7.003   0.226  0.1575  1.2093 -0.2481
   19CHTO   H36 7962   4.814   7.081   0.225 -0.1903  0.9809 -0.4842
   19CHTO   C30 7963   4.829   6.764   0.244 -0.0113 -0.2772 -0.5162
   19CHTO   H58 7964   4.932   6.746   0.278 -0.2358 -3.7431 -1.4576
   19CHTO    N6 7965   4.844   6.738   0.095  0.8508  0.1509  0.3954
   19CHTO   H45 7966   4.755   6.764   0.040  1.1911 -0.5894 -0.5201
   19CHTO   H46 7967   4.866   6.634   0.080 -1.9442 -0.2775 -0.9717
   19CHTO   C33 7968   4.737   6.660   0.315 -0.1345 -0.7338  0.7890
   19CHTO   H61 7969   4.640   6.691   0.273  1.8360  3.9175 -0.6433
   19CHTO   O18 7970   4.740   6.682   0.457  0.1901 -0.0506 -1.0048
   19CHTO   C28 7971   4.680   6.808   0.493 -0.0051 -0.0215 -0.0487
   19CHTO   H56 7972   4.575   6.795   0.467  0.1551 -1.9698  0.1579
   19CHTO   C35 7973   4.677   6.832   0.646  0.4375  0.5629 -0.5395
   19CHTO   O24 7974   4.804   6.829   0.712 -0.3497  0.0554  0.0511
   19CHTO   H39 7975   4.863   6.892   0.675 -0.2473 -0.1703 -0.1719
   19CHTO    O9 7976   4.757   6.519   0.288  0.3505 -0.0632 -0.7003
   19CHTO   C13 7977   4.621   6.427   0.304  0.0715  0.3888 -0.2876
   19CHTO   H26 7978   4.547   6.462   0.229 -1.3978 -0.1937  0.8579
   19CHTO   C11 7979   4.565   6.444   0.455 -0.4064 -0.2888 -0.1294
   19CHTO   H24 7980   4.555   6.551   0.478  0.0247 -0.0566 -0.9939
   19CHTO    O8 7981   4.662   6.413   0.551  0.1445 -0.6626  0.7903
   19CHTO    H3 7982   4.697   6.327   0.545  0.2187 -0.4375 -3.2640
   19CHTO    C9 7983   4.437   6.364   0.455  0.0370 -0.1463  0.5025
   19CHTO   H22 7984   4.374   6.414   0.379  1.4516  0.3837 -0.3334
   19CHTO    N2 7985   4.352   6.375   0.579 -0.5692  0.6113 -0.0348
   19CHTO   H10 7986   4.258   6.322   0.585  0.4116 -1.2969 -0.7935
   19CHTO   H11 7987   4.407   6.372   0.672  1.8490  0.7202 -1.4154
   19CHTO    C7 7988   4.471   6.212   0.424 -0.0105 -0.1260  0.2531
   19CHTO   H20 7989   4.371   6.163   0.416  1.3953 -3.0126 -0.1436
   19CHTO    O4 7990   4.541   6.190   0.299 -0.3495  0.0916 -0.3871
   19CHTO   C14 7991   4.651   6.278   0.261 -0.2523 -0.0010 -0.0386
   19CHTO   H27 7992   4.663   6.277   0.151 -0.9508 -3.0508 -0.1330
   19CHTO   C18 7993   4.787   6.224   0.318 -0.2546  0.4832  0.0734
   19CHTO   O13 7994   4.810   6.097   0.264  0.2092  0.0757 -0.1657
   19CHTO    H7 7995   4.856   6.037   0.319  1.5009  1.3515  0.1528
   19CHTO    O2 7996   4.554   6.121   0.535 -0.6615  0.3958  0.0336
   19CHTO    C1 7997   4.537   5.977   0.519 -0.1530 -0.3203 -0.3996
   19CHTO   H14 7998   4.581   5.963   0.418  1.2519  1.2440 -0.0139
   19CHTO    C2 7999   4.390   5.925   0.523  0.2765 -1.4464 -0.2816
   19CHTO   H15 8000   4.341   5.989   0.598  1.9895  0.2005 -0.5300
   19CHTO    O6 8001   4.326   5.941   0.391 -0.2764 -0.0366  0.4831
   19CHTO    H1 8002   4.250   5.994   0.404 -0.8817 -0.4650 -1.1080
   19CHTO    C3 8003   4.379   5.766   0.557 -0.2832  0.8249 -0.3051
   19CHTO   H16 8004   4.404   5.716   0.463 -2.9776 -0.8955 -0.1711
   19CHTO    N1 8005   4.239   5.745   0.610  0.2049 -0.3742 -0.2218
   19CHTO    H8 8006   4.171   5.720   0.529  2.4768 -0.7425 -2.0765
   19CHTO    H9 8007   4.238   5.674   0.691  0.9199 -1.5492 -1.2329
   19CHTO    C4 8008   4.486   5.717   0.664  0.6625  0.0275  0.2689
   19CHTO   H17 8009   4.466   5.772   0.756 -0.7845 -0.0246 -0.0140
   19CHTO    O1 8010   4.613   5.756   0.608 -0.4132  0.3239 -0.1017
   19CHTO    C5 8011   4.627   5.904   0.624 -0.9035 -0.1655 -0.3554
   19CHTO   H18 8012   4.584   5.931   0.721 -1.6287 -0.7992 -0.5015
   19CHTO   C16 8013   4.784   5.939   0.617 -0.3492  0.3985 -0.2533
   19CHTO   O11 8014   4.839   5.903   0.488  0.4299 -0.4706  0.0082
   19CHTO    H5 8015   4.816   5.815   0.466  0.4965 -0.1655 -1.3600
   19CHTO    O3 8016   4.485   5.570   0.679  1.0443  0.2153 -0.3082
   19CHTO    C6 8017   4.479   5.522   0.824  0.4881  0.0560  0.4488
   19CHTO   H19 8018   4.502   5.598   0.899  0.3832 -0.8821  1.4492
   19CHTO    C8 8019   4.342   5.463   0.852 -0.0071 -0.0452  0.3010
   19CHTO   H21 8020   4.309   5.411   0.762 -0.1261  0.3095  0.1412
   19CHTO    O7 8021   4.256   5.579   0.880 -0.4366  0.0869 -0.0721
   19CHTO    H2 8022   4.245   5.636   0.807 -1.1908 -1.5013 -1.2186
   19CHTO   C12 8023   4.340   5.365   0.978 -0.1229  0.5048  0.3958
   19CHTO   H25 8024   4.352   5.443   1.055  1.8982  0.8294 -0.2018
   19CHTO    N3 8025   4.210   5.284   0.988 -0.5650  0.1418 -0.2839
   19CHTO   H12 8026   4.205   5.196   0.925 -1.2656 -0.0385  0.0114
   19CHTO   H13 8027   4.126   5.351   0.976 -0.2228  0.6387  0.0932
   19CHTO   C15 8028   4.468   5.269   0.985  0.1483 -0.8098 -0.6225
   19CHTO   H28 8029   4.455   5.185   0.917  1.7939 -0.6630 -1.1255
   19CHTO   O10 8030   4.486   5.205   1.101  0.1301  0.1042  0.1646
   19CHTO    H4 8031   4.410   5.215   1.155 -0.8463  0.8799 -1.3145
   19CHTO    O5 8032   4.592   5.339   0.961  0.7077  0.1761  0.2796
   19CHTO   C10 8033   4.592   5.410   0.836  0.3729  0.4638  0.0685
   19CHTO   H23 8034   4.577   5.342   0.752 -1.0013  0.0890  0.6071
   19CHTO   C17 8035   4.730   5.472   0.823  0.2821 -0.5362  0.8146
   19CHTO   O12 8036   4.820   5.369   0.787  0.0463 -0.2544 -0.1822
   19CHTO    H6 8037   4.825   5.305   0.855 -1.5817  0.9564  1.1227
   20CHTO  H203 8038   4.613   1.169   2.134 -0.8630 -0.7950  0.6858
   20CHTO   O82 8039   4.583   1.252   2.164 -0.0308 -0.1629 -0.1756
   20CHTO  C123 8040   4.622   1.356   2.076  0.1739 -0.4873 -0.3110
   20CHTO  H227 8041   4.539   1.428   2.065  0.5965 -0.0551 -0.6921
   20CHTO   O77 8042   4.732   1.418   2.143  0.4269  0.3201 -1.2388
   20CHTO  C118 8043   4.775   1.547   2.086  0.8562  0.5144  0.5061
   20CHTO  H222 8044   4.684   1.609   2.082  1.3291  1.1504 -1.0062
   20CHTO  C125 8045   4.877   1.607   2.190  0.6004 -0.2476  0.0165
   20CHTO   O84 8046   4.938   1.731   2.146  0.0944  0.2780  0.1560
   20CHTO  H205 8047   4.969   1.720   2.058  0.5873  1.1659  0.2127
   20CHTO  C114 8048   4.843   1.508   1.948  0.0768 -0.3973 -0.2001
   20CHTO  H218 8049   4.922   1.436   1.968  1.2517  1.0112  0.3179
   20CHTO  C116 8050   4.741   1.429   1.856 -0.2203 -0.1274  0.0237
   20CHTO  H220 8051   4.670   1.503   1.815  1.4269  1.6204  0.2825
   20CHTO   O79 8052   4.802   1.380   1.736 -0.2223 -0.3671 -0.2170
   20CHTO  H201 8053   4.855   1.307   1.761 -0.4766 -0.2784  0.5872
   20CHTO  C120 8054   4.661   1.319   1.929  0.0779 -0.0026 -0.3772
   20CHTO  H224 8055   4.730   1.232   1.934  0.6709  0.4453 -0.7271
   20CHTO   N21 8056   4.545   1.253   1.862 -0.2571  0.4033  0.1403
   20CHTO  H211 8057   4.464   1.232   1.931  2.8878  2.0117  4.5346
   20CHTO  H212 8058   4.563   1.198   1.771 -0.6861  0.0905  0.2439
   20CHTO   O75 8059   4.894   1.630   1.893 -0.5532 -0.0997 -0.1049
   20CHTO  C112 8060   5.006   1.615   1.786 -0.0752  0.0317 -0.2689
   20CHTO  H216 8061   4.982   1.541   1.709  0.2304  0.6799 -0.9880
   20CHTO   O73 8062   5.122   1.575   1.854  0.2006  0.7079 -0.5024
   20CHTO  C113 8063   5.244   1.566   1.777  0.2616  0.1661 -0.0600
   20CHTO  H217 8064   5.235   1.495   1.692  1.5312  1.3724 -1.2222
   20CHTO  C124 8065   5.353   1.510   1.872 -0.1660 -0.0693  0.0635
   20CHTO   O83 8066   5.472   1.452   1.810 -0.0783  0.0536 -0.4984
   20CHTO  H204 8067   5.535   1.517   1.784 -0.5579 -0.3772 -2.8836
   20CHTO  C109 8068   5.274   1.703   1.714  0.8086  0.1052  0.3248
   20CHTO  H213 8069   5.286   1.774   1.796  2.3397  0.1558  0.0762
   20CHTO  C110 8070   5.154   1.752   1.627 -0.2358 -0.0954 -0.0558
   20CHTO  H214 8071   5.141   1.684   1.543 -0.2553 -1.8317  1.3116
   20CHTO   O78 8072   5.172   1.888   1.581  0.1265  0.0967 -0.2953
   20CHTO  H200 8073   5.170   1.887   1.487 -1.2165  0.9632 -0.2891
   20CHTO  C111 8074   5.023   1.750   1.708  0.0570 -0.1970  0.8144
   20CHTO  H215 8075   5.026   1.830   1.784  2.0429  0.6350 -0.1145
   20CHTO   N19 8076   4.902   1.773   1.625 -0.1936 -0.4491 -0.1962
   20CHTO  H207 8077   4.822   1.802   1.691  1.1215 -0.7825  1.5679
   20CHTO  H208 8078   4.861   1.677   1.595  0.2763 -1.4207  2.1902
   20CHTO   O74 8079   5.403   1.685   1.643  0.0615  0.0228 -0.6560
   20CHTO  C115 8080   5.468   1.828   1.579 -0.0806  0.0064  0.4729
   20CHTO  H219 8081   5.418   1.914   1.622 -1.0156 -1.6053  2.7287
   20CHTO   O76 8082   5.619   1.844   1.615 -0.1957  0.2332  0.3502
   20CHTO  C122 8083   5.688   1.723   1.589  0.8269  0.2891  0.1829
   20CHTO  H226 8084   5.661   1.657   1.671 -0.8970  0.5908 -0.1227
   20CHTO  C126 8085   5.836   1.752   1.599 -0.6209 -0.4307 -0.5709
   20CHTO   O85 8086   5.881   1.871   1.530  0.2372 -0.3019  0.0443
   20CHTO  H206 8087   5.856   1.865   1.440  0.7310  0.6074 -0.1648
   20CHTO  C121 8088   5.650   1.655   1.451  0.0450  0.8219  0.9177
   20CHTO  H225 8089   5.743   1.611   1.409 -0.8395 -0.8713  0.7163
   20CHTO   O81 8090   5.558   1.542   1.474 -0.4695 -0.4603  0.2582
   20CHTO  H202 8091   5.471   1.566   1.448  0.0330 -0.4999 -1.5398
   20CHTO  C119 8092   5.579   1.761   1.349 -0.5174 -0.2004 -0.0757
   20CHTO  H223 8093   5.657   1.837   1.342 -1.1586  0.3363 -1.9023
   20CHTO  C117 8094   5.455   1.826   1.422  0.1031 -0.0131 -0.5224
   20CHTO  H221 8095   5.358   1.775   1.417  0.1171 -0.0651 -0.2872
   20CHTO   N20 8096   5.423   1.959   1.364  0.3461 -0.2645 -0.2219
   20CHTO  H209 8097   5.504   1.990   1.301 -0.3021  0.1446 -0.8669
   20CHTO  H210 8098   5.414   2.023   1.451  0.5095  0.1399 -0.5010
   20CHTO   O80 8099   5.577   1.718   1.189  0.0277 -0.1097 -0.3620
   20CHTO  C103 8100   5.702   1.755   1.095  0.2160  0.4244 -0.6926
   20CHTO  H190 8101   5.803   1.752   1.137 -0.1505 -1.4014  0.0979
   20CHTO  C101 8102   5.711   1.660   0.978 -0.0052 -0.6446  0.0043
   20CHTO  H188 8103   5.609   1.642   0.944 -0.3862  0.0795  0.7326
   20CHTO   O68 8104   5.756   1.530   1.033 -0.3299  0.0739 -0.4150
   20CHTO  H168 8105   5.748   1.461   0.970 -1.1054 -0.4436  0.2352
   20CHTO   C99 8106   5.796   1.716   0.863 -0.0851  0.2777  0.2564
   20CHTO  H186 8107   5.903   1.724   0.890  0.5675 -0.3089 -2.0625
   20CHTO   N17 8108   5.793   1.637   0.736 -0.7525 -0.0599 -0.1826
   20CHTO  H174 8109   5.816   1.531   0.744 -0.9995 -0.0672  0.4262
   20CHTO  H175 8110   5.698   1.654   0.687 -0.1812 -1.3919 -1.8395
   20CHTO   C97 8111   5.756   1.860   0.824  0.2330 -0.2011 -0.0255
   20CHTO  H184 8112   5.652   1.864   0.790  0.0749  1.7039  0.6285
   20CHTO   O64 8113   5.773   1.935   0.943 -0.1319 -0.0515 -0.2109
   20CHTO  C104 8114   5.676   1.899   1.045  0.0479 -0.3220 -0.2585
   20CHTO  H191 8115   5.571   1.910   1.019  0.3119 -0.4827 -1.4403
   20CHTO  C108 8116   5.698   2.011   1.152  0.1877 -0.5610  0.3418
   20CHTO   O71 8117   5.829   2.016   1.219 -0.4657 -0.4340  0.5108
   20CHTO  H171 8118   5.830   1.955   1.290  0.2487 -0.8330  0.1632
   20CHTO   O62 8119   5.838   1.931   0.727  0.4131 -0.1379  0.3482
   20CHTO   C91 8120   5.779   2.053   0.671  0.9204  0.0946  0.0732
   20CHTO  H178 8121   5.716   2.103   0.744  0.0124  2.9469 -2.5799
   20CHTO   C92 8122   5.690   2.024   0.541 -0.0001  0.3628 -0.0810
   20CHTO  H179 8123   5.754   1.961   0.477  0.1985  2.1275 -1.6701
   20CHTO   O66 8124   5.579   1.943   0.586  0.1472  0.7533  0.8886
   20CHTO  H166 8125   5.596   1.851   0.583  1.0884  0.9627 -1.8791
   20CHTO   C93 8126   5.632   2.156   0.479 -0.1604  0.2423  0.3843
   20CHTO  H180 8127   5.553   2.182   0.551  0.1569 -1.6808  1.4473
   20CHTO   N16 8128   5.557   2.127   0.348  0.7258 -0.0424  0.0257
   20CHTO  H172 8129   5.475   2.195   0.334 -0.0703 -0.9720  0.1334
   20CHTO  H173 8130   5.613   2.134   0.255 -0.4070 -0.3560 -0.6944
   20CHTO   C94 8131   5.738   2.279   0.468 -0.2496 -0.2349  0.6420
   20CHTO  H181 8132   5.802   2.272   0.380  1.3009  1.6848  1.5888
   20CHTO   O61 8133   5.816   2.278   0.587 -0.7447  0.7258  0.6501
   20CHTO   C95 8134   5.887   2.159   0.628 -0.4949  0.3678  0.1151
   20CHTO  H182 8135   5.954   2.134   0.546  1.8634 -0.3787  2.1983
   20CHTO  C106 8136   5.986   2.192   0.739 -0.4662  0.2563  0.2533
   20CHTO   O69 8137   6.090   2.094   0.761  0.7113  0.0604  0.2981
   20CHTO  H169 8138   6.173   2.137   0.755  0.0652  1.0348 -2.3019
   20CHTO   O63 8139   5.636   2.418   0.467  0.0870  0.4422 -0.3195
   20CHTO   C96 8140   5.610   2.494   0.337  0.0886  0.8186 -0.1373
   20CHTO  H183 8141   5.563   2.426   0.266  2.1522  0.8989 -1.6289
   20CHTO   C98 8142   5.733   2.554   0.267  0.1460  0.4334  0.3323
   20CHTO  H185 8143   5.793   2.604   0.346  0.2303 -1.2051  1.3238
   20CHTO   O67 8144   5.811   2.439   0.217  0.1408  0.5914 -0.6383
   20CHTO  H167 8145   5.902   2.463   0.227  0.2108  0.5187 -1.0933
   20CHTO  C102 8146   5.701   2.651   0.144  0.5367 -0.4801 -0.1345
   20CHTO  H189 8147   5.671   2.582   0.063  0.8464 -0.7362 -0.0297
   20CHTO   N18 8148   5.818   2.718   0.088 -0.2858 -0.2111  0.0662
   20CHTO  H176 8149   5.811   2.746  -0.016 -1.0610 -0.6513 -0.0029
   20CHTO  H177 8150   5.900   2.651   0.111  0.5771  0.6020 -0.5789
   20CHTO  C105 8151   5.585   2.750   0.183  0.0135  0.1540  0.2534
   20CHTO  H192 8152   5.617   2.824   0.256 -1.4962  0.6122  0.4741
   20CHTO   O65 8153   5.474   2.684   0.247 -0.0114 -0.2580  0.2681
   20CHTO  C100 8154   5.508   2.615   0.363  0.2653 -0.6597  0.4281
   20CHTO  H187 8155   5.562   2.680   0.433  2.1429 -0.0113 -1.5621
   20CHTO  C107 8156   5.371   2.565   0.420  1.0273  0.5566 -0.1772
   20CHTO   O70 8157   5.376   2.534   0.557 -0.1030  0.0493  0.0266
   20CHTO  H170 8158   5.449   2.482   0.586 -0.3226  0.0079  0.5136
   20CHTO   O57 8159   5.539   2.821   0.033  0.2828 -0.3287  0.2784
   20CHTO   C85 8160   5.451   2.935   0.030  0.0044  0.3183 -0.2089
   20CHTO  H157 8161   5.404   2.945   0.129  2.9973  4.5842  0.9392
   20CHTO   C83 8162   5.347   2.909  -0.082 -0.0993 -0.0703 -0.5584
   20CHTO  H155 8163   5.297   2.821  -0.042 -1.0893  0.8826  0.3141
   20CHTO   O56 8164   5.409   2.875  -0.208  0.4032 -0.0799  0.0527
   20CHTO  H135 8165   5.335   2.877  -0.266 -0.2329  2.5094  0.8638
   20CHTO   C81 8166   5.253   3.028  -0.086  0.3745 -0.1073  0.7399
   20CHTO  H153 8167   5.213   3.044   0.014 -2.2233  2.3226 -0.6281
   20CHTO   N14 8168   5.127   3.007  -0.165  0.0923  0.3532  0.1913
   20CHTO  H141 8169   5.128   2.948  -0.254  1.2590 -1.3450  1.3048
   20CHTO  H142 8170   5.081   3.102  -0.182 -1.8013 -0.8142 -1.4741
   20CHTO   C79 8171   5.328   3.157  -0.127 -0.1970 -0.8618  0.3760
   20CHTO  H151 8172   5.264   3.245  -0.119  0.0495 -0.2840 -3.4268
   20CHTO   O52 8173   5.437   3.185  -0.032  0.2923 -0.1772 -0.3332
   20CHTO   C86 8174   5.526   3.071  -0.008 -0.1787 -0.1407 -0.5967
   20CHTO  H158 8175   5.575   3.067  -0.108 -2.1129  0.1516 -1.5804
   20CHTO   C90 8176   5.633   3.105   0.100 -0.4717  0.6648  0.2343
   20CHTO   O60 8177   5.753   3.022   0.098  0.3791 -0.0486 -0.8212
   20CHTO  H138 8178   5.807   3.035   0.173  1.7930 -0.6480 -1.7152
   20CHTO   O50 8179   5.386   3.165  -0.263  0.1131  0.5232  0.1262
   20CHTO   C73 8180   5.496   3.162  -0.358  0.2945 -0.0183 -0.7201
   20CHTO  H145 8181   5.561   3.076  -0.336 -0.1938 -0.1103  0.4297
   20CHTO   C74 8182   5.580   3.294  -0.354  0.3180  0.1887 -0.2278
   20CHTO  H146 8183   5.623   3.296  -0.253  0.7066 -0.6777 -0.3731
   20CHTO   O54 8184   5.697   3.275  -0.440  0.4445  0.3758  0.6110
   20CHTO  H133 8185   5.742   3.356  -0.452  1.8042 -0.3064  0.9312
   20CHTO   C75 8186   5.487   3.414  -0.379 -0.0149 -0.3899 -0.1976
   20CHTO  H147 8187   5.414   3.419  -0.298 -0.4689  0.0358 -0.6322
   20CHTO   N13 8188   5.559   3.547  -0.379  0.3190  0.3077 -0.1904
   20CHTO  H139 8189   5.479   3.619  -0.373  1.0188  1.0474  0.2806
   20CHTO  H140 8190   5.610   3.554  -0.474  0.7882 -1.6788 -0.0989
   20CHTO   C76 8191   5.402   3.395  -0.520  0.7816  0.1119  0.2024
   20CHTO  H148 8192   5.471   3.409  -0.603 -0.1614  1.4840 -0.3783
   20CHTO   O49 8193   5.348   3.257  -0.534  0.1407  0.5583 -0.0846
   20CHTO   C77 8194   5.438   3.147  -0.498  0.3311 -0.0191 -0.0213
   20CHTO  H149 8195   5.524   3.140  -0.564  1.8549 -0.7030  2.0010
   20CHTO   C88 8196   5.360   3.010  -0.522 -0.0298 -0.3649 -0.5635
   20CHTO   O58 8197   5.439   2.900  -0.502 -0.6331 -0.2499 -0.1864
   20CHTO  H136 8198   5.391   2.820  -0.491  0.6829 -0.9054  1.0253
   20CHTO   O51 8199   5.274   3.496  -0.528 -0.0764 -0.5107 -0.4185
   20CHTO   C78 8200   5.176   3.519  -0.407 -0.1881 -0.1694 -0.9335
   20CHTO  H150 8201   5.232   3.502  -0.313  0.5047  2.2462 -0.8650
   20CHTO   C80 8202   5.058   3.423  -0.414  0.6301  0.7567 -0.4270
   20CHTO  H152 8203   5.005   3.439  -0.510 -3.0307 -2.1741  0.9898
   20CHTO   O55 8204   5.118   3.290  -0.401 -0.3883 -0.3606  0.0809
   20CHTO  H134 8205   5.139   3.266  -0.313 -3.4485 -0.2577  0.9121
   20CHTO   C84 8206   4.962   3.439  -0.290 -0.4969 -1.1711 -0.3005
   20CHTO  H156 8207   5.011   3.408  -0.199  2.6562  1.7758 -0.8908
   20CHTO   N15 8208   4.838   3.352  -0.310  0.2561 -0.2776  0.2774
   20CHTO  H143 8209   4.870   3.250  -0.314 -1.3327 -0.7504 -0.7440
   20CHTO  H144 8210   4.760   3.366  -0.238 -0.2128  2.1454 -0.6448
   20CHTO   C87 8211   4.923   3.591  -0.280  0.2366  0.3579 -0.3575
   20CHTO  H159 8212   4.854   3.611  -0.362 -0.4055  3.2004  0.8052
   20CHTO   O53 8213   5.033   3.690  -0.293  0.1303 -0.4660  0.3952
   20CHTO   C82 8214   5.119   3.667  -0.404 -0.1700  0.4201  0.5609
   20CHTO  H154 8215   5.072   3.687  -0.500  3.5230  0.1529 -1.3729
   20CHTO   C89 8216   5.242   3.763  -0.395  0.3793  0.1928  0.2304
   20CHTO   O59 8217   5.207   3.899  -0.410 -0.7862 -0.2487  0.6493
   20CHTO  H137 8218   5.149   3.928  -0.343 -1.1457  0.1537  0.1618
   20CHTO   O45 8219   4.846   3.625  -0.142  0.0712  0.4229 -0.6647
   20CHTO   C67 8220   4.905   3.586  -0.020  0.0002 -0.5175  0.8402
   20CHTO  H124 8221   4.961   3.494  -0.038 -3.0263 -2.2814  0.1346
   20CHTO   C65 8222   5.006   3.694   0.035  0.1646  0.4246  0.4185
   20CHTO  H122 8223   4.977   3.786  -0.016  1.3646  1.0237  0.7790
   20CHTO   O44 8224   5.130   3.645   0.002 -0.3822  0.3748  0.0238
   20CHTO  H102 8225   5.159   3.587   0.070  0.5011  0.6902 -0.0809
   20CHTO   C63 8226   4.987   3.738   0.185  0.0794  0.4749 -0.2539
   20CHTO  H120 8227   4.896   3.796   0.195 -1.6131 -2.3231  1.1892
   20CHTO   N11 8228   5.095   3.828   0.247  0.7699  0.3234 -0.5113
   20CHTO  H108 8229   5.190   3.831   0.198  2.4522  1.6807  2.6786
   20CHTO  H109 8230   5.094   3.830   0.354  2.4851  0.9067 -0.4844
   20CHTO   C61 8231   4.956   3.610   0.269  0.4800  0.5334 -0.0395
   20CHTO  H118 8232   4.928   3.653   0.366 -0.1205  0.7931 -0.3249
   20CHTO   O40 8233   4.838   3.540   0.222 -0.1824  0.1163 -0.1934
   20CHTO   C68 8234   4.793   3.548   0.085  0.0808 -0.4932 -0.1266
   20CHTO  H125 8235   4.717   3.628   0.094 -1.3770 -1.6373 -1.8328
   20CHTO   C72 8236   4.714   3.419   0.043 -0.1222  0.1383 -0.2039
   20CHTO   O48 8237   4.792   3.302   0.049 -0.1013  0.0223 -0.1133
   20CHTO  H105 8238   4.740   3.228   0.024 -0.3667  0.1510  0.0606
   20CHTO   O38 8239   5.073   3.528   0.283  0.1729  0.3302 -0.5491
   20CHTO   C55 8240   5.078   3.442   0.401 -0.6330 -0.1427 -1.0072
   20CHTO  H112 8241   4.983   3.389   0.420 -0.2072 -0.9908 -1.1946
   20CHTO   C56 8242   5.126   3.532   0.529  0.1693  0.1516  0.5713
   20CHTO  H113 8243   5.229   3.564   0.507 -0.2397  1.3332  0.3243
   20CHTO   O42 8244   5.064   3.661   0.550 -0.0777 -0.2485  0.8067
   20CHTO  H100 8245   4.971   3.650   0.548 -0.0820 -0.1863 -3.1591
   20CHTO   C57 8246   5.119   3.440   0.659  0.0368 -0.6322 -0.0571
   20CHTO  H114 8247   5.018   3.410   0.686  0.5471 -2.7363 -0.3718
   20CHTO   N10 8248   5.178   3.508   0.776 -0.6540  0.6564 -0.5040
   20CHTO  H106 8249   5.242   3.586   0.737  2.6470 -1.8811 -0.3816
   20CHTO  H107 8250   5.242   3.439   0.828 -2.9130  0.4161  2.1050
   20CHTO   C58 8251   5.194   3.313   0.623 -0.2575  0.1899  0.2091
   20CHTO  H115 8252   5.301   3.335   0.646 -0.6386 -0.6944  2.9734
   20CHTO   O37 8253   5.172   3.246   0.495 -0.2765  0.4646 -0.5357
   20CHTO   C59 8254   5.172   3.323   0.377 -0.4586 -0.1603  0.3746
   20CHTO  H116 8255   5.276   3.354   0.366 -0.1616 -1.2297  0.1033
   20CHTO   C70 8256   5.118   3.233   0.267 -0.0359  0.1975 -0.8169
   20CHTO   O46 8257   5.125   3.292   0.135  0.4844 -0.4875  0.0597
   20CHTO  H103 8258   5.176   3.235   0.080 -0.8549 -0.2612 -1.4263
   20CHTO   O39 8259   5.159   3.203   0.725  0.8924  0.4951  0.2307
   20CHTO   C60 8260   5.259   3.100   0.748 -0.1775 -0.7320  0.2820
   20CHTO  H117 8261   5.304   3.078   0.652 -0.9338 -0.8497 -0.0464
   20CHTO   C62 8262   5.372   3.135   0.845  0.1210  0.4225  0.2131
   20CHTO  H119 8263   5.424   3.219   0.796 -0.0307  1.2489  1.4348
   20CHTO   O43 8264   5.309   3.184   0.967  0.2797 -0.1495  0.4577
   20CHTO  H101 8265   5.246   3.252   0.954  1.0660  0.6556  0.7764
   20CHTO   C66 8266   5.468   3.008   0.866 -0.5353 -0.4080  0.5268
   20CHTO  H123 8267   5.519   2.980   0.774 -0.7124 -0.2881  0.3943
   20CHTO   N12 8268   5.587   3.039   0.956  0.0697 -0.5104  0.3783
   20CHTO  H110 8269   5.562   3.071   1.056 -0.0773 -1.7379  0.7376
   20CHTO  H111 8270   5.662   3.098   0.906 -0.7297  0.9086  0.8320
   20CHTO   C69 8271   5.397   2.876   0.909 -0.1622 -0.0305 -0.1686
   20CHTO  H126 8272   5.358   2.906   1.009 -0.5369 -1.0528 -0.0040
   20CHTO   O41 8273   5.281   2.849   0.815  0.3176  0.6174 -0.5663
   20CHTO   C64 8274   5.184   2.975   0.788 -0.2073 -0.0832 -0.0586
   20CHTO  H121 8275   5.129   2.995   0.882 -1.6989 -0.1157 -0.9034
   20CHTO   C71 8276   5.087   2.940   0.667  0.0692  0.0445  0.8319
   20CHTO   O47 8277   5.159   2.906   0.547  0.7382 -0.2300  0.2817
   20CHTO  H104 8278   5.178   2.979   0.493 -0.8644 -0.4964 -0.6573
   20CHTO   O34 8279   5.497   2.758   0.937  0.0315 -0.0989 -0.4153
   20CHTO   C49 8280   5.453   2.613   0.985 -0.6649  0.0396  0.1865
   20CHTO   H91 8281   5.404   2.559   0.904  2.5927 -1.5295 -0.8529
   20CHTO   C47 8282   5.357   2.623   1.103  0.3078  0.1446 -0.6095
   20CHTO   H89 8283   5.265   2.666   1.059 -0.8294 -0.2281  1.3501
   20CHTO   O33 8284   5.404   2.716   1.203 -0.5306  0.1267  0.3193
   20CHTO   H70 8285   5.489   2.685   1.229 -0.2774  1.1450  0.7426
   20CHTO   C45 8286   5.325   2.484   1.180  0.0887 -0.7114 -0.5036
   20CHTO   H87 8287   5.370   2.484   1.280 -0.1601  0.8786 -0.3683
   20CHTO    N8 8288   5.179   2.456   1.195  0.6478  0.4464  0.4407
   20CHTO   H75 8289   5.132   2.539   1.246 -1.4081 -0.4777  0.0934
   20CHTO   H76 8290   5.175   2.363   1.250 -0.0202 -0.2083 -0.6811
   20CHTO   C43 8291   5.396   2.363   1.112 -0.3050 -0.1142 -0.3946
   20CHTO   H85 8292   5.383   2.279   1.180 -4.1895  0.8372  0.1203
   20CHTO   O29 8293   5.538   2.392   1.087  0.5033 -0.0910 -0.0553
   20CHTO   C50 8294   5.573   2.521   1.029  0.4014 -0.2232 -0.0218
   20CHTO   H92 8295   5.649   2.581   1.081 -0.1788  1.3239 -0.9238
   20CHTO   C54 8296   5.659   2.489   0.898  0.4358  0.3020 -0.1688
   20CHTO   O36 8297   5.782   2.431   0.938 -0.5070 -0.1525  0.1774
   20CHTO   H72 8298   5.829   2.497   0.986  1.4577 -2.2414  1.2003
   20CHTO   O27 8299   5.335   2.330   0.984 -0.3005 -0.4657  0.3714
   20CHTO   C37 8300   5.243   2.257   0.904  0.6530 -0.6581  0.3575
   20CHTO   H79 8301   5.156   2.237   0.969 -0.6930 -0.8586 -1.4897
   20CHTO   C38 8302   5.207   2.342   0.783  0.0142 -0.4148  0.1117
   20CHTO   H80 8303   5.300   2.384   0.743  1.7487 -2.0802  2.2461
   20CHTO   O31 8304   5.124   2.451   0.835  0.6971 -0.5175 -0.2510
   20CHTO   H68 8305   5.179   2.517   0.874  1.1624 -0.7099 -0.5763
   20CHTO   C39 8306   5.119   2.266   0.677  0.1416 -0.7839  0.1797
   20CHTO   H81 8307   5.017   2.258   0.715  0.0152  0.3652  0.0978
   20CHTO    N7 8308   5.105   2.346   0.546  0.3568 -0.5126 -0.0226
   20CHTO   H73 8309   5.200   2.383   0.508 -0.2531  0.1627 -0.9112
   20CHTO   H74 8310   5.027   2.420   0.548  1.1344  0.3559 -0.9091
   20CHTO   C40 8311   5.175   2.123   0.661  0.0605  0.3418  0.2719
   20CHTO   H82 8312   5.261   2.124   0.594  1.2489  0.3224  1.7700
   20CHTO   O26 8313   5.205   2.051   0.785 -0.4582  0.1055 -0.8664
   20CHTO   C41 8314   5.303   2.121   0.864  0.0500 -0.2628  0.3294
   20CHTO   H83 8315   5.390   2.147   0.803  1.4131 -1.4621  1.7110
   20CHTO   C52 8316   5.345   2.035   0.984 -0.1358 -0.0262 -0.9505
   20CHTO   O35 8317   5.238   2.005   1.076 -0.2882 -0.2098 -0.4367
   20CHTO   H71 8318   5.274   1.960   1.151 -1.1956  0.0181  0.1426
   20CHTO   O28 8319   5.080   2.048   0.583  0.3565  0.3449  0.3742
   20CHTO   C42 8320   5.114   1.930   0.517 -0.6426  0.7308  0.5326
   20CHTO   H84 8321   5.022   1.877   0.492  0.4295  0.2366 -2.5101
   20CHTO   C44 8322   5.207   1.829   0.590  0.0910  0.3253 -0.5864
   20CHTO   H86 8323   5.290   1.888   0.630 -0.5711  0.4312  0.6442
   20CHTO   O32 8324   5.140   1.785   0.708  0.6896 -0.0446  0.2091
   20CHTO   H69 8325   5.181   1.710   0.747  0.2633  1.8946  4.7481
   20CHTO   C48 8326   5.269   1.708   0.512  0.8507  0.2610 -0.5175
   20CHTO   H90 8327   5.186   1.641   0.490 -0.5965  2.2058 -1.1501
   20CHTO    N9 8328   5.363   1.638   0.603  0.4812  0.5293 -0.1685
   20CHTO   H77 8329   5.324   1.539   0.620  2.5093 -0.2800 -0.1303
   20CHTO   H78 8330   5.362   1.690   0.698  1.4201 -0.4036  0.3578
   20CHTO   C51 8331   5.336   1.759   0.375  0.6678 -0.2917 -0.2372
   20CHTO   H93 8332   5.417   1.825   0.405  1.6508 -1.0133 -1.2505
   20CHTO   O30 8333   5.230   1.830   0.306 -0.0891 -0.1936  0.4717
   20CHTO   C46 8334   5.183   1.965   0.386  0.8504  0.3988  0.0322
   20CHTO   H88 8335   5.275   2.019   0.406  1.1677 -0.5176  1.0510
   20CHTO   C53 8336   5.088   2.024   0.283  0.3712  0.6724  0.4201
   20CHTO   O72 8337   5.169   2.075   0.176 -0.6134 -0.3266 -0.4063
   20CHTO  H199 8338   5.116   2.133   0.124 -0.5645  0.1705  0.0945
   20CHTO   O22 8339   5.389   1.653   0.285 -0.6406 -0.0926  0.2334
   20CHTO   C31 8340   5.529   1.639   0.234 -0.2655  0.2181  0.3338
   20CHTO   H59 8341   5.522   1.570   0.147 -1.9319  1.2952 -0.4186
   20CHTO   C29 8342   5.596   1.769   0.190 -0.1365  0.5238 -0.0990
   20CHTO   H57 8343   5.580   1.835   0.276 -1.5241 -1.1558  0.9702
   20CHTO   O21 8344   5.511   1.826   0.090 -0.3845  0.0909 -0.1384
   20CHTO   H37 8345   5.500   1.918   0.105 -0.8081  0.5025 -2.6347
   20CHTO   C27 8346   5.744   1.762   0.160  0.1645 -0.5170 -0.3023
   20CHTO   H55 8347   5.765   1.695   0.075  0.4603 -0.3393 -0.3718
   20CHTO    N5 8348   5.796   1.899   0.131  0.0860  0.1696 -0.5448
   20CHTO   H43 8349   5.881   1.921   0.194  1.8726 -1.4043 -2.3262
   20CHTO   H44 8350   5.815   1.905   0.025 -2.1290  0.5532 -0.9546
   20CHTO   C25 8351   5.816   1.686   0.280 -0.8533 -0.4157 -0.5717
   20CHTO   H53 8352   5.810   1.755   0.365 -0.3863  0.7441 -1.4589
   20CHTO   O17 8353   5.755   1.557   0.313  0.2483  0.3684  0.3526
   20CHTO   C32 8354   5.620   1.562   0.343  0.5967  0.0984 -0.4468
   20CHTO   H60 8355   5.608   1.605   0.443 -0.8822 -2.2421  0.4144
   20CHTO   C36 8356   5.582   1.416   0.350 -0.2904 -0.3254  0.5362
   20CHTO   O25 8357   5.555   1.334   0.237 -0.3241 -0.4134  0.5791
   20CHTO   H40 8358   5.483   1.375   0.193  0.4905  0.6355  0.2153
   20CHTO   O15 8359   5.971   1.670   0.270 -0.1899 -0.0063  0.3597
   20CHTO   C19 8360   6.104   1.654   0.213  0.2240  0.4397  0.0810
   20CHTO   H47 8361   6.074   1.688   0.113 -3.0725  1.7534  1.4596
   20CHTO   C20 8362   6.206   1.744   0.280  0.0020 -0.6159  0.1295
   20CHTO   H48 8363   6.224   1.710   0.383 -0.1040 -1.0027  0.0222
   20CHTO   O19 8364   6.158   1.877   0.283 -0.1619  0.1531  0.5771
   20CHTO   H35 8365   6.214   1.927   0.339 -0.2139  0.9386 -0.0553
   20CHTO   C21 8366   6.347   1.732   0.210  0.1685 -0.1704  0.0813
   20CHTO   H49 8367   6.332   1.767   0.108  0.7276 -4.5158 -1.6046
   20CHTO    N4 8368   6.445   1.820   0.282  0.4599  0.3240 -0.2604
   20CHTO   H41 8369   6.411   1.922   0.274 -0.9315 -0.0933  0.1637
   20CHTO   H42 8370   6.542   1.808   0.236  0.7417 -1.4356  0.7573
   20CHTO   C22 8371   6.391   1.588   0.191  0.2994 -0.1055  0.0371
   20CHTO   H50 8372   6.410   1.546   0.290  1.8804  1.6814  0.5120
   20CHTO   O14 8373   6.285   1.510   0.130 -0.3073  0.3276 -0.2360
   20CHTO   C23 8374   6.162   1.506   0.194 -0.2030 -0.5116 -0.3966
   20CHTO   H51 8375   6.173   1.454   0.291  0.8521  0.8648  0.2558
   20CHTO   C34 8376   6.062   1.416   0.119  0.1912 -0.4166  0.0567
   20CHTO   O23 8377   5.967   1.350   0.202  0.0129 -0.0955 -0.0770
   20CHTO   H38 8378   5.891   1.316   0.157  0.7847 -1.7073 -0.1849
   20CHTO   O16 8379   6.511   1.574   0.110 -0.1065  0.1882  0.0379
   20CHTO   C24 8380   6.568   1.412   0.081 -0.2267 -0.2397  0.7950
   20CHTO   H52 8381   6.498   1.336   0.117 -1.5405  0.0897 -1.0159
   20CHTO   C26 8382   6.700   1.387   0.151  0.0724  0.3661  0.1872
   20CHTO   H54 8383   6.775   1.456   0.106  0.6736 -0.4828 -0.1274
   20CHTO   O20 8384   6.690   1.419   0.288  0.1715 -0.6117  0.1051
   20CHTO   H36 8385   6.615   1.380   0.328 -0.8087  0.8594 -0.2538
   20CHTO   C30 8386   6.740   1.235   0.139  0.2957 -0.0254  0.0222
   20CHTO   H58 8387   6.691   1.177   0.218 -1.0460  0.2258 -0.6141
   20CHTO    N6 8388   6.883   1.220   0.157 -0.0366  0.0029 -0.0365
   20CHTO   H45 8389   6.923   1.259   0.250 -2.6416  0.3487  0.9642
   20CHTO   H46 8390   6.934   1.261   0.071 -0.9276 -2.6646 -1.8868
   20CHTO   C33 8391   6.688   1.158   0.014  0.1055  0.4142 -0.4672
   20CHTO   H61 8392   6.753   1.076  -0.021 -0.2941  0.3973 -1.1771
   20CHTO   O18 8393   6.670   1.254  -0.093 -0.3925  0.8496 -0.3237
   20CHTO   C28 8394   6.592   1.377  -0.071  0.3416 -0.1480 -0.1095
   20CHTO   H56 8395   6.650   1.461  -0.110 -2.9540  1.8974 -0.8364
   20CHTO   C35 8396   6.459   1.370  -0.153  0.1633  0.2289  1.0157
   20CHTO   O24 8397   6.383   1.255  -0.107  0.6201 -0.1727 -0.2636
   20CHTO   H39 8398   6.300   1.258  -0.150 -1.3358  1.2696  3.3802
   20CHTO    O9 8399   6.567   1.098   0.047 -0.3120 -0.7400  0.8156
   20CHTO   C13 8400   6.571   0.959   0.120 -0.2026 -0.0411  0.7331
   20CHTO   H26 8401   6.651   0.964   0.197 -0.7536  0.4988  1.2787
   20CHTO   C11 8402   6.598   0.835   0.016 -0.4692  0.5621  0.5380
   20CHTO   H24 8403   6.703   0.844  -0.014 -0.2919 -0.4822  0.8325
   20CHTO    O8 8404   6.519   0.856  -0.105 -0.0268  0.0503 -0.2309
   20CHTO    H3 8405   6.540   0.788  -0.166 -1.9417  0.0897 -0.9565
   20CHTO    C9 8406   6.561   0.701   0.096 -0.0088  0.2898 -0.0134
   20CHTO   H22 8407   6.622   0.698   0.188 -0.3393 -0.5112  0.1814
   20CHTO    N2 8408   6.602   0.584   0.017  0.0546  0.5864  0.2562
   20CHTO   H10 8409   6.632   0.508   0.088 -0.4552 -0.9681 -1.1600
   20CHTO   H11 8410   6.525   0.544  -0.047  0.6641  0.5813 -0.4746
   20CHTO    C7 8411   6.406   0.696   0.139 -0.3059  1.1247 -0.1036
   20CHTO   H20 8412   6.411   0.648   0.239  1.2092  0.0383 -0.6991
   20CHTO    O4 8413   6.349   0.828   0.145 -0.5313  0.0325  0.0557
   20CHTO   C14 8414   6.435   0.934   0.192  0.2845  0.3939  0.4039
   20CHTO   H27 8415   6.468   0.910   0.295 -0.5804  2.5936  1.2328
   20CHTO   C18 8416   6.340   1.052   0.201 -0.0983  0.5008  0.4299
   20CHTO   O13 8417   6.402   1.146   0.282 -0.5937 -0.4892 -0.3756
   20CHTO    H7 8418   6.362   1.230   0.294 -2.7166 -1.3642 -1.0308
   20CHTO    O2 8419   6.303   0.595   0.043 -0.1701 -0.0040  0.2754
   20CHTO    C1 8420   6.203   0.530   0.112  0.1575 -0.8789  0.0793
   20CHTO   H14 8421   6.195   0.575   0.214  1.1027 -0.6890  0.0715
   20CHTO    C2 8422   6.230   0.382   0.127 -0.0734  0.0686 -0.1864
   20CHTO   H15 8423   6.245   0.342   0.025  1.8748  0.0265  0.0968
   20CHTO    O6 8424   6.341   0.364   0.212  0.2892 -0.5647  0.1917
   20CHTO    H1 8425   6.421   0.374   0.165  0.8964 -1.0331  1.1325
   20CHTO    C3 8426   6.104   0.305   0.186 -0.1499 -0.1056  0.6424
   20CHTO   H16 8427   6.098   0.342   0.289  0.1818  1.2402  0.1975
   20CHTO    N1 8428   6.133   0.156   0.200  0.3231  0.1705  0.3515
   20CHTO    H8 8429   6.054   0.104   0.252  1.3258 -1.8341 -0.0887
   20CHTO    H9 8430   6.230   0.139   0.244  0.1106 -1.8777  0.0412
   20CHTO    C4 8431   5.965   0.341   0.113 -0.3603  0.3451  0.8294
   20CHTO   H17 8432   5.976   0.304   0.011  2.6343  2.8736  0.1602
   20CHTO    O1 8433   5.958   0.483   0.109  0.1042 -0.4845  0.3599
   20CHTO    C5 8434   6.063   0.566   0.049 -0.6556  0.6526 -0.4824
   20CHTO   H18 8435   6.064   0.534  -0.056 -1.5471  1.5400 -0.7749
   20CHTO   C16 8436   6.012   0.719   0.055  0.5446  0.1431  0.2179
   20CHTO   O11 8437   6.003   0.765   0.194 -0.3142 -0.0435  0.9248
   20CHTO    H5 8438   5.939   0.711   0.236 -0.5674 -2.9562 -2.9056
   20CHTO    O3 8439   5.845   0.285   0.180 -0.2968  0.9746 -0.8540
   20CHTO    C6 8440   5.718   0.303   0.111  0.9816  0.1506 -0.6187
   20CHTO   H19 8441   5.730   0.372   0.027 -4.2196 -2.0926 -3.4365
   20CHTO    C8 8442   5.666   0.166   0.049 -0.0584 -0.2120 -0.0213
   20CHTO   H21 8443   5.675   0.097   0.133  2.1016  2.4819  2.0602
   20CHTO    O7 8444   5.763   0.125  -0.047  0.8126  0.2506 -0.1210
   20CHTO    H2 8445   5.783   0.194  -0.108 -2.0838 -0.6797 -2.2826
   20CHTO   C12 8446   5.523   0.181  -0.007  0.1989  0.0542  0.1935
   20CHTO   H25 8447   5.520   0.252  -0.093 -1.9913 -0.5112 -0.2370
   20CHTO    N3 8448   5.474   0.048  -0.064 -0.0401 -0.4020  0.3293
   20CHTO   H12 8449   5.366   0.043  -0.067 -0.0674  0.1365  0.4149
   20CHTO   H13 8450   5.520   0.025  -0.159  1.2482  1.4845  0.4892
   20CHTO   C15 8451   5.436   0.241   0.107 -0.0255 -0.3216 -0.2503
   20CHTO   H28 8452   5.429   0.170   0.189  0.3934  0.4892  0.5003
   20CHTO   O10 8453   5.285   0.287   0.054  0.1203 -0.3658 -0.0087
   20CHTO    H4 8454   5.283   0.362  -0.002 -1.1823 -0.9976 -0.8368
   20CHTO    O5 8455   5.483   0.371   0.151 -0.4028  0.0874  0.6249
   20CHTO   C10 8456   5.607   0.356   0.211  0.7078  0.4804  0.0465
   20CHTO   H23 8457   5.606   0.296   0.301  1.4000 -2.0988 -1.6129
   20CHTO   C17 8458   5.633   0.497   0.264  0.4959 -0.0261 -0.1413
   20CHTO   O12 8459   5.547   0.547   0.369  0.1768 -0.6766  0.0702
   20CHTO    H6 8460   5.512   0.631   0.349  0.2243 -0.7483 -0.3184
   21GLOH   H03 8461   3.498   0.513   1.411  0.5467 -0.2572  0.1187
   21GLOH    O1 8462   3.514   0.463   1.493 -0.3806 -0.4582  0.1831
   21GLOH    C1 8463   3.658   0.436   1.490  0.2323 -0.6700 -0.1431
   21GLOH   H02 8464   3.725   0.516   1.459 -0.2644 -0.7716 -1.5401
   21GLOH   H08 8465   3.679   0.351   1.424  2.7352 -0.8221  0.7671
   21GLOH    C2 8466   3.705   0.391   1.627 -0.8508  0.0345 -0.7835
   21GLOH   H04 8467   3.677   0.285   1.638  2.1895 -0.5696  1.9326
   21GLOH    O2 8468   3.850   0.390   1.640  0.2873 -0.2725  0.0648
   21GLOH   H05 8469   3.894   0.451   1.579 -0.9109 -1.5582 -2.1437
   21GLOH    C3 8470   3.648   0.472   1.748 -0.2224  0.2913  0.5052
   21GLOH   H06 8471   3.692   0.571   1.743  0.2635 -0.0171 -1.8667
   21GLOH   H07 8472   3.677   0.420   1.840 -0.4960 -1.5164 -0.3965
   21GLOH    O3 8473   3.503   0.481   1.742  0.2118  0.1235 -0.2727
   21GLOH   H01 8474   3.477   0.480   1.648  1.8171 -0.8624 -0.7391
   22GLOH   H03 8475   2.508   1.198   1.151  2.5756  0.5438 -1.6189
   22GLOH    O1 8476   2.556   1.129   1.201  0.2079  0.0199  0.0057
   22GLOH    C1 8477   2.650   1.082   1.104  0.3181  0.0675  0.0917
   22GLOH   H02 8478   2.693   1.162   1.044 -0.4073 -0.5560 -1.2871
   22GLOH   H08 8479   2.604   1.021   1.026 -0.4681 -1.9769  2.0968
   22GLOH    C2 8480   2.771   1.010   1.163  0.0394 -0.0141 -0.1107
   22GLOH   H04 8481   2.839   0.977   1.083  3.9033  2.0726  2.1336
   22GLOH    O2 8482   2.844   1.102   1.241 -0.3444 -0.0117 -0.3882
   22GLOH   H05 8483   2.794   1.185   1.230  0.5722  0.7537  1.0924
   22GLOH    C3 8484   2.720   0.888   1.242 -0.4154  0.0356 -0.9658
   22GLOH   H06 8485   2.669   0.937   1.326 -0.4008  0.4383 -1.1935
   22GLOH   H07 8486   2.806   0.842   1.290 -0.4730  0.9243  0.0067
   22GLOH    O3 8487   2.645   0.797   1.154  0.3512 -0.1514 -0.2520
   22GLOH   H01 8488   2.563   0.759   1.191  1.0269 -1.2843  0.1252
   23GLOH   H03 8489   2.896  10.174   2.093  3.4625  3.3179  0.6236
   23GLOH    O1 8490   2.892  10.143   2.185 -0.3954  0.4859 -0.3450
   23GLOH    C1 8491   3.025  10.094   2.215 -0.3492 -0.7028  0.2940
   23GLOH   H02 8492   3.101  10.156   2.166 -1.7480  1.6121  0.9876
   23GLOH   H08 8493   3.034   9.991   2.180 -1.7325 -0.5229 -0.6215
   23GLOH    C2 8494   3.056  10.080   2.360 -0.3282  1.0499  0.6043
   23GLOH   H04 8495   2.984  10.005   2.396  0.6565  0.1363  0.6943
   23GLOH    O2 8496   3.193  10.043   2.385 -0.3066  0.2462  0.2175
   23GLOH   H05 8497   3.259  10.113   2.400 -1.0502  0.6834  1.5462
   23GLOH    C3 8498   3.031  10.216   2.428  0.1895 -0.0415  0.2155
   23GLOH   H06 8499   3.111  10.278   2.388 -0.2562 -0.0385 -0.6902
   23GLOH   H07 8500   3.055  10.204   2.534 -0.6394  0.4224  0.4650
   23GLOH    O3 8501   2.899  10.278   2.414 -0.2369  0.3123 -0.6068
   23GLOH   H01 8502   2.865  10.252   2.326 -0.4378  1.0383 -0.7461
   24GLOH   H03 8503   4.072   0.360   1.701  0.9569 -0.4781 -1.1122
   24GLOH    O1 8504   4.103   0.452   1.702  0.3264 -0.2662 -0.7039
   24GLOH    C1 8505   4.180   0.496   1.590  1.0685  0.0762  0.1128
   24GLOH   H02 8506   4.138   0.439   1.507 -0.7364 -0.0816  1.1026
   24GLOH   H08 8507   4.286   0.489   1.613  0.5895 -3.8127  1.5662
   24GLOH    C2 8508   4.167   0.648   1.556 -0.1689  0.7816  0.5857
   24GLOH   H04 8509   4.206   0.702   1.643 -1.9279  1.7945  0.7778
   24GLOH    O2 8510   4.250   0.676   1.446  0.0428 -0.2578 -0.2304
   24GLOH   H05 8511   4.189   0.668   1.370  0.9267  1.5906 -1.1722
   24GLOH    C3 8512   4.019   0.692   1.534  0.0611  0.2971  0.2385
   24GLOH   H06 8513   4.016   0.796   1.502 -0.0980 -0.3831 -2.0576
   24GLOH   H07 8514   3.957   0.682   1.624  0.3230 -1.6107  0.2207
   24GLOH    O3 8515   3.958   0.607   1.436  0.2194  0.1215  0.0333
   24GLOH   H01 8516   3.952   0.661   1.355  0.9420  1.6688  0.9837
   25GLOH   H03 8517   2.470   2.330   2.620  1.0921 -0.8659  3.0654
   25GLOH    O1 8518   2.450   2.413   2.668 -0.1945  0.3455  0.5357
   25GLOH    C1 8519   2.562   2.476   2.728  0.8680 -0.0695  0.1234
   25GLOH   H02 8520   2.611   2.531   2.647  2.1967  0.5093  1.2826
   25GLOH   H08 8521   2.627   2.396   2.764 -1.4153 -1.5639  0.9802
   25GLOH    C2 8522   2.535   2.570   2.848 -0.2407 -0.4591  0.4085
   25GLOH   H04 8523   2.466   2.514   2.913 -0.9999  0.1512  0.1320
   25GLOH    O2 8524   2.656   2.583   2.927 -0.0853 -1.1284  0.7497
   25GLOH   H05 8525   2.635   2.603   3.019  0.4311 -0.8709  0.8140
   25GLOH    C3 8526   2.463   2.697   2.808 -0.2483  0.1778  0.3736
   25GLOH   H06 8527   2.356   2.680   2.800 -0.6862  1.8322  2.2019
   25GLOH   H07 8528   2.502   2.723   2.710 -1.8237 -1.9406 -0.8442
   25GLOH    O3 8529   2.477   2.801   2.902  0.6306  0.5902  0.0991
   25GLOH   H01 8530   2.567   2.837   2.896  1.0829 -0.2135  1.8418
   26GLOH   H03 8531   4.001   2.642   2.290 -0.3840  2.2078  0.3300
   26GLOH    O1 8532   4.008   2.674   2.198 -0.2021  0.3749 -0.3022
   26GLOH    C1 8533   3.925   2.792   2.200 -0.7859 -0.4583  0.4989
   26GLOH   H02 8534   3.938   2.855   2.111 -0.3671  0.2128  1.0273
   26GLOH   H08 8535   3.955   2.861   2.279 -0.0475 -0.5422  0.3022
   26GLOH    C2 8536   3.780   2.745   2.216  0.4710  0.5285  0.4561
   26GLOH   H04 8537   3.760   2.675   2.134 -1.5596 -1.0310  2.2372
   26GLOH    O2 8538   3.758   2.694   2.349  0.1954  0.6029  0.3588
   26GLOH   H05 8539   3.840   2.645   2.368  0.5363  1.2119  0.4463
   26GLOH    C3 8540   3.693   2.872   2.185  0.7266  0.5785  0.0421
   26GLOH   H06 8541   3.720   2.950   2.256  0.9227  2.0468 -1.6361
   26GLOH   H07 8542   3.590   2.844   2.204 -0.0066  1.8660 -1.9260
   26GLOH    O3 8543   3.708   2.897   2.046 -0.1145  1.2084 -0.0106
   26GLOH   H01 8544   3.640   2.962   2.022  1.2680  3.4683  1.9957
   27GLOH   H03 8545   2.758   5.313   0.676 -0.4895  1.7380 -1.1363
   27GLOH    O1 8546   2.793   5.252   0.609 -0.6271  0.3939 -0.0286
   27GLOH    C1 8547   2.936   5.273   0.599  0.1869 -0.7514 -0.0746
   27GLOH   H02 8548   2.980   5.267   0.698  0.4053  0.5956 -0.0845
   27GLOH   H08 8549   2.956   5.373   0.561  0.3044  0.0532  2.0347
   27GLOH    C2 8550   2.995   5.166   0.505 -0.3758  0.3996 -0.0975
   27GLOH   H04 8551   2.949   5.072   0.540 -1.1175  0.7629 -0.0858
   27GLOH    O2 8552   2.946   5.181   0.372  0.2283 -0.2507  0.4396
   27GLOH   H05 8553   2.855   5.147   0.370  0.0399  0.2674  0.1324
   27GLOH    C3 8554   3.150   5.152   0.517  0.2054  0.2883  0.3207
   27GLOH   H06 8555   3.166   5.139   0.624 -0.3473 -3.0869  0.0565
   27GLOH   H07 8556   3.195   5.243   0.478 -0.7875  0.5993 -0.1100
   27GLOH    O3 8557   3.201   5.030   0.462  0.2265  0.7959 -0.3104
   27GLOH   H01 8558   3.290   5.016   0.499  1.1263  0.4568 -2.5115
   28GLOH   H03 8559   3.819   0.728   0.362 -0.7244  0.8214  0.6722
   28GLOH    O1 8560   3.814   0.717   0.459 -0.3489  0.2090  0.6256
   28GLOH    C1 8561   3.898   0.813   0.525  0.5289 -0.0169 -0.2428
   28GLOH   H02 8562   3.934   0.881   0.448  0.5028  1.0958  0.6990
   28GLOH   H08 8563   3.982   0.769   0.578  0.6348 -0.6392 -0.9213
   28GLOH    C2 8564   3.822   0.894   0.630 -0.4013 -0.1597  0.1261
   28GLOH   H04 8565   3.784   0.816   0.698 -0.8080  0.9581  1.2004
   28GLOH    O2 8566   3.910   0.984   0.697 -0.3460 -0.0516 -0.4522
   28GLOH   H05 8567   3.860   1.040   0.758  0.1129 -0.5201  0.3571
   28GLOH    C3 8568   3.696   0.969   0.579 -0.0844 -0.6902  0.4567
   28GLOH   H06 8569   3.671   1.050   0.648  2.4341  2.8626 -2.6023
   28GLOH   H07 8570   3.607   0.906   0.578  0.2205 -1.1657 -3.5485
   28GLOH    O3 8571   3.715   1.038   0.452  0.0891  0.7253 -0.0093
   28GLOH   H01 8572   3.797   1.091   0.453  0.8796 -0.5041  1.1595
   29GLOH   H03 8573   2.912   0.430   0.379  0.6070 -1.9298 -0.7228
   29GLOH    O1 8574   2.996   0.451   0.425 -0.2759 -0.0226  0.0469
   29GLOH    C1 8575   3.060   0.343   0.496 -0.5159  0.1196  0.2645
   29GLOH   H02 8576   3.032   0.248   0.449 -0.0899 -0.1226  0.4944
   29GLOH   H08 8577   3.030   0.335   0.600 -0.2882 -1.2283  0.2365
   29GLOH    C2 8578   3.210   0.365   0.513 -0.4785 -0.3369 -0.0257
   29GLOH   H04 8579   3.229   0.436   0.595  1.6112 -1.5438  0.5565
   29GLOH    O2 8580   3.266   0.245   0.567 -0.3610  0.5264 -0.3619
   29GLOH   H05 8581   3.359   0.257   0.595 -0.3759 -0.1691 -0.0230
   29GLOH    C3 8582   3.290   0.411   0.389  0.5000 -0.6554 -0.1633
   29GLOH   H06 8583   3.245   0.501   0.348 -0.3968 -0.8494  0.3877
   29GLOH   H07 8584   3.290   0.341   0.304  1.6704 -0.5343 -0.2800
   29GLOH    O3 8585   3.431   0.439   0.412 -0.3636 -0.2539  0.2515
   29GLOH   H01 8586   3.455   0.365   0.471 -1.2327  1.2392  2.5832
   30GLOH   H03 8587   4.024   4.486   2.984  0.0640 -1.2009  0.5532
   30GLOH    O1 8588   4.113   4.447   2.975  0.8679  0.6966  0.0432
   30GLOH    C1 8589   4.120   4.381   2.848  0.0201  0.3736  0.9227
   30GLOH   H02 8590   4.090   4.278   2.865  1.1479 -0.4372 -1.7034
   30GLOH   H08 8591   4.221   4.390   2.806 -0.3959  0.1005 -0.1471
   30GLOH    C2 8592   4.026   4.445   2.745 -0.5315  0.2224 -0.6288
   30GLOH   H04 8593   4.056   4.551   2.741 -1.2661  0.5198  1.3883
   30GLOH    O2 8594   4.041   4.372   2.626  0.1144  0.9445 -0.5699
   30GLOH   H05 8595   3.975   4.303   2.604  2.3486 -1.5442  0.4031
   30GLOH    C3 8596   3.878   4.435   2.795 -0.3651  0.1951 -0.4929
   30GLOH   H06 8597   3.869   4.328   2.814 -2.5172  0.5211  0.5180
   30GLOH   H07 8598   3.801   4.479   2.731 -1.1384  1.3897  1.2201
   30GLOH    O3 8599   3.866   4.501   2.925  0.2005  0.2567  0.4357
   30GLOH   H01 8600   3.780   4.476   2.963  1.5807  0.6701  4.0041
   31GLOH   H03 8601   2.362   1.772   0.167  0.0539 -0.5414  1.7861
   31GLOH    O1 8602   2.269   1.771   0.195 -0.3924 -0.1305  0.3955
   31GLOH    C1 8603   2.257   1.788   0.337 -0.0375  1.0745 -0.2595
   31GLOH   H02 8604   2.331   1.730   0.392  0.9321  0.6154 -1.9893
   31GLOH   H08 8605   2.166   1.742   0.376 -0.0260 -0.2542 -1.7239
   31GLOH    C2 8606   2.267   1.938   0.372  0.1464  0.3004  0.6469
   31GLOH   H04 8607   2.192   1.998   0.319 -0.9049 -1.5219  0.0533
   31GLOH    O2 8608   2.236   1.936   0.517 -0.0954  0.2200  0.7780
   31GLOH   H05 8609   2.323   1.918   0.556  1.0302  1.9635 -0.8791
   31GLOH    C3 8610   2.403   2.004   0.338 -0.5848  0.4746 -0.1416
   31GLOH   H06 8611   2.468   1.917   0.348  0.7679  1.6080  1.1839
   31GLOH   H07 8612   2.434   2.076   0.414 -0.2781  0.4716 -0.2617
   31GLOH    O3 8613   2.413   2.058   0.206  0.7586  0.7908 -0.2454
   31GLOH   H01 8614   2.506   2.082   0.194  0.6842  1.1527 -0.0943
   32GLOH   H03 8615   4.361   1.390   1.363 -0.1834  0.9174 -1.3404
   32GLOH    O1 8616   4.433   1.428   1.417  0.3481 -1.0118 -0.6446
   32GLOH    C1 8617   4.416   1.424   1.562 -0.0608 -0.5308 -1.0288
   32GLOH   H02 8618   4.491   1.364   1.613 -1.2260 -0.3339  0.9716
   32GLOH   H08 8619   4.325   1.366   1.579  0.1351 -0.4377  0.3647
   32GLOH    C2 8620   4.409   1.563   1.624 -0.2182 -0.1112 -0.2797
   32GLOH   H04 8621   4.322   1.615   1.582  0.4997  0.3131 -1.2470
   32GLOH    O2 8622   4.384   1.557   1.765  0.5385  0.0090  0.6817
   32GLOH   H05 8623   4.383   1.638   1.819 -0.8383  0.8777 -0.6382
   32GLOH    C3 8624   4.539   1.644   1.595 -0.1409 -0.6520 -0.5309
   32GLOH   H06 8625   4.619   1.587   1.643 -0.1241 -1.4155 -1.4523
   32GLOH   H07 8626   4.532   1.740   1.646 -0.6551 -0.5066 -0.8729
   32GLOH    O3 8627   4.560   1.649   1.453  0.1290 -0.5911  0.5828
   32GLOH   H01 8628   4.528   1.566   1.412  2.8085 -1.2698 -0.2483
   33GLOH   H03 8629   2.907   8.787   1.577 -1.9065  1.4734  2.5804
   33GLOH    O1 8630   2.864   8.836   1.505 -0.0366  0.2522  0.5932
   33GLOH    C1 8631   2.962   8.848   1.393  0.5890 -0.7384  0.3601
   33GLOH   H02 8632   2.906   8.878   1.304 -0.3240 -2.5981  0.2954
   33GLOH   H08 8633   3.015   8.755   1.373 -0.8954 -0.9509 -2.9187
   33GLOH    C2 8634   3.063   8.957   1.436 -0.6884  0.5121  0.8445
   33GLOH   H04 8635   3.073   8.954   1.546  1.4114 -1.0053  0.6470
   33GLOH    O2 8636   3.189   8.926   1.366  0.4608 -0.0763  0.8851
   33GLOH   H05 8637   3.235   8.850   1.405  3.3011  1.3948  0.4838
   33GLOH    C3 8638   3.021   9.100   1.410 -0.4249 -0.1454 -0.9628
   33GLOH   H06 8639   2.927   9.108   1.463  1.0604  0.5311  1.6716
   33GLOH   H07 8640   3.002   9.121   1.305 -0.2791 -0.5061 -1.0633
   33GLOH    O3 8641   3.119   9.185   1.470  0.0110  0.0431  0.4445
   33GLOH   H01 8642   3.203   9.153   1.432 -0.4181 -1.6641  0.9095
   34GLOH   H03 8643   3.979   3.178   2.336  2.9859 -0.1268  0.6722
   34GLOH    O1 8644   3.986   3.244   2.264  0.4668 -0.2294  0.2790
   34GLOH    C1 8645   3.954   3.178   2.141  0.6392  0.1177 -0.0862
   34GLOH   H02 8646   3.901   3.245   2.074  0.3711 -0.4214 -0.4138
   34GLOH   H08 8647   3.878   3.104   2.169  0.6524  0.3776  0.6574
   34GLOH    C2 8648   4.076   3.112   2.081  0.8132  0.0431  0.3046
   34GLOH   H04 8649   4.114   3.040   2.155  1.1001  1.0393  1.1524
   34GLOH    O2 8650   4.055   3.032   1.963  0.0294  0.5043 -0.1536
   34GLOH   H05 8651   4.133   2.979   1.941 -1.0395 -1.2038  0.1390
   34GLOH    C3 8652   4.181   3.231   2.055 -0.6334 -0.1874 -0.0426
   34GLOH   H06 8653   4.268   3.181   2.014 -0.3546  1.4157 -1.4379
   34GLOH   H07 8654   4.214   3.276   2.149 -3.1497  0.3861  0.6011
   34GLOH    O3 8655   4.144   3.340   1.964  0.1744  0.0920  0.3406
   34GLOH   H01 8656   4.154   3.303   1.874  2.0129 -0.7514  0.8719
   35GLOH   H03 8657   3.371   4.758   0.797 -2.0815 -1.5552 -0.6642
   35GLOH    O1 8658   3.415   4.776   0.712 -0.0204  0.0216  0.6853
   35GLOH    C1 8659   3.442   4.650   0.641  0.0401  0.5897 -0.0190
   35GLOH   H02 8660   3.467   4.665   0.536 -1.6513  1.5173 -0.3030
   35GLOH   H08 8661   3.351   4.590   0.640  1.9138 -2.3405  0.5840
   35GLOH    C2 8662   3.546   4.565   0.722 -0.2089 -0.6158  0.8579
   35GLOH   H04 8663   3.511   4.544   0.824  0.1737 -1.4454  0.8205
   35GLOH    O2 8664   3.562   4.434   0.659 -0.6713  0.0838  0.6478
   35GLOH   H05 8665   3.479   4.414   0.613 -1.5874  0.6171  2.0256
   35GLOH    C3 8666   3.673   4.652   0.724  0.1186  0.7254  0.1722
   35GLOH   H06 8667   3.742   4.617   0.800 -0.5572  1.5537  1.1883
   35GLOH   H07 8668   3.635   4.744   0.767  0.5317  0.9444  0.0708
   35GLOH    O3 8669   3.728   4.682   0.593 -0.2371 -0.8430  0.1519
   35GLOH   H01 8670   3.777   4.601   0.568 -1.5155 -1.7245  0.4684
   36GLOH   H03 8671   2.277   1.598   1.854 -2.5255 -0.1748 -0.7503
   36GLOH    O1 8672   2.307   1.539   1.783  0.1239 -0.4496  0.5100
   36GLOH    C1 8673   2.264   1.401   1.815 -0.5467 -0.3073  0.2372
   36GLOH   H02 8674   2.307   1.382   1.914 -0.4100  0.6836  0.3657
   36GLOH   H08 8675   2.324   1.338   1.749 -2.1626 -0.6687 -0.9255
   36GLOH    C2 8676   2.117   1.358   1.810  0.3895  0.0932 -0.1358
   36GLOH   H04 8677   2.115   1.250   1.829  2.7343  0.0075 -0.2091
   36GLOH    O2 8678   2.033   1.437   1.896 -0.0150  0.0757  0.2000
   36GLOH   H05 8679   2.029   1.530   1.868 -0.1611  0.3368  1.0708
   36GLOH    C3 8680   2.075   1.377   1.670  0.7242 -0.6836 -0.0813
   36GLOH   H06 8681   2.128   1.458   1.621 -0.5118 -1.5442 -2.9537
   36GLOH   H07 8682   1.969   1.405   1.670  0.9453  0.1593 -0.7405
   36GLOH    O3 8683   2.099   1.258   1.590  0.0886 -0.2893 -0.8169
   36GLOH   H01 8684   2.037   1.185   1.607  0.4522  0.0573  2.3613
   37GLOH   H03 8685   3.184   4.540   2.521 -2.3414 -0.2743 -3.2810
   37GLOH    O1 8686   3.266   4.535   2.468 -0.0262 -0.0017  0.0691
   37GLOH    C1 8687   3.235   4.534   2.330  0.1398  0.4103  0.4546
   37GLOH   H02 8688   3.133   4.568   2.313 -0.1512 -0.1169  1.1541
   37GLOH   H08 8689   3.247   4.435   2.286 -3.2644 -0.1035  0.5420
   37GLOH    C2 8690   3.332   4.625   2.252 -0.1564 -0.1313 -0.0579
   37GLOH   H04 8691   3.434   4.598   2.280  0.8205  1.4995 -1.8767
   37GLOH    O2 8692   3.301   4.611   2.109 -0.0356 -0.1525  0.3852
   37GLOH   H05 8693   3.369   4.659   2.058  0.9054 -0.4978  1.2803
   37GLOH    C3 8694   3.327   4.772   2.292  0.6638  0.1853  0.2245
   37GLOH   H06 8695   3.347   4.781   2.398  1.6854 -1.4457  0.1761
   37GLOH   H07 8696   3.223   4.805   2.282  0.8924  0.8888  0.1205
   37GLOH    O3 8697   3.419   4.854   2.217  0.2785  0.3156  0.3666
   37GLOH   H01 8698   3.465   4.793   2.156 -0.8266 -0.6816  0.5190
   38GLOH   H03 8699   3.044   3.330   2.642 -2.4343  0.0091  0.5008
   38GLOH    O1 8700   3.009   3.417   2.614 -0.0136  0.7798 -0.2579
   38GLOH    C1 8701   2.895   3.399   2.533  0.0409 -0.8742 -0.3136
   38GLOH   H02 8702   2.861   3.492   2.486  1.4436 -0.6841 -0.9694
   38GLOH   H08 8703   2.811   3.358   2.590  0.7277  0.0582  1.3855
   38GLOH    C2 8704   2.924   3.296   2.417  0.7428 -1.0604  0.0857
   38GLOH   H04 8705   2.992   3.337   2.341 -0.7287  2.4509  0.5365
   38GLOH    O2 8706   2.969   3.167   2.460 -0.5362  0.0840  0.3109
   38GLOH   H05 8707   3.034   3.177   2.531 -0.0229  2.8654 -0.5051
   38GLOH    C3 8708   2.791   3.269   2.344  0.8791 -0.3492  0.0799
   38GLOH   H06 8709   2.716   3.241   2.417  1.6434  1.6572  1.6876
   38GLOH   H07 8710   2.800   3.180   2.280  0.2893 -1.3705  1.4016
   38GLOH    O3 8711   2.749   3.386   2.265  0.0223 -0.5024  0.0382
   38GLOH   H01 8712   2.831   3.427   2.232 -0.4952 -1.3957 -2.4022
   39GLOH   H03 8713   3.599   4.663   1.563  0.5582  0.5973  0.4507
   39GLOH    O1 8714   3.697   4.657   1.569  0.5805  0.3763 -0.1169
   39GLOH    C1 8715   3.735   4.564   1.466  0.2653 -0.1415 -0.5281
   39GLOH   H02 8716   3.670   4.561   1.379  2.6969 -2.5037 -2.3659
   39GLOH   H08 8717   3.736   4.460   1.498  0.1394 -0.0621 -0.2688
   39GLOH    C2 8718   3.877   4.584   1.413 -0.2845 -0.6101  0.0178
   39GLOH   H04 8719   3.947   4.576   1.498  0.0603 -3.0705 -0.4627
   39GLOH    O2 8720   3.915   4.482   1.318 -0.2487  0.1529 -0.2896
   39GLOH   H05 8721   4.007   4.497   1.291 -0.2841 -1.4637 -1.3876
   39GLOH    C3 8722   3.898   4.721   1.351 -0.4372 -0.0434 -0.0329
   39GLOH   H06 8723   3.981   4.717   1.282 -2.3581  0.8792 -2.4811
   39GLOH   H07 8724   3.927   4.791   1.430 -0.7157  0.2176 -0.1593
   39GLOH    O3 8725   3.788   4.776   1.281 -0.2302  0.4757  0.1166
   39GLOH   H01 8726   3.770   4.721   1.203  2.3613  0.0514 -0.2203
   40GLOH   H03 8727   2.810   0.560   0.897  0.1998  0.6329 -0.4933
   40GLOH    O1 8728   2.837   0.518   0.813 -0.4974  0.2801 -0.5449
   40GLOH    C1 8729   2.771   0.387   0.805 -0.0378 -0.3315 -0.1087
   40GLOH   H02 8730   2.678   0.386   0.860 -0.6051 -0.0905 -1.0546
   40GLOH   H08 8731   2.838   0.307   0.839  1.0813  0.1946 -1.0283
   40GLOH    C2 8732   2.741   0.368   0.654 -0.3204  1.1685 -0.7875
   40GLOH   H04 8733   2.842   0.365   0.609 -0.9697  2.7666 -2.4062
   40GLOH    O2 8734   2.666   0.246   0.634 -0.0886 -0.0480 -0.5615
   40GLOH   H05 8735   2.729   0.174   0.655  2.0452  1.5757 -1.1845
   40GLOH    C3 8736   2.663   0.490   0.594  0.1278 -0.6809 -0.7425
   40GLOH   H06 8737   2.572   0.500   0.653 -1.1394  0.1536 -2.7679
   40GLOH   H07 8738   2.645   0.464   0.490  0.9299 -1.8625 -0.5898
   40GLOH    O3 8739   2.735   0.615   0.605  0.2628  0.9407 -0.1148
   40GLOH   H01 8740   2.789   0.605   0.686  1.1751  2.3863 -0.5215
   41GLOH   H03 8741   3.479   0.199   1.938 -0.3067  2.6198 -0.0064
   41GLOH    O1 8742   3.450   0.207   2.031 -0.3904 -0.7137  0.3136
   41GLOH    C1 8743   3.569   0.195   2.109 -0.1508 -0.5210  0.6550
   41GLOH   H02 8744   3.613   0.295   2.111  0.6617 -0.8040 -1.4591
   41GLOH   H08 8745   3.648   0.130   2.070 -0.1948  0.1373 -0.5433
   41GLOH    C2 8746   3.544   0.161   2.257 -0.1332 -0.0503  0.1015
   41GLOH   H04 8747   3.505   0.059   2.265  2.6475 -0.9739  3.1770
   41GLOH    O2 8748   3.667   0.154   2.327 -0.2026 -0.1358  0.3280
   41GLOH   H05 8749   3.662   0.115   2.416  0.2818 -1.4294 -0.1807
   41GLOH    C3 8750   3.445   0.253   2.330  0.0246  0.5103 -0.5931
   41GLOH   H06 8751   3.365   0.283   2.262 -0.2163 -0.2656 -0.6528
   41GLOH   H07 8752   3.483   0.352   2.354  1.8233 -0.3748  0.2830
   41GLOH    O3 8753   3.375   0.199   2.444  0.2522 -0.3112  0.4980
   41GLOH   H01 8754   3.439   0.201   2.517  0.5849  3.0624  0.1862
   42GLOH   H03 8755   4.718   3.988   2.797 -2.2497  0.9296 -0.8756
   42GLOH    O1 8756   4.710   3.908   2.742 -0.4174 -0.1489  0.3682
   42GLOH    C1 8757   4.732   3.952   2.605 -0.0292  0.1494 -0.3503
   42GLOH   H02 8758   4.793   3.878   2.552 -2.1028 -0.5211 -1.8992
   42GLOH   H08 8759   4.777   4.051   2.600 -3.4594  1.7181 -1.1477
   42GLOH    C2 8760   4.608   3.965   2.515  0.0837  0.6435  0.5230
   42GLOH   H04 8761   4.540   4.037   2.564 -1.3025 -0.0854 -0.2917
   42GLOH    O2 8762   4.642   4.018   2.389  0.4980  0.0610  0.6312
   42GLOH   H05 8763   4.582   4.091   2.368  2.6561  1.6257 -0.2560
   42GLOH    C3 8764   4.531   3.833   2.507 -0.2259 -0.1754 -0.1293
   42GLOH   H06 8765   4.536   3.792   2.406 -0.0321 -0.4346 -0.0128
   42GLOH   H07 8766   4.423   3.845   2.516 -0.4657 -2.1537 -0.2740
   42GLOH    O3 8767   4.568   3.731   2.602 -0.1399 -0.5569  0.0362
   42GLOH   H01 8768   4.628   3.782   2.659 -1.9706  1.7927 -0.0584
   43GLOH   H03 8769   3.226   3.097   1.955  0.1032 -1.3991 -2.3103
   43GLOH    O1 8770   3.230   3.173   1.895 -0.2548  0.4469 -0.0684
   43GLOH    C1 8771   3.295   3.145   1.771  0.5045  0.5038 -0.0638
   43GLOH   H02 8772   3.318   3.040   1.753  0.0107  0.3409  0.2523
   43GLOH   H08 8773   3.392   3.195   1.764  1.0492 -0.6822 -1.3432
   43GLOH    C2 8774   3.220   3.190   1.646  0.2522  0.6429  0.0632
   43GLOH   H04 8775   3.298   3.190   1.568 -0.9607 -0.6718 -1.1706
   43GLOH    O2 8776   3.115   3.098   1.605 -0.0213 -0.2743 -0.3079
   43GLOH   H05 8777   3.042   3.118   1.666  1.7830 -2.5752  2.7508
   43GLOH    C3 8778   3.168   3.335   1.659 -0.3832 -0.2407  0.6774
   43GLOH   H06 8779   3.091   3.351   1.734 -0.9681  0.5185 -0.0692
   43GLOH   H07 8780   3.123   3.370   1.566 -0.0143  0.9559  0.9451
   43GLOH    O3 8781   3.274   3.433   1.695  0.0024 -0.3003  0.4395
   43GLOH   H01 8782   3.269   3.436   1.792  0.0907 -0.8187  0.4636
   44GLOH   H03 8783   3.830   4.828   2.018  2.8186  0.0954  0.1621
   44GLOH    O1 8784   3.817   4.925   2.011 -0.2691 -0.2178  0.5158
   44GLOH    C1 8785   3.818   4.976   1.881 -0.2856 -0.4296  0.6935
   44GLOH   H02 8786   3.760   4.919   1.808 -2.4922  1.2678  1.0501
   44GLOH   H08 8787   3.920   4.986   1.846  0.7243 -2.3652  2.9070
   44GLOH    C2 8788   3.767   5.127   1.885 -0.3245  0.1149 -0.5714
   44GLOH   H04 8789   3.843   5.183   1.941 -0.9745 -0.3582  0.8078
   44GLOH    O2 8790   3.757   5.172   1.747  0.5261  0.4439 -0.2600
   44GLOH   H05 8791   3.845   5.183   1.706  1.9158 -2.3633  1.7694
   44GLOH    C3 8792   3.631   5.133   1.958 -0.0744  0.5520 -0.1679
   44GLOH   H06 8793   3.573   5.041   1.960 -0.1896  0.6224 -0.2315
   44GLOH   H07 8794   3.564   5.205   1.910  1.1839  2.3281  0.6748
   44GLOH    O3 8795   3.646   5.169   2.099  0.2578 -0.0413  0.0559
   44GLOH   H01 8796   3.709   5.104   2.136 -1.4715 -2.5156 -1.1535
   45GLOH   H03 8797   3.000   3.395   1.363  0.0438 -0.6841  0.4497
   45GLOH    O1 8798   2.906   3.400   1.385  0.0361  0.1341  0.2453
   45GLOH    C1 8799   2.833   3.344   1.275 -0.4687 -0.3377 -0.4214
   45GLOH   H02 8800   2.730   3.316   1.301 -0.6575  0.1001 -0.6918
   45GLOH   H08 8801   2.878   3.246   1.256 -2.5801 -1.7763  1.5953
   45GLOH    C2 8802   2.832   3.438   1.157  0.6500  0.5475 -0.4718
   45GLOH   H04 8803   2.938   3.451   1.132  1.2591 -0.8592  1.3144
   45GLOH    O2 8804   2.765   3.393   1.037  0.2756  0.6159  0.4612
   45GLOH   H05 8805   2.788   3.300   1.021  1.3655  0.7995  0.9084
   45GLOH    C3 8806   2.777   3.579   1.199 -0.0123  0.1068  0.4440
   45GLOH   H06 8807   2.829   3.620   1.286 -0.1337 -0.2050  0.6672
   45GLOH   H07 8808   2.670   3.580   1.219 -0.0858  2.2869  0.0051
   45GLOH    O3 8809   2.796   3.667   1.084 -0.6691  0.6351  0.3381
   45GLOH   H01 8810   2.752   3.628   1.006 -1.2750  2.7891 -0.4242
   46GLOH   H03 8811   2.907   9.422   2.976 -0.8977 -0.2738 -2.4961
   46GLOH    O1 8812   2.853   9.344   2.998 -0.3158  0.0298  0.2534
   46GLOH    C1 8813   2.889   9.235   2.912  0.4389 -0.1096 -0.0392
   46GLOH   H02 8814   2.984   9.193   2.944 -0.8561 -2.4864  0.8474
   46GLOH   H08 8815   2.902   9.282   2.814  2.4665 -1.0282 -0.2329
   46GLOH    C2 8816   2.780   9.129   2.903  0.1043 -0.1864 -0.2959
   46GLOH   H04 8817   2.819   9.042   2.847  3.7144  1.0392  0.2072
   46GLOH    O2 8818   2.744   9.084   3.034 -0.3335 -0.0275  0.5728
   46GLOH   H05 8819   2.763   9.152   3.102 -0.2374  0.3640  0.1536
   46GLOH    C3 8820   2.648   9.169   2.829 -0.3745  0.3990 -0.5164
   46GLOH   H06 8821   2.619   9.265   2.873 -3.0184 -0.3579 -0.4722
   46GLOH   H07 8822   2.570   9.096   2.852  0.3487 -0.2089 -0.0000
   46GLOH    O3 8823   2.652   9.172   2.685  0.2741  0.1884  0.2408
   46GLOH   H01 8824   2.683   9.083   2.658 -2.4105  0.3428 -3.8378
   47GLOH   H03 8825   3.700   9.075   0.855  0.0429  0.1004  0.8745
   47GLOH    O1 8826   3.779   9.017   0.859 -0.1023 -0.2717 -0.9607
   47GLOH    C1 8827   3.759   8.946   0.978  0.4508 -0.3553  0.5635
   47GLOH   H02 8828   3.655   8.921   1.000 -0.5115  0.6633 -2.6641
   47GLOH   H08 8829   3.804   8.993   1.066 -0.3691 -2.1101  1.9737
   47GLOH    C2 8830   3.822   8.802   0.973 -0.3725 -0.2555  1.2181
   47GLOH   H04 8831   3.932   8.810   0.970 -0.4169 -0.2221 -2.0217
   47GLOH    O2 8832   3.780   8.739   1.095 -1.2542  0.2597 -0.2991
   47GLOH   H05 8833   3.763   8.643   1.087  1.1525 -0.2109 -0.0927
   47GLOH    C3 8834   3.769   8.740   0.839 -0.2653 -0.1143  0.1876
   47GLOH   H06 8835   3.841   8.660   0.821 -2.9719 -2.5785 -0.0149
   47GLOH   H07 8836   3.795   8.815   0.764  1.1404  0.1632  0.9401
   47GLOH    O3 8837   3.632   8.714   0.840  0.1998  0.6236 -0.2095
   47GLOH   H01 8838   3.614   8.678   0.929  1.2895  0.0106 -0.2255
   48GLOH   H03 8839   3.580   9.225   2.423 -0.0766 -0.8427  1.4003
   48GLOH    O1 8840   3.603   9.136   2.391 -0.1949 -0.3865  0.0141
   48GLOH    C1 8841   3.623   9.155   2.251 -0.4850  0.5482  0.6688
   48GLOH   H02 8842   3.698   9.089   2.209 -2.0399 -1.2023  0.5639
   48GLOH   H08 8843   3.664   9.255   2.234 -1.1729  0.7661  0.2791
   48GLOH    C2 8844   3.499   9.127   2.160 -0.7061  0.1337 -0.1704
   48GLOH   H04 8845   3.418   9.197   2.183  0.5624  1.8228 -0.8016
   48GLOH    O2 8846   3.540   9.134   2.018  0.1746 -0.4940  0.7390
   48GLOH   H05 8847   3.562   9.227   1.999 -1.2143  0.5543  3.9534
   48GLOH    C3 8848   3.448   8.987   2.202 -0.2946 -0.0369  0.1350
   48GLOH   H06 8849   3.524   8.912   2.180  0.3097  0.3975  0.7029
   48GLOH   H07 8850   3.362   8.969   2.137  0.1060  1.2695 -0.7755
   48GLOH    O3 8851   3.409   8.985   2.337  0.3848 -0.0456  0.1513
   48GLOH   H01 8852   3.476   9.027   2.395 -0.0769 -0.5872  1.0780
   49GLOH   H03 8853   4.676   2.601   2.684 -2.5920 -0.1064  0.7082
   49GLOH    O1 8854   4.678   2.546   2.764 -0.2032  0.1814  0.8825
   49GLOH    C1 8855   4.700   2.413   2.702 -0.6688 -0.4456 -0.0959
   49GLOH   H02 8856   4.784   2.413   2.633 -0.7952 -0.4397 -0.2513
   49GLOH   H08 8857   4.617   2.384   2.637  0.4346 -1.5347 -1.0327
   49GLOH    C2 8858   4.704   2.295   2.804  0.3429  0.0943  0.4047
   49GLOH   H04 8859   4.615   2.303   2.867  1.2441  0.1450  1.6961
   49GLOH    O2 8860   4.705   2.162   2.744  0.5340  0.5048  0.1177
   49GLOH   H05 8861   4.635   2.165   2.677  0.1349  0.5364  0.5324
   49GLOH    C3 8862   4.821   2.311   2.904 -0.4451 -0.4589 -0.1904
   49GLOH   H06 8863   4.913   2.303   2.846  0.5167  0.1565  1.2087
   49GLOH   H07 8864   4.817   2.229   2.976  0.2178  2.1372  2.9538
   49GLOH    O3 8865   4.818   2.435   2.967 -0.2510 -0.3037  0.1885
   49GLOH   H01 8866   4.767   2.496   2.909 -1.3371 -1.1644  0.2122
   50GLOH   H03 8867   3.131   5.136   1.724 -1.9683 -0.0958 -0.0646
   50GLOH    O1 8868   3.131   5.100   1.633 -0.2580  0.4812 -0.3155
   50GLOH    C1 8869   3.241   5.019   1.603  0.2337  0.3770  0.1079
   50GLOH   H02 8870   3.241   4.932   1.669 -0.9201  0.7954  0.6739
   50GLOH   H08 8871   3.334   5.073   1.619  0.9152 -0.5267 -0.6963
   50GLOH    C2 8872   3.242   4.982   1.452  0.0059  0.3171  0.1065
   50GLOH   H04 8873   3.253   5.078   1.398 -0.2578 -0.7394 -1.8897
   50GLOH    O2 8874   3.351   4.894   1.417  0.7485 -0.5826 -0.6279
   50GLOH   H05 8875   3.443   4.923   1.433  0.5911  1.4663 -3.2168
   50GLOH    C3 8876   3.109   4.924   1.399 -0.0322  0.4526  0.7998
   50GLOH   H06 8877   3.098   4.824   1.440  2.0646 -0.2043 -0.2001
   50GLOH   H07 8878   3.105   4.905   1.292  3.3414 -0.5592  0.8051
   50GLOH    O3 8879   2.995   4.992   1.454 -0.4797 -0.4829  0.1309
   50GLOH   H01 8880   3.029   5.034   1.536 -1.1747  3.3877 -1.4673
   51GLOH   H03 8881   3.272   0.689   2.599  1.6470  0.2891 -3.8639
   51GLOH    O1 8882   3.188   0.724   2.564 -0.4985  0.4212  0.9256
   51GLOH    C1 8883   3.210   0.780   2.438  0.2536  0.5156  0.4062
   51GLOH   H02 8884   3.301   0.837   2.456 -0.3641  1.5266  0.4360
   51GLOH   H08 8885   3.134   0.855   2.413  0.5661  0.7056  0.0242
   51GLOH    C2 8886   3.226   0.696   2.309  0.1469 -0.4214  0.4470
   51GLOH   H04 8887   3.244   0.766   2.226  0.7001  0.7578  1.5507
   51GLOH    O2 8888   3.342   0.607   2.325  0.8137  0.1977  0.3541
   51GLOH   H05 8889   3.319   0.551   2.401 -1.0158  1.2308  0.5951
   51GLOH    C3 8890   3.095   0.617   2.275  0.4294 -0.4994  0.5029
   51GLOH   H06 8891   3.085   0.537   2.348  0.9985 -0.9398  0.1029
   51GLOH   H07 8892   3.133   0.566   2.186 -2.1127 -0.0156 -0.9014
   51GLOH    O3 8893   2.971   0.694   2.255 -0.7406 -0.1083  0.4286
   51GLOH   H01 8894   2.918   0.649   2.187 -0.2543 -0.1796  0.0930
   52GLOH   H03 8895   4.573   3.199   0.339 -0.0976  0.5238  1.1113
   52GLOH    O1 8896   4.659   3.154   0.347 -0.2739  0.0821  0.5046
   52GLOH    C1 8897   4.747   3.261   0.389 -0.0255  0.0376  0.4853
   52GLOH   H02 8898   4.772   3.324   0.303 -0.9873  2.4220  1.8881
   52GLOH   H08 8899   4.836   3.214   0.431  0.0192  0.5679  0.9895
   52GLOH    C2 8900   4.687   3.340   0.504 -0.5911  0.0096 -0.2471
   52GLOH   H04 8901   4.757   3.420   0.533 -0.4163 -0.0356 -0.5465
   52GLOH    O2 8902   4.564   3.402   0.480 -0.2017 -0.7273 -0.1751
   52GLOH   H05 8903   4.571   3.487   0.434  1.0361 -2.4845 -3.3911
   52GLOH    C3 8904   4.668   3.245   0.627  0.2085 -0.5938 -0.0524
   52GLOH   H06 8905   4.593   3.169   0.608  1.4893 -1.8546 -0.1618
   52GLOH   H07 8906   4.618   3.310   0.699  0.9497  0.7429 -0.7351
   52GLOH    O3 8907   4.789   3.186   0.682 -0.1696  0.0170  0.1381
   52GLOH   H01 8908   4.761   3.102   0.722 -1.2873  0.7500  0.9395
   53GLOH   H03 8909   3.646   1.853   1.964 -1.3333  1.0174 -1.2488
   53GLOH    O1 8910   3.564   1.822   2.006 -0.3479  0.0021 -0.0092
   53GLOH    C1 8911   3.567   1.681   2.016 -0.3855  0.4968 -0.3502
   53GLOH   H02 8912   3.514   1.637   2.101 -1.5208  1.3713 -0.6104
   53GLOH   H08 8913   3.671   1.646   2.022 -0.2411  1.2533  2.2196
   53GLOH    C2 8914   3.521   1.619   1.878  0.0714 -0.0947 -0.6507
   53GLOH   H04 8915   3.430   1.673   1.847 -1.5399 -2.4215 -0.0898
   53GLOH    O2 8916   3.624   1.622   1.775 -0.1354  0.0078 -0.2281
   53GLOH   H05 8917   3.630   1.714   1.746  1.0594  0.1689  0.4843
   53GLOH    C3 8918   3.485   1.475   1.900 -0.3460  0.6445 -0.4036
   53GLOH   H06 8919   3.576   1.422   1.925  0.1050  2.6373  2.4257
   53GLOH   H07 8920   3.462   1.429   1.804  0.3740 -0.5451 -0.0121
   53GLOH    O3 8921   3.379   1.463   1.988  0.0761 -0.2361 -0.2660
   53GLOH   H01 8922   3.296   1.511   1.971  0.7374  0.0958 -2.6373
   54GLOH   H03 8923   4.200   1.747   2.456 -0.3760  1.4081 -0.3899
   54GLOH    O1 8924   4.240   1.718   2.372 -0.3598  0.8393 -0.1902
   54GLOH    C1 8925   4.278   1.842   2.307 -0.4463  0.0771 -0.3670
   54GLOH   H02 8926   4.214   1.921   2.347 -1.6265 -1.1502  0.2072
   54GLOH   H08 8927   4.256   1.831   2.201 -1.6621  1.6986 -0.3088
   54GLOH    C2 8928   4.430   1.874   2.332 -0.6822  0.2125 -0.6725
   54GLOH   H04 8929   4.460   1.957   2.265  0.4615  0.6332  0.3548
   54GLOH    O2 8930   4.458   1.898   2.475  0.0615  0.4098  0.3983
   54GLOH   H05 8931   4.442   1.811   2.515 -1.5242  0.6957  0.4018
   54GLOH    C3 8932   4.518   1.761   2.277  0.0918  0.7188 -0.9313
   54GLOH   H06 8933   4.516   1.680   2.350 -0.2571  0.5621 -1.1132
   54GLOH   H07 8934   4.621   1.795   2.271  1.0893 -2.0831 -0.5831
   54GLOH    O3 8935   4.479   1.704   2.150 -0.8352  0.0364  0.1652
   54GLOH   H01 8936   4.432   1.621   2.168 -1.0979  0.0002 -0.6795
   55GLOH   H03 8937   2.794   9.073   2.387  0.7479 -0.5577 -0.8312
   55GLOH    O1 8938   2.729   9.006   2.360 -0.3873  0.4140 -0.5686
   55GLOH    C1 8939   2.594   9.050   2.375 -0.2396  0.2395 -0.6764
   55GLOH   H02 8940   2.588   9.140   2.313  2.3687  1.1565  0.3484
   55GLOH   H08 8941   2.580   9.077   2.480  0.7444  2.7529 -1.1487
   55GLOH    C2 8942   2.490   8.944   2.318  0.8143 -0.3878 -0.5654
   55GLOH   H04 8943   2.518   8.853   2.374  0.0803 -1.0036 -1.1917
   55GLOH    O2 8944   2.353   8.975   2.355 -0.3598 -0.1616  0.8052
   55GLOH   H05 8945   2.351   8.990   2.451 -0.5133  0.3414  0.7248
   55GLOH    C3 8946   2.499   8.928   2.167 -0.0054 -0.1039  0.1309
   55GLOH   H06 8947   2.483   9.026   2.122  0.3477 -0.7860 -1.5190
   55GLOH   H07 8948   2.425   8.856   2.132  0.5380 -0.3276 -0.5789
   55GLOH    O3 8949   2.625   8.874   2.130  0.6756 -0.1260 -0.4768
   55GLOH   H01 8950   2.690   8.903   2.196  1.1348 -1.1116 -0.4921
   56GLOH   H03 8951   3.654   1.786   0.445 -1.0140 -1.5108  0.6756
   56GLOH    O1 8952   3.712   1.714   0.414  0.2396 -0.2487  0.0516
   56GLOH    C1 8953   3.732   1.615   0.515  0.8537  0.3556 -1.1597
   56GLOH   H02 8954   3.793   1.649   0.599  2.2026 -0.0146 -1.9792
   56GLOH   H08 8955   3.792   1.531   0.479 -0.2399 -1.7098  1.6921
   56GLOH    C2 8956   3.597   1.562   0.579 -0.0943  0.3025  0.6375
   56GLOH   H04 8957   3.630   1.474   0.636  0.0264  1.1849  1.9610
   56GLOH    O2 8958   3.539   1.666   0.668  0.2180  0.4174 -0.2061
   56GLOH   H05 8959   3.445   1.645   0.681 -0.1896  0.5113 -2.8232
   56GLOH    C3 8960   3.499   1.506   0.470  0.0551  0.0716  0.3488
   56GLOH   H06 8961   3.461   1.598   0.426 -1.2316  0.2874  1.8521
   56GLOH   H07 8962   3.422   1.453   0.526 -0.1949 -0.4637 -0.4963
   56GLOH    O3 8963   3.562   1.417   0.370 -0.5821  0.0177 -1.3196
   56GLOH   H01 8964   3.541   1.326   0.398 -1.5754  0.0742 -1.8458
   57GLOH   H03 8965   3.328   4.409   0.451 -0.3386  1.1456  0.0471
   57GLOH    O1 8966   3.345   4.382   0.543 -0.0032  0.5418 -0.1909
   57GLOH    C1 8967   3.220   4.328   0.605  0.1491  1.3333 -0.9741
   57GLOH   H02 8968   3.203   4.225   0.574 -1.4095  1.1529  0.4182
   57GLOH   H08 8969   3.133   4.387   0.576 -1.2662 -1.1554 -2.0289
   57GLOH    C2 8970   3.224   4.318   0.757  0.0602 -0.0070  0.3987
   57GLOH   H04 8971   3.315   4.370   0.791  1.2489 -0.2496 -2.3557
   57GLOH    O2 8972   3.107   4.389   0.817 -0.5919 -0.0224 -0.4286
   57GLOH   H05 8973   3.124   4.473   0.862  0.5010 -0.9615  0.9549
   57GLOH    C3 8974   3.234   4.180   0.814 -0.1035  0.6722 -0.0332
   57GLOH   H06 8975   3.159   4.120   0.762  1.3294  0.9334 -2.5171
   57GLOH   H07 8976   3.202   4.185   0.918 -1.1724  0.6154 -0.3521
   57GLOH    O3 8977   3.360   4.117   0.795 -0.4379 -0.4847 -0.2255
   57GLOH   H01 8978   3.388   4.102   0.703  0.4337 -0.4753  0.0268
   58GLOH   H03 8979   4.062   2.120   2.176  1.9036  2.0951 -1.4784
   58GLOH    O1 8980   4.057   2.058   2.102  0.6755  0.2215  0.1282
   58GLOH    C1 8981   3.981   1.944   2.136 -0.5323  0.0613  0.0918
   58GLOH   H02 8982   3.887   1.982   2.178  0.6911  3.6198 -0.2258
   58GLOH   H08 8983   4.028   1.884   2.213 -0.6605  0.0940  0.1965
   58GLOH    C2 8984   3.957   1.839   2.017  0.1886  0.1182  0.3996
   58GLOH   H04 8985   4.056   1.797   1.992 -0.0024 -2.0102  2.9705
   58GLOH    O2 8986   3.876   1.730   2.070 -0.4831  0.3450 -0.0294
   58GLOH   H05 8987   3.935   1.652   2.064  1.6808  2.0630 -2.0339
   58GLOH    C3 8988   3.898   1.893   1.892 -0.0096 -0.6615 -0.2930
   58GLOH   H06 8989   3.890   1.811   1.820  1.3527 -0.6678 -0.4571
   58GLOH   H07 8990   3.961   1.968   1.843  0.9583 -0.7153  0.8460
   58GLOH    O3 8991   3.767   1.957   1.921  0.1686 -0.2738 -0.7426
   58GLOH   H01 8992   3.717   1.992   1.846 -1.4795  0.0161  0.4790
   59GLOH   H03 8993   3.306   0.828   1.555 -0.7215  0.1305  0.0986
   59GLOH    O1 8994   3.314   0.777   1.638 -0.1312 -0.1100 -0.1059
   59GLOH    C1 8995   3.387   0.865   1.731 -0.3567 -0.1721  0.1194
   59GLOH   H02 8996   3.368   0.969   1.706  0.6133 -0.9558 -4.3014
   59GLOH   H08 8997   3.495   0.856   1.722 -0.3239  0.3301  0.0214
   59GLOH    C2 8998   3.344   0.853   1.880  0.3485  0.0293 -0.3019
   59GLOH   H04 8999   3.405   0.919   1.943  0.7475 -1.0090  0.3975
   59GLOH    O2 9000   3.204   0.890   1.883 -0.1483 -0.1888  0.1298
   59GLOH   H05 9001   3.152   0.825   1.831 -0.5917  1.4750 -1.5626
   59GLOH    C3 9002   3.353   0.705   1.927  0.3980  0.0986 -0.4127
   59GLOH   H06 9003   3.296   0.644   1.857  0.9221 -1.2790  0.3573
   59GLOH   H07 9004   3.318   0.706   2.030 -1.0632 -0.0068 -0.8831
   59GLOH    O3 9005   3.490   0.661   1.916 -0.4413  0.6248 -0.0790
   59GLOH   H01 9006   3.491   0.588   1.851  0.5838  0.3682  0.2271
   60GLOH   H03 9007   3.639   2.324   2.454 -0.4648  0.0109  0.3499
   60GLOH    O1 9008   3.563   2.289   2.504 -0.3583 -0.1586  0.3922
   60GLOH    C1 9009   3.560   2.334   2.640 -0.0313 -0.6664  0.4125
   60GLOH   H02 9010   3.529   2.250   2.703 -2.3522  0.6727  1.1070
   60GLOH   H08 9011   3.501   2.424   2.657  0.3160 -0.5613  1.0969
   60GLOH    C2 9012   3.703   2.344   2.697  0.2082  0.0529 -0.2497
   60GLOH   H04 9013   3.749   2.425   2.637 -1.0217 -0.0296 -1.3480
   60GLOH    O2 9014   3.698   2.388   2.834 -0.3433  0.2271  0.2224
   60GLOH   H05 9015   3.626   2.345   2.883  0.5100 -0.8002  0.5922
   60GLOH    C3 9016   3.786   2.216   2.684  0.0035 -1.3557  1.3729
   60GLOH   H06 9017   3.760   2.174   2.586  0.0681  2.9134 -0.5601
   60GLOH   H07 9018   3.743   2.153   2.762  0.8257 -1.7314  1.5221
   60GLOH    O3 9019   3.923   2.229   2.695  0.4882  0.2495 -0.2613
   60GLOH   H01 9020   3.936   2.284   2.775 -1.1053  1.8985 -1.0738
   61GLOH   H03 9021   2.897   3.041   2.477 -0.4987  0.4988  0.6774
   61GLOH    O1 9022   2.846   2.958   2.484  0.3973 -0.1604 -0.4190
   61GLOH    C1 9023   2.799   2.947   2.619 -0.7989 -0.4506  0.0157
   61GLOH   H02 9024   2.884   2.971   2.682 -0.3673  1.8867 -1.4029
   61GLOH   H08 9025   2.763   2.845   2.633  2.2645 -1.2400  2.6922
   61GLOH    C2 9026   2.679   3.037   2.647 -0.4570 -0.5804  0.0582
   61GLOH   H04 9027   2.688   3.134   2.597  0.3692  0.0130  1.3226
   61GLOH    O2 9028   2.553   2.978   2.603 -0.6820  0.4467 -0.1291
   61GLOH   H05 9029   2.579   2.898   2.555  0.0830  1.3565 -1.2667
   61GLOH    C3 9030   2.676   3.062   2.799 -0.7239 -0.8662 -0.1008
   61GLOH   H06 9031   2.578   3.107   2.809 -1.5188 -2.2503 -1.3458
   61GLOH   H07 9032   2.754   3.135   2.820 -1.1298 -0.8373  1.3488
   61GLOH    O3 9033   2.684   2.952   2.888 -0.0881 -0.3739  0.0804
   61GLOH   H01 9034   2.710   2.980   2.978  2.7405 -1.4680 -0.3528
   62GLOH   H03 9035   3.740   0.925   1.690 -0.7816 -0.4264 -0.5856
   62GLOH    O1 9036   3.742   1.006   1.635  0.7585 -0.2475 -0.2944
   62GLOH    C1 9037   3.868   1.072   1.628  0.8976 -0.1657 -0.2724
   62GLOH   H02 9038   3.875   1.111   1.526 -0.8293  0.3143 -0.2180
   62GLOH   H08 9039   3.946   0.997   1.636 -0.6860 -1.7015  1.1475
   62GLOH    C2 9040   3.904   1.184   1.726  0.0835 -0.3578  0.7371
   62GLOH   H04 9041   3.808   1.238   1.727  0.7147  0.8769 -2.1435
   62GLOH    O2 9042   3.938   1.127   1.857 -0.0695  0.8163  0.3266
   62GLOH   H05 9043   3.877   1.168   1.921 -2.0405 -2.3932  0.6212
   62GLOH    C3 9044   4.017   1.261   1.660 -0.6339  0.2268 -0.0547
   62GLOH   H06 9045   4.081   1.204   1.593  1.4590  1.5981  0.7341
   62GLOH   H07 9046   4.082   1.313   1.731 -1.3855 -0.9964  1.5610
   62GLOH    O3 9047   3.954   1.367   1.585 -0.8505  0.2367  0.2531
   62GLOH   H01 9048   3.937   1.443   1.644  0.3982  1.4780 -0.9544
   63GLOH   H03 9049   4.749   2.838   2.344  0.4587  1.3864 -0.7556
   63GLOH    O1 9050   4.725   2.789   2.264 -0.0513 -0.1705  0.3306
   63GLOH    C1 9051   4.755   2.861   2.146 -0.4441  0.8968 -0.6281
   63GLOH   H02 9052   4.710   2.808   2.063 -0.9382 -1.0704  0.8726
   63GLOH   H08 9053   4.860   2.877   2.121  0.3916 -2.4576  0.5183
   63GLOH    C2 9054   4.699   3.002   2.144 -0.0756 -0.0958 -0.2567
   63GLOH   H04 9055   4.758   3.058   2.218  0.1714 -1.1803  0.3769
   63GLOH    O2 9056   4.715   3.066   2.010 -0.3817 -0.3393  0.1480
   63GLOH   H05 9057   4.648   3.136   2.003 -0.5670 -0.5075  0.2279
   63GLOH    C3 9058   4.552   3.021   2.182  0.2971 -0.6983  0.0129
   63GLOH   H06 9059   4.523   2.968   2.272  1.3291 -1.0940  0.1124
   63GLOH   H07 9060   4.500   2.962   2.106  0.5842  1.2900 -1.8029
   63GLOH    O3 9061   4.498   3.159   2.188 -0.4645 -0.6651 -0.0320
   63GLOH   H01 9062   4.487   3.192   2.097 -0.2057 -2.4908 -0.7467
   64GLOH   H03 9063   4.612   4.163   1.331 -0.7457  1.4967 -0.5590
   64GLOH    O1 9064   4.678   4.173   1.261 -0.1843  0.2687 -0.2145
   64GLOH    C1 9065   4.782   4.258   1.298 -0.5364 -0.2302 -0.3273
   64GLOH   H02 9066   4.850   4.209   1.368  0.2384 -0.6408 -1.3591
   64GLOH   H08 9067   4.748   4.357   1.330 -1.8470 -0.3765 -1.2534
   64GLOH    C2 9068   4.889   4.285   1.184  0.1040  0.2799 -0.1890
   64GLOH   H04 9069   4.835   4.360   1.123 -1.2601 -1.3303 -1.0396
   64GLOH    O2 9070   5.007   4.356   1.243  0.5418  0.2180  0.0128
   64GLOH   H05 9071   5.043   4.418   1.177 -0.4631  0.0385 -0.7153
   64GLOH    C3 9072   4.928   4.160   1.104 -0.6449 -0.1905 -0.1939
   64GLOH   H06 9073   4.972   4.083   1.167  0.0287 -0.1127 -0.5655
   64GLOH   H07 9074   5.006   4.199   1.039 -1.1791  2.2836  0.6076
   64GLOH    O3 9075   4.814   4.097   1.046  0.1836  0.1476 -0.3191
   64GLOH   H01 9076   4.735   4.105   1.103  0.3654 -1.4715  0.1831
   65GLOH   H03 9077   2.917  10.138   0.729 -0.8966 -0.1197  1.4142
   65GLOH    O1 9078   2.864  10.099   0.656 -0.1120 -0.4605  1.0294
   65GLOH    C1 9079   2.807   9.972   0.706 -0.9394 -0.3724 -0.2689
   65GLOH   H02 9080   2.699   9.980   0.700 -0.6352  3.7693 -2.4781
   65GLOH   H08 9081   2.833   9.963   0.811 -0.7397 -0.8142 -0.3532
   65GLOH    C2 9082   2.860   9.845   0.633 -0.3000  0.2196  0.3953
   65GLOH   H04 9083   2.967   9.838   0.661 -0.8156 -0.0050  2.3794
   65GLOH    O2 9084   2.797   9.730   0.693  0.0099  0.1116  0.4614
   65GLOH   H05 9085   2.851   9.650   0.686 -0.4204 -0.1115 -0.3631
   65GLOH    C3 9086   2.839   9.868   0.478  0.1373  0.3487  0.2431
   65GLOH   H06 9087   2.732   9.857   0.458  0.8700 -1.6131 -2.9567
   65GLOH   H07 9088   2.891   9.797   0.414 -1.9415 -0.6079 -0.4343
   65GLOH    O3 9089   2.866   9.996   0.426  0.3706 -0.3496 -0.3512
   65GLOH   H01 9090   2.861  10.059   0.500  0.5946  0.5751 -1.1138
   66GLOH   H03 9091   3.140   0.763   1.671 -0.2726  1.8376 -0.3491
   66GLOH    O1 9092   3.071   0.742   1.737  0.3213  0.3872 -0.1558
   66GLOH    C1 9093   2.951   0.807   1.690  0.4418 -0.2292 -0.3256
   66GLOH   H02 9094   2.926   0.768   1.591  1.6891 -0.7932 -0.4410
   66GLOH   H08 9095   2.973   0.913   1.691 -0.5800 -0.0229  0.9949
   66GLOH    C2 9096   2.825   0.779   1.772 -0.0534  0.3401 -0.6166
   66GLOH   H04 9097   2.749   0.842   1.723 -0.4718  1.7617  1.7711
   66GLOH    O2 9098   2.797   0.631   1.767  0.2819  0.3752 -0.7394
   66GLOH   H05 9099   2.710   0.623   1.809  0.0639 -0.6458 -1.3701
   66GLOH    C3 9100   2.850   0.815   1.917 -0.1300 -0.0011  0.2721
   66GLOH   H06 9101   2.914   0.739   1.964  0.0394 -0.8405 -1.2859
   66GLOH   H07 9102   2.756   0.806   1.972 -0.8599  3.6836 -0.2666
   66GLOH    O3 9103   2.908   0.945   1.938 -0.1440  0.7953  0.4745
   66GLOH   H01 9104   2.959   0.935   2.020 -1.9185  0.0720  1.5288
   67GLOH   H03 9105   2.722   0.653   1.117 -1.8410 -1.8118  1.7768
   67GLOH    O1 9106   2.752   0.572   1.070 -0.0568  0.0334 -0.3719
   67GLOH    C1 9107   2.762   0.468   1.164  0.0997 -0.4233  0.6908
   67GLOH   H02 9108   2.676   0.403   1.147  0.8010 -1.2914  0.4776
   67GLOH   H08 9109   2.739   0.504   1.264 -0.6824  1.4653 -0.1396
   67GLOH    C2 9110   2.893   0.391   1.170 -0.4973 -0.3688  0.3548
   67GLOH   H04 9111   2.917   0.347   1.072  0.1898 -0.0148  0.3638
   67GLOH    O2 9112   2.992   0.492   1.199  0.5322 -0.0709 -0.0719
   67GLOH   H05 9113   3.080   0.456   1.177  0.6947  1.3176 -1.7442
   67GLOH    C3 9114   2.887   0.276   1.274 -0.5377  0.9863 -0.7650
   67GLOH   H06 9115   2.980   0.219   1.273 -0.6056  0.8875 -1.2822
   67GLOH   H07 9116   2.802   0.212   1.252  0.0827 -0.0471 -0.1952
   67GLOH    O3 9117   2.863   0.317   1.407 -0.0410  0.3384  0.0895
   67GLOH   H01 9118   2.943   0.358   1.445 -0.1311  1.0849 -0.5093
   68GLOH   H03 9119   3.702   0.477   1.193  0.8157  0.1569  0.5295
   68GLOH    O1 9120   3.768   0.548   1.180  0.2315  0.7143  0.5583
   68GLOH    C1 9121   3.715   0.642   1.093  0.3074 -0.2353  0.4295
   68GLOH   H02 9122   3.766   0.739   1.096 -4.8219  2.6250  1.0928
   68GLOH   H08 9123   3.616   0.672   1.126 -0.5017 -2.1741 -0.1738
   68GLOH    C2 9124   3.710   0.596   0.944  0.2367 -0.1842 -0.5902
   68GLOH   H04 9125   3.648   0.505   0.947 -0.6476  0.4553  0.8819
   68GLOH    O2 9126   3.649   0.697   0.859  0.5693 -0.0646  0.1225
   68GLOH   H05 9127   3.643   0.666   0.768 -0.9897  1.4448 -0.3087
   68GLOH    C3 9128   3.850   0.557   0.900  0.5531  0.4330 -0.2843
   68GLOH   H06 9129   3.880   0.484   0.975 -2.8891 -0.4123  0.3473
   68GLOH   H07 9130   3.910   0.648   0.901 -1.7843  2.0661  4.2351
   68GLOH    O3 9131   3.842   0.495   0.769 -0.0770  0.0897  0.8309
   68GLOH   H01 9132   3.776   0.533   0.709  1.2748 -0.1083 -0.8359
   69GLOH   H03 9133   2.943   5.576   1.620 -0.6492  0.2603 -0.3265
   69GLOH    O1 9134   3.030   5.558   1.578 -0.3487 -0.3797  0.5543
   69GLOH    C1 9135   3.091   5.459   1.658  0.3412 -0.3255 -0.4621
   69GLOH   H02 9136   3.022   5.375   1.657 -0.8934  0.6667 -0.2108
   69GLOH   H08 9137   3.097   5.492   1.761 -0.9742  0.1352 -0.5261
   69GLOH    C2 9138   3.238   5.432   1.614 -0.0676 -0.6631  0.4800
   69GLOH   H04 9139   3.285   5.531   1.603  0.5919 -1.1531 -1.3480
   69GLOH    O2 9140   3.314   5.370   1.715  0.0344 -0.7291  0.2961
   69GLOH   H05 9141   3.257   5.316   1.773 -1.6285  0.0436 -0.5983
   69GLOH    C3 9142   3.239   5.347   1.487  0.1456  0.2458  0.3852
   69GLOH   H06 9143   3.178   5.257   1.492  1.3291 -0.6529 -1.0287
   69GLOH   H07 9144   3.336   5.314   1.450  0.5230  1.7252 -0.0033
   69GLOH    O3 9145   3.177   5.417   1.381  0.1277 -0.1554 -0.3626
   69GLOH   H01 9146   3.106   5.470   1.423 -0.2997  0.0902 -1.3704
   70GLOH   H03 9147   3.648   9.869   0.593 -2.2152  1.4743 -0.4642
   70GLOH    O1 9148   3.644   9.817   0.511  0.6033  0.4408  0.0161
   70GLOH    C1 9149   3.721   9.694   0.520  0.2994 -0.3215  0.7218
   70GLOH   H02 9150   3.788   9.700   0.605 -0.5629 -0.0933  1.3999
   70GLOH   H08 9151   3.776   9.687   0.426  0.0852 -2.1883  0.7155
   70GLOH    C2 9152   3.633   9.567   0.536  0.3615 -0.1962 -0.3044
   70GLOH   H04 9153   3.569   9.590   0.623  0.0027  0.7939 -0.8219
   70GLOH    O2 9154   3.552   9.550   0.414  0.1150 -0.2147 -0.3244
   70GLOH   H05 9155   3.474   9.608   0.411  0.6484  0.7033  2.1359
   70GLOH    C3 9156   3.725   9.442   0.567  0.7220 -0.5051  0.4817
   70GLOH   H06 9157   3.807   9.442   0.495 -0.1846 -1.3426 -0.5700
   70GLOH   H07 9158   3.667   9.351   0.550 -2.3631  1.2731  1.1770
   70GLOH    O3 9159   3.790   9.447   0.694  0.1496 -0.2738  0.6097
   70GLOH   H01 9160   3.843   9.367   0.711  0.8697  0.6006  2.6413
   71GLOH   H03 9161   4.425   1.734   2.000  0.2772  1.9888  1.3173
   71GLOH    O1 9162   4.381   1.775   1.923  0.0212 -0.4056  0.1714
   71GLOH    C1 9163   4.442   1.903   1.900 -0.0457 -0.4631  0.7823
   71GLOH   H02 9164   4.538   1.901   1.847 -0.1044  0.6921  0.6249
   71GLOH   H08 9165   4.462   1.943   1.999  1.8287 -3.1995  1.6008
   71GLOH    C2 9166   4.346   2.008   1.836 -0.0214  0.6914  0.4523
   71GLOH   H04 9167   4.275   2.034   1.917  0.8726  1.6713  0.9380
   71GLOH    O2 9168   4.415   2.123   1.801  0.3306 -0.1093  0.1158
   71GLOH   H05 9169   4.351   2.188   1.769  2.7282  2.0247 -0.4711
   71GLOH    C3 9170   4.268   1.941   1.717 -0.1798 -0.2194 -0.0509
   71GLOH   H06 9171   4.338   1.922   1.635 -1.5777  0.8864 -1.5335
   71GLOH   H07 9172   4.199   2.014   1.675  1.2385  1.1690  0.0003
   71GLOH    O3 9173   4.184   1.830   1.746 -0.4965 -0.1268  0.2281
   71GLOH   H01 9174   4.228   1.790   1.823 -0.1388 -0.0770  0.0537
   72GLOH   H03 9175   3.516   9.374   2.577  1.7664  2.1144 -0.0190
   72GLOH    O1 9176   3.530   9.370   2.481  0.2438 -0.7306 -0.1679
   72GLOH    C1 9177   3.412   9.419   2.416 -0.1826  0.1074 -0.2503
   72GLOH   H02 9178   3.354   9.486   2.480  0.3139  1.9122 -1.6532
   72GLOH   H08 9179   3.338   9.340   2.399 -0.4277  0.5779 -1.3919
   72GLOH    C2 9180   3.426   9.499   2.286 -0.1797  0.4131 -0.4206
   72GLOH   H04 9181   3.480   9.428   2.220 -1.4239 -1.4035  0.4632
   72GLOH    O2 9182   3.304   9.529   2.213 -0.1789  0.5143  0.4041
   72GLOH   H05 9183   3.240   9.570   2.274 -1.0993  0.4028 -0.4797
   72GLOH    C3 9184   3.521   9.616   2.299  0.2143  0.1878 -0.7182
   72GLOH   H06 9185   3.535   9.668   2.204 -0.7401  2.2813  0.2562
   72GLOH   H07 9186   3.617   9.572   2.326 -0.8799 -1.4214  0.6380
   72GLOH    O3 9187   3.467   9.714   2.390  0.0764 -0.6389 -0.8346
   72GLOH   H01 9188   3.527   9.734   2.465 -2.2114  2.5452  0.2373
   73GLOH   H03 9189   3.900   8.755   1.441  0.7442  0.5449 -0.1092
   73GLOH    O1 9190   3.900   8.686   1.510  0.4913  0.6434 -0.0083
   73GLOH    C1 9191   3.871   8.741   1.644  0.7386 -1.1174  0.1407
   73GLOH   H02 9192   3.955   8.789   1.694 -0.3210 -0.4584  1.2913
   73GLOH   H08 9193   3.845   8.656   1.707 -0.0719 -2.4138 -1.8681
   73GLOH    C2 9194   3.759   8.840   1.648  0.3350 -0.1093  0.1821
   73GLOH   H04 9195   3.745   8.878   1.750  2.7527  0.5541  0.2874
   73GLOH    O2 9196   3.767   8.949   1.551 -0.1566  0.2254 -0.2682
   73GLOH   H05 9197   3.800   8.908   1.469  1.0089 -1.5564  1.0622
   73GLOH    C3 9198   3.629   8.764   1.613 -0.1682 -0.2628 -0.0781
   73GLOH   H06 9199   3.655   8.685   1.542  1.2470 -0.3085  0.4734
   73GLOH   H07 9200   3.549   8.824   1.571  1.5044  3.8247  2.2822
   73GLOH    O3 9201   3.581   8.699   1.730 -0.3867 -0.6013  0.5817
   73GLOH   H01 9202   3.565   8.772   1.793 -1.1649 -0.1084 -0.1753
   74GLOH   H03 9203   4.561   1.763   0.784 -0.3699 -2.3444  0.6972
   74GLOH    O1 9204   4.472   1.798   0.802  0.4286 -0.0687  0.4582
   74GLOH    C1 9205   4.425   1.767   0.932  0.5621 -0.1998 -0.2036
   74GLOH   H02 9206   4.459   1.853   0.990  1.0819 -1.5626  1.5646
   74GLOH   H08 9207   4.477   1.687   0.984  0.1212 -0.2390  0.1824
   74GLOH    C2 9208   4.274   1.737   0.955  0.1425  0.6648  0.4487
   74GLOH   H04 9209   4.259   1.684   1.051  1.1172  1.9456  1.3386
   74GLOH    O2 9210   4.195   1.852   0.956 -0.2418  0.3578  0.2880
   74GLOH   H05 9211   4.204   1.892   0.868  0.1485  0.5388  0.4048
   74GLOH    C3 9212   4.211   1.644   0.852  0.1461  0.1842  0.7218
   74GLOH   H06 9213   4.283   1.565   0.831  2.1957  2.1922 -0.0921
   74GLOH   H07 9214   4.195   1.700   0.760 -2.7583 -1.5195  0.1472
   74GLOH    O3 9215   4.084   1.587   0.894  0.5126  0.2706 -0.0330
   74GLOH   H01 9216   4.020   1.659   0.878  2.2908  2.2640  1.5494
   75GLOH   H03 9217   3.044   1.414   2.329  0.9948 -0.7978 -0.1383
   75GLOH    O1 9218   3.097   1.443   2.253 -0.1412  0.3838 -0.4758
   75GLOH    C1 9219   3.241   1.463   2.262 -0.0410  0.1713  0.0570
   75GLOH   H02 9220   3.287   1.542   2.203  2.1474 -0.4966  0.7963
   75GLOH   H08 9221   3.300   1.372   2.245 -0.5330 -0.4492  1.5896
   75GLOH    C2 9222   3.279   1.515   2.401  0.0906  0.0078 -0.4619
   75GLOH   H04 9223   3.387   1.538   2.404  0.4593 -1.5084 -1.5839
   75GLOH    O2 9224   3.221   1.646   2.427  0.3332  0.4272 -0.0024
   75GLOH   H05 9225   3.234   1.705   2.351  0.2711 -1.7767 -1.7727
   75GLOH    C3 9226   3.251   1.404   2.507  0.0186  0.3766  0.2014
   75GLOH   H06 9227   3.152   1.364   2.485  1.2493 -1.2340 -2.6880
   75GLOH   H07 9228   3.252   1.459   2.601  0.3071  2.3340 -0.9332
   75GLOH    O3 9229   3.340   1.299   2.519 -0.2433  0.3340  0.1411
   75GLOH   H01 9230   3.428   1.342   2.521 -1.0233  2.0982 -1.6388
   76GLOH   H03 9231   4.697   3.553   0.810  0.6824 -2.5706 -0.8110
   76GLOH    O1 9232   4.792   3.576   0.804  0.0322  0.5311 -0.5051
   76GLOH    C1 9233   4.855   3.636   0.912 -0.4028 -0.5359 -0.6295
   76GLOH   H02 9234   4.964   3.635   0.906 -0.0933 -2.8227  3.4193
   76GLOH   H08 9235   4.817   3.597   1.007  2.7184  1.1124  1.3893
   76GLOH    C2 9236   4.823   3.787   0.922 -0.4844  0.9142  0.1766
   76GLOH   H04 9237   4.715   3.807   0.918 -0.6662 -0.1866 -0.7568
   76GLOH    O2 9238   4.887   3.844   1.035 -0.0302 -0.1075  0.1618
   76GLOH   H05 9239   4.867   3.939   1.042 -1.5763 -0.2363 -1.8451
   76GLOH    C3 9240   4.875   3.858   0.800 -0.3062 -0.1232 -0.0722
   76GLOH   H06 9241   4.984   3.870   0.807 -0.4345  1.0085  0.0807
   76GLOH   H07 9242   4.836   3.960   0.799  1.6689  0.6741 -0.0574
   76GLOH    O3 9243   4.838   3.790   0.679 -0.0119 -0.4163  0.5795
   76GLOH   H01 9244   4.844   3.695   0.699  2.3287 -1.0512 -2.5876
   77GLOH   H03 9245   3.456   8.927   1.141  1.4978 -1.1442 -1.7422
   77GLOH    O1 9246   3.405   8.981   1.078  0.1056 -0.2452  0.1340
   77GLOH    C1 9247   3.300   8.895   1.030  0.3121  0.2168  0.2160
   77GLOH   H02 9248   3.209   8.953   1.018  0.5444  0.0626 -2.6132
   77GLOH   H08 9249   3.286   8.818   1.105  1.6989 -0.4832 -0.2186
   77GLOH    C2 9250   3.333   8.811   0.907  0.0591  0.1950  0.5651
   77GLOH   H04 9251   3.403   8.730   0.933  0.1064 -0.2528 -0.8999
   77GLOH    O2 9252   3.208   8.751   0.863  0.6610  0.0427 -0.3119
   77GLOH   H05 9253   3.213   8.730   0.769 -1.3731 -0.4761 -0.3257
   77GLOH    C3 9254   3.396   8.907   0.806  0.3119  0.0973  0.6194
   77GLOH   H06 9255   3.415   8.856   0.711  0.8252  0.1502  0.6938
   77GLOH   H07 9256   3.496   8.931   0.842 -0.0344  0.7474  1.1403
   77GLOH    O3 9257   3.317   9.022   0.777  0.5160  0.1649 -0.2767
   77GLOH   H01 9258   3.233   9.022   0.826 -0.6182 -0.4749 -2.1960
   78GLOH   H03 9259   4.225   3.532   2.251 -0.3996  1.0454  0.9344
   78GLOH    O1 9260   4.311   3.578   2.243  0.4116 -0.6108 -0.1274
   78GLOH    C1 9261   4.386   3.562   2.365 -0.1293  0.1849 -0.8720
   78GLOH   H02 9262   4.341   3.616   2.449 -0.4193  1.5272 -1.8735
   78GLOH   H08 9263   4.488   3.596   2.350  0.2398  0.2735  1.6744
   78GLOH    C2 9264   4.388   3.412   2.402  0.0792  0.5272 -0.1088
   78GLOH   H04 9265   4.436   3.354   2.322 -0.2744  2.1611 -1.5404
   78GLOH    O2 9266   4.458   3.381   2.525  0.1146 -0.3225  0.5179
   78GLOH   H05 9267   4.452   3.449   2.594  2.4494 -1.8653  2.3124
   78GLOH    C3 9268   4.247   3.353   2.414 -0.7763 -0.5139 -0.2187
   78GLOH   H06 9269   4.220   3.352   2.520  2.1963 -0.0414  0.5944
   78GLOH   H07 9270   4.262   3.249   2.386 -1.5649 -1.3840  2.4352
   78GLOH    O3 9271   4.151   3.416   2.334  0.4583 -0.5092  0.1139
   78GLOH   H01 9272   4.076   3.357   2.315  0.2674  0.0744 -0.9343
   79GLOH   H03 9273   2.446   3.548   2.684  0.2772  0.2323 -2.0621
   79GLOH    O1 9274   2.433   3.644   2.684 -0.3146  0.1614  0.0351
   79GLOH    C1 9275   2.493   3.703   2.805  0.2877 -0.5131 -0.2125
   79GLOH   H02 9276   2.477   3.637   2.890 -0.7968  0.2342  0.1778
   79GLOH   H08 9277   2.443   3.795   2.836  0.2960 -0.6815  0.3038
   79GLOH    C2 9278   2.647   3.726   2.795  0.7582 -0.0145  0.0393
   79GLOH   H04 9279   2.661   3.799   2.713  1.5067  0.1517  0.3048
   79GLOH    O2 9280   2.697   3.776   2.920  0.0101  0.7876 -1.0637
   79GLOH   H05 9281   2.720   3.695   2.969  0.5668  0.7109 -1.4416
   79GLOH    C3 9282   2.733   3.606   2.761 -0.2345 -0.3282 -0.0735
   79GLOH   H06 9283   2.836   3.641   2.766 -0.0685 -0.8039 -0.0977
   79GLOH   H07 9284   2.710   3.570   2.661  0.3560 -1.5815  0.2211
   79GLOH    O3 9285   2.701   3.505   2.858 -0.7767  0.0353  0.0120
   79GLOH   H01 9286   2.620   3.460   2.829  0.1559 -2.3577  0.9705
   80GLOH   H03 9287   2.564   9.516   0.619 -1.5148 -2.6229 -0.1915
   80GLOH    O1 9288   2.486   9.574   0.629  0.4173  0.1585 -0.7554
   80GLOH    C1 9289   2.463   9.658   0.510 -0.3193 -0.0259 -0.3849
   80GLOH   H02 9290   2.550   9.723   0.509  0.1857 -0.6812  0.3451
   80GLOH   H08 9291   2.381   9.726   0.532 -1.0913 -0.1403 -2.7897
   80GLOH    C2 9292   2.444   9.577   0.382  0.7730  0.2136 -0.8016
   80GLOH   H04 9293   2.372   9.495   0.395 -0.9206  1.8907  0.6610
   80GLOH    O2 9294   2.381   9.671   0.291 -0.5440  0.0052  0.0598
   80GLOH   H05 9295   2.419   9.670   0.202  1.8256 -3.3110  1.0490
   80GLOH    C3 9296   2.577   9.535   0.317 -0.7320 -0.1386 -0.8474
   80GLOH   H06 9297   2.631   9.624   0.286  2.4077 -1.9621 -0.8333
   80GLOH   H07 9298   2.565   9.473   0.228 -0.0394  1.4528 -2.0762
   80GLOH    O3 9299   2.657   9.463   0.420 -0.3145 -0.3389 -0.1154
   80GLOH   H01 9300   2.725   9.412   0.372  0.0599 -0.6687  0.7623
   81GLOH   H03 9301   4.952   3.028   1.405  1.2511 -0.3617  0.3287
   81GLOH    O1 9302   4.940   2.976   1.324 -0.8552  0.4031  0.1229
   81GLOH    C1 9303   4.998   2.846   1.348 -0.4206 -0.2576 -0.0166
   81GLOH   H02 9304   5.074   2.855   1.426 -2.5365 -1.9959  2.3694
   81GLOH   H08 9305   5.043   2.800   1.261 -2.5438 -0.3955 -1.0760
   81GLOH    C2 9306   4.894   2.751   1.410  0.5031 -0.3949  0.3986
   81GLOH   H04 9307   4.943   2.653   1.418 -1.7955 -1.4971  1.3749
   81GLOH    O2 9308   4.840   2.782   1.538  0.0802 -0.2318  0.3940
   81GLOH   H05 9309   4.904   2.828   1.596  0.1416  1.3348 -0.8748
   81GLOH    C3 9310   4.774   2.741   1.310 -0.2745 -0.6154 -0.0625
   81GLOH   H06 9311   4.711   2.829   1.321 -0.6872 -1.0025  0.7013
   81GLOH   H07 9312   4.718   2.657   1.353  2.2371 -2.9119 -1.1110
   81GLOH    O3 9313   4.812   2.719   1.175 -0.1182 -0.0757 -0.5102
   81GLOH   H01 9314   4.841   2.802   1.133 -0.0211  1.4384  2.4387
   82GLOH   H03 9315   2.936  10.010   2.970  1.7577  0.4954  0.0498
   82GLOH    O1 9316   2.977  10.022   2.882  0.7585 -0.2113 -0.5166
   82GLOH    C1 9317   3.065   9.910   2.864 -0.5022  0.3551 -0.4948
   82GLOH   H02 9318   3.061   9.864   2.766  2.5014 -0.1861 -0.4188
   82GLOH   H08 9319   3.042   9.825   2.928 -2.4713  0.8250 -0.5262
   82GLOH    C2 9320   3.205   9.964   2.882  0.4382  0.0499  0.6311
   82GLOH   H04 9321   3.216   9.999   2.985 -0.6043  0.5680  0.5734
   82GLOH    O2 9322   3.295   9.850   2.853  0.4767 -0.5887 -0.0044
   82GLOH   H05 9323   3.365   9.836   2.919  2.0780  0.1358 -1.4998
   82GLOH    C3 9324   3.233  10.087   2.788 -0.4693 -0.4802  0.1376
   82GLOH   H06 9325   3.187  10.066   2.691 -1.4570 -1.4620  0.8015
   82GLOH   H07 9326   3.340  10.098   2.770 -0.5292 -0.9062 -0.5119
   82GLOH    O3 9327   3.175  10.207   2.841  0.1778 -0.3797 -0.2711
   82GLOH   H01 9328   3.095  10.166   2.877  0.7586  0.2800  1.8309
   83GLOH   H03 9329   4.159   3.037   0.948 -1.7340  0.9514  0.4899
   83GLOH    O1 9330   4.227   3.100   0.981 -0.1244 -0.5886  0.1880
   83GLOH    C1 9331   4.246   3.063   1.121 -0.5844 -1.1807  0.0351
   83GLOH   H02 9332   4.157   3.041   1.180  0.3952  2.4234  2.9887
   83GLOH   H08 9333   4.286   3.146   1.179 -0.2794 -1.2844 -0.0296
   83GLOH    C2 9334   4.328   2.934   1.130 -0.3806  0.2616 -0.1451
   83GLOH   H04 9335   4.352   2.920   1.236  0.0454 -0.9824 -0.3920
   83GLOH    O2 9336   4.263   2.814   1.077  0.0454  0.1521 -0.0547
   83GLOH   H05 9337   4.281   2.810   0.981  1.3948  2.1046  0.0772
   83GLOH    C3 9338   4.469   2.956   1.067  1.2250 -0.5396 -0.0904
   83GLOH   H06 9339   4.507   3.050   1.105  0.4353 -0.5943  0.8595
   83GLOH   H07 9340   4.460   2.957   0.958  2.0750 -0.3149 -0.1575
   83GLOH    O3 9341   4.552   2.847   1.099  0.4438  0.2557 -0.2077
   83GLOH   H01 9342   4.640   2.890   1.098  1.0671 -0.9944 -0.2700
   84GLOH   H03 9343   3.468   1.787   2.536 -1.1718 -1.1688 -1.6800
   84GLOH    O1 9344   3.479   1.840   2.455 -0.2112  0.2464 -0.6304
   84GLOH    C1 9345   3.557   1.787   2.347 -0.3174 -0.5130 -0.4487
   84GLOH   H02 9346   3.583   1.869   2.280 -0.6283  0.6909  0.8903
   84GLOH   H08 9347   3.486   1.728   2.288 -1.7971  2.3279 -1.6079
   84GLOH    C2 9348   3.686   1.723   2.381  0.1447 -0.2965 -0.1208
   84GLOH   H04 9349   3.647   1.656   2.459  0.6721 -1.1625 -0.5956
   84GLOH    O2 9350   3.732   1.648   2.264  0.0909 -0.0820  0.4782
   84GLOH   H05 9351   3.779   1.697   2.195 -0.4264 -1.8814 -1.1711
   84GLOH    C3 9352   3.788   1.824   2.435  0.3007  0.2515 -0.1611
   84GLOH   H06 9353   3.788   1.912   2.371 -3.3165  0.6123  0.2135
   84GLOH   H07 9354   3.885   1.775   2.430 -0.2267 -0.8769  0.3640
   84GLOH    O3 9355   3.751   1.854   2.567 -0.0209 -0.0387  0.1991
   84GLOH   H01 9356   3.653   1.852   2.562 -0.1187  0.9839  1.3155
   85GLOH   H03 9357   4.039   1.829   2.667 -0.4084  0.0948 -1.1967
   85GLOH    O1 9358   4.106   1.782   2.613 -0.1457 -0.7662 -0.1333
   85GLOH    C1 9359   4.090   1.643   2.648 -0.5543  0.2406 -0.3209
   85GLOH   H02 9360   4.090   1.578   2.560  2.0881  0.4365 -0.5105
   85GLOH   H08 9361   3.988   1.635   2.685 -0.0211  1.1130  1.3739
   85GLOH    C2 9362   4.184   1.597   2.760 -0.4459 -0.7396 -0.6735
   85GLOH   H04 9363   4.193   1.680   2.831 -0.5601 -1.2624 -0.0411
   85GLOH    O2 9364   4.136   1.488   2.833  0.4327  0.1770  0.0155
   85GLOH   H05 9365   4.072   1.517   2.900 -0.4469  1.1403 -1.2130
   85GLOH    C3 9366   4.317   1.563   2.698 -0.6346 -0.2958 -0.3620
   85GLOH   H06 9367   4.309   1.503   2.607  1.6055  1.3440 -1.6848
   85GLOH   H07 9368   4.373   1.501   2.767 -0.5572  0.9742  0.7244
   85GLOH    O3 9369   4.393   1.679   2.672  0.6776 -0.3094  0.1196
   85GLOH   H01 9370   4.473   1.652   2.719  0.0329  0.1074  1.5032
   86GLOH   H03 9371   3.556   5.304   1.409  1.5128  1.1728 -0.2708
   86GLOH    O1 9372   3.577   5.310   1.314  0.2656 -0.0347 -0.6498
   86GLOH    C1 9373   3.516   5.201   1.236 -0.2252 -0.2322 -0.4489
   86GLOH   H02 9374   3.408   5.202   1.247 -0.1317 -0.6957  0.5068
   86GLOH   H08 9375   3.555   5.104   1.267 -0.5611 -0.2956 -0.2221
   86GLOH    C2 9376   3.539   5.216   1.085  0.0410 -0.0004  0.6544
   86GLOH   H04 9377   3.644   5.237   1.061 -1.1502  1.9059 -3.4011
   86GLOH    O2 9378   3.493   5.106   1.006 -0.2926  0.0959  0.5965
   86GLOH   H05 9379   3.475   5.125   0.912 -0.1141 -0.5824  0.4193
   86GLOH    C3 9380   3.469   5.350   1.046 -0.1923 -0.0483 -0.8180
   86GLOH   H06 9381   3.361   5.346   1.056 -0.2364  0.6861 -0.9708
   86GLOH   H07 9382   3.492   5.348   0.939  3.6981 -1.4490 -0.0443
   86GLOH    O3 9383   3.527   5.465   1.111  1.0568  0.1041  0.0799
   86GLOH   H01 9384   3.547   5.447   1.205  0.0433  1.5473  0.5889
   87GLOH   H03 9385   3.864   4.643   1.926 -2.4288 -2.8283 -0.7532
   87GLOH    O1 9386   3.823   4.666   2.012  0.2141 -0.1060 -0.1467
   87GLOH    C1 9387   3.874   4.571   2.106 -0.2066  0.4581  0.0541
   87GLOH   H02 9388   3.977   4.595   2.133 -0.1005  0.0809 -0.0199
   87GLOH   H08 9389   3.879   4.473   2.060 -1.2987  1.0717 -1.3883
   87GLOH    C2 9390   3.797   4.551   2.241 -0.2859 -0.2995 -0.6198
   87GLOH   H04 9391   3.694   4.513   2.227 -0.9343  1.6426 -1.2075
   87GLOH    O2 9392   3.874   4.471   2.328  0.5615 -0.1274 -0.0856
   87GLOH   H05 9393   3.949   4.526   2.358 -0.0580  0.5806  0.2028
   87GLOH    C3 9394   3.774   4.690   2.293 -0.1721 -0.4100  1.3634
   87GLOH   H06 9395   3.731   4.754   2.216  2.8661  0.9561  0.7195
   87GLOH   H07 9396   3.871   4.739   2.308 -0.3693 -0.2164  2.0244
   87GLOH    O3 9397   3.709   4.709   2.417  0.4743 -0.0529  0.6323
   87GLOH   H01 9398   3.673   4.800   2.418 -0.3505 -0.3508 -0.7716
   88GLOH   H03 9399   2.274   3.503   1.108  1.0015 -0.4322  2.7204
   88GLOH    O1 9400   2.353   3.452   1.086  0.3843 -0.0579 -0.6225
   88GLOH    C1 9401   2.454   3.532   1.029 -0.9011 -0.4037  0.1065
   88GLOH   H02 9402   2.543   3.469   1.024 -0.5518  0.1076 -0.1465
   88GLOH   H08 9403   2.480   3.613   1.098  0.3908  0.4865 -1.3737
   88GLOH    C2 9404   2.423   3.582   0.884  0.1168  0.7197 -0.5472
   88GLOH   H04 9405   2.414   3.491   0.822 -0.2918 -1.4732  2.6017
   88GLOH    O2 9406   2.298   3.639   0.891 -0.0455  0.0983  0.2474
   88GLOH   H05 9407   2.227   3.575   0.906  0.3626 -0.4980 -0.3442
   88GLOH    C3 9408   2.526   3.682   0.836  0.1018 -0.3929  0.6281
   88GLOH   H06 9409   2.511   3.778   0.885 -0.1878  0.1951 -0.5895
   88GLOH   H07 9410   2.508   3.703   0.731  1.0406 -0.8869  0.3641
   88GLOH    O3 9411   2.661   3.624   0.856 -0.6214 -0.0269  0.2421
   88GLOH   H01 9412   2.667   3.542   0.804  1.3812  1.4333 -1.9725
   89GLOH   H03 9413   3.043   0.293   1.719 -0.7268 -0.6379 -0.0950
   89GLOH    O1 9414   3.113   0.227   1.739  0.6120  0.8331  0.1411
   89GLOH    C1 9415   3.201   0.275   1.837 -0.1462  0.0193 -0.0642
   89GLOH   H02 9416   3.276   0.332   1.782 -2.2130  2.6378 -0.2863
   89GLOH   H08 9417   3.255   0.189   1.877 -2.0094 -1.9148 -1.6437
   89GLOH    C2 9418   3.154   0.366   1.956  0.2525  0.2175  0.0013
   89GLOH   H04 9419   3.105   0.294   2.025  0.9195  1.5931  1.9587
   89GLOH    O2 9420   3.269   0.416   2.026  0.6944  0.6809  0.8549
   89GLOH   H05 9421   3.332   0.344   2.049  1.1734  0.6597 -0.5046
   89GLOH    C3 9422   3.068   0.479   1.910  0.3569 -0.2499  0.4562
   89GLOH   H06 9423   3.135   0.540   1.849 -0.4512  0.5176  0.3064
   89GLOH   H07 9424   3.026   0.529   1.998  3.7213  1.7967  0.9909
   89GLOH    O3 9425   2.965   0.435   1.815 -0.2118  0.2956 -0.0539
   89GLOH   H01 9426   2.913   0.513   1.791 -1.6330 -0.1569  1.4679
   90GLOH   H03 9427   3.492   8.998   2.821 -0.1129 -0.3570  1.1020
   90GLOH    O1 9428   3.409   9.046   2.805  0.0700 -0.2628  0.3846
   90GLOH    C1 9429   3.431   9.169   2.733 -0.0708 -0.2992 -0.4384
   90GLOH   H02 9430   3.342   9.195   2.675 -0.6679  1.9496  1.3896
   90GLOH   H08 9431   3.509   9.143   2.661  0.0037  1.0539 -0.8641
   90GLOH    C2 9432   3.456   9.289   2.820 -0.7560 -0.0744  0.1458
   90GLOH   H04 9433   3.534   9.254   2.888  1.2022 -1.1807 -2.6097
   90GLOH    O2 9434   3.505   9.401   2.749  0.1898  0.2555  0.8122
   90GLOH   H05 9435   3.433   9.466   2.736  1.9899  2.0753 -0.3191
   90GLOH    C3 9436   3.328   9.333   2.896 -0.7728  0.2915 -0.1573
   90GLOH   H06 9437   3.256   9.361   2.820  0.8545  0.6624 -1.5819
   90GLOH   H07 9438   3.351   9.420   2.957  2.7643 -1.1754  0.7375
   90GLOH    O3 9439   3.278   9.236   2.986  0.1170  0.0084  0.1735
   90GLOH   H01 9440   3.188   9.244   3.021  0.0946  0.5220 -0.0078
   91GLOH   H03 9441   2.429   1.299   2.302 -0.5417 -0.9130  2.7352
   91GLOH    O1 9442   2.421   1.395   2.317 -0.0979 -0.1831 -1.1181
   91GLOH    C1 9443   2.497   1.418   2.437 -0.5542 -0.4968  0.3793
   91GLOH   H02 9444   2.542   1.517   2.435  0.5396 -0.9917  0.6518
   91GLOH   H08 9445   2.581   1.352   2.456  0.6017  1.1997  1.2602
   91GLOH    C2 9446   2.411   1.408   2.561  0.5373  0.4585  1.1601
   91GLOH   H04 9447   2.374   1.304   2.566 -0.4885  0.7354 -0.5131
   91GLOH    O2 9448   2.500   1.415   2.677 -0.1773  0.4123 -0.2588
   91GLOH   H05 9449   2.535   1.328   2.704 -0.3823  0.7799  1.2783
   91GLOH    C3 9450   2.298   1.511   2.561 -0.1513  0.2473 -0.3827
   91GLOH   H06 9451   2.230   1.484   2.641  0.3684 -0.3188 -0.1265
   91GLOH   H07 9452   2.241   1.497   2.469  1.0023 -2.7096 -0.7102
   91GLOH    O3 9453   2.324   1.646   2.570 -0.3220  0.6439  0.1929
   91GLOH   H01 9454   2.236   1.687   2.559 -0.8447 -0.4479  0.2462
   92GLOH   H03 9455   2.838   2.821   2.177 -2.1382  1.5473  2.2657
   92GLOH    O1 9456   2.801   2.740   2.217 -0.4904 -0.4557 -0.1422
   92GLOH    C1 9457   2.672   2.786   2.272 -0.7775 -0.2219  0.1319
   92GLOH   H02 9458   2.585   2.782   2.206 -1.0939 -1.4276  0.6175
   92GLOH   H08 9459   2.679   2.886   2.315  0.3202 -0.1761 -0.1427
   92GLOH    C2 9460   2.627   2.692   2.386 -0.5907 -0.4939 -0.4870
   92GLOH   H04 9461   2.713   2.672   2.452 -1.0425  0.5873  0.4339
   92GLOH    O2 9462   2.525   2.754   2.471 -0.3224 -0.5338 -0.9067
   92GLOH   H05 9463   2.442   2.768   2.423 -0.1937  2.3055 -0.3646
   92GLOH    C3 9464   2.593   2.554   2.327 -0.3260  0.3621  0.5935
   92GLOH   H06 9465   2.601   2.490   2.415 -0.3112 -1.1386 -0.4766
   92GLOH   H07 9466   2.668   2.514   2.258 -0.5394 -3.2203  2.3262
   92GLOH    O3 9467   2.463   2.554   2.267  0.3020  0.1509  1.2882
   92GLOH   H01 9468   2.477   2.578   2.174 -4.1784 -2.9656 -0.3958
   93GLOH   H03 9469   4.295   4.134   1.984  0.8081 -0.6260 -1.3216
   93GLOH    O1 9470   4.301   4.231   1.976 -0.7496 -0.3829  0.3403
   93GLOH    C1 9471   4.167   4.282   1.971 -0.3342  0.5329 -0.1590
   93GLOH   H02 9472   4.167   4.380   2.018 -1.3517  0.6916 -0.4827
   93GLOH   H08 9473   4.100   4.225   2.036  0.1406  3.0380  2.6221
   93GLOH    C2 9474   4.119   4.310   1.825  0.5730 -0.4636  0.2499
   93GLOH   H04 9475   4.123   4.218   1.765  0.6096  0.8696 -1.8420
   93GLOH    O2 9476   3.990   4.376   1.817 -0.4385 -0.4649 -0.4048
   93GLOH   H05 9477   3.922   4.307   1.810 -1.2459  0.4241 -1.5893
   93GLOH    C3 9478   4.239   4.390   1.769 -0.2406  0.4236 -0.0180
   93GLOH   H06 9479   4.337   4.363   1.808  0.4665  0.5465 -1.6195
   93GLOH   H07 9480   4.232   4.495   1.798 -2.0855 -0.3835  2.5606
   93GLOH    O3 9481   4.241   4.375   1.625 -0.7115  0.0264 -0.1208
   93GLOH   H01 9482   4.159   4.328   1.599 -0.0641 -0.1357 -1.9368
   94GLOH   H03 9483   2.403   0.566   1.111 -1.4238  1.4014 -0.6742
   94GLOH    O1 9484   2.360   0.529   1.032 -0.2554 -0.3499 -0.5300
   94GLOH    C1 9485   2.412   0.602   0.916 -0.2543  0.1447 -0.2826
   94GLOH   H02 9486   2.384   0.555   0.823 -1.6463  0.9542 -0.2854
   94GLOH   H08 9487   2.521   0.612   0.908 -0.1361 -1.5661 -0.8986
   94GLOH    C2 9488   2.363   0.749   0.907  0.1253 -0.3056  0.6295
   94GLOH   H04 9489   2.410   0.797   0.994  0.6803  0.5686 -0.1391
   94GLOH    O2 9490   2.430   0.807   0.798  0.1786 -0.2105 -0.0524
   94GLOH   H05 9491   2.387   0.766   0.721 -1.9472  0.1279  0.9043
   94GLOH    C3 9492   2.214   0.763   0.904 -0.2832  0.3616  0.3389
   94GLOH   H06 9493   2.171   0.719   0.994 -1.0810 -0.4001 -0.4104
   94GLOH   H07 9494   2.172   0.702   0.824  1.8869 -1.2201  0.3515
   94GLOH    O3 9495   2.173   0.899   0.905 -0.3240 -0.2471  0.5369
   94GLOH   H01 9496   2.110   0.920   0.833 -0.6715  0.8570  1.1584
   95GLOH   H03 9497   2.339   3.846   1.145 -1.1795 -0.2261 -0.2073
   95GLOH    O1 9498   2.390   3.809   1.219 -0.3352  0.6413 -0.3515
   95GLOH    C1 9499   2.462   3.921   1.278 -0.8195  0.8032 -0.2491
   95GLOH   H02 9500   2.394   3.981   1.338 -2.0356 -0.3543 -0.4736
   95GLOH   H08 9501   2.522   3.974   1.204  0.2057 -1.0574 -0.7848
   95GLOH    C2 9502   2.560   3.867   1.382 -0.4750  0.8403 -0.0248
   95GLOH   H04 9503   2.634   3.805   1.328 -0.3008 -0.2776  1.4762
   95GLOH    O2 9504   2.629   3.978   1.449 -0.4881  0.1964  0.2090
   95GLOH   H05 9505   2.662   3.947   1.535  0.7917 -3.0756 -1.3771
   95GLOH    C3 9506   2.494   3.768   1.470  0.2106 -0.1362  0.2693
   95GLOH   H06 9507   2.404   3.817   1.507  0.8514  1.4236 -0.1875
   95GLOH   H07 9508   2.563   3.742   1.550  2.5822 -1.7982 -2.2266
   95GLOH    O3 9509   2.470   3.641   1.409 -0.5229  0.0920  0.5124
   95GLOH   H01 9510   2.458   3.667   1.315  0.5471  1.4980  0.7441
   96GLOH   H03 9511   3.659   9.070   1.493  2.0676  1.8498  0.4142
   96GLOH    O1 9512   3.614   9.149   1.459  0.0283  0.5600  0.0260
   96GLOH    C1 9513   3.667   9.184   1.325  0.5560 -0.0283  0.2616
   96GLOH   H02 9514   3.603   9.261   1.283  0.9471 -0.5090 -1.2646
   96GLOH   H08 9515   3.681   9.106   1.250 -0.7300 -0.1142  0.1115
   96GLOH    C2 9516   3.803   9.255   1.327 -0.8708  0.0748 -0.0549
   96GLOH   H04 9517   3.879   9.195   1.379 -0.5340 -0.8149 -1.5455
   96GLOH    O2 9518   3.861   9.275   1.194 -0.1240  0.5413  0.4827
   96GLOH   H05 9519   3.806   9.346   1.158  0.4859  0.7201 -0.1148
   96GLOH    C3 9520   3.800   9.388   1.403 -0.2753 -0.5770  0.0155
   96GLOH   H06 9521   3.749   9.464   1.344  0.2093  0.6892  1.1910
   96GLOH   H07 9522   3.900   9.424   1.427 -0.5303 -0.0074  0.2466
   96GLOH    O3 9523   3.722   9.372   1.525 -0.6882  0.3956 -0.0980
   96GLOH   H01 9524   3.672   9.289   1.518  1.0838 -0.5515 -2.2565
   97GLOH   H03 9525   2.706   5.284   0.888  2.9996 -3.3639 -0.8988
   97GLOH    O1 9526   2.772   5.355   0.882 -0.2274 -0.2102 -0.1064
   97GLOH    C1 9527   2.894   5.343   0.963  0.9014  0.1592  0.3626
   97GLOH   H02 9528   2.911   5.424   1.034 -1.7396  1.6888 -0.6794
   97GLOH   H08 9529   2.982   5.350   0.898  0.3096 -3.0152 -0.8521
   97GLOH    C2 9530   2.905   5.212   1.040  0.3854  0.3552  0.0250
   97GLOH   H04 9531   2.805   5.194   1.082 -0.2300  1.0662 -1.1052
   97GLOH    O2 9532   2.946   5.094   0.967  0.4096  0.3805  0.3347
   97GLOH   H05 9533   3.032   5.110   0.927  1.1675 -2.0510  0.8893
   97GLOH    C3 9534   3.004   5.233   1.161  0.1138 -0.3558 -0.1567
   97GLOH   H06 9535   3.037   5.133   1.190  2.1029 -0.4450 -2.5501
   97GLOH   H07 9536   2.954   5.280   1.245 -0.2786 -0.9546 -0.0560
   97GLOH    O3 9537   3.128   5.298   1.125  0.0651 -0.2447 -0.2088
   97GLOH   H01 9538   3.159   5.343   1.206 -0.2141 -0.5452  0.0689
   98GLOH   H03 9539   3.421   4.723   2.845 -0.1279 -1.3751 -0.6319
   98GLOH    O1 9540   3.515   4.695   2.842  0.1596 -0.4592 -0.3567
   98GLOH    C1 9541   3.573   4.772   2.734 -0.1009  0.2216 -0.1317
   98GLOH   H02 9542   3.578   4.716   2.640 -0.0173 -1.4012  0.8163
   98GLOH   H08 9543   3.675   4.800   2.761  0.0624  0.3212 -0.8380
   98GLOH    C2 9544   3.496   4.898   2.693 -0.3698  0.0704 -0.5174
   98GLOH   H04 9545   3.395   4.863   2.665 -0.9172  2.7932 -2.1269
   98GLOH    O2 9546   3.489   4.991   2.802  0.1846 -0.0369 -0.2117
   98GLOH   H05 9547   3.417   5.056   2.805 -1.1807 -1.4947 -0.6814
   98GLOH    C3 9548   3.556   4.979   2.580 -0.1309 -0.4991  1.3591
   98GLOH   H06 9549   3.659   5.001   2.607  0.8811  1.3023 -3.3555
   98GLOH   H07 9550   3.501   5.073   2.579 -1.8857 -1.4925 -1.0064
   98GLOH    O3 9551   3.557   4.927   2.448 -0.0680  0.1181  0.0310
   98GLOH   H01 9552   3.489   4.961   2.387 -1.1750 -0.7383  0.7842
   99GLOH   H03 9553   2.405   0.270   2.710  0.4158 -0.1955 -0.3860
   99GLOH    O1 9554   2.443   0.301   2.626  0.2026 -0.2527 -0.5053
   99GLOH    C1 9555   2.552   0.393   2.665  0.3108  0.1926  0.0668
   99GLOH   H02 9556   2.585   0.443   2.574 -0.1970 -0.9670 -0.7826
   99GLOH   H08 9557   2.637   0.337   2.705  1.3456  3.0655  2.0495
   99GLOH    C2 9558   2.515   0.494   2.777  0.1030  0.2588  0.2388
   99GLOH   H04 9559   2.427   0.552   2.745 -0.8910 -0.2179  1.9853
   99GLOH    O2 9560   2.463   0.419   2.893 -0.0807 -0.2868 -0.3279
   99GLOH   H05 9561   2.386   0.364   2.871  0.6662 -2.1577  1.6323
   99GLOH    C3 9562   2.636   0.591   2.799  0.7697  0.6037  0.5986
   99GLOH   H06 9563   2.716   0.535   2.849  0.1964 -0.3386  0.4669
   99GLOH   H07 9564   2.601   0.664   2.873 -2.2125 -1.1736  1.0032
   99GLOH    O3 9565   2.664   0.660   2.681  0.7919  1.0558  0.4407
   99GLOH   H01 9566   2.761   0.667   2.683  1.1332 -2.4490 -0.6851
  100GLOH   H03 9567   3.579  10.270   0.637 -1.6795 -0.1654  1.7971
  100GLOH    O1 9568   3.523  10.255   0.559  0.0419  0.1263  0.4842
  100GLOH    C1 9569   3.545  10.135   0.488 -0.1973  0.2895  0.2363
  100GLOH   H02 9570   3.499  10.050   0.540  2.8966 -0.1965  2.3394
  100GLOH   H08 9571   3.650  10.110   0.478 -0.3488 -0.9881  1.6956
  100GLOH    C2 9572   3.490  10.137   0.344 -0.0499 -0.4758  0.2910
  100GLOH   H04 9573   3.380  10.138   0.346 -0.0261 -0.9468  2.3378
  100GLOH    O2 9574   3.538  10.238   0.257  0.1432 -0.1264  0.3938
  100GLOH   H05 9575   3.535  10.327   0.297  1.7891  0.5309 -0.8774
  100GLOH    C3 9576   3.543  10.011   0.274 -0.3652  0.3036 -0.4013
  100GLOH   H06 9577   3.652  10.008   0.279 -0.4625 -0.4875  2.7908
  100GLOH   H07 9578   3.514  10.015   0.169 -1.7486 -0.8712 -0.0854
  100GLOH    O3 9579   3.492   9.889   0.331 -0.1840 -0.2249 -0.4248
  100GLOH   H01 9580   3.547   9.859   0.406 -0.8258 -1.8960 -0.5789
  101GLOH   H03 9581   2.326   2.165   1.379  0.6382  2.7379  0.6540
  101GLOH    O1 9582   2.296   2.141   1.468  0.3038 -0.4011 -0.2622
  101GLOH    C1 9583   2.323   2.004   1.491  0.3565  0.0088  0.3824
  101GLOH   H02 9584   2.431   1.994   1.482  0.3570  0.7830 -0.5038
  101GLOH   H08 9585   2.270   1.939   1.421 -3.4626 -1.6094  4.5146
  101GLOH    C2 9586   2.289   1.953   1.632  0.4021 -0.5973 -0.0801
  101GLOH   H04 9587   2.179   1.949   1.639  0.4494 -0.2824  0.8301
  101GLOH    O2 9588   2.334   1.817   1.672 -0.1288 -0.5230  0.4485
  101GLOH   H05 9589   2.431   1.825   1.677 -0.2889  1.4216  0.7549
  101GLOH    C3 9590   2.330   2.054   1.745  0.0261 -0.2235 -0.4392
  101GLOH   H06 9591   2.438   2.065   1.738  0.0415  1.1794  1.4855
  101GLOH   H07 9592   2.299   2.013   1.841 -0.3817  1.3446  0.1195
  101GLOH    O3 9593   2.262   2.182   1.731  0.3488  0.2022 -0.1376
  101GLOH   H01 9594   2.281   2.216   1.641  1.3669 -1.2379 -0.4939
  102GLOH   H03 9595   2.878   4.339   1.644  0.6781  0.3958  1.4462
  102GLOH    O1 9596   2.882   4.434   1.625  0.4044  0.1352  0.0350
  102GLOH    C1 9597   2.860   4.515   1.740 -0.5704 -0.3950 -0.6477
  102GLOH   H02 9598   2.911   4.474   1.827  1.3988 -0.6767 -1.8978
  102GLOH   H08 9599   2.752   4.519   1.754 -0.6791 -1.6134 -1.1324
  102GLOH    C2 9600   2.914   4.653   1.697  0.1185  0.1675  0.5688
  102GLOH   H04 9601   2.856   4.675   1.606 -1.6608  0.5810  1.8000
  102GLOH    O2 9602   2.893   4.749   1.807 -0.1041 -0.1174 -0.8418
  102GLOH   H05 9603   2.869   4.836   1.771  0.8249 -0.6602 -2.8712
  102GLOH    C3 9604   3.059   4.656   1.640 -0.0548 -0.2598 -0.0308
  102GLOH   H06 9605   3.078   4.763   1.634 -0.7377 -0.0699  1.1200
  102GLOH   H07 9606   3.055   4.606   1.543  0.6161 -0.3401 -0.0190
  102GLOH    O3 9607   3.158   4.604   1.734  0.9852  0.0057 -0.4152
  102GLOH   H01 9608   3.168   4.676   1.799  1.5706 -1.2213  0.8519
  103GLOH   H03 9609   3.818   3.153   1.570  0.1674 -0.2204  1.1140
  103GLOH    O1 9610   3.847   3.239   1.606  0.3168  0.1580  0.0914
  103GLOH    C1 9611   3.738   3.311   1.674 -0.4603  0.4105 -0.7930
  103GLOH   H02 9612   3.639   3.278   1.644  0.0940 -1.2318 -0.8519
  103GLOH   H08 9613   3.755   3.415   1.643  0.3770  0.0631 -1.5198
  103GLOH    C2 9614   3.752   3.304   1.832  0.6367 -0.2607  0.3215
  103GLOH   H04 9615   3.857   3.319   1.862  0.8242 -1.7308  0.4594
  103GLOH    O2 9616   3.670   3.413   1.880 -0.0567  0.0471 -0.3075
  103GLOH   H05 9617   3.638   3.385   1.967 -0.2344 -1.2350 -0.7719
  103GLOH    C3 9618   3.697   3.172   1.885  0.1619  0.6142  0.0063
  103GLOH   H06 9619   3.593   3.161   1.856  0.2770 -1.5666  0.3450
  103GLOH   H07 9620   3.698   3.173   1.994 -0.5605  0.3207  0.0210
  103GLOH    O3 9621   3.772   3.054   1.844  0.1886 -0.5314 -0.2204
  103GLOH   H01 9622   3.863   3.040   1.876 -0.4334 -1.2908  1.2684
  104GLOH   H03 9623   4.887   4.010   0.416  1.6806 -1.3288  0.0102
  104GLOH    O1 9624   4.953   4.082   0.415 -0.0252  0.2624 -0.1637
  104GLOH    C1 9625   4.938   4.180   0.311 -0.3543  0.3195 -0.2754
  104GLOH   H02 9626   4.988   4.146   0.221 -1.0452  0.1327 -0.5849
  104GLOH   H08 9627   4.977   4.278   0.337 -1.5453  0.6859  0.1750
  104GLOH    C2 9628   4.792   4.218   0.283  0.4610 -0.6305 -0.4580
  104GLOH   H04 9629   4.796   4.318   0.238 -3.4875 -1.3486 -2.6854
  104GLOH    O2 9630   4.718   4.130   0.187  0.1821  0.1289  0.1343
  104GLOH   H05 9631   4.623   4.147   0.195 -0.3280 -2.4417  0.2129
  104GLOH    C3 9632   4.709   4.233   0.414  0.6210  0.1689  0.0264
  104GLOH   H06 9633   4.768   4.291   0.485  2.3679 -0.0961 -1.1924
  104GLOH   H07 9634   4.690   4.136   0.461  1.4746 -0.9676 -1.9267
  104GLOH    O3 9635   4.585   4.304   0.393 -0.2097 -0.0734  0.4172
  104GLOH   H01 9636   4.527   4.277   0.319 -0.1929 -0.5539  0.5756
  105GLOH   H03 9637   4.080   5.173   1.492 -1.3126  0.4406 -0.8410
  105GLOH    O1 9638   4.109   5.200   1.403 -0.5116  0.5844 -0.5422
  105GLOH    C1 9639   4.097   5.090   1.310  0.1863  0.9070 -0.6066
  105GLOH   H02 9640   4.076   4.999   1.366  0.5206  1.4234  0.3663
  105GLOH   H08 9641   4.191   5.069   1.258  0.2356 -3.1599  0.9568
  105GLOH    C2 9642   3.977   5.103   1.218  0.3513  0.5142  0.1270
  105GLOH   H04 9643   3.987   5.190   1.151 -2.5323 -0.4108 -1.5664
  105GLOH    O2 9644   3.968   4.983   1.139 -0.1671 -0.7757  0.0226
  105GLOH   H05 9645   3.898   5.000   1.074 -1.1105  1.2489  1.5067
  105GLOH    C3 9646   3.847   5.111   1.299  0.8080 -0.0497 -0.2851
  105GLOH   H06 9647   3.763   5.106   1.230  0.6003 -3.6332  0.1636
  105GLOH   H07 9648   3.834   5.211   1.342  1.0457 -0.6402  1.1844
  105GLOH    O3 9649   3.832   5.001   1.396  0.7564 -0.3949 -0.3287
  105GLOH   H01 9650   3.815   4.919   1.345 -1.6940  0.5815 -1.1504
  106GLOH   H03 9651   2.864   1.301   2.062  0.1247 -0.1332 -0.0773
  106GLOH    O1 9652   2.780   1.341   2.034  0.0544 -0.4901 -0.3625
  106GLOH    C1 9653   2.699   1.416   2.129  0.2194 -0.6927  0.3614
  106GLOH   H02 9654   2.762   1.482   2.189 -0.0490 -0.1899  0.0975
  106GLOH   H08 9655   2.654   1.345   2.199  1.8995 -3.7203 -1.5413
  106GLOH    C2 9656   2.595   1.503   2.056 -0.5199  0.6353 -0.4644
  106GLOH   H04 9657   2.530   1.430   2.004 -0.1431  0.0330 -0.0959
  106GLOH    O2 9658   2.507   1.578   2.142  0.1856 -0.6615 -0.1569
  106GLOH   H05 9659   2.465   1.515   2.204 -1.7285  0.2897 -0.4689
  106GLOH    C3 9660   2.652   1.580   1.935 -0.8114  0.0986 -0.4399
  106GLOH   H06 9661   2.714   1.664   1.967  2.2468 -2.3679  0.4289
  106GLOH   H07 9662   2.568   1.617   1.876 -0.1937 -0.9462 -2.0072
  106GLOH    O3 9663   2.727   1.493   1.849  0.9312 -0.3133 -0.2479
  106GLOH   H01 9664   2.778   1.429   1.902  0.5076 -0.2776  0.2059
  107GLOH   H03 9665   3.422   4.105   1.923  1.2805  0.1844  1.7817
  107GLOH    O1 9666   3.449   4.149   1.840 -0.2468 -0.5987  0.8159
  107GLOH    C1 9667   3.585   4.118   1.810  0.2696  0.1927  0.2242
  107GLOH   H02 9668   3.581   4.101   1.702  0.1768 -1.8292  0.5288
  107GLOH   H08 9669   3.607   4.022   1.855 -0.2104  0.2012  0.4809
  107GLOH    C2 9670   3.685   4.225   1.862  0.1911 -0.0865  0.5043
  107GLOH   H04 9671   3.672   4.231   1.971  1.4682  2.4682  0.5481
  107GLOH    O2 9672   3.819   4.179   1.845  0.5513 -0.2782 -0.5519
  107GLOH   H05 9673   3.855   4.143   1.927 -1.0709 -0.6065  0.0314
  107GLOH    C3 9674   3.648   4.366   1.801 -0.2673 -0.9973  0.6699
  107GLOH   H06 9675   3.683   4.365   1.697 -1.1068  4.3593  0.1807
  107GLOH   H07 9676   3.712   4.443   1.846  0.7869 -2.9479  2.6057
  107GLOH    O3 9677   3.515   4.404   1.812 -0.2762 -0.1043 -0.1340
  107GLOH   H01 9678   3.466   4.320   1.818  1.1051 -1.0705 -1.7711
  108GLOH   H03 9679   4.326   3.865   0.321  1.0001  1.0769 -2.6223
  108GLOH    O1 9680   4.418   3.832   0.326  0.2365 -0.8792 -0.9215
  108GLOH    C1 9681   4.505   3.906   0.411 -0.2958  0.4241  0.3806
  108GLOH   H02 9682   4.457   3.916   0.509 -0.0837  0.2482  0.5016
  108GLOH   H08 9683   4.516   4.010   0.379 -0.5246  0.9920  2.0754
  108GLOH    C2 9684   4.649   3.845   0.414 -0.1473  0.1796  0.5913
  108GLOH   H04 9685   4.686   3.839   0.310  2.1152  0.1705  1.3779
  108GLOH    O2 9686   4.756   3.916   0.477  0.4014 -0.0006  0.7277
  108GLOH   H05 9687   4.803   3.871   0.550  0.2704 -1.4704 -0.0764
  108GLOH    C3 9688   4.641   3.699   0.457  0.6726 -0.2201 -0.4159
  108GLOH   H06 9689   4.597   3.700   0.557 -1.6013  0.5388 -1.3702
  108GLOH   H07 9690   4.740   3.655   0.461  0.3114 -0.9495  0.7999
  108GLOH    O3 9691   4.561   3.632   0.358  0.0661  0.5054 -0.0799
  108GLOH   H01 9692   4.497   3.696   0.323 -0.6925 -0.2040 -0.0068
  109GLOH   H03 9693   2.955   0.975   0.295  2.0443 -0.3193  0.4344
  109GLOH    O1 9694   2.972   0.880   0.306 -0.6135 -0.7974  0.7916
  109GLOH    C1 9695   2.913   0.832   0.431 -0.4930  0.2935 -0.2701
  109GLOH   H02 9696   2.849   0.745   0.417 -0.9853  0.5298  0.4673
  109GLOH   H08 9697   2.843   0.904   0.473  0.6854  0.7709  0.9153
  109GLOH    C2 9698   3.019   0.788   0.540  0.0060  0.2277 -0.1238
  109GLOH   H04 9699   2.960   0.763   0.629 -1.8626  1.2141 -1.0503
  109GLOH    O2 9700   3.102   0.679   0.489 -0.5350  0.5008 -0.4076
  109GLOH   H05 9701   3.055   0.594   0.491 -2.1545  1.3949  0.1616
  109GLOH    C3 9702   3.105   0.909   0.581 -0.6937  0.1640  0.0755
  109GLOH   H06 9703   3.178   0.926   0.502  1.2263  0.8680  1.9288
  109GLOH   H07 9704   3.178   0.869   0.652 -1.0969 -0.2304  0.2692
  109GLOH    O3 9705   3.034   1.024   0.623  0.1500  0.3822  0.2611
  109GLOH   H01 9706   3.077   1.100   0.580  1.0638 -0.0221  0.4453
  110GLOH   H03 9707   3.562   9.595   2.633  1.7206 -0.9453  0.3980
  110GLOH    O1 9708   3.595   9.674   2.585  0.2449 -0.5572 -0.0133
  110GLOH    C1 9709   3.681   9.746   2.675 -0.3478  0.0869  0.5487
  110GLOH   H02 9710   3.711   9.681   2.757 -1.9468 -2.3267 -0.7435
  110GLOH   H08 9711   3.624   9.823   2.728 -1.0156  0.3964 -0.6034
  110GLOH    C2 9712   3.807   9.804   2.614 -0.4674  0.2344  0.8440
  110GLOH   H04 9713   3.860   9.842   2.703 -0.5447 -0.8202  1.3412
  110GLOH    O2 9714   3.898   9.703   2.558  0.1033 -0.0385  0.6763
  110GLOH   H05 9715   3.914   9.631   2.621 -2.5143 -1.8335 -0.6329
  110GLOH    C3 9716   3.796   9.916   2.507 -0.3567  0.2720 -0.7243
  110GLOH   H06 9717   3.713   9.904   2.438 -0.0475  0.4102 -1.1212
  110GLOH   H07 9718   3.888   9.933   2.451 -0.9171  1.7084 -1.2405
  110GLOH    O3 9719   3.770  10.045   2.577  0.5550 -0.2020 -0.0076
  110GLOH   H01 9720   3.821  10.119   2.539 -1.0232  2.7056  3.1932
  111GLOH   H03 9721   2.031   0.992   2.442 -0.8284  1.6277  1.3702
  111GLOH    O1 9722   2.102   0.962   2.502  0.0665  0.0751 -0.4003
  111GLOH    C1 9723   2.105   1.061   2.601  0.2664  0.3521  0.2183
  111GLOH   H02 9724   2.208   1.082   2.630  1.0765  0.1183 -2.3491
  111GLOH   H08 9725   2.063   1.016   2.691 -0.1524 -2.6551 -1.4362
  111GLOH    C2 9726   2.034   1.192   2.566 -0.7389  0.3829  1.0802
  111GLOH   H04 9727   1.925   1.174   2.574 -0.3613 -3.0073 -0.3533
  111GLOH    O2 9728   2.073   1.291   2.662 -0.4906 -0.1964  0.2086
  111GLOH   H05 9729   2.007   1.350   2.703  1.1027  1.5610  0.3462
  111GLOH    C3 9730   2.049   1.251   2.425  0.4614  1.4963 -0.8891
  111GLOH   H06 9731   2.157   1.254   2.407 -0.0721  1.8842 -4.4256
  111GLOH   H07 9732   2.014   1.354   2.427  0.1990  1.3841  1.8357
  111GLOH    O3 9733   1.988   1.176   2.329  0.8372  0.1262  0.2207
  111GLOH   H01 9734   2.013   1.218   2.244 -0.2679  1.1170  0.3657
  112GLOH   H03 9735   2.516  10.091   1.607  0.1262  0.2727  0.4977
  112GLOH    O1 9736   2.602  10.067   1.567 -0.0644 -0.0394  0.2733
  112GLOH    C1 9737   2.593   9.936   1.512 -0.4270  0.0015 -0.5237
  112GLOH   H02 9738   2.528   9.949   1.425  0.1589  0.3387 -0.9121
  112GLOH   H08 9739   2.532   9.869   1.572  0.0300 -1.3206 -1.5140
  112GLOH    C2 9740   2.725   9.883   1.464  0.0624 -0.0070 -0.2397
  112GLOH   H04 9741   2.790   9.891   1.552  0.6808  0.3735 -0.7237
  112GLOH    O2 9742   2.720   9.748   1.406 -0.0564 -0.3206 -0.1635
  112GLOH   H05 9743   2.810   9.712   1.394 -0.2574 -0.6535 -0.6945
  112GLOH    C3 9744   2.784   9.987   1.365  0.2868  0.5701  0.2639
  112GLOH   H06 9745   2.884   9.962   1.331  0.5891  0.6216  1.1055
  112GLOH   H07 9746   2.794  10.081   1.419  1.2389  0.2524  0.6383
  112GLOH    O3 9747   2.692  10.006   1.250 -0.4783 -0.1701 -0.3823
  112GLOH   H01 9748   2.694   9.920   1.203 -2.5385 -0.6097  0.2881
  113GLOH   H03 9749   2.426   3.307   1.125 -1.3642  0.4314  0.4558
  113GLOH    O1 9750   2.425   3.210   1.134 -0.0972  0.3625 -0.1465
  113GLOH    C1 9751   2.405   3.192   1.273  0.5733 -0.3644 -0.2072
  113GLOH   H02 9752   2.297   3.200   1.288  0.4774 -1.1535 -0.4506
  113GLOH   H08 9753   2.452   3.265   1.339 -0.5905  0.5537 -0.3769
  113GLOH    C2 9754   2.441   3.053   1.330  0.3851 -0.3841  0.4663
  113GLOH   H04 9755   2.549   3.046   1.348  0.3840  0.0111  0.6429
  113GLOH    O2 9756   2.390   3.037   1.461  0.0679  0.3185  0.1474
  113GLOH   H05 9757   2.417   2.945   1.479  2.2066  0.5908 -1.3913
  113GLOH    C3 9758   2.401   2.938   1.234  0.3587  0.3301 -0.5191
  113GLOH   H06 9759   2.293   2.929   1.238  0.0241  3.0762 -2.1585
  113GLOH   H07 9760   2.455   2.857   1.284 -0.0284  0.1695 -0.3601
  113GLOH    O3 9761   2.447   2.970   1.106 -0.1388 -0.3345  0.1457
  113GLOH   H01 9762   2.434   3.065   1.089  2.6600  0.1164  0.4000
  114GLOH   H03 9763   3.763   1.082   2.727 -1.3705  0.6431  2.6832
  114GLOH    O1 9764   3.849   1.078   2.773  0.2519  0.4732 -0.2068
  114GLOH    C1 9765   3.935   1.002   2.688  0.2829  0.3953  0.0926
  114GLOH   H02 9766   4.033   0.991   2.734 -0.8823 -0.7939  2.4241
  114GLOH   H08 9767   3.934   1.042   2.587  1.1119 -1.0540 -0.4934
  114GLOH    C2 9768   3.879   0.858   2.673 -0.3595 -0.4330 -0.5312
  114GLOH   H04 9769   3.769   0.854   2.671 -0.3259 -1.4973 -3.2219
  114GLOH    O2 9770   3.953   0.797   2.565 -0.1535 -0.0728  0.4511
  114GLOH   H05 9771   3.942   0.852   2.485 -0.0017 -1.0074 -0.2195
  114GLOH    C3 9772   3.913   0.771   2.792 -0.4680  0.5216  0.1252
  114GLOH   H06 9773   4.016   0.790   2.821 -0.7764 -1.6673  3.0030
  114GLOH   H07 9774   3.903   0.670   2.753 -0.7819  0.5209  0.2064
  114GLOH    O3 9775   3.840   0.797   2.903 -0.0068 -0.1943  1.0530
  114GLOH   H01 9776   3.762   0.850   2.879  0.6846  1.0459  1.4975
  115GLOH   H03 9777   4.508   4.329   0.534  1.3232  0.0073  1.3040
  115GLOH    O1 9778   4.431   4.320   0.593  0.2135  0.1059 -0.1237
  115GLOH    C1 9779   4.472   4.350   0.726 -0.2833 -0.7980 -0.1550
  115GLOH   H02 9780   4.398   4.325   0.801  0.2660 -1.4591  0.1733
  115GLOH   H08 9781   4.494   4.456   0.740 -0.7958 -0.5015 -1.5010
  115GLOH    C2 9782   4.592   4.270   0.779 -0.2539 -0.2300 -0.3924
  115GLOH   H04 9783   4.676   4.286   0.710 -0.1308 -0.5693 -0.3249
  115GLOH    O2 9784   4.634   4.311   0.907 -0.5935  0.6610  0.2564
  115GLOH   H05 9785   4.722   4.270   0.916 -0.1294  1.1197 -1.9319
  115GLOH    C3 9786   4.565   4.117   0.782 -0.3207 -1.1796  0.0754
  115GLOH   H06 9787   4.654   4.077   0.830 -0.1491  1.9444  2.5196
  115GLOH   H07 9788   4.567   4.075   0.682  1.9467  0.1508 -0.4702
  115GLOH    O3 9789   4.449   4.083   0.853 -0.1944  0.6052 -0.4393
  115GLOH   H01 9790   4.472   4.069   0.946  1.7915  0.4154 -0.9416
  116GLOH   H03 9791   3.422   1.148   2.207  0.7593 -0.2660  0.0353
  116GLOH    O1 9792   3.456   1.113   2.291  0.2805 -0.2791  0.2236
  116GLOH    C1 9793   3.550   1.014   2.257  0.2790 -0.9503  0.3956
  116GLOH   H02 9794   3.651   1.052   2.265 -0.4950  1.5099 -1.1369
  116GLOH   H08 9795   3.528   0.974   2.158  0.6950  0.5488 -0.3142
  116GLOH    C2 9796   3.547   0.889   2.351 -0.6461 -0.0832  0.0147
  116GLOH   H04 9797   3.456   0.830   2.334 -1.0881 -0.0663  2.2262
  116GLOH    O2 9798   3.670   0.811   2.330  0.5832 -0.0613  0.1284
  116GLOH   H05 9799   3.634   0.743   2.270 -2.3926  0.5308  1.1739
  116GLOH    C3 9800   3.553   0.939   2.498 -0.0054  0.4170  0.1838
  116GLOH   H06 9801   3.649   0.983   2.526 -0.3939  0.9442  0.6876
  116GLOH   H07 9802   3.533   0.850   2.558  1.0377  1.7014  2.5151
  116GLOH    O3 9803   3.451   1.038   2.531  0.4077 -0.3433  0.3193
  116GLOH   H01 9804   3.433   1.091   2.451  0.7456  1.0440  1.1601
  117GLOH   H03 9805   3.209   2.462   1.796  0.7743  1.2402 -1.7354
  117GLOH    O1 9806   3.295   2.471   1.841  0.2823 -0.7385 -0.3783
  117GLOH    C1 9807   3.377   2.552   1.755 -0.5673  0.9673 -0.1813
  117GLOH   H02 9808   3.321   2.581   1.666 -1.4073 -1.2392 -0.4087
  117GLOH   H08 9809   3.463   2.493   1.724 -0.2577  2.2008 -1.7507
  117GLOH    C2 9810   3.421   2.680   1.832 -0.5615 -0.4789  0.3904
  117GLOH   H04 9811   3.481   2.733   1.757 -1.5704  0.0846 -0.0420
  117GLOH    O2 9812   3.311   2.773   1.867 -0.3315  0.3447  0.3278
  117GLOH   H05 9813   3.248   2.764   1.793  0.5882  0.2613 -0.4623
  117GLOH    C3 9814   3.517   2.635   1.943  0.1347 -0.2657  0.4090
  117GLOH   H06 9815   3.460   2.573   2.012  0.9875 -1.5934 -0.0523
  117GLOH   H07 9816   3.547   2.719   2.006  0.3014  1.2017 -1.5567
  117GLOH    O3 9817   3.633   2.557   1.906 -0.0332 -0.1382  0.1774
  117GLOH   H01 9818   3.709   2.611   1.880  0.0689  0.2435  1.2273
  118GLOH   H03 9819   4.087   1.052   1.026 -0.6536 -0.4793 -0.9997
  118GLOH    O1 9820   4.167   0.996   1.035  0.1069  0.7280 -0.0091
  118GLOH    C1 9821   4.208   0.982   1.173 -0.3262 -0.1698  0.5958
  118GLOH   H02 9822   4.249   1.072   1.218  2.3986 -1.0282 -0.1206
  118GLOH   H08 9823   4.284   0.906   1.187  0.6660  1.1046  2.4283
  118GLOH    C2 9824   4.089   0.943   1.264 -0.1881 -0.5556  0.7686
  118GLOH   H04 9825   4.126   0.908   1.362 -0.8637 -2.0532  0.5100
  118GLOH    O2 9826   4.006   1.057   1.285  0.5288 -0.0750 -0.4166
  118GLOH   H05 9827   3.989   1.105   1.202 -0.2310 -2.9027 -1.9428
  118GLOH    C3 9828   4.007   0.826   1.207  0.1524 -0.0403 -0.1065
  118GLOH   H06 9829   3.984   0.841   1.101  0.6477 -2.4116 -0.5888
  118GLOH   H07 9830   3.919   0.810   1.269  1.9926 -0.9807  2.3122
  118GLOH    O3 9831   4.084   0.710   1.212 -0.5478  0.1926  0.1037
  118GLOH   H01 9832   4.120   0.694   1.123 -0.5850 -1.4104  0.3615
  119GLOH   H03 9833   4.716   1.985   2.742 -3.0808 -0.0026 -1.3190
  119GLOH    O1 9834   4.694   1.899   2.781 -0.4494  0.0546  0.4551
  119GLOH    C1 9835   4.665   1.915   2.916  0.2191 -0.6399  0.1038
  119GLOH   H02 9836   4.559   1.938   2.927  0.2623 -0.9130  1.2025
  119GLOH   H08 9837   4.725   1.995   2.959  2.0610 -2.6105  1.3375
  119GLOH    C2 9838   4.693   1.785   2.996 -0.0666 -0.7461 -0.1451
  119GLOH   H04 9839   4.795   1.753   2.969  0.3142 -0.1482  0.5693
  119GLOH    O2 9840   4.681   1.807   3.140 -0.4056 -0.5868  0.6526
  119GLOH   H05 9841   4.587   1.823   3.162 -0.4306 -1.7004  1.3535
  119GLOH    C3 9842   4.602   1.671   2.952 -0.2625 -0.5893  0.8341
  119GLOH   H06 9843   4.497   1.692   2.973 -0.2523  2.0824 -1.5728
  119GLOH   H07 9844   4.632   1.577   3.000  2.4654  0.0797  0.5284
  119GLOH    O3 9845   4.613   1.658   2.802  0.3021  0.0509 -0.7512
  119GLOH   H01 9846   4.657   1.741   2.776  0.0536  1.6492  3.4226
  120GLOH   H03 9847   3.930   3.761   0.972 -1.3123  0.3784 -0.3160
  120GLOH    O1 9848   3.850   3.713   0.998 -0.7383 -0.7606 -0.6364
  120GLOH    C1 9849   3.763   3.818   1.035 -0.1546 -0.8026  0.1967
  120GLOH   H02 9850   3.788   3.911   0.983  1.2462 -2.2899 -1.8702
  120GLOH   H08 9851   3.769   3.837   1.142  1.7804  0.0024 -0.0448
  120GLOH    C2 9852   3.619   3.799   0.986 -0.3672 -0.2434 -0.7048
  120GLOH   H04 9853   3.601   3.693   1.005 -0.6855 -0.3351 -1.4845
  120GLOH    O2 9854   3.517   3.880   1.045  0.0232 -0.1207  0.2575
  120GLOH   H05 9855   3.558   3.966   1.058  0.4841 -0.4351  0.8968
  120GLOH    C3 9856   3.625   3.823   0.832  0.3049 -0.5032  0.1634
  120GLOH   H06 9857   3.720   3.781   0.797 -0.2219 -1.1532 -0.4882
  120GLOH   H07 9858   3.627   3.926   0.795 -0.2923  0.2244  2.1232
  120GLOH    O3 9859   3.519   3.747   0.768 -0.6651 -0.0119 -0.1452
  120GLOH   H01 9860   3.431   3.771   0.802 -0.8810  0.4922 -1.0424
  121ACOH    H4 9861   4.802   1.716   0.508 -0.6512 -0.3269  1.6641
  121ACOH    O2 9862   4.858   1.646   0.546  0.0599 -0.4292  0.4401
  121ACOH    C2 9863   4.820   1.633   0.671  0.1309 -0.1638 -0.4251
  121ACOH    O1 9864   4.740   1.704   0.728 -0.0405 -0.3889 -0.0584
  121ACOH    C1 9865   4.877   1.516   0.727 -0.1516 -0.7896 -0.4787
  121ACOH    H1 9866   4.984   1.530   0.738 -0.1475 -1.6059  0.7481
  121ACOH    H2 9867   4.872   1.431   0.658 -0.9378 -1.3710  0.2761
  121ACOH    H3 9868   4.829   1.487   0.821  1.3677 -0.3938  0.4332
  123ACOH    H4 9869   2.027   0.212   1.411 -1.6636  0.2664  0.2878
  123ACOH    O2 9870   1.981   0.266   1.344  0.0871  1.3362 -0.0825
  123ACOH    C2 9871   1.992   0.390   1.390  0.2118 -0.3322 -0.3840
  123ACOH    O1 9872   2.067   0.424   1.483  0.0230  0.0079  0.5702
  123ACOH    C1 9873   1.939   0.496   1.295  0.6758  0.1630  1.1530
  123ACOH    H1 9874   2.011   0.507   1.215 -0.7314 -2.1042 -0.5003
  123ACOH    H2 9875   1.937   0.588   1.354  0.2948  0.9681 -0.1014
  123ACOH    H3 9876   1.836   0.480   1.262  1.6873  0.6404 -2.4177
  124ACOH    H4 9877   5.064   3.557   1.657 -0.4286 -0.5686  0.3950
  124ACOH    O2 9878   5.125   3.617   1.704 -0.1508 -0.3357 -0.2524
  124ACOH    C2 9879   5.218   3.528   1.744  1.1394 -0.7760 -0.2946
  124ACOH    O1 9880   5.237   3.417   1.702 -0.5424  0.2421 -0.3260
  124ACOH    C1 9881   5.296   3.587   1.856 -0.8721 -0.2655 -0.1157
  124ACOH    H1 9882   5.361   3.514   1.906 -0.9264  0.6530  1.3182
  124ACOH    H2 9883   5.218   3.626   1.921 -0.3755 -0.5784  0.6813
  124ACOH    H3 9884   5.357   3.666   1.812  0.2184 -0.7293  0.5368
  125ACOH    H4 9885   5.255   9.216   2.316 -1.4622  0.8919  1.4198
  125ACOH    O2 9886   5.319   9.199   2.387 -0.1017  0.5117  0.1334
  125ACOH    C2 9887   5.445   9.221   2.339 -0.2840 -0.5405 -0.8289
  125ACOH    O1 9888   5.491   9.250   2.229  0.8578 -0.1150  0.5689
  125ACOH    C1 9889   5.540   9.212   2.456  0.3503  0.1252  0.9355
  125ACOH    H1 9890   5.492   9.166   2.542 -0.8542  0.4326  0.4415
  125ACOH    H2 9891   5.592   9.306   2.474  2.6799 -1.0287  0.4812
  125ACOH    H3 9892   5.613   9.139   2.421  0.2262  0.3453  0.2149
  127ACOH    H4 9893   4.366   1.342   2.320 -0.3746  0.4946  1.7339
  127ACOH    O2 9894   4.326   1.254   2.326  0.3345  0.0288 -0.0967
  127ACOH    C2 9895   4.243   1.236   2.430 -0.4413 -0.1881 -0.3439
  127ACOH    O1 9896   4.185   1.328   2.481  0.6433  0.2073  0.1996
  127ACOH    C1 9897   4.227   1.097   2.469  0.3366  0.2042  0.1112
  127ACOH    H1 9898   4.201   1.036   2.383 -1.1975  1.5269 -0.3906
  127ACOH    H2 9899   4.144   1.081   2.539  0.3449  0.9726  0.2993
  127ACOH    H3 9900   4.320   1.071   2.519 -0.1948 -0.7543  0.6201
  129ACOH    H4 9901   3.621   8.637   0.690 -1.3710 -0.7337  0.0384
  129ACOH    O2 9902   3.603   8.600   0.602 -0.5007 -0.7080 -0.1485
  129ACOH    C2 9903   3.517   8.500   0.618  0.5044 -0.1958  0.2032
  129ACOH    O1 9904   3.498   8.432   0.719  0.1374 -0.3992  0.5070
  129ACOH    C1 9905   3.484   8.443   0.488 -0.1528 -0.1120 -0.5269
  129ACOH    H1 9906   3.541   8.492   0.409  0.6287  0.0994  0.1661
  129ACOH    H2 9907   3.379   8.460   0.461  0.6377  2.7454 -2.0122
  129ACOH    H3 9908   3.505   8.336   0.488  4.9345  0.7631 -0.1114
  130ACOH    H4 9909   5.050   4.180   0.494  1.0690 -0.6494 -0.5660
  130ACOH    O2 9910   5.115   4.227   0.548 -0.3557  0.1540  0.4831
  130ACOH    C2 9911   5.083   4.230   0.681  0.0429 -0.2708  0.3512
  130ACOH    O1 9912   4.985   4.173   0.721  0.2279 -0.2372 -0.0437
  130ACOH    C1 9913   5.178   4.297   0.769  0.2699 -0.4428  0.2259
  130ACOH    H1 9914   5.206   4.395   0.731  3.1000 -1.7041 -1.0761
  130ACOH    H2 9915   5.270   4.241   0.786  0.4565 -0.3895 -0.5977
  130ACOH    H3 9916   5.132   4.305   0.868  2.4142  2.5504  1.0275
  131ACOH    H4 9917   5.006   3.264   1.042  1.3745 -0.0865 -0.7130
  131ACOH    O2 9918   5.054   3.218   1.112  0.0304 -0.2262  0.1295
  131ACOH    C2 9919   5.117   3.317   1.182 -0.7952 -0.2248 -0.0156
  131ACOH    O1 9920   5.112   3.437   1.159  0.1847 -0.0663  0.8024
  131ACOH    C1 9921   5.220   3.251   1.271  0.0161 -0.4381  0.6099
  131ACOH    H1 9922   5.278   3.175   1.219  2.6976  1.7042  0.3671
  131ACOH    H2 9923   5.174   3.207   1.359 -1.3014 -0.4110 -0.0543
  131ACOH    H3 9924   5.289   3.327   1.308 -0.4869  0.5252 -0.3699
  132ACOH    H4 9925   4.350   0.798   1.470  1.7391 -2.0631  0.9985
  132ACOH    O2 9926   4.413   0.872   1.470 -0.0614 -0.4768 -0.3819
  132ACOH    C2 9927   4.360   0.978   1.519 -0.0039  0.2437  0.0641
  132ACOH    O1 9928   4.250   0.989   1.564 -0.1120  0.3700 -0.8138
  132ACOH    C1 9929   4.454   1.090   1.506 -1.3112 -0.7715  0.7197
  132ACOH    H1 9930   4.526   1.071   1.427 -3.0197 -0.6448 -0.8994
  132ACOH    H2 9931   4.490   1.116   1.606 -1.0227 -1.1576  0.7172
  132ACOH    H3 9932   4.399   1.176   1.468 -2.7521 -2.1556 -0.3469
  133ACOH    H4 9933   3.610   5.313   2.095  0.2999  0.3869 -2.1356
  133ACOH    O2 9934   3.589   5.408   2.101 -0.4952  0.1210 -0.2016
  133ACOH    C2 9935   3.459   5.417   2.058  0.2274  0.0871 -0.2674
  133ACOH    O1 9936   3.380   5.327   2.034 -0.2815 -0.0356 -0.0665
  133ACOH    C1 9937   3.416   5.557   2.039 -0.2767 -0.0407  0.1458
  133ACOH    H1 9938   3.396   5.576   1.933 -3.1286  1.1386  0.8368
  133ACOH    H2 9939   3.483   5.634   2.077 -0.2021  0.1699 -0.4095
  133ACOH    H3 9940   3.323   5.580   2.091  0.7842 -0.5716  2.3035
  134ACOH    H4 9941   2.997   2.247   2.025  4.6261 -1.6581  0.7865
  134ACOH    O2 9942   3.017   2.341   2.013 -0.0665 -0.6206  0.0582
  134ACOH    C2 9943   3.051   2.396   2.134 -0.6121 -0.4797  0.3570
  134ACOH    O1 9944   3.039   2.341   2.240 -0.6442  0.0070  0.3108
  134ACOH    C1 9945   3.139   2.514   2.117 -0.2030  0.5538 -0.6945
  134ACOH    H1 9946   3.243   2.482   2.118 -0.2572  0.3890 -0.3222
  134ACOH    H2 9947   3.120   2.572   2.207  1.3129  0.4033 -0.2661
  134ACOH    H3 9948   3.117   2.561   2.021  1.1430 -0.3565 -1.4622
  135ACOH    H4 9949   2.362   2.485   2.334  1.6309 -1.3897 -1.8026
  135ACOH    O2 9950   2.303   2.414   2.365  0.5658  0.3616  0.3610
  135ACOH    C2 9951   2.237   2.458   2.474  0.3317  0.0401  0.3358
  135ACOH    O1 9952   2.218   2.575   2.504  0.3720 -0.0365 -0.1854
  135ACOH    C1 9953   2.172   2.341   2.546 -0.5828 -0.2186  0.0187
  135ACOH    H1 9954   2.176   2.357   2.654 -0.4328  0.6216 -0.1066
  135ACOH    H2 9955   2.228   2.249   2.532  0.3445  0.2969  0.3239
  135ACOH    H3 9956   2.072   2.328   2.504 -0.6819 -3.1129  1.0356
  136ACOH    H4 9957   4.141   4.411   2.524  0.1185 -1.1434 -0.0369
  136ACOH    O2 9958   4.223   4.419   2.473  0.0540 -0.5973 -0.0505
  136ACOH    C2 9959   4.222   4.520   2.385  0.2617 -0.5403 -0.8538
  136ACOH    O1 9960   4.128   4.596   2.366  0.1494 -0.2743 -0.1434
  136ACOH    C1 9961   4.356   4.543   2.334 -0.9304  0.0870 -0.1586
  136ACOH    H1 9962   4.429   4.572   2.409  0.0677 -0.5145 -0.8804
  136ACOH    H2 9963   4.346   4.613   2.251  2.6669  0.2742 -0.5146
  136ACOH    H3 9964   4.389   4.449   2.291  0.5714 -0.3550  1.9050
  137ACOH    H4 9965   3.526   8.561   1.702 -2.2766 -0.5256  1.3137
  137ACOH    O2 9966   3.504   8.482   1.650 -0.4897  0.0050 -0.3091
  137ACOH    C2 9967   3.407   8.417   1.725 -0.0562 -0.0548 -0.0479
  137ACOH    O1 9968   3.359   8.449   1.832 -0.3905  0.0569  0.1897
  137ACOH    C1 9969   3.361   8.302   1.644 -0.4962  0.2288 -0.0114
  137ACOH    H1 9970   3.300   8.348   1.566  0.2081  0.6875 -0.2902
  137ACOH    H2 9971   3.296   8.226   1.689  0.2343 -0.8346 -0.7266
  137ACOH    H3 9972   3.448   8.254   1.600  0.3606  1.7679 -0.0310
  138ACOH    H4 9973   2.051   1.949   2.064 -0.9104  2.0954  0.4733
  138ACOH    O2 9974   2.038   1.986   1.975 -0.0814  0.0603 -0.5176
  138ACOH    C2 9975   2.072   2.109   1.976  0.4765 -0.5118 -0.0979
  138ACOH    O1 9976   2.157   2.155   2.051  0.2250  0.2324  0.0421
  138ACOH    C1 9977   1.979   2.200   1.901 -0.2868 -0.4737  0.2227
  138ACOH    H1 9978   1.903   2.138   1.855  0.2778 -1.4827  0.6348
  138ACOH    H2 9979   2.037   2.244   1.820  0.7849  0.0273  1.2427
  138ACOH    H3 9980   1.933   2.285   1.951  0.1874 -0.4384  0.6023
  139ACOH    H4 9981   3.993   9.189   1.111  0.3369 -1.4585  0.9130
  139ACOH    O2 9982   4.064   9.162   1.051  0.1414 -0.0835  0.0516
  139ACOH    C2 9983   4.143   9.080   1.123  0.7219  0.0982  0.1267
  139ACOH    O1 9984   4.122   9.037   1.234  0.3321  0.1625  0.1047
  139ACOH    C1 9985   4.275   9.066   1.061 -0.2697  0.3491  0.1009
  139ACOH    H1 9986   4.347   9.105   1.133 -0.0179  3.3050 -1.6189
  139ACOH    H2 9987   4.282   9.129   0.972  0.8909 -1.6307 -1.2301
  139ACOH    H3 9988   4.298   8.965   1.029 -1.6134  1.3169 -4.2391
  141ACOH    H4 9989   4.868   2.948   2.783 -0.1511 -0.2638  0.6942
  141ACOH    O2 9990   4.941   2.886   2.765 -0.2144 -0.1610  0.0703
  141ACOH    C2 9991   4.964   2.825   2.883 -1.2138 -0.6623  0.2559
  141ACOH    O1 9992   4.931   2.873   2.990 -0.2075  0.4406 -0.3404
  141ACOH    C1 9993   5.087   2.736   2.864  0.1079  0.6529  0.1828
  141ACOH    H1 9994   5.096   2.715   2.757 -0.9409 -3.9113  0.9044
  141ACOH    H2 9995   5.076   2.643   2.919 -0.7040  1.4375  1.3765
  141ACOH    H3 9996   5.170   2.790   2.909 -0.5385 -0.2561  2.5136
  144ACOH    H4 9997   4.700   3.934   2.280  0.7107 -1.2567  1.5723
  144ACOH    O2 9998   4.733   3.893   2.198 -0.5275 -0.4840  0.6684
  144ACOH    C2 9999   4.629   3.872   2.113 -0.0088  0.2825  0.1516
  144ACOH    O110000   4.513   3.871   2.144 -0.2856 -0.5631  0.7102
  144ACOH    C110001   4.673   3.832   1.976 -0.9158 -0.2137 -0.6063
  144ACOH    H110002   4.606   3.867   1.897  0.1141  0.5809 -1.1349
  144ACOH    H210003   4.668   3.723   1.978 -0.9168 -0.2031  1.4068
  144ACOH    H310004   4.775   3.866   1.962 -0.7662  0.1219  1.2297
  145ACOH    H410005   3.896   8.532   1.522  1.5818 -0.1654  0.1816
  145ACOH    O210006   3.872   8.440   1.543 -0.1184  0.2676  0.2460
  145ACOH    C210007   3.790   8.397   1.449 -0.1555 -0.2035  0.2916
  145ACOH    O110008   3.758   8.454   1.347 -0.3423 -0.0548  0.7616
  145ACOH    C110009   3.756   8.255   1.479  0.1725 -0.2983  0.6559
  145ACOH    H110010   3.717   8.216   1.385  2.7464  1.1569 -1.0731
  145ACOH    H210011   3.674   8.259   1.551  0.2022 -0.2447  0.6871
  145ACOH    H310012   3.848   8.201   1.506 -0.0827 -0.4735  1.1864
  146ACOH    H410013   2.813   5.042   1.490 -0.5949  0.2402 -0.9787
  146ACOH    O210014   2.741   5.096   1.526 -0.5638 -0.0004 -0.5467
  146ACOH    C210015   2.727   5.071   1.657 -0.8098 -0.0585  0.4060
  146ACOH    O110016   2.797   4.995   1.721 -0.0830  0.7242 -0.8368
  146ACOH    C110017   2.628   5.161   1.710  0.5608  0.1833 -0.0094
  146ACOH    H110018   2.647   5.264   1.679 -1.7211  0.5488 -0.2216
  146ACOH    H210019   2.627   5.150   1.818  2.0357  1.5597  0.1680
  146ACOH    H310020   2.530   5.133   1.672  0.7356  0.0405 -0.3576
  147ACOH    H410021   3.476   1.923   1.186 -0.0109  0.5425  2.0046
  147ACOH    O210022   3.394   1.973   1.174  0.0321  0.0916 -0.3734
  147ACOH    C210023   3.318   1.969   1.288 -0.9135 -0.0808  0.1457
  147ACOH    O110024   3.365   1.927   1.394  0.3374  0.1863  0.6975
  147ACOH    C110025   3.193   2.047   1.279  0.1693  0.3387 -0.2435
  147ACOH    H110026   3.130   2.003   1.202 -1.2232  1.0975  0.4462
  147ACOH    H210027   3.201   2.156   1.274  0.5408  0.2263 -2.6491
  147ACOH    H310028   3.138   2.025   1.371 -1.6847  3.4296 -0.5360
  148ACOH    H410029   3.427   5.568   1.039  0.6704  1.7167 -0.5934
  148ACOH    O210030   3.346   5.619   1.019 -0.6215 -0.0830 -0.0954
  148ACOH    C210031   3.292   5.583   0.903  0.0935  0.0539  0.2511
  148ACOH    O110032   3.333   5.505   0.822 -0.0124 -0.4875 -0.1679
  148ACOH    C110033   3.177   5.664   0.866  0.0313 -0.0357 -0.1485
  148ACOH    H110034   3.099   5.595   0.835  0.3031 -0.8674  1.0192
  148ACOH    H210035   3.207   5.729   0.784  0.8306  2.4187  2.0109
  148ACOH    H310036   3.154   5.726   0.953 -0.1024 -0.1273 -0.1193
  149ACOH    H410037   5.154   4.279   1.260  0.1880  0.7256  0.3073
  149ACOH    O210038   5.247   4.262   1.283  0.1721  0.4949  0.2039
  149ACOH    C210039   5.309   4.318   1.178  0.4562 -0.3005  0.2678
  149ACOH    O110040   5.256   4.373   1.085 -0.9153 -0.2696  0.0489
  149ACOH    C110041   5.458   4.326   1.189 -0.0282  0.9366 -0.1082
  149ACOH    H110042   5.484   4.428   1.215  0.5885  0.5396  0.8337
  149ACOH    H210043   5.498   4.294   1.093  1.2415  0.4951  0.5570
  149ACOH    H310044   5.499   4.269   1.272 -0.0094 -0.1802 -0.8631
  150ACOH    H410045   4.007   4.943   0.628 -0.6938  1.7983 -1.3224
  150ACOH    O210046   4.103   4.961   0.631 -0.4332  0.2701 -0.3934
  150ACOH    C210047   4.160   4.889   0.734 -0.4212 -0.8659 -0.6488
  150ACOH    O110048   4.103   4.802   0.799 -0.1783 -0.2539 -0.5448
  150ACOH    C110049   4.309   4.909   0.749  1.0885  0.0354  0.2251
  150ACOH    H110050   4.340   4.913   0.854  1.2884 -1.8654  0.2732
  150ACOH    H210051   4.321   5.006   0.701  0.1791  0.6723  1.2534
  150ACOH    H310052   4.363   4.833   0.692  1.1553  0.6082 -0.4741
  151ACOH    H410053   2.794   4.650   0.619 -0.0063 -0.5411  0.0826
  151ACOH    O210054   2.879   4.696   0.610  0.2209 -1.0003 -0.1230
  151ACOH    C210055   2.900   4.762   0.722 -0.0717  0.7063 -0.0643
  151ACOH    O110056   2.820   4.762   0.813  0.2604  0.5072 -0.3714
  151ACOH    C110057   3.007   4.863   0.715  0.0350  0.2941  0.6938
  151ACOH    H110058   2.951   4.953   0.738 -0.8052 -0.7250  2.7158
  151ACOH    H210059   3.050   4.874   0.616 -0.5849 -0.8315  0.2883
  151ACOH    H310060   3.083   4.849   0.792 -0.2249 -0.8567  0.7531
  152ACOH    H410061   3.564   2.399   1.915  0.9747 -0.7796  0.1105
  152ACOH    O210062   3.534   2.307   1.917 -0.0497 -0.4500  0.0152
  152ACOH    C210063   3.470   2.286   2.034  0.1845 -0.1046  0.4644
  152ACOH    O110064   3.482   2.354   2.135 -0.5056  0.2573  0.0896
  152ACOH    C110065   3.390   2.161   2.045  0.0205  0.2828  0.3727
  152ACOH    H110066   3.355   2.119   1.951  1.5179  1.5162 -0.7608
  152ACOH    H210067   3.300   2.183   2.101  0.4738  0.6217  0.9665
  152ACOH    H310068   3.448   2.083   2.094 -0.2919 -0.8764 -1.0379
  153ACOH    H410069   4.743   2.116   1.527  1.5969  0.4024  1.2878
  153ACOH    O210070   4.800   2.059   1.472  0.4806  0.1992  0.3205
  153ACOH    C210071   4.886   2.137   1.403  0.5300  0.3777 -1.1636
  153ACOH    O110072   4.878   2.258   1.393  0.4796  0.0906  0.5221
  153ACOH    C110073   4.994   2.063   1.328  0.1817 -0.4124  0.6342
  153ACOH    H110074   4.980   2.086   1.222 -1.6006 -0.3959  0.8674
  153ACOH    H210075   4.987   1.955   1.341 -0.7772 -0.6245 -1.4028
  153ACOH    H310076   5.094   2.096   1.357 -0.3914  0.4061  1.7112
  154ACOH    H410077   3.607   2.645   2.381 -0.1134  1.1566  1.1757
  154ACOH    O210078   3.538   2.585   2.413  0.2727 -0.0076 -0.1281
  154ACOH    C210079   3.423   2.599   2.355  0.1839 -0.2389 -0.0577
  154ACOH    O110080   3.391   2.674   2.268  0.3357  0.2863 -0.3584
  154ACOH    C110081   3.321   2.522   2.431 -0.7877  0.1384  0.1570
  154ACOH    H110082   3.333   2.419   2.397  0.9230  0.3522  0.0554
  154ACOH    H210083   3.218   2.554   2.421 -1.4214 -1.8441  0.1594
  154ACOH    H310084   3.344   2.524   2.538  1.8430 -2.0565 -0.2872
  155ACOH    H410085   2.922   5.525   2.078  0.2289 -0.1880 -0.3947
  155ACOH    O210086   2.930   5.567   1.991  0.1320 -0.6939 -0.6521
  155ACOH    C210087   2.840   5.524   1.897  0.1395 -0.8587  0.2672
  155ACOH    O110088   2.834   5.551   1.778 -0.5950 -0.3052  0.2529
  155ACOH    C110089   2.735   5.440   1.967  0.1428 -0.6262 -0.6455
  155ACOH    H110090   2.663   5.514   2.001  1.2985  0.5863 -0.7770
  155ACOH    H210091   2.776   5.384   2.052 -3.5106 -1.4726  0.6423
  155ACOH    H310092   2.694   5.358   1.909 -0.0145 -1.1148  0.1430
  157ACOH    H410093   4.877   2.176   0.842  0.2751  0.1404  1.8295
  157ACOH    O210094   4.921   2.097   0.877  0.2423 -0.5399  0.3875
  157ACOH    C210095   4.821   2.014   0.928  0.3797  0.6139  0.4447
  157ACOH    O110096   4.710   2.029   0.900  0.3333  0.2137  0.6216
  157ACOH    C110097   4.880   1.915   1.017  1.0503 -0.0512  0.8660
  157ACOH    H110098   4.888   1.827   0.954 -0.0026  0.2103  0.3500
  157ACOH    H210099   4.813   1.884   1.097  0.0291 -0.1930 -0.0233
  157ACOH    H310100   4.972   1.948   1.065 -0.0823  2.2781  1.5461
  159ACOH    H410101   2.729   5.117   0.589  2.5103 -0.4976  1.9889
  159ACOH    O210102   2.697   5.027   0.606  0.6366 -0.3286 -0.4160
  159ACOH    C210103   2.680   4.957   0.493  0.0856 -0.5179  0.4231
  159ACOH    O110104   2.698   5.000   0.383 -0.6135 -0.5507 -0.3531
  159ACOH    C110105   2.625   4.819   0.507 -0.1331 -0.2736 -0.0860
  159ACOH    H110106   2.625   4.780   0.609 -2.0842 -2.3115 -0.8284
  159ACOH    H210107   2.693   4.754   0.451  0.8447 -0.0789  0.8437
  159ACOH    H310108   2.522   4.816   0.473 -0.0696  2.0768 -0.5670
  160ACOH    H410109   4.307   4.527   1.614 -2.0313 -0.8776 -1.9208
  160ACOH    O210110   4.296   4.622   1.594 -0.1190 -0.1185  0.3485
  160ACOH    C210111   4.368   4.649   1.486  0.0827  0.0760 -0.3960
  160ACOH    O110112   4.455   4.588   1.439 -0.0242  0.1732 -0.2090
  160ACOH    C110113   4.332   4.783   1.435 -0.3324  0.9934  0.8537
  160ACOH    H110114   4.415   4.824   1.377  1.4356 -2.0224  1.1529
  160ACOH    H210115   4.306   4.849   1.517  0.6852 -0.7970  2.6585
  160ACOH    H310116   4.243   4.774   1.372 -1.0980  0.7018  1.9798
  161ACOH    H410117   3.457   4.448   1.424 -1.4331 -1.4881 -1.2915
  161ACOH    O210118   3.498   4.361   1.435  0.5452 -0.4328 -0.1135
  161ACOH    C210119   3.404   4.284   1.481 -0.4678  0.1833 -0.2721
  161ACOH    O110120   3.312   4.318   1.557 -0.7226 -0.2610  0.3601
  161ACOH    C110121   3.441   4.146   1.454 -0.2780  0.1144  0.8032
  161ACOH    H110122   3.452   4.093   1.548  0.2731  0.0932  0.7277
  161ACOH    H210123   3.537   4.140   1.402 -0.3308 -1.4566  0.8486
  161ACOH    H310124   3.364   4.094   1.397 -0.0327 -0.3385  0.8747
  162ACOH    H410125   3.406   9.132   0.362 -1.0230 -1.5665  1.1510
  162ACOH    O210126   3.479   9.116   0.423  0.2161  0.4802  0.2573
  162ACOH    C210127   3.475   8.978   0.419 -0.1676 -0.5717  0.0150
  162ACOH    O110128   3.377   8.908   0.405 -0.3006  0.3091 -0.2052
  162ACOH    C110129   3.604   8.935   0.478  0.7078  0.7907  0.4589
  162ACOH    H110130   3.689   8.965   0.417 -0.0393 -1.1143 -1.5915
  162ACOH    H210131   3.603   8.827   0.493 -0.6237  0.7680  0.2259
  162ACOH    H310132   3.608   8.981   0.577 -3.9531 -0.4894  1.3985
  163SOL     OW10133   3.845   0.490   2.123  0.6422 -0.3189 -0.3439
  163SOL    HW110134   3.747   0.510   2.128  0.4388 -0.6789 -2.5565
  163SOL    HW210135   3.884   0.532   2.042  2.5062  0.4279  0.9041
  164SOL     OW10136   3.164   5.196   1.874  0.2475  0.6425  0.6285
  164SOL    HW110137   3.228   5.219   1.947  1.1285 -2.1674  0.8374
  164SOL    HW210138   3.072   5.190   1.910  0.1996  2.4059  0.8233
  165SOL     OW10139   3.074   4.632   1.026  0.7976  0.3783  0.1066
  165SOL    HW110140   2.976   4.656   1.027  0.5501 -0.3372 -2.7130
  165SOL    HW210141   3.091   4.559   1.092 -0.7052  0.0064  0.1040
  166SOL     OW10142   3.943   9.274   0.778  0.3057  0.2364 -0.4057
  166SOL    HW110143   3.892   9.188   0.785  0.0634  0.5015  1.1678
  166SOL    HW210144   4.029   9.266   0.827 -0.4686  1.4377  1.1865
  167SOL     OW10145   3.873   3.014   1.420 -0.4449 -0.2736  0.0135
  167SOL    HW110146   3.868   3.036   1.322  1.7327  0.1166 -0.0325
  167SOL    HW210147   3.881   2.915   1.431 -0.7034 -0.3203 -0.2058
  168SOL     OW10148   2.171  10.129   0.749  0.1181 -0.4200  0.1600
  168SOL    HW110149   2.254  10.186   0.757 -0.3258  0.2307  0.1996
  168SOL    HW210150   2.171  10.061   0.821  0.1422  0.2086  0.7638
  169SOL     OW10151   3.381   3.554   0.400  0.5771 -0.3592 -0.5992
  169SOL    HW110152   3.380   3.479   0.466  0.9375  1.3081  1.3746
  169SOL    HW210153   3.412   3.520   0.311  1.8247 -2.3163  0.5374
  170SOL     OW10154   3.229   1.814   2.231  0.1618  0.4152 -0.1753
  170SOL    HW110155   3.204   1.908   2.257 -2.8443  0.1645 -1.9139
  170SOL    HW210156   3.236   1.808   2.132  0.7024 -1.1268 -0.0500
  171SOL     OW10157   2.896   1.816   2.319  0.2588 -0.0547  0.6241
  171SOL    HW110158   2.917   1.909   2.348 -0.9306  0.3187  0.3246
  171SOL    HW210159   2.904   1.754   2.397  2.3588  0.0668  0.5371
  172SOL     OW10160   3.497   3.027   2.047 -0.2882 -0.9232  0.3534
  172SOL    HW110161   3.417   2.985   2.005  1.3417 -2.6743 -1.1383
  172SOL    HW210162   3.469   3.083   2.125 -3.0603 -0.3931 -0.9573
  173SOL     OW10163   2.477   1.036   1.843 -0.6597 -0.2203  0.3075
  173SOL    HW110164   2.570   1.042   1.809 -0.5929  1.0745  0.7030
  173SOL    HW210165   2.413   1.065   1.771 -0.9623 -3.4234 -0.8210
  174SOL     OW10166   4.093   2.707   1.265 -0.2330 -0.0715 -0.2433
  174SOL    HW110167   4.144   2.743   1.187  0.0263  0.2031  0.0533
  174SOL    HW210168   4.129   2.746   1.350 -1.0420  0.2558 -0.0427
  175SOL     OW10169   3.883   1.553   1.750 -0.0920 -0.7370  0.0585
  175SOL    HW110170   3.894   1.619   1.676 -1.5178 -0.1702  0.3367
  175SOL    HW210171   3.792   1.563   1.790 -0.2289 -2.7136  0.2670
  176SOL     OW10172   3.240   3.404   2.291  0.4082  0.0457  0.2573
  176SOL    HW110173   3.279   3.476   2.349  1.2263 -1.6418  1.8638
  176SOL    HW210174   3.304   3.327   2.287 -0.2209 -0.3976 -1.8662
  178SOL     OW10175   4.633   3.561   1.695  0.0065 -0.2055 -0.2629
  178SOL    HW110176   4.701   3.635   1.699  0.1422 -0.2864 -1.0124
  178SOL    HW210177   4.560   3.587   1.633 -0.1985 -0.4994 -0.1427
  179SOL     OW10178   4.070   2.569   1.874  0.1774 -0.2210  0.2983
  179SOL    HW110179   4.082   2.508   1.952 -0.1148 -1.3861 -0.5468
  179SOL    HW210180   4.144   2.552   1.808  0.3572  0.6724  0.2672
  180SOL     OW10181   2.581   0.595   1.896 -0.4102  0.0292 -0.1465
  180SOL    HW110182   2.546   0.664   1.959 -0.9169  0.4050 -0.8404
  180SOL    HW210183   2.521   0.515   1.897 -0.1279 -0.1793  0.2406
  183SOL     OW10184   2.402   9.128   0.818  0.0655 -0.3026  0.3252
  183SOL    HW110185   2.372   9.202   0.758 -0.1941  0.4342  1.3560
  183SOL    HW210186   2.499   9.142   0.842  0.3258 -0.8980 -0.3647
  184SOL     OW10187   3.433   5.193   0.762  0.2415  0.0462 -0.3594
  184SOL    HW110188   3.453   5.160   0.670 -2.0594 -1.4374 -0.3834
  184SOL    HW210189   3.414   5.291   0.759 -1.1972 -0.2521 -1.7323
  185SOL     OW10190   2.740   1.146   1.850 -0.0648 -0.0798  0.1232
  185SOL    HW110191   2.819   1.098   1.887  1.1770 -0.2121 -2.6393
  185SOL    HW210192   2.718   1.225   1.909  2.7080  0.5187  0.3938
  187SOL     OW10193   4.077   1.398   0.498 -0.2637  0.2930 -0.3408
  187SOL    HW110194   4.063   1.493   0.469  1.2191 -0.0260 -2.2079
  187SOL    HW210195   4.175   1.376   0.492 -0.4880 -1.0860  0.9360
  189SOL     OW10196   3.343   1.123   0.668 -0.2989  0.4101  0.7024
  189SOL    HW110197   3.267   1.187   0.657 -1.0279 -0.7983 -1.5429
  189SOL    HW210198   3.320   1.055   0.737 -1.5251 -0.3402 -0.4418
  190SOL     OW10199   2.269   1.668   2.052 -0.0710 -0.1088 -0.1918
  190SOL    HW110200   2.357   1.635   2.085  0.1290  1.4309  0.8804
  190SOL    HW210201   2.198   1.651   2.120 -0.1650  0.6807 -0.0871
  191SOL     OW10202   4.244   4.066   0.249 -0.3247  0.2772  0.1517
  191SOL    HW110203   4.236   4.138   0.318 -0.3110  1.5229 -1.1060
  191SOL    HW210204   4.188   3.988   0.276 -1.0410  1.1027  1.1233
  192SOL     OW10205   2.598   1.826   1.663 -0.1667 -0.2414  0.3078
  192SOL    HW110206   2.641   1.842   1.574 -0.3984  0.4011  0.3067
  192SOL    HW210207   2.668   1.822   1.734  0.0510 -1.1380  0.0446
  193SOL     OW10208   4.612   3.380   1.098 -0.0048 -0.5051  0.7696
  193SOL    HW110209   4.575   3.414   1.012 -2.4591 -0.7003  1.7117
  193SOL    HW210210   4.624   3.456   1.162  4.9555  0.1706 -0.7659
  195SOL     OW10211   4.196   2.836   0.322  0.1518 -0.1056  0.1602
  195SOL    HW110212   4.232   2.756   0.274  0.3438 -0.6055  1.1265
  195SOL    HW210213   4.109   2.862   0.280  0.8524  0.1504 -1.1662
  196SOL     OW10214   5.222   3.098   1.856 -0.0996 -0.0884 -0.1794
  196SOL    HW110215   5.147   3.150   1.898  0.8838  1.1939  0.0196
  196SOL    HW210216   5.270   3.156   1.790  0.3207 -1.1143 -0.7926
  197SOL     OW10217   2.370   2.166   0.650  0.2020  0.2047 -0.3040
  197SOL    HW110218   2.383   2.070   0.625  0.9264  0.4696 -0.9403
  197SOL    HW210219   2.278   2.195   0.624 -0.2179 -0.4733  0.3993
  198SOL     OW10220   3.128   2.545   1.179 -0.2144 -0.3382 -0.4983
  198SOL    HW110221   3.220   2.543   1.220 -0.3944  0.8766 -0.0191
  198SOL    HW210222   3.081   2.628   1.207 -1.5236 -1.0254 -0.6427
  199SOL     OW10223   2.310   2.843   2.345 -0.0359 -0.0982  0.1323
  199SOL    HW110224   2.263   2.761   2.376 -0.6943 -0.0197 -0.6362
  199SOL    HW210225   2.273   2.871   2.256  0.4245  0.8269  0.2268
  203SOL     OW10226   2.597   0.298   1.460 -0.0116 -0.3976  0.0122
  203SOL    HW110227   2.689   0.333   1.439 -0.2354 -0.4267 -1.0432
  203SOL    HW210228   2.604   0.201   1.486  0.2308 -0.4693 -0.3130
  204SOL     OW10229   3.968   3.560   0.564 -0.4876  0.3008 -0.0772
  204SOL    HW110230   4.056   3.545   0.518 -1.0399 -0.1483 -1.0199
  204SOL    HW210231   3.920   3.636   0.520  0.7502  2.6262  2.4176
  205SOL     OW10232   2.689   0.842   0.876  0.2294  0.4491  0.3004
  205SOL    HW110233   2.680   0.824   0.974 -0.3782  1.5197  0.4437
  205SOL    HW210234   2.600   0.830   0.831  1.0169 -2.5919 -0.5666
  206SOL     OW10235   2.642   4.388   1.324  0.4954 -0.5587 -0.8357
  206SOL    HW110236   2.606   4.471   1.282 -0.5254  0.2492  1.5531
  206SOL    HW210237   2.734   4.405   1.358 -0.0518 -0.1283  0.4435
  207SOL     OW10238   3.555   3.057   1.380 -0.5793 -0.3647 -0.5080
  207SOL    HW110239   3.576   3.154   1.377  2.5462 -1.0161 -1.1243
  207SOL    HW210240   3.549   3.027   1.475 -1.4483  0.4080 -0.3207
  208SOL     OW10241   2.821   4.191   1.690  0.2210  0.0674 -0.2859
  208SOL    HW110242   2.732   4.218   1.725  1.1860 -0.3436  2.6389
  208SOL    HW210243   2.816   4.097   1.655 -0.3509 -0.2072  0.5033
  209SOL     OW10244   4.907   2.558   0.982 -0.1011  0.3506  0.0005
  209SOL    HW110245   5.004   2.534   0.984 -0.1346  0.1811 -0.3324
  209SOL    HW210246   4.879   2.590   1.072  0.2242  0.2383  0.1445
  210SOL     OW10247   2.470   1.345   1.075  0.4689  0.1217  0.3932
  210SOL    HW110248   2.503   1.367   0.984 -1.6211  0.6438 -0.2729
  210SOL    HW210249   2.518   1.401   1.143  0.7674  1.0343 -0.5610
  211SOL     OW10250   2.527   3.449   1.593 -0.2858 -0.1717  0.2273
  211SOL    HW110251   2.608   3.394   1.572  1.1426  0.8833  2.6841
  211SOL    HW210252   2.520   3.525   1.528  1.2136  0.2260  0.5124
  212SOL     OW10253   3.589   9.545   1.684  0.5255 -0.6670  0.1843
  212SOL    HW110254   3.647   9.479   1.638 -0.5453  0.3679 -2.7868
  212SOL    HW210255   3.631   9.635   1.680 -0.0080 -0.4032  0.3904
  213SOL     OW10256   3.300   9.855   2.230 -0.2190  0.0502  0.4940
  213SOL    HW110257   3.242   9.918   2.282 -0.2359 -0.9466  1.7202
  213SOL    HW210258   3.367   9.813   2.292 -0.1856 -1.0970 -0.3078
  214SOL     OW10259   3.985   1.360   0.750 -0.5113  0.1751 -0.0945
  214SOL    HW110260   4.006   1.450   0.788  2.3482 -0.2123 -0.6419
  214SOL    HW210261   4.040   1.345   0.668  0.5149 -2.8367  1.0852
  217SOL     OW10262   3.949   3.922   1.852  0.5958  0.2754 -0.0779
  217SOL    HW110263   3.915   3.950   1.942  0.3027 -0.6137  0.0926
  217SOL    HW210264   3.875   3.878   1.801  0.8775  0.3949 -0.5887
  219SOL     OW10265   2.979   1.772   0.516  0.0724  0.2603 -0.2633
  219SOL    HW110266   2.961   1.762   0.614  0.9307  1.9981  0.0909
  219SOL    HW210267   2.985   1.869   0.493 -1.2310 -0.0985 -2.2582
  222SOL     OW10268   3.841   2.730   1.853 -0.2863  0.6307 -0.1733
  222SOL    HW110269   3.914   2.666   1.877 -1.6250 -0.7518  0.3094
  222SOL    HW210270   3.827   2.795   1.928 -0.0722  0.4208  0.0490
  223SOL     OW10271   3.186   9.862   0.843 -0.4039 -0.1379  0.0326
  223SOL    HW110272   3.113   9.800   0.874 -1.0487  1.5376  1.9611
  223SOL    HW210273   3.173   9.952   0.883  1.6526  0.7407 -1.1718
  224SOL     OW10274   2.929   2.084   2.049 -0.0531  0.4348 -0.0804
  224SOL    HW110275   2.835   2.101   2.077  0.2103  0.0599  1.0573
  224SOL    HW210276   2.935   1.996   2.002 -0.4811  1.0265 -1.2637
  225SOL     OW10277   3.358   2.664   1.301  0.1872  0.3056  0.6526
  225SOL    HW110278   3.398   2.753   1.280  0.7231 -0.4253 -1.5785
  225SOL    HW210279   3.416   2.616   1.366  0.2260  1.3187  1.3799
  226SOL     OW10280   2.959   4.461   2.192  0.6426 -0.1475  0.3777
  226SOL    HW110281   3.016   4.389   2.153 -0.5774 -0.9665  0.1020
  226SOL    HW210282   2.939   4.440   2.287 -1.2930 -1.1582 -0.2322
  227SOL     OW10283   2.178   1.262   0.546  0.0579  0.1502 -0.2422
  227SOL    HW110284   2.268   1.306   0.555 -0.2781  0.5909  1.1379
  227SOL    HW210285   2.146   1.270   0.451  0.2688  2.3861 -0.1533
  228SOL     OW10286   3.442   8.670   2.096 -0.1535 -0.2293 -0.2799
  228SOL    HW110287   3.404   8.583   2.066 -2.9854  0.5904  0.7708
  228SOL    HW210288   3.407   8.693   2.187  0.9694  1.7394 -0.3068
  229SOL     OW10289   3.537   5.254   1.593  0.1847  0.3194 -0.5579
  229SOL    HW110290   3.464   5.306   1.635  1.4069  0.0321  2.0219
  229SOL    HW210291   3.624   5.277   1.637  1.2257 -1.3986 -1.6577
  231SOL     OW10292   3.509   0.908   1.267  0.4724  0.2140 -0.3577
  231SOL    HW110293   3.529   0.905   1.169 -0.0075 -1.3443 -0.4230
  231SOL    HW210294   3.553   0.988   1.308  0.8643  0.7486 -1.8014
  232SOL     OW10295   2.225  10.177   2.085 -0.1582 -0.3826 -0.0449
  232SOL    HW110296   2.278  10.262   2.084  0.2607 -0.6050  1.6754
  232SOL    HW210297   2.198  10.155   2.179 -2.3002 -0.9077 -0.7437
  233SOL     OW10298   4.565   1.891   1.413 -0.1837 -0.1831 -0.1930
  233SOL    HW110299   4.656   1.931   1.399  0.0003 -0.1939  0.8948
  233SOL    HW210300   4.574   1.792   1.424 -0.2953 -0.1485  0.2048
  235SOL     OW10301   3.505   9.098   1.717 -0.8668  0.2208  0.2806
  235SOL    HW110302   3.479   9.128   1.626  1.7499  0.1383 -0.5238
  235SOL    HW210303   3.561   9.168   1.761 -1.6487  0.0273  1.6058
  237SOL     OW10304   2.294   0.272   1.059  0.8665  0.8910  0.3388
  237SOL    HW110305   2.370   0.232   1.110  0.9243  1.1565  0.4587
  237SOL    HW210306   2.321   0.361   1.023  1.1587  0.2982 -0.9677
  239SOL     OW10307   2.693  10.119   0.992  0.1929  0.4345 -0.4400
  239SOL    HW110308   2.752  10.090   1.067 -0.0241  0.7794 -0.1392
  239SOL    HW210309   2.653  10.038   0.948 -0.0375  0.2593  0.0949
  242SOL     OW10310   2.329   1.093   1.623  0.3750 -0.1021  0.0964
  242SOL    HW110311   2.266   1.170   1.609  1.4093  0.6534 -0.4709
  242SOL    HW210312   2.361   1.060   1.535 -0.9389 -1.9577  0.2689
  243SOL     OW10313   3.263   4.038   1.695  0.2307 -0.0574 -0.1953
  243SOL    HW110314   3.299   3.949   1.666 -0.0708 -0.9153  1.9426
  243SOL    HW210315   3.335   4.092   1.738 -0.2306 -0.4821  1.1643
  245SOL     OW10316   3.192   3.434   0.944  0.0223  0.3551 -0.3464
  245SOL    HW110317   3.112   3.397   0.896 -0.8111 -2.0911  2.7393
  245SOL    HW210318   3.275   3.393   0.907 -0.6250 -1.7506  0.4843
  246SOL     OW10319   2.449   2.617   2.010  0.1791 -0.2689 -0.0392
  246SOL    HW110320   2.398   2.703   2.015  1.0649  0.1925  1.4897
  246SOL    HW210321   2.416   2.564   1.932 -0.3430  1.4673 -1.0491
  247SOL     OW10322   4.516   3.528   0.863  0.2517  0.3497  0.0639
  247SOL    HW110323   4.491   3.624   0.875 -0.8778  0.1855 -0.9454
  247SOL    HW210324   4.449   3.483   0.805  0.4759 -1.1962  0.9788
  249SOL     OW10325   3.206   0.321   1.224 -0.2106  0.0105 -0.3398
  249SOL    HW110326   3.191   0.224   1.207 -0.5421 -0.2325  1.3268
  249SOL    HW210327   3.256   0.333   1.310 -0.5404  1.3321 -0.3194
  250SOL     OW10328   3.535   8.864   1.910  0.4856 -0.2230 -0.3188
  250SOL    HW110329   3.529   8.963   1.923 -1.6368 -0.3305 -0.3506
  250SOL    HW210330   3.495   8.817   1.988 -1.9837 -0.9881 -1.9816
  251SOL     OW10331   2.651   1.818   2.186 -0.1226 -0.0252 -0.3994
  251SOL    HW110332   2.570   1.760   2.192 -0.5790  0.7240  1.1814
  251SOL    HW210333   2.727   1.774   2.233 -0.1810  0.1663 -0.1205
  252SOL     OW10334   3.957   1.167   1.052 -0.4228 -0.5942  0.4116
  252SOL    HW110335   3.903   1.165   0.968  0.1042  0.2369  0.0426
  252SOL    HW210336   3.986   1.261   1.071 -0.3930 -0.8008  1.4280
  253SOL     OW10337   2.072   0.854   0.449 -0.1620 -0.1027  0.3190
  253SOL    HW110338   1.975   0.869   0.427  0.0563 -2.6711 -2.8951
  253SOL    HW210339   2.113   0.794   0.379  3.3317 -0.4693  2.5463
  254SOL     OW10340   2.545   2.335   2.066  1.0299  1.2809 -0.2556
  254SOL    HW110341   2.458   2.334   2.015  0.8394 -0.0054  0.0543
  254SOL    HW210342   2.602   2.411   2.035  0.7993  0.6750 -2.2055
  255SOL     OW10343   2.223   0.716   0.255  0.4503  0.6028 -0.5869
  255SOL    HW110344   2.276   0.799   0.235  0.0974  0.4722 -2.1201
  255SOL    HW210345   2.284   0.645   0.289  0.6196  1.7780  1.7015
  256SOL     OW10346   2.969   9.659   1.372  0.0728  0.4248  0.2613
  256SOL    HW110347   3.008   9.598   1.303 -0.2488 -0.3937  0.8004
  256SOL    HW210348   3.043   9.707   1.419  0.3096  0.7240 -0.4072
  257SOL     OW10349   2.974   1.829   1.138  0.1073 -0.0353  0.2426
  257SOL    HW110350   2.911   1.892   1.093  1.2130  1.2299  0.4152
  257SOL    HW210351   2.945   1.817   1.234 -0.3834 -0.1906  0.0800
  258SOL     OW10352   2.786   0.528   2.114  0.0988 -0.7876 -0.5039
  258SOL    HW110353   2.698   0.569   2.090  0.7213  1.0443  0.2295
  258SOL    HW210354   2.774   0.430   2.131 -2.3610 -0.0363  2.4496
  260SOL     OW10355   3.226   3.804   0.502  0.6042  0.8322 -0.3448
  260SOL    HW110356   3.268   3.714   0.492 -0.1720  0.0952  2.4647
  260SOL    HW210357   3.288   3.863   0.554  0.0967  1.1338 -0.0777
  261SOL     OW10358   2.319   0.723   2.284 -0.9048 -0.0102  0.3955
  261SOL    HW110359   2.344   0.801   2.342 -0.5406  0.2461 -0.1067
  261SOL    HW210360   2.245   0.672   2.328 -1.0148  0.5063  0.8176
  262SOL     OW10361   3.663   0.285   0.768  0.6305  0.2882 -0.3050
  262SOL    HW110362   3.600   0.362   0.781 -0.1338 -0.6725  1.7383
  262SOL    HW210363   3.757   0.319   0.771  0.2630  1.7118 -3.2582
  263SOL     OW10364   3.611   3.521   0.751 -0.1654 -0.2904  0.1008
  263SOL    HW110365   3.562   3.606   0.771 -0.4489 -0.5753  0.6263
  263SOL    HW210366   3.710   3.537   0.760 -0.2478 -0.1839  0.8351
  265SOL     OW10367   3.293   1.989   1.704 -0.5441 -0.3946 -0.2848
  265SOL    HW110368   3.313   2.087   1.699 -0.7823 -0.2168  1.7495
  265SOL    HW210369   3.281   1.953   1.612 -0.6517  1.5279 -1.0528
  266SOL     OW10370   2.443   8.890   1.027  0.4575  0.5318  0.1715
  266SOL    HW110371   2.380   8.921   0.956  0.0417 -0.1011  0.2535
  266SOL    HW210372   2.403   8.908   1.117 -0.1597 -0.9533  0.2155
  267SOL     OW10373   3.456   4.858   1.734  0.2400  0.4109  0.0465
  267SOL    HW110374   3.461   4.765   1.696 -0.6312  0.4428 -0.1487
  267SOL    HW210375   3.514   4.919   1.680 -0.7247  0.3837 -1.0412
  268SOL     OW10376   2.950   1.733   1.777 -0.4854  0.2528 -0.0109
  268SOL    HW110377   2.942   1.775   1.868 -0.3847 -0.3311  0.2767
  268SOL    HW210378   2.885   1.657   1.770  0.4491 -0.5725  0.0810
  269SOL     OW10379   2.828   3.985   2.077  0.2800 -0.5019  0.6441
  269SOL    HW110380   2.823   3.895   2.120  0.9224 -0.7915  0.1080
  269SOL    HW210381   2.778   3.984   1.991  1.6715 -0.8156 -0.1767
  270SOL     OW10382   4.223   3.514   0.468 -0.1119 -0.0443  0.2433
  270SOL    HW110383   4.255   3.451   0.539 -0.0790 -0.4539 -0.1280
  270SOL    HW210384   4.242   3.608   0.495  1.7383 -0.2938 -0.1339
  271SOL     OW10385   2.879   1.712   0.785 -0.2314 -0.3247  0.1027
  271SOL    HW110386   2.941   1.643   0.823 -1.4494 -0.2216  2.3111
  271SOL    HW210387   2.877   1.792   0.844 -0.3670  0.8104 -1.4127
  274SOL     OW10388   2.190   2.690   1.813  0.3742  0.1831 -0.1945
  274SOL    HW110389   2.131   2.620   1.773  1.3012 -0.3618 -0.6429
  274SOL    HW210390   2.147   2.780   1.804 -0.1940 -0.1581 -0.8862
  275SOL     OW10391   3.035   4.232   2.030  0.3848 -0.3574  0.2796
  275SOL    HW110392   3.068   4.263   1.940  1.8476 -0.6741  0.6820
  275SOL    HW210393   2.956   4.172   2.018 -0.8559  1.4100 -0.6562
  276SOL     OW10394   2.381   4.099   0.556  0.1588 -0.1212 -0.4201
  276SOL    HW110395   2.445   4.162   0.513 -0.3164 -0.0463 -1.0103
  276SOL    HW210396   2.385   4.011   0.509  0.7838 -0.5249  0.3678
  277SOL     OW10397   2.430   9.866   1.959 -0.7985  0.1550 -0.1502
  277SOL    HW110398   2.505   9.909   1.909 -1.7451  1.6540 -0.3040
  277SOL    HW210399   2.448   9.872   2.057  0.3519 -1.5008 -0.2268
  278SOL     OW10400   3.513   8.615   1.340  0.5617 -0.3468 -0.0389
  278SOL    HW110401   3.603   8.571   1.344  0.1734 -1.3792 -1.8789
  278SOL    HW210402   3.446   8.550   1.306 -0.4676  1.0291 -0.6973
  279SOL     OW10403   2.763   1.904   1.916 -0.6260  0.6196 -0.3519
  279SOL    HW110404   2.725   1.870   2.002 -0.9926  0.0076 -0.7544
  279SOL    HW210405   2.739   2.000   1.905 -0.0486  0.8735  0.5267
  280SOL     OW10406   2.827   0.250   1.946 -0.3098  0.0128 -0.0350
  280SOL    HW110407   2.729   0.249   1.926  0.0677 -2.0478 -1.9769
  280SOL    HW210408   2.869   0.329   1.903 -0.2406 -2.0500 -3.9663
  281SOL     OW10409   4.092   4.173   1.514 -0.3601  0.0472 -0.4283
  281SOL    HW110410   4.114   4.077   1.533 -0.9660  0.4060  2.1691
  281SOL    HW210411   4.133   4.199   1.426  1.3940 -2.0260 -0.2747
  282SOL     OW10412   2.476   2.785   1.518  0.1739 -0.0667 -0.3456
  282SOL    HW110413   2.391   2.735   1.503 -1.4391  1.5407  3.0675
  282SOL    HW210414   2.535   2.734   1.579  0.3652  0.2331 -0.2780
  283SOL     OW10415   2.413   2.615   1.090  0.4696 -0.4811 -0.0328
  283SOL    HW110416   2.465   2.692   1.054  3.0487 -2.0516  0.1523
  283SOL    HW210417   2.355   2.577   1.018  0.7183  0.3680 -0.6858
  284SOL     OW10418   2.118   2.551   0.260 -0.5210 -0.8378  0.0443
  284SOL    HW110419   2.179   2.474   0.238  1.8153  0.6316  1.1174
  284SOL    HW210420   2.095   2.600   0.176  1.9771  0.1386 -0.1176
  285SOL     OW10421   2.753   2.510   1.980  0.0017 -0.8214 -0.5678
  285SOL    HW110422   2.773   2.536   2.075  0.7411  2.1510 -1.4819
  285SOL    HW210423   2.828   2.539   1.921 -0.8101 -1.9429 -2.1931
  287SOL     OW10424   2.187   3.559   1.439 -0.0847 -0.1097  0.7408
  287SOL    HW110425   2.280   3.579   1.407 -0.3681  1.6974  0.9548
  287SOL    HW210426   2.192   3.524   1.533  0.5040 -2.0108  0.0200
  288SOL     OW10427   3.923   2.125   1.291  0.0749  0.3452  0.0900
  288SOL    HW110428   3.970   2.037   1.281 -0.7161 -0.0121 -0.5357
  288SOL    HW210429   3.922   2.173   1.204  0.7788  1.1276  0.5038
  289SOL     OW10430   2.394  10.133   1.702  0.1893 -0.2199  0.1910
  289SOL    HW110431   2.337  10.081   1.766 -0.1489 -0.7545 -0.5356
  289SOL    HW210432   2.346  10.217   1.676  1.1180  0.9348  2.0642
  292SOL     OW10433   3.033  10.147   0.859  0.3889  0.0789 -0.1877
  292SOL    HW110434   3.000  10.105   0.943 -0.3688  1.5872  0.3004
  292SOL    HW210435   3.114  10.203   0.879  0.9003 -0.4914 -0.6691
  293SOL     OW10436   4.481   2.682   2.293 -0.4595 -0.0675  0.3498
  293SOL    HW110437   4.561   2.737   2.266 -0.5771  0.5294  1.1841
  293SOL    HW210438   4.399   2.718   2.249  0.0203 -2.0153 -2.2445
  294SOL     OW10439   3.791   3.076   1.170 -0.2863  0.0535  0.0084
  294SOL    HW110440   3.712   3.114   1.218 -0.3747  1.3939 -1.1533
  294SOL    HW210441   3.794   3.113   1.077  1.6802  0.0021  0.0296
  295SOL     OW10442   3.731   1.071   1.319  0.2236  0.4697 -0.3129
  295SOL    HW110443   3.708   1.168   1.325  1.4892  0.8264 -1.0000
  295SOL    HW210444   3.829   1.059   1.337 -0.3202 -0.9330  1.9216
  296SOL     OW10445   4.993   3.147   1.536  0.2665  0.3122  0.1032
  296SOL    HW110446   5.008   3.103   1.625 -2.7963 -0.5262  0.2544
  296SOL    HW210447   5.011   3.245   1.544  0.4816  0.1698  1.5265
  297SOL     OW10448   3.500   2.303   0.295  0.0523 -0.1166  0.4375
  297SOL    HW110449   3.482   2.389   0.343  0.3217  0.9037 -1.2536
  297SOL    HW210450   3.413   2.256   0.279  0.0673 -1.1607  3.1195
  298SOL     OW10451   4.002   4.007   0.652 -0.4247 -0.2185 -0.3257
  298SOL    HW110452   4.097   4.000   0.683 -1.2250 -2.6530  1.7579
  298SOL    HW210453   3.945   4.035   0.729 -1.4775  0.7074 -1.4367
  299SOL     OW10454   3.094   9.605   1.815  0.7756  0.3929  0.2436
  299SOL    HW110455   3.042   9.682   1.853  0.9950  0.5623  0.1976
  299SOL    HW210456   3.030   9.540   1.774  0.4185 -0.4333  2.0373
  302SOL     OW10457   2.430   4.481   0.597 -0.3978  0.2554 -0.0548
  302SOL    HW110458   2.412   4.422   0.519 -0.4733  0.8038 -0.4548
  302SOL    HW210459   2.348   4.488   0.653 -1.1982  2.0729 -1.4160
  303SOL     OW10460   2.760   1.449   0.992  0.3543 -0.4661 -0.1029
  303SOL    HW110461   2.841   1.416   1.041  0.3962  0.1795  0.2784
  303SOL    HW210462   2.775   1.544   0.965  0.3366 -0.8257 -1.4007
  304SOL     OW10463   2.185   2.004   0.928  0.0277  0.3379  0.4833
  304SOL    HW110464   2.166   2.052   0.843 -0.5217  1.6432  1.3261
  304SOL    HW210465   2.276   2.030   0.961  0.2594 -0.2021  0.2698
  306SOL     OW10466   3.455   0.605   1.269  0.5130  0.1743 -0.1058
  306SOL    HW110467   3.395   0.602   1.189  2.4748 -0.9114 -1.5712
  306SOL    HW210468   3.472   0.700   1.294 -1.7784  0.5007  0.3205
  307SOL     OW10469   2.076   1.022   0.672  0.5308 -0.2540 -0.3089
  307SOL    HW110470   2.109   1.111   0.640 -0.1665 -0.0739 -0.5219
  307SOL    HW210471   2.075   0.958   0.595  0.3917 -0.2624 -0.2997
  308SOL     OW10472   2.457   3.117   1.876 -0.0039  0.2112 -0.0258
  308SOL    HW110473   2.531   3.072   1.826 -0.3834 -0.0937 -0.3235
  308SOL    HW210474   2.375   3.120   1.818 -0.3109  0.2667  0.4098
  309SOL     OW10475   2.637   5.135   0.851  0.1952 -0.3651  0.7569
  309SOL    HW110476   2.686   5.097   0.773 -1.4105 -0.2819 -0.3113
  309SOL    HW210477   2.577   5.065   0.890 -1.1326  0.4283  0.1474
  310SOL     OW10478   3.647   4.033   2.314  0.1561  0.2122 -0.3785
  310SOL    HW110479   3.734   4.053   2.358 -0.8154  0.3267  1.5502
  310SOL    HW210480   3.626   4.105   2.248  1.4260  0.2780 -0.7201
  311SOL     OW10481   2.341   9.827   0.784 -0.0852 -0.0247 -0.3654
  311SOL    HW110482   2.304   9.882   0.860 -0.4089 -0.6967 -0.0366
  311SOL    HW210483   2.318   9.871   0.698  1.0730  1.2368 -0.0528
  312SOL     OW10484   4.445   4.041   1.481  0.1555  0.2196 -0.1283
  312SOL    HW110485   4.426   4.027   1.578 -0.9285 -0.6858 -0.4628
  312SOL    HW210486   4.458   4.138   1.463 -0.9678  0.5210  0.6875
  313SOL     OW10487   4.794   3.019   1.074  0.4130 -0.4699  0.0164
  313SOL    HW110488   4.856   3.010   1.152  0.8925  1.0955 -0.1718
  313SOL    HW210489   4.817   3.100   1.021 -0.0971 -1.3370 -1.6065
  314SOL     OW10490   3.723   2.337   0.867 -0.0019  0.3147  0.6374
  314SOL    HW110491   3.623   2.329   0.868 -0.2491  3.1471  0.4122
  314SOL    HW210492   3.755   2.376   0.953  1.0917 -1.9611  1.3238
  315SOL     OW10493   3.142   4.091   2.248  0.7279 -0.5248  0.1939
  315SOL    HW110494   3.122   4.004   2.202  1.8432  0.1817 -1.7238
  315SOL    HW210495   3.102   4.166   2.196  0.0458  0.1385  1.6652
  317SOL     OW10496   4.373   2.122   1.398 -0.2741 -0.3646 -0.0154
  317SOL    HW110497   4.353   2.115   1.301 -1.5704 -1.9129  0.3302
  317SOL    HW210498   4.443   2.056   1.423 -0.4385 -0.4589  0.2121
  318SOL     OW10499   3.226   9.483   0.649  0.1380  0.1940  0.3171
  318SOL    HW110500   3.127   9.469   0.659 -0.3182  1.1087 -2.5365
  318SOL    HW210501   3.271   9.394   0.636 -0.4615 -0.1348  0.4887
  320SOL     OW10502   3.233   8.763   0.601  0.4383 -0.3571  0.3905
  320SOL    HW110503   3.136   8.754   0.578  0.7237 -1.4026 -0.4184
  320SOL    HW210504   3.270   8.845   0.557 -0.1558  0.2291  0.9753
  321SOL     OW10505   2.302   0.741   0.586  0.2770  0.4645 -0.0513
  321SOL    HW110506   2.324   0.659   0.532  2.4024 -0.2546  1.8254
  321SOL    HW210507   2.229   0.793   0.540 -1.5144 -2.7450 -1.0074
  322SOL     OW10508   2.945   3.512   2.177 -0.2911 -0.3833 -0.5734
  322SOL    HW110509   3.032   3.557   2.197 -0.0173 -1.3198  0.3553
  322SOL    HW210510   2.874   3.582   2.164  0.0357  0.3306  1.3214
  323SOL     OW10511   3.006   3.177   0.416  0.3051 -0.1689 -0.2199
  323SOL    HW110512   3.027   3.226   0.500 -1.7417 -1.2875  0.9820
  323SOL    HW210513   2.992   3.242   0.341 -1.0688  1.0082  1.0394
  326SOL     OW10514   2.894   2.183   0.685 -0.5238 -0.4022  0.0861
  326SOL    HW110515   2.821   2.185   0.753 -1.0595 -0.7720 -0.4715
  326SOL    HW210516   2.979   2.216   0.726 -1.1810  0.7605  0.5168
  327SOL     OW10517   3.064   9.078   0.886 -0.4720 -0.4329 -0.0655
  327SOL    HW110518   3.073   9.174   0.910 -1.3775 -0.5972  0.9984
  327SOL    HW210519   2.992   9.066   0.818 -1.4200 -0.5168  0.9408
  329SOL     OW10520   2.840   1.026   2.277 -0.0391  0.0829 -0.1461
  329SOL    HW110521   2.855   0.950   2.339  0.5866  1.9160  2.0289
  329SOL    HW210522   2.755   1.012   2.226 -1.0809 -1.0308  1.8355
  330SOL     OW10523   4.444   4.290   1.380 -0.0909 -0.2301 -0.4203
  330SOL    HW110524   4.356   4.302   1.333  1.0291 -0.9590 -2.7673
  330SOL    HW210525   4.470   4.376   1.424 -1.5516  0.2286 -0.4044
  331SOL     OW10526   3.195   5.167   0.873  0.1551  0.0397  0.3929
  331SOL    HW110527   3.288   5.158   0.838  0.5571 -0.1771  1.5022
  331SOL    HW210528   3.198   5.202   0.967 -0.8556 -0.5911  0.6656
  333SOL     OW10529   3.468   2.525   0.441 -0.2769 -0.1592  0.0846
  333SOL    HW110530   3.502   2.534   0.535  1.3668  2.0832 -0.6868
  333SOL    HW210531   3.475   2.613   0.395 -1.2435 -1.2052 -2.1016
  334SOL     OW10532   2.742   9.218   0.630 -0.4127 -0.0598 -0.1282
  334SOL    HW110533   2.705   9.220   0.723 -0.7848  3.5776 -0.2615
  334SOL    HW210534   2.666   9.211   0.564 -0.3422  0.0065 -0.2171
  337SOL     OW10535   2.082   1.319   2.124  0.1477 -0.1930 -0.2623
  337SOL    HW110536   2.139   1.249   2.080  1.1574  0.5425 -0.1242
  337SOL    HW210537   2.039   1.375   2.053 -1.7582 -1.7967 -0.4174
  339SOL     OW10538   3.018   0.663   0.972  0.1972  0.4621  0.0016
  339SOL    HW110539   2.994   0.622   0.884  1.4840  1.2929 -0.7484
  339SOL    HW210540   2.989   0.602   1.046 -0.7957 -0.2957 -0.9881
  341SOL     OW10541   2.442   3.074   2.300  0.6019  0.4934 -0.4203
  341SOL    HW110542   2.512   3.084   2.371 -1.0801  1.5111  1.1438
  341SOL    HW210543   2.392   2.988   2.314 -0.6895  1.3676  0.5710
  342SOL     OW10544   3.691   9.451   1.102 -0.2548 -0.3634  0.0124
  342SOL    HW110545   3.689   9.551   1.108  0.2408 -0.4036  0.9605
  342SOL    HW210546   3.626   9.420   1.032  1.1929  0.7482 -1.8944
  343SOL     OW10547   2.828   9.048   1.994  0.2675 -0.2339 -0.1467
  343SOL    HW110548   2.927   9.038   1.993  0.3270  0.4041 -0.4423
  343SOL    HW210549   2.786   8.960   2.018  0.8791 -0.7088 -0.7962
  344SOL     OW10550   2.795   3.632   1.719  0.2316  0.3452 -0.3785
  344SOL    HW110551   2.895   3.642   1.713  0.3332 -0.8920 -0.9273
  344SOL    HW210552   2.770   3.536   1.704 -0.9393  0.3856  1.2490
  345SOL     OW10553   3.447   4.992   0.549  0.2078 -0.0573 -0.3453
  345SOL    HW110554   3.505   4.967   0.472 -0.8971 -1.4280 -0.7516
  345SOL    HW210555   3.460   4.927   0.623  0.2412  0.4584  0.1095
  346SOL     OW10556   2.278   3.042   0.642 -0.0892  0.3237 -0.2465
  346SOL    HW110557   2.199   3.100   0.620 -0.2799  0.0800 -0.1960
  346SOL    HW210558   2.351   3.060   0.576 -1.2013 -1.5006 -2.0441
  347SOL     OW10559   2.979  10.033   1.843  0.6455 -0.5682 -0.4892
  347SOL    HW110560   3.061  10.069   1.798  1.7294 -1.1827  0.9459
  347SOL    HW210561   2.920  10.108   1.872  1.6928 -0.0496  0.2980
  348SOL     OW10562   3.485   1.186   0.437  0.1974 -0.2963 -0.2876
  348SOL    HW110563   3.553   1.117   0.414 -0.1201 -0.6359 -0.2060
  348SOL    HW210564   3.444   1.164   0.526 -0.7471 -0.6416 -0.8093
  349SOL     OW10565   3.019   9.182   1.738 -0.3785  0.1843  0.4406
  349SOL    HW110566   3.093   9.168   1.803 -0.3467  1.3663  0.6718
  349SOL    HW210567   3.056   9.183   1.645  0.1510  2.4467  0.6539
  350SOL     OW10568   4.276   4.047   0.659 -0.7587 -0.1399 -0.2969
  350SOL    HW110569   4.331   4.078   0.737 -0.9681 -1.1689  0.2625
  350SOL    HW210570   4.276   4.118   0.588  1.3663 -0.1401 -0.3433
  351SOL     OW10571   2.985   3.630   0.652  0.2430 -0.3224 -0.1660
  351SOL    HW110572   2.987   3.652   0.749  0.4925  0.0388 -0.2521
  351SOL    HW210573   3.051   3.687   0.603  0.5785 -0.9541 -0.4537
  352SOL     OW10574   2.954   2.938   1.034  0.2808  0.0332 -0.5951
  352SOL    HW110575   2.884   2.868   1.043  0.0835  0.2660 -0.3168
  352SOL    HW210576   2.997   2.954   1.123 -0.7722  1.4034 -0.3148
  354SOL     OW10577   3.347   0.876   0.859  0.2013  0.1245 -0.3001
  354SOL    HW110578   3.262   0.902   0.904  0.3390  0.0024  0.0283
  354SOL    HW210579   3.425   0.894   0.919  0.3202 -0.7793 -0.1658
  355SOL     OW10580   2.747   3.703   2.170  0.5376 -0.4454  0.0110
  355SOL    HW110581   2.690   3.727   2.249  1.3557  1.6496  0.0028
  355SOL    HW210582   2.689   3.664   2.098 -0.6664  0.3182  0.5458
  356SOL     OW10583   3.027   1.487   0.803  0.5821 -0.4101  0.0597
  356SOL    HW110584   3.035   1.398   0.848  2.4479 -1.7015 -2.7385
  356SOL    HW210585   2.974   1.478   0.719 -0.7483  1.5072  0.6519
  357SOL     OW10586   2.789   9.249   2.165  0.3387  0.1511  0.0829
  357SOL    HW110587   2.782   9.169   2.105 -1.8489 -1.4592  2.3396
  357SOL    HW210588   2.857   9.313   2.129  2.0867 -2.6819 -1.8298
  358SOL     OW10589   3.452   2.659   1.030  0.2477  0.3195 -0.6729
  358SOL    HW110590   3.379   2.632   1.093  1.5413  1.0291  1.1775
  358SOL    HW210591   3.500   2.738   1.067  1.6861  0.1255 -2.0893
  359SOL     OW10592   2.710   1.342   1.323  0.8025  0.4832 -0.0284
  359SOL    HW110593   2.708   1.363   1.421 -0.5102  0.8396 -0.1321
  359SOL    HW210594   2.624   1.298   1.296  1.8793 -1.3105 -0.6523
  360SOL     OW10595   3.110   9.248   2.221 -0.2845 -0.1505  0.2568
  360SOL    HW110596   3.086   9.158   2.184  0.0547  0.1072 -0.5973
  360SOL    HW210597   3.066   9.319   2.166  0.0277  0.2272  0.5000
  362SOL     OW10598   4.622   2.378   1.001 -0.1019  0.0451 -0.0460
  362SOL    HW110599   4.694   2.369   0.932  0.2516  1.1357  0.1654
  362SOL    HW210600   4.584   2.470   0.997 -0.6529 -0.1484  0.6608
  363SOL     OW10601   3.770   2.316   1.394 -0.0497 -0.3685  0.3022
  363SOL    HW110602   3.790   2.323   1.492 -1.4256  0.7694  0.5146
  363SOL    HW210603   3.825   2.243   1.354 -1.9062 -3.1271  2.5856
  365SOL     OW10604   3.345   2.353   1.413  0.0923  0.0089 -0.2967
  365SOL    HW110605   3.395   2.304   1.340  0.4369  0.0425 -0.0840
  365SOL    HW210606   3.390   2.440   1.432  0.8150 -0.6177  0.9210
  366SOL     OW10607   3.512   1.103   1.550 -0.4972  0.4727  0.1186
  366SOL    HW110608   3.498   1.201   1.564  0.0826  0.4610  0.7791
  366SOL    HW210609   3.609   1.083   1.546 -0.6264  0.0690 -1.1103
  367SOL     OW10610   2.823   8.758   1.927 -0.2515 -0.2578  0.9092
  367SOL    HW110611   2.865   8.778   1.838 -0.1537  1.2336  1.2927
  367SOL    HW210612   2.723   8.763   1.918 -0.1921  3.2341  1.6367
  368SOL     OW10613   4.084   2.229   2.308  0.5945 -0.2023 -0.2868
  368SOL    HW110614   4.086   2.171   2.390  1.2807 -0.1136 -0.2358
  368SOL    HW210615   4.142   2.310   2.323  0.7119 -0.1771 -0.8542
  369SOL     OW10616   2.410   3.861   2.064  0.0913 -0.2416 -0.3637
  369SOL    HW110617   2.446   3.776   2.103 -0.9207 -0.1488  0.7855
  369SOL    HW210618   2.310   3.860   2.068  0.1038  1.3292  0.3358
  370SOL     OW10619   4.430   2.960   0.404 -0.1306  0.2009 -0.0037
  370SOL    HW110620   4.334   2.935   0.406 -0.7125  2.1712 -1.8461
  370SOL    HW210621   4.439   3.058   0.384  2.2420  0.1332  0.5207
  371SOL     OW10622   2.800   3.377   1.626  0.1121  0.3587  0.2255
  371SOL    HW110623   2.829   3.294   1.673  0.0261  0.3864  0.3262
  371SOL    HW210624   2.854   3.389   1.543 -1.2180 -0.8578 -0.8382
  372SOL     OW10625   3.000   2.735   1.914  0.2645  0.0118 -0.0119
  372SOL    HW110626   3.068   2.809   1.916 -0.1774  0.4031  2.5278
  372SOL    HW210627   2.912   2.770   1.945  0.0429 -1.5702  1.2070
  373SOL     OW10628   3.430   4.592   1.667  0.1243  0.3144 -0.0157
  373SOL    HW110629   3.330   4.590   1.672  0.1394 -1.1961 -0.1474
  373SOL    HW210630   3.468   4.511   1.711  1.2773  0.5619 -0.5253
  374SOL     OW10631   3.557   3.329   2.112  0.0334  0.0494 -0.1587
  374SOL    HW110632   3.487   3.267   2.147  0.1577 -0.5726 -0.9760
  374SOL    HW210633   3.618   3.356   2.186 -0.6097 -0.0272  0.4046
  375SOL     OW10634   2.915   9.475   0.653  0.2090 -0.2096 -0.1364
  375SOL    HW110635   2.866   9.482   0.566  0.7541  2.1017 -0.2822
  375SOL    HW210636   2.896   9.386   0.695 -1.8615 -0.4452 -1.5138
  376SOL     OW10637   2.601   0.248   2.244  0.3574  0.1228 -0.0938
  376SOL    HW110638   2.507   0.281   2.256 -0.5012 -1.4389 -2.2074
  376SOL    HW210639   2.629   0.196   2.324 -0.8465 -0.0223  0.2359
  377SOL     OW10640   4.709   2.392   0.504  0.2695 -0.3297 -0.1939
  377SOL    HW110641   4.685   2.477   0.550  3.0047  0.2640  0.2628
  377SOL    HW210642   4.767   2.413   0.425  3.8600 -1.9005  1.9189
  378SOL     OW10643   3.071   9.331   0.941 -0.2384 -1.0322 -0.4513
  378SOL    HW110644   3.153   9.355   0.992 -0.2951  0.8421 -1.2108
  378SOL    HW210645   2.990   9.355   0.994 -0.3066 -2.0842 -0.0673
  379SOL     OW10646   3.286   9.489   1.199 -0.3105 -0.4467  0.4347
  379SOL    HW110647   3.256   9.445   1.284 -1.9724 -0.0993  0.0546
  379SOL    HW210648   3.330   9.421   1.141 -0.4643 -1.0144  0.9748
  381SOL     OW10649   3.552   0.636   2.166 -0.5347 -0.1394  0.4728
  381SOL    HW110650   3.471   0.608   2.218 -1.0574 -0.9359 -0.7439
  381SOL    HW210651   3.530   0.635   2.068  1.0600 -0.7405  0.1147
  382SOL     OW10652   3.215   1.455   1.724 -0.3282 -0.3376 -0.1626
  382SOL    HW110653   3.174   1.365   1.738 -2.8997  0.9406  0.7927
  382SOL    HW210654   3.216   1.505   1.810  0.2744  0.8994 -0.8661
  383SOL     OW10655   3.527   4.286   0.917  0.1803  0.3445 -0.3904
  383SOL    HW110656   3.498   4.364   0.973  0.5706 -0.0089  0.3050
  383SOL    HW210657   3.449   4.250   0.867 -0.9052 -1.4740  2.5204
  384SOL     OW10658   2.571   2.672   0.485  0.0040 -0.1484 -0.1488
  384SOL    HW110659   2.483   2.720   0.481  0.6718  1.0404 -0.6042
  384SOL    HW210660   2.569   2.607   0.561 -2.4052 -2.4036 -2.0166
  385SOL     OW10661   3.868   3.634   1.295 -0.3572  0.1195  0.1419
  385SOL    HW110662   3.954   3.650   1.343 -1.9253  2.1531  2.3610
  385SOL    HW210663   3.881   3.651   1.197  1.7417  0.3999  0.4449
  386SOL     OW10664   4.460   3.471   2.028 -0.5751  0.1893 -0.5175
  386SOL    HW110665   4.448   3.551   1.970  0.5415  1.7284  1.3064
  386SOL    HW210666   4.390   3.471   2.100  0.3691  0.4022  0.4214
  387SOL     OW10667   4.009   3.275   1.306  0.4199 -0.6180 -0.5173
  387SOL    HW110668   4.014   3.295   1.208  0.5221  0.0456 -0.3795
  387SOL    HW210669   3.925   3.226   1.326  0.0136 -0.0466 -0.8147
  389SOL     OW10670   3.810   5.055   0.903 -0.0674 -0.3927 -0.2419
  389SOL    HW110671   3.893   5.104   0.877 -0.6114  1.4988  1.4722
  389SOL    HW210672   3.783   4.992   0.829  1.7380  0.4506 -1.6381
  390SOL     OW10673   2.843   4.326   0.739 -0.4427 -0.5229 -0.2029
  390SOL    HW110674   2.796   4.240   0.758 -2.0488  0.3094 -0.3069
  390SOL    HW210675   2.939   4.319   0.768 -0.6194 -2.2521  0.0062
  391SOL     OW10676   4.010   3.725   2.200  0.2091 -0.0757 -0.1645
  391SOL    HW110677   4.023   3.678   2.113  2.2472 -0.5153  0.3441
  391SOL    HW210678   3.932   3.788   2.193  2.8823  3.1206 -3.7103
  392SOL     OW10679   3.668   4.803   0.361 -0.0855 -0.2917 -0.4174
  392SOL    HW110680   3.705   4.731   0.420  1.3663 -0.2662 -1.2546
  392SOL    HW210681   3.641   4.764   0.274  1.0372  0.2157 -1.0056
  394SOL     OW10682   3.919   2.774   0.964  0.0392 -0.7707  0.2473
  394SOL    HW110683   3.880   2.731   0.883  0.2721  0.7555 -0.6814
  394SOL    HW210684   3.860   2.756   1.043 -0.8641 -1.1774 -0.5161
  395SOL     OW10685   4.568   2.167   0.454  0.7719 -0.7180  0.0225
  395SOL    HW110686   4.631   2.244   0.459 -0.2576  0.2434 -1.4234
  395SOL    HW210687   4.515   2.173   0.370 -1.7411 -1.1215  1.5345
  396SOL     OW10688   1.994   1.227   1.282 -0.2709 -0.0763  0.7063
  396SOL    HW110689   2.034   1.242   1.373  1.6278  1.4914 -0.3326
  396SOL    HW210690   2.026   1.140   1.246  1.2737  0.6129  0.3842
  397SOL     OW10691   4.203   3.970   1.999  0.3027 -0.1613  0.1196
  397SOL    HW110692   4.189   3.938   2.093  0.2854  0.2794  0.2670
  397SOL    HW210693   4.120   3.954   1.946  0.2425 -0.2255  0.2321
  398SOL     OW10694   4.053   4.746   1.063  0.0754 -0.2423 -0.1553
  398SOL    HW110695   4.017   4.836   1.085 -2.2875 -1.3467  0.6904
  398SOL    HW210696   4.036   4.725   0.967 -0.8121 -0.4300  0.0418
  399SOL     OW10697   3.510   2.874   1.214  0.1369 -0.5506  0.0104
  399SOL    HW110698   3.600   2.832   1.204 -0.1100 -0.6061 -2.3841
  399SOL    HW210699   3.517   2.957   1.269  1.6063 -0.6952  0.0550
  400SOL     OW10700   3.182   3.026   0.919  0.0623  0.4750 -0.3363
  400SOL    HW110701   3.088   2.998   0.938 -0.2077  1.0099 -0.8869
  400SOL    HW210702   3.216   2.978   0.838  0.2000  0.4270 -0.2511
  401SOL     OW10703   2.178   1.025   1.143 -0.1776  0.3160 -0.4685
  401SOL    HW110704   2.204   1.121   1.140 -2.6998  0.9887 -1.5257
  401SOL    HW210705   2.182   0.986   1.051  0.7004 -0.5859 -0.0659
  402SOL     OW10706   3.374   9.285   1.040  0.8159 -0.0790 -0.3377
  402SOL    HW110707   3.424   9.329   0.966  1.1664 -0.9280 -0.6072
  402SOL    HW210708   3.414   9.196   1.059 -0.3381 -0.5901 -0.2799
  403SOL     OW10709   3.274   0.230   0.973  0.0995 -0.0444  0.2927
  403SOL    HW110710   3.362   0.182   0.970 -0.3181 -0.8184  0.4069
  403SOL    HW210711   3.269   0.285   1.057 -0.5941 -2.0535  1.5906
  405SOL     OW10712   4.154   0.950   0.756  0.3109  0.0227 -0.3695
  405SOL    HW110713   4.177   0.969   0.852  0.7051 -2.2120  0.0085
  405SOL    HW210714   4.056   0.959   0.742 -0.0529 -1.7805  0.8024
  406SOL     OW10715   3.721   1.349   1.402  0.0228 -0.3672  0.0458
  406SOL    HW110716   3.646   1.363   1.467 -0.5563 -0.0755 -0.6788
  406SOL    HW210717   3.807   1.341   1.452 -0.3099  0.6283  0.8095
  407SOL     OW10718   2.319   0.760   1.886  0.4390 -0.3506 -0.1639
  407SOL    HW110719   2.366   0.844   1.913  0.2436 -0.0536 -0.7326
  407SOL    HW210720   2.334   0.744   1.788  0.1074 -0.7407 -0.1519
  408SOL     OW10721   4.533   2.904   1.832  0.2969 -0.3464  0.8081
  408SOL    HW110722   4.563   2.827   1.776 -1.3585  0.5201 -1.3535
  408SOL    HW210723   4.612   2.956   1.862  1.2465 -0.9485 -0.5972
  409SOL     OW10724   2.120   2.959   1.797  1.0857 -0.3064  0.2861
  409SOL    HW110725   2.185   3.004   1.735 -1.1361 -0.7606 -2.4801
  409SOL    HW210726   2.034   3.011   1.799  0.1248 -1.8757  0.7409
  410SOL     OW10727   4.150   2.278   1.400 -0.6908 -0.4066 -0.2589
  410SOL    HW110728   4.074   2.231   1.355 -1.2482 -0.3718  0.6264
  410SOL    HW210729   4.231   2.218   1.401 -1.0644 -0.9163 -0.1429
  412SOL     OW10730   2.380   0.436   2.208  0.4482  0.0355 -0.2521
  412SOL    HW110731   2.427   0.522   2.188 -0.1463  0.3151 -0.4587
  412SOL    HW210732   2.348   0.437   2.303  0.7809 -0.1184 -0.1381
  415SOL     OW10733   3.177   4.349   1.801 -0.7701  0.3233  0.0171
  415SOL    HW110734   3.216   4.321   1.714 -2.5329 -0.0607 -0.6724
  415SOL    HW210735   3.169   4.448   1.804  0.6452  0.4428  0.3550
  416SOL     OW10736   3.786   4.308   0.828 -0.1895  0.6931 -0.3374
  416SOL    HW110737   3.826   4.220   0.851 -0.0009  0.4341 -1.5836
  416SOL    HW210738   3.686   4.304   0.839 -0.0197  0.9115  1.4142
  417SOL     OW10739   3.231   3.408   1.994  0.5966 -0.0327 -0.4557
  417SOL    HW110740   3.196   3.400   2.087  1.3616 -0.1010 -0.1712
  417SOL    HW210741   3.230   3.318   1.950  1.0070 -0.1424 -0.2357
  418SOL     OW10742   4.705   2.728   0.878 -0.0672  0.7128  0.1810
  418SOL    HW110743   4.629   2.732   0.943 -0.6833  0.5009 -0.5191
  418SOL    HW210744   4.776   2.666   0.912 -0.5450  0.3352  0.4916
  420SOL     OW10745   3.422   2.411   0.865  0.0893  0.2671 -0.5823
  420SOL    HW110746   3.390   2.318   0.882 -2.4603  0.9840 -1.3314
  420SOL    HW210747   3.432   2.459   0.952  0.5882 -0.4360 -0.2491
  421SOL     OW10748   3.366   1.225   2.074 -0.0001  0.5626  0.4557
  421SOL    HW110749   3.298   1.196   2.006  1.4377 -1.3026 -0.2400
  421SOL    HW210750   3.372   1.325   2.074 -0.3174  0.6154 -1.9021
  422SOL     OW10751   2.271   9.983   0.560 -0.4753  0.1724 -0.1846
  422SOL    HW110752   2.223  10.049   0.618 -1.7739  0.8737 -1.9988
  422SOL    HW210753   2.304  10.029   0.477  0.4703 -1.0074 -0.4708
  423SOL     OW10754   2.608   2.557   1.260 -0.5164 -0.1293  0.5850
  423SOL    HW110755   2.598   2.492   1.335 -1.0186 -1.2994 -0.4751
  423SOL    HW210756   2.527   2.553   1.202  0.2459  0.1099 -0.5196
  425SOL     OW10757   4.334   1.516   2.238 -0.3318 -0.4011  0.0685
  425SOL    HW110758   4.266   1.504   2.165 -0.8790 -2.1452  0.8262
  425SOL    HW210759   4.305   1.589   2.300  0.0743  1.0028 -1.3689
  426SOL     OW10760   4.115   2.236   0.738  0.0330 -0.2284 -0.0030
  426SOL    HW110761   4.187   2.301   0.764 -0.1841 -0.3447  0.9066
  426SOL    HW210762   4.042   2.284   0.691  0.2797  0.0399 -0.1148
  427SOL     OW10763   3.401   0.408   0.770 -1.0700  0.2544  0.1381
  427SOL    HW110764   3.364   0.496   0.743 -1.4922 -0.0885 -0.4137
  427SOL    HW210765   3.331   0.355   0.818 -1.0137 -0.0297 -0.0881
  428SOL     OW10766   3.750   3.810   1.701 -0.3935 -0.3027  0.3331
  428SOL    HW110767   3.671   3.765   1.742 -0.2265  0.0743  1.0894
  428SOL    HW210768   3.727   3.843   1.610 -0.8850 -0.8313  0.2623
  429SOL     OW10769   3.562   3.672   1.840 -0.3812  0.6763 -0.4603
  429SOL    HW110770   3.464   3.680   1.856  0.2420  0.7234  3.8481
  429SOL    HW210771   3.587   3.576   1.828 -0.8494  0.6324 -1.1271
  430SOL     OW10772   3.027   9.669   0.965  0.4268 -0.5963 -0.0586
  430SOL    HW110773   3.100   9.650   1.030  1.4914 -1.3244 -1.4475
  430SOL    HW210774   2.946   9.614   0.989  0.1991  0.4487  1.6558
  431SOL     OW10775   4.431   3.325   1.405 -0.2532  0.2304 -0.3043
  431SOL    HW110776   4.520   3.285   1.385 -0.2837 -0.6759  1.2257
  431SOL    HW210777   4.387   3.354   1.320  1.4034  0.5012 -1.0842
  432SOL     OW10778   3.861   4.067   2.064  0.8844  0.1703  0.1730
  432SOL    HW110779   3.814   3.996   2.117 -3.3464  3.4853  1.2004
  432SOL    HW210780   3.912   4.127   2.126  2.4764 -0.5486 -0.4255
  433SOL     OW10781   2.325   9.212   1.090 -0.1517 -0.5198 -0.2446
  433SOL    HW110782   2.274   9.166   1.017 -2.7174 -0.0682  1.2002
  433SOL    HW210783   2.371   9.144   1.146  1.6197 -0.8896 -2.0641
  434SOL     OW10784   3.277   2.349   0.534 -0.2633 -0.1971 -0.0004
  434SOL    HW110785   3.312   2.435   0.496  2.1734 -0.5672  1.2597
  434SOL    HW210786   3.271   2.280   0.462  0.1909  0.3164 -0.5329
  436SOL     OW10787   3.998   2.751   1.559 -0.4100  0.1229 -0.0063
  436SOL    HW110788   4.084   2.798   1.541 -0.2916  0.1529  0.6095
  436SOL    HW210789   3.988   2.737   1.658 -1.0950  0.0895 -0.0770
  439SOL     OW10790   2.301   3.314   0.289 -0.3636 -0.2407 -0.0940
  439SOL    HW110791   2.249   3.229   0.279 -0.3910 -0.6443  3.1744
  439SOL    HW210792   2.246   3.382   0.339  1.2051  0.2638  0.9816
  440SOL     OW10793   2.180   2.437   1.227 -0.5283  0.2202  0.3383
  440SOL    HW110794   2.174   2.535   1.248  0.4049  0.2500  0.5020
  440SOL    HW210795   2.121   2.416   1.150 -2.9847  0.3612  2.1199
  441SOL     OW10796   4.420   4.294   1.100  0.1101 -0.0877 -0.1748
  441SOL    HW110797   4.472   4.319   1.018  1.2703 -0.9348  0.3028
  441SOL    HW210798   4.481   4.291   1.179 -1.3228  2.5284  1.0876
  442SOL     OW10799   3.935   3.606   1.721 -0.0236  0.2889  0.0989
  442SOL    HW110800   3.889   3.688   1.687  0.7525  1.4459  1.7917
  442SOL    HW210801   3.868   3.531   1.728 -0.8149  0.8731 -1.0752
  443SOL     OW10802   3.219   2.707   0.327  0.1410 -0.4515 -0.6267
  443SOL    HW110803   3.162   2.630   0.296 -2.1939 -0.0080  2.3406
  443SOL    HW210804   3.168   2.792   0.316  1.3702  0.2935 -0.6076
  445SOL     OW10805   3.123   1.191   1.665  0.4840 -0.1065 -0.0396
  445SOL    HW110806   3.027   1.186   1.637  0.1814 -0.3839  1.0320
  445SOL    HW210807   3.131   1.161   1.760  1.4287  1.2359  0.3062
  447SOL     OW10808   2.875   4.777   1.340  0.0556  0.4329  0.3314
  447SOL    HW110809   2.836   4.806   1.253  1.5740 -0.1191 -0.5502
  447SOL    HW210810   2.917   4.855   1.386  1.6491  0.2103 -0.7165
  448SOL     OW10811   3.660   8.502   1.031 -0.1603 -0.0743 -0.3915
  448SOL    HW110812   3.569   8.486   0.992  0.3109 -2.8855 -0.3808
  448SOL    HW210813   3.673   8.445   1.111  1.4803  0.6085 -0.1498
  449SOL     OW10814   2.226   0.794   1.274  0.5475  0.5350 -0.0959
  449SOL    HW110815   2.202   0.872   1.216 -0.2342 -0.0272 -0.5245
  449SOL    HW210816   2.176   0.801   1.361  1.3928  1.1451  0.3590
  451SOL     OW10817   3.319   9.577   1.651  0.0008 -0.1540  0.1365
  451SOL    HW110818   3.415   9.573   1.679 -0.2155  1.2147  1.1303
  451SOL    HW210819   3.261   9.587   1.733 -0.9079  0.1061 -0.5302
  452SOL     OW10820   4.149   1.667   1.362 -0.0187 -0.2339  0.2640
  452SOL    HW110821   4.202   1.583   1.364  1.2135  0.5305  0.5995
  452SOL    HW210822   4.093   1.670   1.280  1.2359 -0.6049 -0.6153
  453SOL     OW10823   2.554   0.822   0.523 -0.3415 -1.1913  0.9114
  453SOL    HW110824   2.617   0.765   0.575  0.8344 -0.5313  0.2245
  453SOL    HW210825   2.460   0.795   0.543  0.1352 -1.7060  2.4889
  455SOL     OW10826   3.517   9.359   1.875 -0.4582 -0.1020  0.5314
  455SOL    HW110827   3.560   9.426   1.815  0.4546 -0.1872  1.0908
  455SOL    HW210828   3.435   9.400   1.917  0.0911  0.6651  0.8710
  457SOL     OW10829   3.576   0.348   1.169  0.1584  0.4090  0.1402
  457SOL    HW110830   3.583   0.269   1.108 -1.7594 -0.5427  1.1370
  457SOL    HW210831   3.486   0.351   1.211  1.2190  1.4093  2.4607
  458SOL     OW10832   4.442   2.179   0.909  0.3946 -0.3083 -0.0899
  458SOL    HW110833   4.474   2.113   0.840 -0.3194 -0.3163 -0.4144
  458SOL    HW210834   4.520   2.232   0.943  0.8425 -0.7301 -0.4577
  460SOL     OW10835   3.375   2.258   1.659  0.0674  0.0157  0.3950
  460SOL    HW110836   3.355   2.290   1.567  0.8013 -0.2698  0.1375
  460SOL    HW210837   3.373   2.335   1.723  0.3993  0.3406  0.0094
  462SOL     OW10838   3.090   0.676   1.405 -0.2496 -0.0943 -0.3548
  462SOL    HW110839   3.125   0.769   1.419 -3.2037  1.3001 -1.7241
  462SOL    HW210840   3.078   0.659   1.307  1.5193 -2.4629 -0.2106
  463SOL     OW10841   2.986   1.212   2.123  0.2208 -0.3014 -0.7905
  463SOL    HW110842   2.963   1.151   2.198 -1.1548  0.9436 -0.1715
  463SOL    HW210843   3.026   1.296   2.158  2.2525 -0.8809 -1.6474
  464SOL     OW10844   3.512   2.253   1.207 -0.1103 -0.2777  0.2415
  464SOL    HW110845   3.602   2.288   1.183  0.8351 -2.5011  0.4432
  464SOL    HW210846   3.482   2.186   1.138 -1.2832 -0.0908  0.5556
  465SOL     OW10847   2.714   9.695   1.791  0.6233  0.0829  0.4071
  465SOL    HW110848   2.799   9.708   1.841  0.5151  0.1107  0.5828
  465SOL    HW210849   2.674   9.784   1.769  0.5163  0.0666  0.5349
  467SOL     OW10850   2.582   9.011   1.403  0.1869 -0.0490 -0.1640
  467SOL    HW110851   2.656   8.949   1.428  1.2149  0.9191 -0.7743
  467SOL    HW210852   2.589   9.095   1.456 -1.7738 -0.7938  1.3753
  469SOL     OW10853   2.122  10.129   1.497  0.0880 -1.0057 -0.0539
  469SOL    HW110854   2.156  10.094   1.584 -0.4672  0.1126  0.6119
  469SOL    HW210855   2.118  10.054   1.431  0.4593 -1.8711  0.8927
  470SOL     OW10856   4.053   3.321   1.040 -0.3039 -0.0026  0.1432
  470SOL    HW110857   3.974   3.354   0.989  0.9469 -0.0214 -1.9033
  470SOL    HW210858   4.064   3.223   1.024  0.4797  0.1182 -0.1066
  471SOL     OW10859   1.904   1.760   0.429 -0.6558  0.3586  0.6158
  471SOL    HW110860   1.861   1.720   0.510  1.1792  1.8386  2.3896
  471SOL    HW210861   1.944   1.848   0.453 -1.1733  1.4482 -2.2402
  473SOL     OW10862   3.767   3.437   2.303  0.4334  0.5298  0.0579
  473SOL    HW110863   3.858   3.457   2.265  0.7978  0.3420  0.8232
  473SOL    HW210864   3.765   3.342   2.334 -0.3495  0.2345 -0.8743
  474SOL     OW10865   4.040   2.640   0.477 -0.3432 -0.7397  0.2766
  474SOL    HW110866   4.128   2.684   0.461 -1.3599  1.7946  1.4354
  474SOL    HW210867   4.034   2.611   0.572 -1.6465  1.2467  0.8336
  475SOL     OW10868   3.198   2.863   2.285 -0.1237  0.0210  0.4692
  475SOL    HW110869   3.264   2.798   2.246 -1.0082  0.3306 -1.6342
  475SOL    HW210870   3.131   2.814   2.340 -0.4329 -0.7824 -0.6025
  476SOL     OW10871   4.152   4.533   1.189 -0.3760 -1.2295  0.2274
  476SOL    HW110872   4.109   4.608   1.138  1.5902 -0.8722 -0.9718
  476SOL    HW210873   4.247   4.522   1.158  0.6208 -1.5481  3.2669
  478SOL     OW10874   2.627   1.410   1.582 -0.2493  0.0908 -0.3330
  478SOL    HW110875   2.643   1.427   1.679 -2.3056 -0.3231  0.1018
  478SOL    HW210876   2.549   1.463   1.551  2.1094  2.4376 -2.4997
  480SOL     OW10877   3.646   3.647   0.316 -0.3523 -0.2817 -0.0113
  480SOL    HW110878   3.641   3.720   0.384 -0.9704  0.3256 -0.7058
  480SOL    HW210879   3.563   3.647   0.261 -0.5625 -1.8166  0.2891
  481SOL     OW10880   3.097   1.070   1.180 -0.5008 -0.2712 -0.3381
  481SOL    HW110881   3.002   1.082   1.209 -0.5510 -0.0177 -0.5998
  481SOL    HW210882   3.158   1.113   1.248 -0.6657  1.1915 -1.0966
  482SOL     OW10883   1.914   1.608   0.757  0.0145  0.5285 -0.2026
  482SOL    HW110884   2.010   1.611   0.784  0.0999 -1.1098 -0.2398
  482SOL    HW210885   1.865   1.686   0.796  1.0516  0.5650  1.0510
  483SOL     OW10886   3.908   4.610   1.765 -0.2387  0.3971 -0.0487
  483SOL    HW110887   3.944   4.518   1.775  2.0444  1.1279 -1.1588
  483SOL    HW210888   3.835   4.611   1.698 -1.0268 -0.7784  0.7761
  484SOL     OW10889   4.016   3.029   0.616 -0.2582  0.3127  0.6157
  484SOL    HW110890   4.042   3.015   0.520 -1.1802 -1.1993  0.5742
  484SOL    HW210891   3.988   3.124   0.629  0.2138  0.6181 -0.5235
  485SOL     OW10892   2.905   3.979   1.393 -0.3286  0.1535  0.3773
  485SOL    HW110893   2.815   4.008   1.425  0.7268  1.2939  2.4154
  485SOL    HW210894   2.976   4.027   1.444  1.4603 -0.4912 -1.4054
  487SOL     OW10895   3.340   3.095   1.150 -0.2074 -0.1434  0.1435
  487SOL    HW110896   3.284   3.073   1.070  2.6948  0.0263 -2.0097
  487SOL    HW210897   3.375   3.010   1.190  0.2598 -0.1353 -0.2325
  489SOL     OW10898   2.655   3.357   0.790  0.1195 -0.0620 -0.4158
  489SOL    HW110899   2.679   3.350   0.887 -0.3950 -1.1324 -0.3534
  489SOL    HW210900   2.657   3.266   0.749 -2.4620 -0.0230 -0.7125
  490SOL     OW10901   4.089   2.919   0.856 -0.4833  0.3210 -0.0594
  490SOL    HW110902   4.022   2.864   0.905 -0.8872  2.1369  1.5082
  490SOL    HW210903   4.044   2.966   0.780 -0.3799 -0.6344 -0.7117
  491SOL     OW10904   2.378   9.924   1.151  0.5111  0.3942 -0.3755
  491SOL    HW110905   2.420  10.008   1.187 -1.9119  0.6007  2.0692
  491SOL    HW210906   2.430   9.845   1.183 -0.2249  0.7123  1.6743
  492SOL     OW10907   3.720   2.703   1.606 -0.0699 -0.1265 -0.1884
  492SOL    HW110908   3.788   2.691   1.534  0.6211 -0.8915  0.5794
  492SOL    HW210909   3.765   2.730   1.691 -0.9236  1.1716 -0.1347
  494SOL     OW10910   3.110   2.600   0.553 -0.3061  0.5171  0.7573
  494SOL    HW110911   3.161   2.561   0.629 -0.6866 -0.1804  0.6562
  494SOL    HW210912   3.173   2.645   0.490  0.3069 -1.3047  0.0480
  495SOL     OW10913   3.298   9.701   0.432  0.5505 -0.6739  0.4300
  495SOL    HW110914   3.334   9.794   0.441 -1.4960  0.1239  0.6473
  495SOL    HW210915   3.262   9.671   0.521 -0.6918 -0.8486 -0.1198
  496SOL     OW10916   3.109   0.931   0.954  0.3080  0.1980  0.3928
  496SOL    HW110917   3.074   0.840   0.974  0.0827  0.3941  0.9215
  496SOL    HW210918   3.122   0.981   1.040 -1.1174  1.2419  0.0209
  497SOL     OW10919   2.777   3.934   1.088 -0.1727 -0.2567  1.0598
  497SOL    HW110920   2.760   3.836   1.096 -0.2129 -0.3654 -0.2512
  497SOL    HW210921   2.816   3.968   1.173 -1.4240 -1.1469  2.0191
  498SOL     OW10922   3.626   2.111   1.750 -0.2764 -0.8712 -0.5483
  498SOL    HW110923   3.548   2.172   1.762  0.5901 -0.0442  0.9921
  498SOL    HW210924   3.607   2.048   1.675 -1.9212  0.1067 -0.9861
  500SOL     OW10925   2.918   2.020   1.655  0.5150 -0.2805  0.0791
  500SOL    HW110926   3.010   2.010   1.619  1.0630  1.0212  1.0433
  500SOL    HW210927   2.887   1.933   1.692  2.2393 -0.2387  1.7253
  501SOL     OW10928   4.159   4.271   0.978 -0.3597  0.1767 -0.1578
  501SOL    HW110929   4.121   4.363   0.975 -0.8931  0.1153  2.8354
  501SOL    HW210930   4.237   4.269   1.040 -0.6927 -1.4971  0.2460
  502SOL     OW10931   2.550   1.966   1.020  0.4151 -0.0442  0.6178
  502SOL    HW110932   2.486   1.889   1.025  0.3076  0.0669  1.0250
  502SOL    HW210933   2.508   2.041   0.969 -0.2175  0.4319  1.7984
  503SOL     OW10934   3.584   1.942   0.520  0.4823 -0.0481 -0.0913
  503SOL    HW110935   3.505   1.921   0.463  0.1148 -0.2654  0.5072
  503SOL    HW210936   3.563   1.926   0.616  0.9234  0.8626  0.1679
  504SOL     OW10937   4.109   3.248   1.718 -0.2780  0.1415  0.3388
  504SOL    HW110938   4.148   3.186   1.650 -1.1753 -0.9789  0.8305
  504SOL    HW210939   4.011   3.258   1.702 -0.4746 -0.0415  1.4086
  505SOL     OW10940   3.603  10.110   1.819  0.2200 -0.5991 -0.4346
  505SOL    HW110941   3.689  10.141   1.778 -0.2425  0.9600 -0.2584
  505SOL    HW210942   3.587  10.015   1.793  3.1372 -1.6675  1.4229
  506SOL     OW10943   3.190   2.092   2.308 -0.2489  0.4526 -0.7701
  506SOL    HW110944   3.161   2.186   2.293 -0.5612  0.1849 -1.8917
  506SOL    HW210945   3.268   2.090   2.371 -1.2635  1.3371  0.5329
  507SOL     OW10946   3.473   3.316   1.098 -0.3399  0.3020  0.5723
  507SOL    HW110947   3.398   3.367   1.056 -0.6433 -0.0551  0.6820
  507SOL    HW210948   3.451   3.219   1.099  1.3926 -0.1822 -2.1727
  508SOL     OW10949   3.393   2.859   0.469 -0.2405 -0.2798 -0.5070
  508SOL    HW110950   3.484   2.819   0.456 -0.3443 -0.7816  0.2722
  508SOL    HW210951   3.327   2.811   0.411  0.3413  1.4570 -2.6685
  510SOL     OW10952   2.770   9.807   1.085  0.2489  0.3738 -0.2012
  510SOL    HW110953   2.687   9.788   1.032 -0.6583  1.9722  0.5943
  510SOL    HW210954   2.809   9.721   1.118 -0.9036 -0.4199 -0.8587
  511SOL     OW10955   3.519   4.299   2.236 -0.5836 -0.3617  0.0687
  511SOL    HW110956   3.458   4.345   2.170  0.4763  0.0970 -0.5975
  511SOL    HW210957   3.574   4.367   2.283  0.6561 -0.9028 -0.5814
  513SOL     OW10958   4.523   2.481   1.535 -0.2672 -0.0262 -0.2165
  513SOL    HW110959   4.427   2.503   1.518 -0.0545  0.8212 -0.3352
  513SOL    HW210960   4.564   2.444   1.452 -0.6154 -0.8466 -0.0271
  514SOL     OW10961   4.410   1.771   0.542  0.0959  0.4874  0.0836
  514SOL    HW110962   4.436   1.807   0.632 -0.1302  1.2691 -0.1546
  514SOL    HW210963   4.318   1.802   0.520  0.3264  0.6785 -0.6147
  516SOL     OW10964   3.081   8.547   1.525  0.2625  0.6197  0.0619
  516SOL    HW110965   2.995   8.554   1.476 -0.1687 -1.4879  0.4562
  516SOL    HW210966   3.064   8.520   1.619  1.3457  0.2758  0.1668
  517SOL     OW10967   2.613   1.008   0.326  0.2863 -0.6314  0.5834
  517SOL    HW110968   2.705   1.043   0.345  1.2860 -2.6232 -0.4445
  517SOL    HW210969   2.595   0.929   0.385 -0.3772 -0.8521  0.0866
  518SOL     OW10970   3.304   8.720   1.505 -0.2510  0.2505 -0.6784
  518SOL    HW110971   3.226   8.658   1.502  0.5198 -0.7927  0.6027
  518SOL    HW210972   3.380   8.680   1.453  0.6827 -0.5050  1.2436
  519SOL     OW10973   3.005   4.762   2.072 -0.7606 -0.5349 -0.3807
  519SOL    HW110974   3.012   4.666   2.099 -1.2380 -0.4691 -0.0102
  519SOL    HW210975   2.962   4.769   1.982 -0.2740 -0.6899 -0.6300
  520SOL     OW10976   3.695   3.322   0.419  0.0908  0.4780 -0.5583
  520SOL    HW110977   3.675   3.419   0.436 -1.7621  0.2917 -1.5401
  520SOL    HW210978   3.792   3.312   0.393  0.3256  2.0516 -0.3452
  521SOL     OW10979   3.104   1.256   0.529 -0.4052  0.4684 -0.2405
  521SOL    HW110980   3.044   1.335   0.545  0.8785  1.6543 -1.2314
  521SOL    HW210981   3.128   1.251   0.433  0.1208 -0.7199 -0.0547
  522SOL     OW10982   2.634   3.632   1.935 -0.3572  0.2516  0.4718
  522SOL    HW110983   2.680   3.656   1.850 -0.5542 -0.6572  0.1103
  522SOL    HW210984   2.563   3.564   1.917  0.5029 -0.9494  1.5742
  523SOL     OW10985   3.652   2.737   0.424  0.2024 -0.5213  0.2193
  523SOL    HW110986   3.674   2.661   0.485  1.2249 -0.6818 -0.3363
  523SOL    HW210987   3.735   2.767   0.376 -0.6136 -0.5065 -1.2223
  525SOL     OW10988   3.886   3.823   0.517  0.2203 -0.5212 -0.2456
  525SOL    HW110989   3.940   3.896   0.557  0.8759  0.8076 -3.4122
  525SOL    HW210990   3.789   3.848   0.518  0.3719  0.0965 -0.6663
  526SOL     OW10991   2.072   1.579   2.249  0.1342 -0.0842  0.3517
  526SOL    HW110992   2.083   1.587   2.348 -0.7012 -1.2412  0.5481
  526SOL    HW210993   2.099   1.487   2.220  0.4327  0.2710 -0.5079
  527SOL     OW10994   3.196   1.157   0.278 -0.2616  0.2315 -0.0180
  527SOL    HW110995   3.289   1.147   0.312  0.2666  1.6488 -1.0262
  527SOL    HW210996   3.184   1.100   0.196 -0.5384 -0.5695  0.5664
  529SOL     OW10997   2.782   3.637   0.446 -0.1386 -0.1309  0.1309
  529SOL    HW110998   2.779   3.542   0.415 -1.1321 -0.8718  2.3798
  529SOL    HW210999   2.821   3.640   0.538  0.3831  1.6958 -0.1495
  530SOL     OW11000   2.501   4.087   0.829 -0.6774 -0.7418  0.0082
  530SOL    HW111001   2.456   4.109   0.743 -0.3463 -0.5983 -0.1286
  530SOL    HW211002   2.491   4.163   0.893  1.7443  0.4687 -0.9726
  531SOL     OW11003   3.085   9.215   0.473 -0.0340  0.1614 -0.2429
  531SOL    HW111004   3.029   9.289   0.511  1.7870  1.7920 -0.6668
  531SOL    HW211005   3.157   9.191   0.537 -0.4998 -1.1267 -0.1943
  532SOL     OW11006   3.215   1.188   1.412 -0.4448  0.4098 -0.0499
  532SOL    HW111007   3.194   1.192   1.510  0.1521 -0.4375  0.1136
  532SOL    HW211008   3.260   1.272   1.384  2.1808 -0.5901  1.0564
  533SOL     OW11009   3.271   2.161   0.303  0.0419 -0.2555  0.0438
  533SOL    HW111010   3.328   2.098   0.251  2.3008  0.9828  0.9412
  533SOL    HW211011   3.180   2.166   0.261  0.3777 -2.6954 -1.0796
  534SOL     OW11012   2.938   2.625   1.501 -0.4719  0.0507 -0.0524
  534SOL    HW111013   2.963   2.693   1.432  1.4167 -1.6271 -1.0846
  534SOL    HW211014   2.944   2.534   1.461 -1.8053 -0.8082  1.6507
  535SOL     OW11015   2.912   9.778   1.947  0.8544  0.5171 -0.3810
  535SOL    HW111016   2.920   9.758   2.044 -1.1924  1.5489  0.0225
  535SOL    HW211017   2.936   9.874   1.930 -1.2343  1.0465 -0.4961
  536SOL     OW11018   2.365   0.513   0.446  0.0251  0.0486 -1.0156
  536SOL    HW111019   2.290   0.450   0.467  0.4356  0.1339  0.7537
  536SOL    HW211020   2.432   0.466   0.387 -0.0771 -0.9173 -0.3742
  537SOL     OW11021   2.400   1.456   0.592  0.4031 -0.1678  0.3929
  537SOL    HW111022   2.358   1.504   0.669  0.0053 -1.9440  1.3138
  537SOL    HW211023   2.472   1.395   0.626 -0.7160 -1.9951 -0.4842
  538SOL     OW11024   2.612   0.991   2.082  0.4940 -0.3409 -0.0049
  538SOL    HW111025   2.575   1.011   1.991  0.3863  1.4470  0.4127
  538SOL    HW211026   2.591   0.896   2.106 -1.8575 -0.0461 -0.7329
  539SOL     OW11027   2.298   2.707   0.417 -0.6899  0.3539  0.0507
  539SOL    HW111028   2.358   2.763   0.361 -0.2846  2.2412  2.2841
  539SOL    HW211029   2.228   2.665   0.359  0.7525  0.8095 -2.0823
  540SOL     OW11030   3.638   4.406   0.345 -0.2901  0.4485  0.0960
  540SOL    HW111031   3.560   4.463   0.319  0.2242  2.7009  3.1867
  540SOL    HW211032   3.609   4.343   0.417  0.4792  0.5955  0.5343
  541SOL     OW11033   3.332   4.726   0.965  0.8451  0.2874  0.3902
  541SOL    HW111034   3.394   4.798   0.997 -1.4991  1.9512  1.3370
  541SOL    HW211035   3.244   4.734   1.012 -0.3002 -1.6519 -1.3214
  542SOL     OW11036   5.008   2.925   1.700  0.2258  0.2714 -0.3764
  542SOL    HW111037   5.098   2.885   1.718  0.3306  0.4180 -0.5742
  542SOL    HW211038   4.977   2.976   1.780 -0.3982 -1.1174  0.2920
  543SOL     OW11039   3.548   3.629   2.130 -0.0636  0.1138 -0.3305
  543SOL    HW111040   3.576   3.631   2.034  2.3944  0.8926  0.3471
  543SOL    HW211041   3.527   3.535   2.157 -1.0250 -0.0749 -1.6833
  544SOL     OW11042   2.914   8.893   1.037 -0.3666  0.5023  0.4977
  544SOL    HW111043   2.981   8.946   0.985 -0.2150  0.2128  0.3965
  544SOL    HW211044   2.830   8.886   0.984 -0.1810  0.1291  0.2487
  546SOL     OW11045   3.076   2.923   0.293  0.3802  0.1220  0.2891
  546SOL    HW111046   3.051   3.017   0.319  0.2656  0.4223 -0.8467
  546SOL    HW211047   2.995   2.876   0.257  0.0881 -0.9237  2.2625
  547SOL     OW11048   2.878   2.298   1.771 -0.5717 -0.1815  0.0702
  547SOL    HW111049   2.901   2.224   1.707 -0.1218 -1.1050  1.2909
  547SOL    HW211050   2.960   2.349   1.795 -0.6503 -0.1992  0.3743
  549SOL     OW11051   3.971   3.048   0.272 -0.7292  0.3054  0.3445
  549SOL    HW111052   3.908   3.044   0.195 -0.2500  0.9656 -0.0966
  549SOL    HW211053   4.039   3.120   0.255  1.1066 -1.4680  0.0761
  550SOL     OW11054   1.941   1.887   0.977 -0.1868 -0.6045 -0.1060
  550SOL    HW111055   2.022   1.946   0.976 -0.2874 -0.4625  0.1542
  550SOL    HW211056   1.957   1.809   1.037 -0.6791  0.0380  0.8702
  551SOL     OW11057   2.853   9.496   1.066 -0.3828 -0.0517  0.5054
  551SOL    HW111058   2.764   9.481   1.021  0.4071 -0.1285 -1.0480
  551SOL    HW211059   2.847   9.466   1.161 -1.6406 -1.3254  0.0405
  552SOL     OW11060   4.395   3.218   0.366 -0.0005  0.0578 -0.2049
  552SOL    HW111061   4.307   3.210   0.319  0.2844  0.7073 -0.8552
  552SOL    HW211062   4.408   3.312   0.397  1.5476  0.5634 -2.3018
  553SOL     OW11063   2.597   9.758   0.871 -0.5781 -0.1654  0.1772
  553SOL    HW111064   2.510   9.782   0.828 -0.1571  0.4325 -0.3509
  553SOL    HW211065   2.666   9.742   0.799  0.2724  1.3509  0.6435
  555SOL     OW11066   2.632   8.865   0.830 -0.2432  0.1398 -0.0177
  555SOL    HW111067   2.569   8.876   0.907  1.6027  1.0967  1.3818
  555SOL    HW211068   2.580   8.862   0.745 -2.2482 -0.0557  1.1888
  556SOL     OW11069   3.649   3.312   1.313  0.5977 -0.5331  0.1764
  556SOL    HW111070   3.679   3.388   1.371 -0.2883 -0.6029  0.7470
  556SOL    HW211071   3.584   3.346   1.245 -0.6031 -0.9321  1.0935
  557SOL     OW11072   2.581  10.181   0.333 -0.3078 -0.6327 -0.2676
  557SOL    HW111073   2.617  10.266   0.295  0.1468 -1.4390 -1.6895
  557SOL    HW211074   2.626  10.162   0.420 -2.3640  1.9457  1.4066
  558SOL     OW11075   2.067   2.690   1.089  0.2127  0.6870  0.2983
  558SOL    HW111076   2.088   2.787   1.096  1.2312  0.6004 -1.2500
  558SOL    HW211077   2.121   2.649   1.015 -0.3795 -1.0058  0.7675
  559SOL     OW11078   4.432   3.811   1.327 -0.0103 -0.2191 -0.0070
  559SOL    HW111079   4.450   3.895   1.379  1.4098  0.0497 -0.9166
  559SOL    HW211080   4.390   3.743   1.388 -1.5735  1.2730  0.6359
  561SOL     OW11081   2.608   3.071   2.105 -0.4245  0.6045 -0.2431
  561SOL    HW111082   2.565   3.095   2.192 -0.5901 -0.6462  0.0284
  561SOL    HW211083   2.544   3.090   2.030 -0.7400  0.5477  0.0075
  563SOL     OW11084   3.099   1.828   1.565  0.0778  0.1638 -0.3125
  563SOL    HW111085   3.053   1.798   1.648  0.3942 -0.6444 -0.4218
  563SOL    HW211086   3.150   1.751   1.525  0.6446  0.7659 -0.7727
  564SOL     OW11087   2.943   8.630   1.111  0.3741 -0.0750  0.1784
  564SOL    HW111088   2.947   8.727   1.086 -1.2583 -0.2536 -0.8816
  564SOL    HW211089   2.848   8.600   1.112  0.9365 -2.0445 -1.0633
  565SOL     OW11090   4.144   1.941   1.366  0.1866 -0.4998 -0.1270
  565SOL    HW111091   4.226   1.995   1.351 -0.0738 -0.2702 -0.7475
  565SOL    HW211092   4.167   1.844   1.371  0.6916 -0.3197  1.2633
  568SOL     OW11093   3.188   3.647   1.160 -1.0894  0.1949  0.2525
  568SOL    HW111094   3.263   3.628   1.224 -1.1111  1.5847  0.6960
  568SOL    HW211095   3.200   3.591   1.078  1.3745  1.5849 -0.3945
  569SOL     OW11096   4.284   3.678   1.813  0.2508  0.2117  0.0672
  569SOL    HW111097   4.276   3.601   1.750  1.2193  0.5426 -0.4621
  569SOL    HW211098   4.229   3.659   1.895  2.0436 -1.9605  0.8422
  570SOL     OW11099   4.304   3.425   1.171 -0.2916 -0.0150  0.0130
  570SOL    HW111100   4.225   3.384   1.126  0.5542 -1.3874 -0.2260
  570SOL    HW211101   4.386   3.409   1.116  0.3774  0.2306  0.9284
  571SOL     OW11102   3.311   5.086   2.221 -0.6581 -0.2150 -1.0205
  571SOL    HW111103   3.392   5.144   2.206 -0.1325 -1.1478 -1.8162
  571SOL    HW211104   3.339   4.990   2.219 -1.2795 -0.4844  1.7102
  572SOL     OW11105   3.649   0.592   0.613 -0.4899 -0.7190 -0.6170
  572SOL    HW111106   3.695   0.649   0.545  2.2338 -1.5177  0.4999
  572SOL    HW211107   3.571   0.545   0.571 -0.0378  0.3141 -2.6488
  574SOL     OW11108   3.193   9.771   1.477 -0.0903  0.0878  0.3813
  574SOL    HW111109   3.211   9.846   1.541  1.9267 -0.5069  0.5375
  574SOL    HW211110   3.211   9.684   1.522 -0.1915 -0.4095 -0.5233
  576SOL     OW11111   4.634   2.432   1.289 -0.1020 -0.1631  0.2912
  576SOL    HW111112   4.724   2.410   1.325 -0.5624 -0.1082  1.4901
  576SOL    HW211113   4.616   2.375   1.208  1.0817 -0.0208 -0.0809
  577SOL     OW11114   4.120   3.828   0.320  0.1717 -0.3450 -0.3991
  577SOL    HW111115   4.044   3.825   0.386  0.1305  3.2172 -0.1533
  577SOL    HW211116   4.108   3.756   0.252 -2.4461 -1.0097  0.6997
  578SOL     OW11117   3.704   2.179   0.427  0.6736  0.3837  0.3474
  578SOL    HW111118   3.670   2.085   0.428  1.6279  0.0161 -0.8398
  578SOL    HW211119   3.634   2.240   0.389 -0.0766  0.2206  1.4414
  579SOL     OW11120   2.863   1.125   0.316  0.5837  0.6935 -0.5918
  579SOL    HW111121   2.879   1.176   0.231  0.1786 -0.0752 -1.1396
  579SOL    HW211122   2.836   1.189   0.388 -3.5759  0.9219 -2.1916
  580SOL     OW11123   3.260   8.890   1.723  0.5990 -0.1068 -0.0592
  580SOL    HW111124   3.285   8.832   1.645  2.2967  0.3914  0.0896
  580SOL    HW211125   3.340   8.943   1.752 -0.4213  0.8567  1.0519
  581SOL     OW11126   2.131   9.924   1.309  0.2214  0.2940  0.4708
  581SOL    HW111127   2.204   9.898   1.247  1.2193 -0.8864  2.1013
  581SOL    HW211128   2.043   9.918   1.262  0.8307 -1.9721 -0.4448
  582SOL     OW11129   2.252   2.791   0.736  0.1912 -0.0433  0.8860
  582SOL    HW111130   2.227   2.755   0.646  0.0617  0.8916  0.5469
  582SOL    HW211131   2.255   2.890   0.733 -2.0793  0.1022  2.5160
  584SOL     OW11132   2.504   1.615   1.236  0.8582 -0.1241  0.4616
  584SOL    HW111133   2.447   1.583   1.313 -0.5856  1.3646  0.0483
  584SOL    HW211134   2.552   1.698   1.263  0.4485  0.3288 -0.1914
  585SOL     OW11135   3.283   3.670   1.900  0.0416 -0.1337 -0.0259
  585SOL    HW111136   3.264   3.584   1.947  1.1689 -1.4123 -1.8450
  585SOL    HW211137   3.220   3.681   1.823  0.5720  0.1756 -0.4199
  586SOL     OW11138   2.526   4.233   1.499  0.0141  0.2597 -0.3427
  586SOL    HW111139   2.539   4.313   1.440  0.5443  0.1877 -0.3285
  586SOL    HW211140   2.563   4.152   1.453 -1.0256 -0.0742 -0.5974
  587SOL     OW11141   2.667   9.547   1.552 -0.3588 -0.9629 -0.2224
  587SOL    HW111142   2.676   9.628   1.494  0.1432 -0.1422  0.9518
  587SOL    HW211143   2.673   9.575   1.648 -3.1819 -2.0076  0.3025
  588SOL     OW11144   3.475   2.854   0.758 -0.2333  0.2135 -0.1419
  588SOL    HW111145   3.540   2.895   0.822 -0.9374 -0.0259  0.7277
  588SOL    HW211146   3.504   2.875   0.664 -2.0148  5.1172  0.2479
  589SOL     OW11147   4.116   0.469   0.766 -0.4725 -0.3666  0.0416
  589SOL    HW111148   4.134   0.463   0.668 -0.9444 -3.8072  0.1165
  589SOL    HW211149   4.017   0.462   0.783 -0.6062  2.3536  0.6730
  591SOL     OW11150   3.847   4.922   0.641  0.4187  0.1383  0.0262
  591SOL    HW111151   3.803   4.832   0.632 -0.3286  0.3895  1.0406
  591SOL    HW211152   3.810   4.985   0.573 -0.4101  0.1913  0.5175
  592SOL     OW11153   2.450   2.191   0.927  0.0203  0.3958 -0.8195
  592SOL    HW111154   2.546   2.220   0.924 -0.1647  1.0271 -0.6893
  592SOL    HW211155   2.407   2.211   0.839  0.0231  0.0741 -0.8915
  593SOL     OW11156   3.504   3.794   1.293  0.6481 -0.1286 -0.2004
  593SOL    HW111157   3.489   3.821   1.198 -2.2045 -0.1427  0.2285
  593SOL    HW211158   3.575   3.852   1.333  1.1849  0.5076 -2.0444
  594SOL     OW11159   4.924   3.635   1.247 -0.6158 -0.4312 -0.3108
  594SOL    HW111160   4.913   3.723   1.200 -1.8069 -0.1620  0.4393
  594SOL    HW211161   5.001   3.585   1.208  0.5977  1.3126 -0.1688
  596SOL     OW11162   2.424   0.982   1.383 -0.0587 -0.4453  0.4337
  596SOL    HW111163   2.361   0.922   1.333  0.0831 -0.5710  0.4071
  596SOL    HW211164   2.474   1.040   1.319 -1.5155  0.9959  0.5651
  597SOL     OW11165   2.787   4.897   1.090  0.0200 -0.2888 -0.1541
  597SOL    HW111166   2.841   4.974   1.055 -1.8512  0.9741 -0.3589
  597SOL    HW211167   2.768   4.833   1.015 -0.7732  0.4776 -0.6139
  598SOL     OW11168   3.938   1.640   1.216  0.3375 -0.2633 -0.3574
  598SOL    HW111169   3.844   1.610   1.201 -0.8304  1.3836  3.1080
  598SOL    HW211170   3.943   1.740   1.208  1.6263 -0.2654  0.2851
  599SOL     OW11171   2.930   1.450   0.553  0.0751 -0.2300 -0.5604
  599SOL    HW111172   2.917   1.545   0.526  1.7565  0.1970  0.0858
  599SOL    HW211173   2.855   1.394   0.516 -1.7071  1.5566  0.2865
  600SOL     OW11174   2.612   2.406   0.629 -0.1212  0.4576  0.5827
  600SOL    HW111175   2.704   2.383   0.599 -0.2849  1.0423 -0.3868
  600SOL    HW211176   2.550   2.330   0.608 -0.1109  0.6022  0.0161
  601SOL     OW11177   2.499   2.783   0.899  0.0261  0.0774  0.5035
  601SOL    HW111178   2.406   2.781   0.861  0.0687 -0.3855  0.4294
  601SOL    HW211179   2.509   2.866   0.956  0.1140  1.0226 -0.8681
  602SOL     OW11180   3.278   0.585   1.049  0.3136  0.6612  0.7518
  602SOL    HW111181   3.189   0.617   1.016  1.0260  2.6044  0.6625
  602SOL    HW211182   3.347   0.600   0.979  0.9508  0.3572  1.3114
  603SOL     OW11183   2.822   2.085   1.209 -0.1500  0.2476 -0.1399
  603SOL    HW111184   2.888   2.118   1.143  0.6731 -0.7422  0.1766
  603SOL    HW211185   2.805   2.156   1.278 -0.0634  0.8102 -0.6968
  604SOL     OW11186   3.076   3.734   1.438  0.0453  0.0663 -0.1925
  604SOL    HW111187   3.078   3.674   1.358 -2.1583 -1.9656  1.2291
  604SOL    HW211188   3.016   3.812   1.419 -0.4690 -0.4045 -0.5158
  605SOL     OW11189   4.463   2.662   1.278 -0.4744  0.3645 -0.4799
  605SOL    HW111190   4.509   2.574   1.267 -2.1141 -0.4812 -0.7264
  605SOL    HW211191   4.504   2.729   1.215  0.2246 -0.4281 -0.8753
  606SOL     OW11192   2.916   9.644   2.219 -0.4561  0.6559  0.1529
  606SOL    HW111193   2.994   9.635   2.282 -0.8368 -2.8912  0.1723
  606SOL    HW211194   2.863   9.725   2.244  2.4909  2.4241  0.9377
  607SOL     OW11195   3.950   4.099   0.907  0.2125  0.2573 -0.2834
  607SOL    HW111196   3.917   4.075   0.998  1.2758 -2.3914 -0.5453
  607SOL    HW211197   4.031   4.157   0.915  2.0199 -2.3084  0.5543
  609SOL     OW11198   4.779   3.324   1.736  0.6119  0.0130 -0.0830
  609SOL    HW111199   4.744   3.244   1.689 -1.1836 -0.3565  1.7916
  609SOL    HW211200   4.707   3.393   1.743  1.5940  1.0671 -0.0613
  610SOL     OW11201   3.923   2.046   0.834 -0.2191 -0.6913  0.0947
  610SOL    HW111202   3.838   2.098   0.829  0.9373  1.3622  1.2671
  610SOL    HW211203   4.000   2.109   0.838  1.3281 -2.5295 -0.2303
  611SOL     OW11204   3.773   3.195   0.925 -0.0967 -0.3507  0.1802
  611SOL    HW111205   3.778   3.294   0.909 -1.1502 -0.3381 -0.0820
  611SOL    HW211206   3.736   3.150   0.844  1.2819 -1.0719 -0.0640
  612SOL     OW11207   3.550   9.905   1.422 -0.4595 -0.0544 -0.2437
  612SOL    HW111208   3.494   9.843   1.367 -0.7766  0.5757 -0.6290
  612SOL    HW211209   3.498   9.988   1.442 -0.3045 -0.2140  0.8957
  613SOL     OW11210   4.311   2.770   0.798 -1.0663 -0.2254 -0.1373
  613SOL    HW111211   4.225   2.820   0.798  0.2586  2.0955 -0.7954
  613SOL    HW211212   4.342   2.757   0.704  1.3050  2.5526  0.1956
  614SOL     OW11213   3.391   1.359   1.225  0.4499  0.0411  0.4637
  614SOL    HW111214   3.458   1.420   1.184  0.7683 -2.5585 -3.1295
  614SOL    HW211215   3.430   1.268   1.235 -2.6228 -1.7343 -2.4245
  617SOL     OW11216   3.917   0.951   2.336  0.3197  0.5640 -0.4161
  617SOL    HW111217   3.960   1.017   2.275  1.3356 -0.1753 -0.5301
  617SOL    HW211218   3.835   0.914   2.293  1.8903 -1.1224 -2.0617
  618SOL     OW11219   3.087   2.786   1.336  0.3762  0.1408 -0.1778
  618SOL    HW111220   3.184   2.766   1.325  0.5564  0.1839  1.1544
  618SOL    HW211221   3.074   2.885   1.345  0.5441 -0.0237  2.3386
  619SOL     OW11222   2.691   2.053   0.533 -0.1422  0.3030  0.4895
  619SOL    HW111223   2.741   2.100   0.605 -2.9241  0.0603  2.6496
  619SOL    HW211224   2.754   2.030   0.458  2.8837  0.2087  2.9780
  620SOL     OW11225   3.124   2.502   0.923 -0.3399 -0.0975  0.3420
  620SOL    HW111226   3.186   2.577   0.899 -2.9367  2.0847  0.1542
  620SOL    HW211227   3.106   2.504   1.021 -2.7119  1.4754 -0.0615
  622SOL     OW11228   3.042   8.986   0.337 -0.6084  0.0556 -0.3772
  622SOL    HW111229   3.026   9.075   0.379 -0.4023 -0.0587 -0.0485
  622SOL    HW211230   3.054   8.917   0.409 -0.3007 -0.1508 -0.6250
  623SOL     OW11231   4.202   4.276   0.445 -0.0651 -0.5371 -0.3511
  623SOL    HW111232   4.170   4.340   0.376  0.1744 -0.6518 -0.5728
  623SOL    HW211233   4.269   4.321   0.504  0.5751 -0.7577 -0.8991
  624SOL     OW11234   4.270   2.518   1.466  0.1854  0.0943  0.2666
  624SOL    HW111235   4.295   2.563   1.380 -0.8846  0.7573  0.2964
  624SOL    HW211236   4.224   2.431   1.445  0.6620 -0.1353  0.1788
  625SOL     OW11237   2.611   1.344   0.772 -0.3723 -0.1060 -0.3405
  625SOL    HW111238   2.601   1.251   0.734  0.2377 -1.1902  2.0564
  625SOL    HW211239   2.690   1.346   0.833 -2.9932  0.8117  3.1369
  626SOL     OW11240   3.949   1.152   0.432 -0.3806 -0.2958  0.0620
  626SOL    HW111241   3.989   1.219   0.495 -1.4232 -1.2349  1.7539
  626SOL    HW211242   4.020   1.086   0.405 -0.2506 -0.7022  1.3585
  628SOL     OW11243   3.042   0.445   1.541 -0.3265 -0.3641  0.2105
  628SOL    HW111244   3.017   0.467   1.636  0.0969 -0.4211  0.3381
  628SOL    HW211245   3.062   0.529   1.491 -0.6157 -0.3299  0.1563
  629SOL     OW11246   3.147   1.446   1.164 -0.2823  0.2858 -0.3367
  629SOL    HW111247   3.125   1.402   1.077 -1.1591 -2.3703  1.1804
  629SOL    HW211248   3.226   1.401   1.205 -0.7606  0.5750  0.9252
  630SOL     OW11249   4.373   3.953   1.092  0.0670 -0.3471  0.3816
  630SOL    HW111250   4.311   4.022   1.131  0.5015  1.1153 -1.4800
  630SOL    HW211251   4.409   3.896   1.166  0.0284  1.6912  2.0338
  631SOL     OW11252   2.930   2.727   0.704  0.0052  0.4679 -0.0078
  631SOL    HW111253   2.982   2.766   0.780 -1.6817 -1.9562  2.5039
  631SOL    HW211254   2.993   2.684   0.640  1.3612  0.8838  1.0111
  632SOL     OW11255   1.987   1.030   1.645  0.1108 -0.1371 -0.1994
  632SOL    HW111256   1.905   0.992   1.688 -1.5437  1.5814 -1.7496
  632SOL    HW211257   2.049   0.956   1.620 -1.1755 -1.4988  0.5819
  634SOL     OW11258   3.798   1.900   1.422  0.6799  0.0450 -0.1520
  634SOL    HW111259   3.822   1.991   1.387  0.7885  1.0725  2.4532
  634SOL    HW211260   3.880   1.857   1.461  0.1608 -0.1728  0.7275
  635SOL     OW11261   2.534   0.732   2.125  0.1614  0.4754 -0.2271
  635SOL    HW111262   2.436   0.744   2.140 -0.2760 -2.6014 -0.3844
  635SOL    HW211263   2.581   0.727   2.214 -0.2585 -1.1446 -0.0791
  636SOL     OW11264   3.805   1.182   0.838 -0.1053 -0.4900  0.0480
  636SOL    HW111265   3.849   1.257   0.789 -0.8871 -0.6070 -0.8667
  636SOL    HW211266   3.715   1.212   0.871  0.4793 -0.3656  1.5589
  637SOL     OW11267   3.210   3.727   2.337 -0.0256  0.1064  0.0770
  637SOL    HW111268   3.194   3.709   2.434 -0.0476 -0.6266 -0.0591
  637SOL    HW211269   3.304   3.758   2.324 -0.3397  1.2654  0.4636
  638SOL     OW11270   3.982   5.078   1.605 -0.0568 -0.8096 -0.0890
  638SOL    HW111271   4.026   4.995   1.638 -0.5059 -0.4484  1.5049
  638SOL    HW211272   3.913   5.056   1.537 -1.1183 -1.8964  1.2992
  639SOL     OW11273   3.128   2.286   0.739 -0.0770 -0.0085 -0.1406
  639SOL    HW111274   3.137   2.346   0.819 -1.1592  1.0590 -0.8007
  639SOL    HW211275   3.202   2.305   0.675 -0.5539  0.8285 -0.4613
  641SOL     OW11276   2.857   2.955   2.092  0.2557  0.3234  0.8761
  641SOL    HW111277   2.933   3.018   2.076 -0.1565  0.5285 -0.3045
  641SOL    HW211278   2.772   3.007   2.098 -0.3954 -0.2975 -2.3610
  642SOL     OW11279   3.186   1.626   1.941  0.2201  0.2687 -0.3965
  642SOL    HW111280   3.230   1.716   1.939  0.0764  0.3699  0.8467
  642SOL    HW211281   3.086   1.638   1.938  0.1063  0.2764  2.3582
  643SOL     OW11282   3.947   2.407   0.315  0.1058  0.1805 -0.3209
  643SOL    HW111283   4.021   2.373   0.373  2.4909  3.2353 -1.4551
  643SOL    HW211284   3.877   2.449   0.372  1.8897  2.1507  0.4772
  644SOL     OW11285   2.322   1.615   0.820 -0.1914  0.5419  0.2923
  644SOL    HW111286   2.266   1.545   0.864  1.4110 -0.5402  0.6512
  644SOL    HW211287   2.339   1.689   0.885  1.4636 -0.6568  1.2804
  645SOL     OW11288   3.856   2.434   2.061  0.1594  0.0419 -0.2938
  645SOL    HW111289   3.765   2.452   2.025 -0.7725 -0.0438  1.9390
  645SOL    HW211290   3.898   2.519   2.091 -0.2513 -0.2132  1.0627
  646SOL     OW11291   3.312   4.353   2.048  0.0247  0.2550 -0.2873
  646SOL    HW111292   3.291   4.449   2.066 -0.3927 -0.2105  1.8360
  646SOL    HW211293   3.255   4.320   1.973  0.4650  1.7556 -1.3248
  647SOL     OW11294   4.422   3.778   0.853 -0.0663 -0.0020  0.3727
  647SOL    HW111295   4.364   3.801   0.774 -2.5677 -1.3563  1.7427
  647SOL    HW211296   4.419   3.853   0.919 -0.1130 -0.0028  0.3720
  649SOL     OW11297   2.684   4.526   0.605 -0.1775  0.2754  0.1047
  649SOL    HW111298   2.584   4.525   0.607 -0.2035 -0.5120 -1.2165
  649SOL    HW211299   2.719   4.449   0.658 -0.3178 -0.5636 -0.9904
  652SOL     OW11300   3.529   2.536   1.469 -0.3347 -0.1642 -0.5202
  652SOL    HW111301   3.582   2.609   1.512 -0.4924  0.6979 -1.7826
  652SOL    HW211302   3.562   2.447   1.502 -1.1558  0.4841  2.2138
  653SOL     OW11303   3.027   1.254   0.972  0.2318 -0.4291 -0.1919
  653SOL    HW111304   3.079   1.216   1.048  2.1090  1.6469 -0.3882
  653SOL    HW211305   2.970   1.182   0.931  0.1026 -1.8383  2.3905
  654SOL     OW11306   4.043   3.582   1.974 -0.0164  0.1460  0.2182
  654SOL    HW111307   3.999   3.587   1.884  2.6327  1.8551 -1.0398
  654SOL    HW211308   4.102   3.501   1.978  1.6793  1.3048 -0.4974
  655SOL     OW11309   4.641   2.978   0.750  0.5653 -0.3010 -0.5110
  655SOL    HW111310   4.642   2.949   0.654  0.8680 -1.3286 -0.2108
  655SOL    HW211311   4.666   2.900   0.808 -0.2171  0.1449  0.4432
  656SOL     OW11312   2.544   1.137   0.589  0.7374  0.0962  0.6055
  656SOL    HW111313   2.550   1.063   0.523  1.2371  1.4887 -0.9567
  656SOL    HW211314   2.463   1.124   0.647  1.1452 -1.9486  0.7490
  657SOL     OW11315   4.250   2.793   2.170  0.1343 -0.1408 -0.3306
  657SOL    HW111316   4.283   2.824   2.081  1.4756 -0.0674  0.1905
  657SOL    HW211317   4.180   2.723   2.156 -0.5724  0.7691 -1.4589
  659SOL     OW11318   4.503   2.613   0.297 -0.5763 -0.1921  0.6626
  659SOL    HW111319   4.588   2.589   0.250 -0.2436  0.4015  0.9592
  659SOL    HW211320   4.516   2.697   0.350 -1.3849 -0.0127  0.5983
  660SOL     OW11321   2.008   0.340   0.663 -0.0952  0.2695  0.1349
  660SOL    HW111322   1.962   0.406   0.722  0.0002 -0.1764  0.7088
  660SOL    HW211323   2.043   0.265   0.718 -1.1992 -0.8437 -0.6581
  661SOL     OW11324   4.029   2.258   1.932 -0.2455  0.3514 -0.2275
  661SOL    HW111325   4.054   2.174   1.982 -0.8421 -0.1372 -0.7487
  661SOL    HW211326   3.968   2.313   1.989  0.3135  0.5379  0.2008
  662SOL     OW11327   3.223   2.958   2.040  0.1444 -0.2236 -0.6402
  662SOL    HW111328   3.215   2.930   2.135 -0.8002  0.5133 -0.4940
  662SOL    HW211329   3.251   2.880   1.984 -0.5304 -0.9652  0.0472
  663SOL     OW11330   3.030   3.253   0.839  0.3270  0.1197  0.0044
  663SOL    HW111331   2.941   3.239   0.882  0.4987 -0.1540  0.2733
  663SOL    HW211332   3.090   3.177   0.863 -0.0435 -0.8157 -1.9280
  665SOL     OW11333   2.448   0.644   1.243 -0.0618 -0.2080 -0.1776
  665SOL    HW111334   2.475   0.610   1.333  1.4626  0.0960 -0.5115
  665SOL    HW211335   2.359   0.689   1.250 -0.3206 -0.8694  1.0130
  666SOL     OW11336   4.313   2.377   0.793 -0.4160 -0.3876  0.0273
  666SOL    HW111337   4.317   2.458   0.851 -1.9275  0.1506 -0.5791
  666SOL    HW211338   4.376   2.308   0.827  0.4757  0.8325  0.8866
  667SOL     OW11339   2.495   9.212   0.497  0.3989  0.3254  0.0020
  667SOL    HW111340   2.439   9.263   0.561  0.0847  0.2086 -0.1786
  667SOL    HW211341   2.462   9.226   0.404  1.0055  0.6928 -0.1647
  668SOL     OW11342   2.182   9.974   1.839  0.4408  0.1416 -0.2992
  668SOL    HW111343   2.145  10.038   1.906  0.9565 -0.2499  0.3615
  668SOL    HW211344   2.240   9.907   1.885  3.4045  1.7822 -1.5403
  669SOL     OW11345   2.325   9.483   1.046 -0.1653 -0.0580 -0.1207
  669SOL    HW111346   2.329   9.388   1.077 -0.0530  0.3734  1.2559
  669SOL    HW211347   2.264   9.490   0.967 -0.9736 -1.1161  0.3890
  670SOL     OW11348   4.589   2.692   1.660  0.5480 -0.3759  0.4509
  670SOL    HW111349   4.667   2.736   1.615 -0.2425  0.2542 -0.3213
  670SOL    HW211350   4.577   2.600   1.623 -0.6766  0.4730 -1.3714
  671SOL     OW11351   3.271   9.171   1.869 -0.7402  0.1228  0.4116
  671SOL    HW111352   3.279   9.270   1.878 -1.0871  0.1033  0.9666
  671SOL    HW211353   3.361   9.129   1.884 -0.2127  0.4688 -1.6258
  672SOL     OW11354   2.567   4.211   1.778  0.2002 -0.0965 -0.1159
  672SOL    HW111355   2.548   4.189   1.683 -0.2976  0.6128 -0.1819
  672SOL    HW211356   2.485   4.249   1.821  0.7573  0.6852  0.2727
  673SOL     OW11357   3.505   9.621   1.376 -0.6393 -0.1577  0.3868
  673SOL    HW111358   3.467   9.557   1.310  0.6635 -1.2834  0.7059
  673SOL    HW211359   3.472   9.599   1.468 -0.1329 -0.4460  0.5067
  674SOL     OW11360   2.359   2.396   1.862  0.7780  0.6205 -0.1151
  674SOL    HW111361   2.306   2.312   1.866  2.2451 -0.2595  1.6693
  674SOL    HW211362   2.344   2.441   1.774  2.3107 -3.0765 -2.3957
  675SOL     OW11363   2.177   0.317   0.443 -0.1474 -0.1116  0.3440
  675SOL    HW111364   2.128   0.326   0.530  0.5266  1.4921  0.5800
  675SOL    HW211365   2.111   0.310   0.368 -0.7326 -0.7894  0.9147
  676SOL     OW11366   3.968   1.783   0.754 -0.4911 -0.6204  0.2631
  676SOL    HW111367   4.015   1.772   0.667  0.6704 -1.3065  0.9706
  676SOL    HW211368   3.931   1.876   0.760  1.5363  0.2226  0.0636
  677SOL     OW11369   3.959   1.895   1.099 -0.0584 -0.1637  0.2210
  677SOL    HW111370   4.058   1.906   1.090  0.2403 -0.6879  2.6429
  677SOL    HW211371   3.914   1.941   1.022  2.1470 -2.2505 -2.4596
  678SOL     OW11372   3.968   4.074   1.170 -0.1044 -0.2107  0.1502
  678SOL    HW111373   3.996   3.995   1.225 -0.3620 -0.6505 -0.3406
  678SOL    HW211374   3.884   4.113   1.209 -0.1447 -0.3654  0.2210
  679SOL     OW11375   4.364   2.546   0.549 -0.1543  0.2666 -0.0818
  679SOL    HW111376   4.406   2.479   0.611  1.3894  1.6409  0.4112
  679SOL    HW211377   4.427   2.566   0.474 -1.2624 -0.0106 -1.1035
  681SOL     OW11378   3.660   9.718   1.183 -0.1481 -0.2106  0.5622
  681SOL    HW111379   3.620   9.678   1.265  0.8766 -1.6622  0.3700
  681SOL    HW211380   3.722   9.792   1.210 -1.1781  0.5077  0.9859
  682SOL     OW11381   3.535   1.234   0.923  0.5939  0.0674  0.4033
  682SOL    HW111382   3.550   1.325   0.962  0.6330  0.6213 -0.8772
  682SOL    HW211383   3.447   1.232   0.876  0.3670 -0.7092  0.8676
  684SOL     OW11384   4.322   2.058   1.125 -0.3394  0.9176  0.0553
  684SOL    HW111385   4.389   2.099   1.063 -1.2187  1.5450 -0.4923
  684SOL    HW211386   4.294   1.968   1.090 -0.0750  0.8235  0.0843
  685SOL     OW11387   3.857   4.464   0.598 -0.0981 -0.4453 -0.4744
  685SOL    HW111388   3.808   4.411   0.668  1.4691  0.1433  1.1151
  685SOL    HW211389   3.908   4.402   0.539 -2.2333 -1.0229 -1.7601
  686SOL     OW11390   4.283   2.863   1.906  0.6670 -0.3872 -0.2911
  686SOL    HW111391   4.255   2.783   1.852 -0.1330  0.8924 -1.8389
  686SOL    HW211392   4.374   2.892   1.877 -0.4532  1.3445 -2.2770
  687SOL     OW11393   2.913   9.428   1.718  0.1324 -0.6526 -0.7794
  687SOL    HW111394   2.821   9.445   1.683 -0.7195  0.4579  1.8890
  687SOL    HW211395   2.924   9.331   1.738 -1.0483 -0.5460  0.4462
  689SOL     OW11396   2.019   0.191   1.067  0.6122  0.5251 -0.1633
  689SOL    HW111397   2.110   0.232   1.073  0.9456 -0.2980  0.5189
  689SOL    HW211398   1.978   0.186   1.158  1.5525 -2.8135  0.1242
  691SOL     OW11399   2.507   9.875   2.355 -0.4207  0.6488 -0.2397
  691SOL    HW111400   2.533   9.967   2.383  1.1943 -0.3433  1.5637
  691SOL    HW211401   2.434   9.841   2.414  1.6677 -0.7015  1.6311
  692SOL     OW11402   3.731   4.658   1.051  0.2209 -0.5000 -0.3374
  692SOL    HW111403   3.799   4.600   1.008 -0.7112 -1.8201 -0.0675
  692SOL    HW211404   3.641   4.615   1.043 -0.6959  1.5224 -1.2807
  693SOL     OW11405   2.462   3.105   0.434  0.6366 -0.8064  0.4514
  693SOL    HW111406   2.556   3.084   0.409  0.4013 -2.2455  0.7008
  693SOL    HW211407   2.425   3.174   0.372  1.3781 -1.3147 -0.5631
  695SOL     OW11408   3.661   1.390   2.201  0.5706 -0.3598  0.0056
  695SOL    HW111409   3.636   1.348   2.288  0.1027 -1.1235 -0.4922
  695SOL    HW211410   3.708   1.477   2.218 -1.4721  0.5831  0.9814
  696SOL     OW11411   2.613   3.921   2.309 -0.4007  0.1453  0.2589
  696SOL    HW111412   2.679   3.993   2.291  0.0692 -0.3639 -0.0718
  696SOL    HW211413   2.541   3.956   2.369  0.0083  0.7857  0.3804
  697SOL     OW11414   1.962   1.111   0.279 -0.0366 -0.4207  0.2641
  697SOL    HW111415   1.908   1.184   0.237 -1.0637 -0.4819  1.4649
  697SOL    HW211416   2.059   1.133   0.269 -0.2719 -0.0287 -1.3989
  698SOL     OW11417   3.377   3.135   2.261  0.4185 -0.0864 -0.3693
  698SOL    HW111418   3.394   3.105   2.355 -0.0010  1.9842  0.3829
  698SOL    HW211419   3.308   3.076   2.220  1.1399 -1.4741  0.3458
  699SOL     OW11420   4.146   4.265   1.275  0.0335 -0.0796  0.3557
  699SOL    HW111421   4.135   4.361   1.246  0.5219 -0.2210 -0.3224
  699SOL    HW211422   4.082   4.208   1.222  1.2056 -0.3917 -0.7456
  700SOL     OW11423   4.070   4.816   1.685  0.3866 -0.2815 -0.4741
  700SOL    HW111424   4.009   4.737   1.687  0.9683 -0.7530 -1.0940
  700SOL    HW211425   4.164   4.787   1.700  0.6080  0.2968 -0.7035
  701SOL     OW11426   2.989   3.766   0.903 -0.1220 -0.4271  0.1032
  701SOL    HW111427   3.002   3.862   0.928 -2.9012  0.1012 -0.3215
  701SOL    HW211428   2.936   3.720   0.975  0.3462 -1.3976 -0.1646
  702SOL     OW11429   2.268   3.472   1.684  0.5439  0.4656  0.0972
  702SOL    HW111430   2.254   3.477   1.783  2.3304  0.6620  0.3535
  702SOL    HW211431   2.365   3.462   1.664  0.2867  1.2038 -1.6768
  704SOL     OW11432   4.030   4.487   0.885  0.1745 -0.1902  0.4902
  704SOL    HW111433   3.952   4.425   0.873  0.1401 -0.2435  0.9397
  704SOL    HW211434   4.035   4.551   0.809 -1.6164  1.2272  1.5220
  705SOL     OW11435   3.747   3.816   2.187 -0.4423  0.0041  0.8221
  705SOL    HW111436   3.694   3.884   2.238  0.3716  0.7939  0.6126
  705SOL    HW211437   3.684   3.750   2.146 -1.1529 -0.2129  2.2222
  706SOL     OW11438   3.663   9.949   0.732 -0.5763 -0.5711 -0.0441
  706SOL    HW111439   3.622   9.900   0.809 -1.5755 -0.4971 -0.5345
  706SOL    HW211440   3.679  10.044   0.758 -0.1628 -0.7423  0.3411
  707SOL     OW11441   3.833   4.113   1.568 -0.2650 -0.0539  0.1371
  707SOL    HW111442   3.818   4.126   1.666  1.1023  1.1123  0.2002
  707SOL    HW211443   3.930   4.127   1.547 -0.8496  1.5611 -1.6472
  708SOL     OW11444   4.052   0.883   1.862  0.0395 -0.1877 -0.1498
  708SOL    HW111445   4.121   0.901   1.792  0.5124 -0.8386  0.1472
  708SOL    HW211446   3.999   0.967   1.878  1.4777  0.6340  0.4161
  711SOL     OW11447   4.131   3.929   1.608 -0.3221  0.6631  0.4547
  711SOL    HW111448   4.068   3.908   1.683 -1.9753 -0.0808 -1.1270
  711SOL    HW211449   4.223   3.897   1.632 -1.2290 -1.3602  1.3355
  712SOL     OW11450   3.478   0.684   0.274  0.0377  0.4482  0.0869
  712SOL    HW111451   3.476   0.608   0.339  1.9161  0.9612  0.7549
  712SOL    HW211452   3.384   0.716   0.258 -0.4147  0.6612  2.9438
  713SOL     OW11453   3.052   3.936   1.854  0.2147 -0.1848 -0.1198
  713SOL    HW111454   3.031   3.967   1.947 -0.7546  1.9654 -1.0115
  713SOL    HW211455   3.136   3.981   1.823 -0.1734  0.1157 -0.7413
  714SOL     OW11456   4.845   3.275   0.954 -0.4400 -0.5077  0.3647
  714SOL    HW111457   4.774   3.314   1.012 -0.0723 -0.2856  0.6758
  714SOL    HW211458   4.818   3.281   0.858 -1.2611 -1.2984  0.5403
  715SOL     OW11459   2.362   2.226   1.214 -0.2987 -0.3646  0.3501
  715SOL    HW111460   2.292   2.298   1.228  0.2996  0.3162 -0.1454
  715SOL    HW211461   2.377   2.212   1.117  0.3805 -0.3911  0.4554
  716SOL     OW11462   4.193   1.355   1.368  0.4221 -0.1369 -0.2002
  716SOL    HW111463   4.125   1.329   1.437 -1.7148  1.4530 -1.6297
  716SOL    HW211464   4.146   1.373   1.281  2.8905 -0.6177 -1.6717
  719SOL     OW11465   2.494  10.181   1.224 -0.4013 -0.1403  0.2474
  719SOL    HW111466   2.500  10.232   1.310  0.3965  0.0255  0.0930
  719SOL    HW211467   2.581  10.137   1.205 -1.3431 -2.3484  0.8500
  720SOL     OW11468   2.054   1.846   2.210 -0.3133 -0.1362  0.6520
  720SOL    HW111469   2.061   1.893   2.299 -0.7605  0.7438  0.2284
  720SOL    HW211470   2.039   1.749   2.225  1.4451 -0.2912  1.5516
  722SOL     OW11471   3.376   9.669   0.801 -0.7295 -0.5305 -0.3254
  722SOL    HW111472   3.330   9.603   0.743  0.2998 -0.0436 -1.7079
  722SOL    HW211473   3.308   9.731   0.841 -1.5433 -1.5338 -0.1519
  723SOL     OW11474   2.383   1.566   1.522 -0.8017 -0.4563  0.0580
  723SOL    HW111475   2.357   1.541   1.615 -0.8225 -0.5315  0.0316
  723SOL    HW211476   2.414   1.661   1.521  0.0001 -0.7165  0.2976
  724SOL     OW11477   3.228   3.923   1.094 -0.4289  0.3302  0.0636
  724SOL    HW111478   3.189   3.833   1.116  1.0617 -0.1800  0.7338
  724SOL    HW211479   3.323   3.911   1.064 -0.2638  1.6797  0.0218
  725SOL     OW11480   3.838   2.580   1.351  0.4812 -0.1535 -1.0303
  725SOL    HW111481   3.934   2.603   1.369  0.1721 -0.1177  0.7022
  725SOL    HW211482   3.814   2.497   1.401 -0.5131  0.1055 -1.0717
  726SOL     OW11483   3.989   1.165   2.161 -0.1448  0.0325  0.1244
  726SOL    HW111484   4.038   1.244   2.197  2.3598 -0.4790 -2.1014
  726SOL    HW211485   3.896   1.192   2.135 -0.7280  1.2659  3.1879
  727SOL     OW11486   3.254   9.893   1.767 -0.1169 -0.1056  0.5028
  727SOL    HW111487   3.280   9.863   1.859 -0.2450 -4.3153 -0.7064
  727SOL    HW211488   3.157   9.872   1.752  0.1105 -0.2176 -0.8729
  728SOL     OW11489   2.992   2.231   1.026 -0.5349  0.1920 -0.7713
  728SOL    HW111490   3.086   2.264   1.015 -0.6301  1.0016  0.8315
  728SOL    HW211491   2.929   2.308   1.028 -1.0797 -0.2635 -0.2593
  729SOL     OW11492   4.009   1.618   0.362 -0.3593  0.3920 -0.0746
  729SOL    HW111493   4.029   1.704   0.408  0.6033 -0.4644  1.1475
  729SOL    HW211494   3.916   1.620   0.326 -1.2839  0.9569  2.2369
  731SOL     OW11495   4.421   2.183   2.932 -0.1645 -0.0323 -0.2350
  731SOL    HW111496   4.372   2.097   2.917 -1.2874  0.5506  0.0360
  731SOL    HW211497   4.470   2.208   2.849  1.5019 -1.7521  0.1827
  732SOL     OW11498   2.441   0.523   1.499  0.2707  0.3774  0.6197
  732SOL    HW111499   2.492   0.438   1.485  1.7907  0.9535  2.4761
  732SOL    HW211500   2.396   0.520   1.588 -0.0398  1.3575  0.4999
  733SOL     OW11501   4.030   1.410   2.261 -0.3322 -0.1677  0.2285
  733SOL    HW111502   4.018   1.452   2.171 -2.3798  1.3845  1.2101
  733SOL    HW211503   4.108   1.452   2.307 -1.3531  1.4294  0.5320
  734SOL     OW11504   3.406   3.994   0.315  0.3044  0.7130  0.6605
  734SOL    HW111505   3.467   4.017   0.239  0.0805  0.2741  0.3460
  734SOL    HW211506   3.313   3.981   0.281  0.0632  1.2098  1.1139
  736SOL     OW11507   3.333   3.814   1.551 -0.0831  0.4298 -0.4333
  736SOL    HW111508   3.410   3.821   1.489 -0.0383  0.1400 -0.4123
  736SOL    HW211509   3.256   3.771   1.505 -1.1998  3.2855 -1.3329
  737SOL     OW11510   2.796   3.141   0.944  0.1242  0.5265  0.8046
  737SOL    HW111511   2.829   3.061   0.993 -1.7036 -0.1323  0.9903
  737SOL    HW211512   2.710   3.119   0.899 -0.4998  2.4332  1.0258
  738SOL     OW11513   3.288   8.472   1.295  0.3800 -0.1312 -0.1485
  738SOL    HW111514   3.254   8.508   1.208 -0.0581 -1.6510 -0.6334
  738SOL    HW211515   3.221   8.486   1.367  0.4741  0.5669 -0.2012
  739SOL     OW11516   2.888   1.757   1.408 -0.0779  0.2110  0.1612
  739SOL    HW111517   2.963   1.793   1.464  1.2652 -2.7867  0.3533
  739SOL    HW211518   2.904   1.660   1.389 -2.1449  0.3835 -2.7388
  740SOL     OW11519   2.468   3.844   0.433  0.4473  0.1141  0.1350
  740SOL    HW111520   2.488   3.790   0.515  0.3077  2.1361  1.5549
  740SOL    HW211521   2.549   3.846   0.374  2.0435  2.1432  2.2975
  741SOL     OW11522   4.165   0.681   0.933 -0.4027  0.3103 -0.2223
  741SOL    HW111523   4.168   0.760   0.873 -1.0622  0.3346 -0.2320
  741SOL    HW211524   4.155   0.598   0.879 -1.0839  0.3399 -0.1429
  742SOL     OW11525   3.544   9.450   0.861 -0.0680  0.1865 -0.2335
  742SOL    HW111526   3.636   9.460   0.822  0.2273  2.8585  0.9774
  742SOL    HW211527   3.491   9.532   0.842 -1.3763 -0.3166  1.1444
  743SOL     OW11528   2.724   2.767   1.086  0.0174  0.3606  0.1600
  743SOL    HW111529   2.688   2.716   1.164 -1.2916  0.8333 -0.1301
  743SOL    HW211530   2.664   2.754   1.007  1.3838 -0.1927 -0.8010
  744SOL     OW11531   2.082   1.706   1.786 -0.0918  0.4853  0.0034
  744SOL    HW111532   2.106   1.736   1.878  2.2720 -1.0683 -0.0597
  744SOL    HW211533   2.154   1.733   1.722  0.2085 -1.8160 -0.6914
  745SOL     OW11534   2.129   1.697   1.201  0.3827  0.5560 -0.4141
  745SOL    HW111535   2.132   1.675   1.299 -0.5234  2.4074  0.0541
  745SOL    HW211536   2.074   1.628   1.154  0.0514  0.1562  0.5343
  747SOL     OW11537   2.727   4.465   0.337  0.9446 -0.6322  0.3895
  747SOL    HW111538   2.736   4.488   0.434  2.5591 -1.4171  0.4506
  747SOL    HW211539   2.779   4.531   0.282  0.6181 -0.6054  0.1112
  748SOL     OW11540   2.573   3.077   0.795 -0.4118 -0.0919 -0.6407
  748SOL    HW111541   2.480   3.072   0.760 -0.8699  0.6457  0.4457
  748SOL    HW211542   2.636   3.037   0.728 -1.2326  1.5408 -2.4414
  751SOL     OW11543   3.322   9.220   0.618  0.0686 -0.1130 -0.4947
  751SOL    HW111544   3.311   9.141   0.678  2.1245  0.6976  0.9948
  751SOL    HW211545   3.395   9.201   0.552 -0.5308 -0.0629 -1.1774
  752SOL     OW11546   2.745   3.081   0.432 -0.3924 -0.2160 -0.1213
  752SOL    HW111547   2.843   3.101   0.432 -0.7768  1.8887  2.3549
  752SOL    HW211548   2.723   3.018   0.507 -1.3467  1.6946  1.2378
  753SOL     OW11549   3.816   2.281   1.662  0.5900 -0.2387 -0.1458
  753SOL    HW111550   3.739   2.222   1.687  0.4359  0.2732  0.6117
  753SOL    HW211551   3.884   2.280   1.736  1.1641 -0.4397 -0.6743
  754SOL     OW11552   2.642   2.277   1.327  0.1595  0.2330 -0.3086
  754SOL    HW111553   2.645   2.207   1.399  1.4405  0.8499  0.2425
  754SOL    HW211554   2.555   2.269   1.278 -0.0727 -1.1984  0.2913
  755SOL     OW11555   3.642   3.586   1.412  0.0380 -0.2964  0.1900
  755SOL    HW111556   3.733   3.577   1.373  0.0884  1.6831 -0.2250
  755SOL    HW211557   3.590   3.652   1.359 -1.3776 -0.8159  0.8995
  756SOL     OW11558   2.629   2.591   1.623  1.3471  0.3617 -0.1183
  756SOL    HW111559   2.620   2.491   1.630  3.4858  0.2767  1.6884
  756SOL    HW211560   2.711   2.614   1.571  0.9516  1.2080 -0.3832
  757SOL     OW11561   3.188   8.816   2.081  0.1964 -0.1951  0.4105
  757SOL    HW111562   3.103   8.774   2.049  1.8085 -0.9243 -3.1854
  757SOL    HW211563   3.265   8.757   2.056  1.8417  0.7728  3.0312
  758SOL     OW11564   2.688   2.274   0.869 -0.1137  0.0510  0.2192
  758SOL    HW111565   2.656   2.333   0.795 -1.0374  0.3392  0.8368
  758SOL    HW211566   2.738   2.330   0.936  1.6480 -0.3841 -0.7060
  759SOL     OW11567   2.715   1.315   0.440 -0.4612 -0.0764  0.1286
  759SOL    HW111568   2.661   1.248   0.491  1.2946 -0.1565  1.9738
  759SOL    HW211569   2.657   1.391   0.413 -1.9597 -1.1954  0.1308
  761SOL     OW11570   2.284   2.907   2.044  0.5432  0.0643  0.4200
  761SOL    HW111571   2.337   2.991   2.051  1.3139 -0.3152 -0.6871
  761SOL    HW211572   2.237   2.904   1.956 -0.1549 -0.2861  0.7927
  762SOL     OW11573   3.138   2.829   1.666  0.0692 -0.1235  0.4023
  762SOL    HW111574   3.070   2.780   1.612  1.9889 -0.5375 -1.7322
  762SOL    HW211575   3.141   2.924   1.637 -0.7109  0.2911  1.6325
  763SOL     OW11576   2.483   1.901   0.600 -0.6886 -0.1529 -0.0342
  763SOL    HW111577   2.554   1.970   0.582 -0.5348  0.4911  2.7384
  763SOL    HW211578   2.522   1.810   0.593 -0.3810  0.0850 -1.6584
  764SOL     OW11579   3.592   1.878   1.615  0.0929 -0.3034 -0.1382
  764SOL    HW111580   3.649   1.906   1.538 -0.7684  0.8585 -0.3592
  764SOL    HW211581   3.497   1.904   1.598 -0.0341  0.4028  1.5424
  765SOL     OW11582   2.864   9.380   1.340 -0.0619 -0.2336 -0.4911
  765SOL    HW111583   2.879   9.452   1.407  1.8454 -1.0089 -0.0556
  765SOL    HW211584   2.780   9.330   1.363 -0.4153  0.6922  0.2375
  770SOL     OW11585   2.215   3.065   0.281  0.3754 -0.3716 -0.2472
  770SOL    HW111586   2.255   3.030   0.197 -0.2194  1.5851 -1.3741
  770SOL    HW211587   2.170   2.990   0.330  3.5039 -2.1633 -0.0128
  772SOL     OW11588   3.013   8.775   1.717  0.0288 -0.2874 -0.0959
  772SOL    HW111589   3.040   8.681   1.740 -0.1842 -0.3828 -0.2346
  772SOL    HW211590   3.092   8.836   1.729 -0.4070 -0.1375  2.1226
  773SOL     OW11591   2.684   2.761   1.857 -0.1659 -0.1278  0.4954
  773SOL    HW111592   2.668   2.689   1.790  0.5480  0.3147 -0.1497
  773SOL    HW211593   2.650   2.731   1.946 -0.3955 -1.0329  0.1085
  774SOL     OW11594   2.116   2.369   0.725  0.4035 -0.1144  0.3405
  774SOL    HW111595   2.136   2.392   0.630  2.7727  0.4995  0.9576
  774SOL    HW211596   2.084   2.275   0.731  0.5676 -0.2595 -1.0236
  776SOL     OW11597   2.887   4.503   1.359 -0.3119 -0.1874 -0.0636
  776SOL    HW111598   2.879   4.602   1.349  1.5895 -0.0436 -0.3551
  776SOL    HW211599   2.877   4.478   1.456 -0.1557  0.3668  0.0973
  777SOL     OW11600   3.857   2.339   0.634 -0.5611  1.0654  0.7307
  777SOL    HW111601   3.815   2.285   0.561  0.5660  0.3061  0.6127
  777SOL    HW211602   3.804   2.329   0.718 -0.3627 -0.2743  0.7181
  778SOL     OW11603   3.585   4.986   1.530 -0.2840 -0.3180 -0.4091
  778SOL    HW111604   3.562   5.083   1.522  2.2947  0.3467 -0.1155
  778SOL    HW211605   3.673   4.968   1.487 -0.0197 -2.2343  0.8485
  779SOL     OW11606   4.229   2.273   1.705  0.0856 -0.2666 -0.4320
  779SOL    HW111607   4.148   2.280   1.763 -0.6276  2.3700 -1.6313
  779SOL    HW211608   4.202   2.281   1.609  1.6368 -0.6969 -0.9173
  780SOL     OW11609   2.576   8.955   0.558  0.1095 -0.0392  0.2256
  780SOL    HW111610   2.601   9.017   0.484 -0.2112  0.1087  0.2403
  780SOL    HW211611   2.478   8.962   0.575 -0.0991 -1.2137 -0.4002
  781SOL     OW11612   3.276   3.851   0.806 -0.9338 -0.0282 -0.1361
  781SOL    HW111613   3.223   3.830   0.888  2.2034 -1.8921  1.5174
  781SOL    HW211614   3.303   3.947   0.806 -1.3373  0.0842  0.7605
  782SOL     OW11615   4.069   3.552   1.484 -0.7855  0.3951  0.0743
  782SOL    HW111616   4.042   3.566   1.579 -2.7386  1.8756 -0.6723
  782SOL    HW211617   4.051   3.457   1.458 -1.9064  0.4331  0.6793
  783SOL     OW11618   4.011   1.509   1.998 -0.6796 -0.4011 -0.6724
  783SOL    HW111619   3.944   1.515   1.924 -0.0106  0.3158 -1.2247
  783SOL    HW211620   4.099   1.478   1.962 -0.3413 -0.0235 -0.1879
  784SOL     OW11621   2.707   2.184   2.249  0.2966 -0.2484  0.0690
  784SOL    HW111622   2.661   2.241   2.181  0.8239  1.1623  0.8778
  784SOL    HW211623   2.644   2.111   2.279 -1.4297  1.6396  1.1591
  785SOL     OW11624   3.506   1.498   0.976  0.4782  0.3377 -0.5948
  785SOL    HW111625   3.433   1.526   0.914  0.4324  0.0279 -0.6807
  785SOL    HW211626   3.585   1.558   0.964 -0.3213  1.6871  0.6136
  786SOL     OW11627   3.964   0.637   1.879 -0.2316  0.0734  0.1287
  786SOL    HW111628   4.025   0.573   1.833  0.4071 -0.2948  1.4538
  786SOL    HW211629   4.007   0.727   1.884  0.5506 -0.3497  1.6746
  787SOL     OW11630   4.068   1.435   1.111  0.4638  0.1271  0.1025
  787SOL    HW111631   4.006   1.497   1.159 -0.5409 -1.3472  0.7754
  787SOL    HW211632   4.090   1.473   1.021 -1.3257  0.7699 -0.0966
  788SOL     OW11633   3.276   9.764   1.194 -0.0668  0.4303 -0.0632
  788SOL    HW111634   3.284   9.776   1.293 -0.8464 -0.5687  0.1389
  788SOL    HW211635   3.287   9.667   1.171 -0.7771  0.5271 -0.8560
  790SOL     OW11636   3.936   4.213   0.473  0.3766  0.6540  0.1663
  790SOL    HW111637   4.026   4.253   0.455  0.3677 -0.5357 -2.9279
  790SOL    HW211638   3.946   4.130   0.527  1.3870 -0.6867 -2.0342
  791SOL     OW11639   3.094   3.051   1.333  0.2175 -0.0401  0.1651
  791SOL    HW111640   3.140   3.123   1.280 -1.1667  0.4613 -0.3856
  791SOL    HW211641   3.096   3.074   1.430 -0.3469  0.8251 -0.0215
  792SOL     OW11642   3.567   9.855   1.743  0.0878 -0.4305  0.2704
  792SOL    HW111643   3.580   9.858   1.644 -0.7895 -2.1489  0.0819
  792SOL    HW211644   3.470   9.844   1.763  0.2685 -0.1446  1.3221
  793SOL     OW11645   2.834   1.969   0.941  0.0952  0.2985  0.1354
  793SOL    HW111646   2.735   1.979   0.934  0.0499 -0.2712 -0.0005
  793SOL    HW211647   2.873   2.054   0.978 -0.1740  1.5407 -2.2891
  794SOL     OW11648   3.430   4.504   1.064  0.3446 -0.0014 -0.3737
  794SOL    HW111649   3.429   4.534   1.160 -2.5340  0.3867 -0.4666
  794SOL    HW211650   3.394   4.578   1.006 -1.8797 -1.7022 -1.2270
  795SOL     OW11651   4.076   2.563   1.020 -0.8013 -0.7057  0.5194
  795SOL    HW111652   4.048   2.658   1.004  0.5457 -0.3946 -0.0843
  795SOL    HW211653   4.093   2.549   1.117  0.5750  0.1238  0.4033
  796SOL     OW11654   3.529   4.868   1.097 -0.1861 -0.3059  0.3677
  796SOL    HW111655   3.624   4.847   1.121 -0.7008 -0.8170  1.9841
  796SOL    HW211656   3.520   4.966   1.080  0.3786 -0.0616  1.4157
  797SOL     OW11657   3.573   9.167   0.843 -0.0151  0.2102  0.0747
  797SOL    HW111658   3.566   9.266   0.853  1.4253  0.2057  1.2111
  797SOL    HW211659   3.504   9.136   0.778 -1.1630  1.8257  0.4870
  798SOL     OW11660   3.062   8.918   2.345 -0.6172 -0.3960  0.3639
  798SOL    HW111661   3.113   8.878   2.269  0.9013  4.3066 -1.2809
  798SOL    HW211662   2.965   8.927   2.320 -0.6100 -1.2784  0.0206
  799SOL     OW11663   3.771   2.336   2.342 -0.3465 -0.3109 -0.0296
  799SOL    HW111664   3.871   2.333   2.336 -0.0997  0.9346  2.9902
  799SOL    HW211665   3.733   2.331   2.250  2.5848  2.3538 -1.4934
  801SOL     OW11666   2.297   2.416   1.581 -0.4874  0.0482  0.6604
  801SOL    HW111667   2.393   2.387   1.577 -0.4378  0.2104  0.7051
  801SOL    HW211668   2.252   2.391   1.495 -0.1179  1.0038  0.1853
  802SOL     OW11669   2.163   9.979   0.976 -0.6188 -0.5119 -0.0109
  802SOL    HW111670   2.106  10.057   1.001 -1.2367 -1.0221  0.1893
  802SOL    HW211671   2.239   9.971   1.041 -1.2085 -0.7663  0.6572
  804SOL     OW11672   4.179   1.196   1.918 -0.3201 -0.5665 -0.0347
  804SOL    HW111673   4.178   1.175   2.016 -1.7121  0.7785  0.2651
  804SOL    HW211674   4.100   1.153   1.874 -0.5122  0.0403 -0.2919
  805SOL     OW11675   4.214   3.167   1.469 -0.2318  0.1794 -0.3847
  805SOL    HW111676   4.136   3.202   1.417  1.0581  0.7459 -2.0108
  805SOL    HW211677   4.298   3.208   1.432  0.8500 -0.6829  1.1102
  806SOL     OW11678   2.279   1.160   2.021 -0.0503 -0.1615  0.2214
  806SOL    HW111679   2.344   1.133   1.951  0.2221 -0.8414  0.7271
  806SOL    HW211680   2.322   1.150   2.111 -0.5571  0.2334  0.5079
  807SOL     OW11681   4.771   2.339   0.780  0.7830  0.2120 -1.0889
  807SOL    HW111682   4.725   2.294   0.703 -0.3092  1.6868 -1.3262
  807SOL    HW211683   4.808   2.427   0.750 -0.0158  0.9898  0.1639
  809SOL     OW11684   1.824   2.027   0.774  0.5972 -0.8084 -0.1264
  809SOL    HW111685   1.725   2.019   0.787  0.4709  0.3994 -0.2801
  809SOL    HW211686   1.872   1.977   0.846 -0.1301 -0.7454  0.4016
  810SOL     OW11687   4.051   3.866   1.327  0.1872  0.3944  0.0123
  810SOL    HW111688   4.096   3.779   1.311 -0.0547  0.4333 -0.9040
  810SOL    HW211689   4.092   3.911   1.406  0.2181 -0.6087  0.5728
  812SOL     OW11690   3.426   8.387   1.002 -0.3009 -0.5889 -0.4300
  812SOL    HW111691   3.343   8.429   1.040 -0.1353  0.4651 -1.2200
  812SOL    HW211692   3.416   8.377   0.903  1.3315  1.4565 -0.8250
  814SOL     OW11693   2.850   1.049   0.839  0.0550  0.1442 -0.3624
  814SOL    HW111694   2.806   0.962   0.857 -0.6393  0.2573 -1.4786
  814SOL    HW211695   2.918   1.038   0.766  0.9258  0.2574  0.4164
  815SOL     OW11696   2.971   9.425   2.073  0.1087 -0.3473  0.0554
  815SOL    HW111697   2.948   9.506   2.127 -1.1104 -0.5351 -0.1857
  815SOL    HW211698   2.973   9.449   1.976 -0.6547 -0.7059 -0.0453
  816SOL     OW11699   4.203   2.300   0.414 -0.7100 -0.2021 -0.4438
  816SOL    HW111700   4.273   2.252   0.361  1.0728  3.6835 -1.7848
  816SOL    HW211701   4.243   2.332   0.500 -0.2704  3.3617 -1.8779
  817SOL     OW11702   3.065   3.703   1.715 -0.0751  0.0281  0.1110
  817SOL    HW111703   3.069   3.791   1.762  0.8290 -0.6244  1.2954
  817SOL    HW211704   3.059   3.717   1.617  0.4408  1.4082  0.2694
  818SOL     OW11705   3.342   3.495   1.440 -0.2421  0.2942 -0.0113
  818SOL    HW111706   3.323   3.482   1.537 -0.4125 -0.5876 -0.1622
  818SOL    HW211707   3.433   3.534   1.429  0.5426 -1.3714  0.4167
  820SOL     OW11708   4.077   3.830   0.969 -0.3856 -0.0288  0.0302
  820SOL    HW111709   4.121   3.919   0.963 -0.5506 -0.0096 -0.9253
  820SOL    HW211710   4.141   3.763   1.008 -0.0628  0.3647  0.1739
  821SOL     OW11711   3.218   2.973   0.655 -0.0879 -0.3543  0.0195
  821SOL    HW111712   3.285   2.916   0.608  3.1646  4.3497 -1.4158
  821SOL    HW211713   3.161   3.020   0.587 -0.4224  0.6609  0.9848
  822SOL     OW11714   3.188   4.200   1.212  0.1693 -0.4059  0.1635
  822SOL    HW111715   3.171   4.161   1.302  2.0342 -1.2876  0.1614
  822SOL    HW211716   3.202   4.126   1.146 -0.5832  0.2420 -0.7383
  823SOL     OW11717   2.776   2.353   0.285  0.7171 -0.1603  0.1870
  823SOL    HW111718   2.813   2.363   0.378 -0.5371  0.7633  0.5982
  823SOL    HW211719   2.737   2.440   0.255 -1.9987 -1.3434  0.1606
  824SOL     OW11720   2.902   3.155   1.740  0.2991  0.3041  0.6838
  824SOL    HW111721   2.820   3.098   1.734  0.4981 -0.0499  1.2830
  824SOL    HW211722   2.923   3.173   1.836  0.3120  1.2887  0.5026
  825SOL     OW11723   3.421   1.651   1.318  0.1023  0.6194 -0.2880
  825SOL    HW111724   3.457   1.738   1.351 -1.3712  0.6926  1.2015
  825SOL    HW211725   3.344   1.622   1.375  0.7869 -1.8515 -0.5383
  826SOL     OW11726   3.626   1.849   1.206  0.3990 -0.5634  0.4764
  826SOL    HW111727   3.642   1.759   1.164 -0.1788 -0.9294  1.0212
  826SOL    HW211728   3.696   1.866   1.276  1.2636 -0.0255 -0.5010
  828SOL     OW11729   2.658   9.238   0.874 -0.5203 -0.4672  1.0159
  828SOL    HW111730   2.621   9.326   0.904  0.4478  1.3131 -2.7709
  828SOL    HW211731   2.715   9.200   0.947  0.6469  3.0103  2.0179
  829SOL     OW11732   3.290   0.328   1.476 -0.1153  0.1502  0.1236
  829SOL    HW111733   3.359   0.400   1.475  0.6186 -0.5481  0.3365
  829SOL    HW211734   3.203   0.367   1.506 -0.2993  1.4507 -1.9974
  831SOL     OW11735   2.919   3.261   2.006  0.1886 -0.2782 -0.2088
  831SOL    HW111736   2.928   3.353   2.043  1.6602 -0.1720 -0.7837
  831SOL    HW211737   2.828   3.226   2.025 -1.0136  2.0051 -1.5814
  833SOL     OW11738   3.603   2.987   1.647  0.2697 -0.6831 -0.4861
  833SOL    HW111739   3.638   2.895   1.631  1.1568 -0.6548  1.1224
  833SOL    HW211740   3.636   3.020   1.736 -0.4071  1.0087 -0.8412
  834SOL     OW11741   3.814   2.880   0.646 -0.4372 -0.0977 -0.1013
  834SOL    HW111742   3.902   2.921   0.622 -0.8135  1.0186  0.3968
  834SOL    HW211743   3.828   2.786   0.676  0.4807 -0.2232 -0.8886
  835SOL     OW11744   4.379   3.955   1.755 -0.4916 -0.3540  0.8894
  835SOL    HW111745   4.361   3.990   1.847  2.6310 -1.8728  2.1354
  835SOL    HW211746   4.371   3.856   1.756  0.0431 -0.4087 -0.3720
  836SOL     OW11747   2.978   5.445   2.219 -0.5980 -0.4050  0.5011
  836SOL    HW111748   3.008   5.350   2.210  1.7234  0.4756 -1.5875
  836SOL    HW211749   3.005   5.481   2.308 -1.4055 -1.6504  1.2602
  838SOL     OW11750   2.919   2.403   0.499  0.1371 -0.2797  0.1222
  838SOL    HW111751   2.921   2.356   0.587  1.3367  0.7741  0.6791
  838SOL    HW211752   2.983   2.480   0.501 -1.4747  1.1284 -0.9021
  839SOL     OW11753   2.277   3.161   1.686  0.0867 -0.0257 -0.6526
  839SOL    HW111754   2.313   3.154   1.594 -1.3179  0.1014 -1.2281
  839SOL    HW211755   2.226   3.246   1.696  1.0189  0.4160  0.5325
  840SOL     OW11756   4.275   2.659   1.721 -0.1321  0.6529  0.0880
  840SOL    HW111757   4.242   2.622   1.634  1.0556 -1.3605  0.4397
  840SOL    HW211758   4.374   2.671   1.716 -0.0423  0.4006  1.1958
  841SOL     OW11759   4.265   1.165   0.596  0.1344 -0.3379  0.3882
  841SOL    HW111760   4.357   1.126   0.586 -0.4736 -1.1015 -2.8699
  841SOL    HW211761   4.205   1.098   0.639  0.6660 -0.5421  0.8133
  842SOL     OW11762   3.027   2.032   0.481  0.8532 -0.0479 -0.1318
  842SOL    HW111763   3.029   2.091   0.400 -1.1015 -0.6247 -0.6258
  842SOL    HW211764   3.000   2.086   0.561 -1.3407 -0.3308 -0.6602
  843SOL     OW11765   2.235   2.562   0.904 -0.2798 -0.2735  0.6466
  843SOL    HW111766   2.233   2.620   0.823 -0.2838  0.1290  0.9315
  843SOL    HW211767   2.181   2.479   0.888 -0.1417 -0.2715  0.1824
  844SOL     OW11768   4.944   3.141   1.863  0.2852  0.6131  0.1699
  844SOL    HW111769   4.871   3.099   1.918 -0.8594  0.6079 -1.3081
  844SOL    HW211770   4.913   3.230   1.830  1.7827  1.5595  1.2826
  846SOL     OW11771   3.752   2.772   1.196 -0.4035 -0.2741 -0.4132
  846SOL    HW111772   3.799   2.860   1.189  3.3743 -2.2582 -0.7290
  846SOL    HW211773   3.802   2.712   1.258 -1.5723 -3.0845 -2.1127
  847SOL     OW11774   3.061   2.511   1.730 -0.3107 -0.0984  0.2643
  847SOL    HW111775   3.014   2.541   1.647  0.7572  1.5895  0.2636
  847SOL    HW211776   3.053   2.581   1.801 -1.6008 -1.7148  1.7702
  848SOL     OW11777   3.083   4.140   1.504 -0.3138 -0.0923 -0.1916
  848SOL    HW111778   3.142   4.100   1.575 -1.4913  0.0906  0.9091
  848SOL    HW211779   3.104   4.237   1.494  0.2168 -0.2336 -0.4699
  849SOL     OW11780   3.940   3.284   0.641  0.2456  0.1684 -0.0889
  849SOL    HW111781   3.953   3.354   0.571 -1.4171 -0.2516 -0.8583
  849SOL    HW211782   3.916   3.328   0.728  1.3288  0.6479 -0.0318
  850SOL     OW11783   4.545   3.161   1.655  0.6022 -0.7743 -0.0082
  850SOL    HW111784   4.527   3.216   1.573  0.1408  2.0080  1.8719
  850SOL    HW211785   4.516   3.067   1.639 -0.7095  0.0174 -2.6045
  851SOL     OW11786   3.973   1.735   1.576 -0.2730 -0.2521  0.5203
  851SOL    HW111787   4.030   1.705   1.499  0.8859  0.6358  1.0082
  851SOL    HW211788   4.031   1.779   1.645 -1.6867  1.6352  0.5465
  852SOL     OW11789   3.312   4.448   0.284  0.0620  0.5219  0.1792
  852SOL    HW111790   3.297   4.537   0.242 -0.2377 -0.2629 -1.4137
  852SOL    HW211791   3.247   4.382   0.247  2.1550 -1.0396 -0.8249
  853SOL     OW11792   2.231   2.384   0.497 -0.0903 -0.2853 -0.1841
  853SOL    HW111793   2.277   2.464   0.535  2.2295 -1.0701 -1.2249
  853SOL    HW211794   2.175   2.412   0.418 -2.0256  0.7811  1.5113
  854SOL     OW11795   2.779   2.447   1.043  0.0961  0.1788  0.3508
  854SOL    HW111796   2.828   2.533   1.027  0.3096 -0.0713 -0.3635
  854SOL    HW211797   2.721   2.456   1.124  0.5769  0.7987  0.6295
  855SOL     OW11798   3.211   2.748   0.834  0.0341  0.2488  0.6375
  855SOL    HW111799   3.288   2.807   0.809 -1.2947  1.3095 -1.0431
  855SOL    HW211800   3.148   2.798   0.893 -1.4699  0.7783 -1.3867
  856SOL     OW11801   2.555   0.299   1.937 -0.0999 -0.0825 -0.4773
  856SOL    HW111802   2.523   0.220   1.885  0.2459 -0.1318 -0.6191
  856SOL    HW211803   2.537   0.284   2.034 -0.8310  0.0536 -0.5897
  857SOL     OW11804   4.340   3.586   1.509 -0.1334 -0.1150 -0.2667
  857SOL    HW111805   4.382   3.500   1.480  1.6775  0.5843  0.1726
  857SOL    HW211806   4.241   3.580   1.501 -0.0642 -2.5170  0.5739
  859SOL     OW11807   3.328   3.340   0.557  0.2635  0.1695 -0.3018
  859SOL    HW111808   3.362   3.336   0.651 -0.5704 -0.7566 -0.0314
  859SOL    HW211809   3.228   3.338   0.558  0.2504  0.2462 -1.2115
  860SOL     OW11810   2.732   3.885   1.666 -0.0661 -0.2822  0.0422
  860SOL    HW111811   2.775   3.795   1.669 -2.3607 -1.4031  0.0128
  860SOL    HW211812   2.683   3.902   1.751  0.3233  0.9552  0.0390
  862SOL     OW11813   2.651   2.978   1.695  0.1065  0.4279 -0.2280
  862SOL    HW111814   2.666   2.899   1.755 -0.2338  1.6812  1.5582
  862SOL    HW211815   2.576   2.958   1.632  0.0686 -0.6989  0.1639
  863SOL     OW11816   4.603   2.179   1.590 -0.3188 -0.2914  0.2775
  863SOL    HW111817   4.558   2.140   1.671 -0.7294 -0.0635  0.1604
  863SOL    HW211818   4.565   2.269   1.571 -0.7820 -0.6687 -0.6299
  864SOL     OW11819   2.219   4.297   0.682  0.1707  0.0304 -0.5402
  864SOL    HW111820   2.122   4.272   0.688  0.3212 -0.5199 -0.3976
  864SOL    HW211821   2.265   4.236   0.618  0.4610  0.1759 -0.4677
  865SOL     OW11822   3.322   2.116   0.892 -0.9881  0.3684  0.1483
  865SOL    HW111823   3.250   2.105   0.823 -0.6336 -1.5190  0.0502
  865SOL    HW211824   3.387   2.040   0.884  0.3889  1.4411  0.9865
  866SOL     OW11825   3.571   1.095   1.847  0.0878 -0.0317 -0.4173
  866SOL    HW111826   3.617   1.007   1.854 -1.4077 -0.8164 -0.2596
  866SOL    HW211827   3.529   1.104   1.756 -1.0499 -0.1369  0.0905
  867SOL     OW11828   3.308   1.864   1.945 -0.0492  0.1438  0.2088
  867SOL    HW111829   3.306   1.907   1.855 -1.2525  0.2389  0.2761
  867SOL    HW211830   3.403   1.849   1.972  0.3160 -0.1620 -1.2035
  868SOL     OW11831   2.468   1.141   2.251 -0.2251 -0.4999  0.1713
  868SOL    HW111832   2.544   1.099   2.200  1.7076 -0.0601  2.5992
  868SOL    HW211833   2.421   1.070   2.304 -1.1819 -0.6776 -0.8997
  869SOL     OW11834   3.205   9.441   1.438  0.2207  0.2488  0.6001
  869SOL    HW111835   3.174   9.346   1.442  0.1172  0.2859  0.6845
  869SOL    HW211836   3.233   9.472   1.529 -0.6766  0.6075  0.7587
  870SOL     OW11837   3.046   3.358   0.603 -0.5568 -0.3075 -0.2072
  870SOL    HW111838   3.038   3.457   0.594  2.2749 -0.0235  0.2006
  870SOL    HW211839   3.037   3.332   0.699  0.2790 -0.3014 -0.1299
  872SOL     OW11840   4.668   3.210   1.319 -0.0949 -0.1051  0.3018
  872SOL    HW111841   4.748   3.150   1.320 -0.1522 -0.2446 -1.5005
  872SOL    HW211842   4.668   3.264   1.235 -0.9439  1.2127  1.1227
  874SOL     OW11843   3.563   8.850   1.243 -0.2155  0.1181 -0.8672
  874SOL    HW111844   3.657   8.849   1.208  0.1094 -0.4230  0.0141
  874SOL    HW211845   3.542   8.762   1.285 -0.0822  1.2739  1.7010
  875SOL     OW11846   3.602   3.824   0.534  0.1971  0.1879 -0.2570
  875SOL    HW111847   3.572   3.789   0.622  0.6696 -0.3272 -0.2977
  875SOL    HW211848   3.546   3.903   0.508  0.3025  0.5617  0.6670
  876SOL     OW11849   3.208   1.583   1.484 -1.1927 -0.6936 -0.6032
  876SOL    HW111850   3.219   1.535   1.571 -0.1126 -0.1274 -0.4323
  876SOL    HW211851   3.143   1.532   1.426 -0.7784 -1.8517 -0.0557
  877SOL     OW11852   3.302   1.578   0.811 -0.3826 -0.2527 -0.1383
  877SOL    HW111853   3.257   1.632   0.882  0.4895  2.5434 -1.6405
  877SOL    HW211854   3.235   1.556   0.739 -0.3043  0.4158 -0.4162
  878SOL     OW11855   3.681   4.215   0.565 -0.0207  0.2798  0.2649
  878SOL    HW111856   3.665   4.290   0.629 -0.7849  1.7406 -1.6173
  878SOL    HW211857   3.774   4.220   0.529  0.0921  0.0178  0.5145
  879SOL     OW11858   2.863   8.959   0.735 -0.1722  0.2950  0.0951
  879SOL    HW111859   2.848   9.035   0.672  1.9558  0.8721  0.2461
  879SOL    HW211860   2.775   8.928   0.772 -1.2362  1.3109 -1.5510
  880SOL     OW11861   2.764   3.992   0.396 -0.4462 -0.0531  0.0665
  880SOL    HW111862   2.784   3.943   0.481 -1.0225  0.4772  0.5174
  880SOL    HW211863   2.749   3.926   0.322  0.5833 -0.5046  0.2548
  881SOL     OW11864   2.944   1.499   1.329  0.0199  0.5535 -0.1099
  881SOL    HW111865   3.017   1.464   1.270  0.8635 -0.5350  1.5407
  881SOL    HW211866   2.857   1.458   1.302  0.1799  1.0687 -1.4305
  884SOL     OW11867   2.297   3.902   0.987  0.2806 -0.1997  0.0810
  884SOL    HW111868   2.344   3.957   0.918 -1.3424  0.4339 -0.5549
  884SOL    HW211869   2.272   3.814   0.947  2.5114 -1.2602  0.9729
  885SOL     OW11870   2.982   8.573   2.298  0.2281 -0.3661  0.4042
  885SOL    HW111871   3.042   8.638   2.344  1.2695  0.9021 -2.6287
  885SOL    HW211872   2.951   8.504   2.364  2.1887  0.9655  2.8106
  886SOL     OW11873   3.308   0.648   0.709 -0.4097 -0.1632  0.0138
  886SOL    HW111874   3.247   0.685   0.639 -0.3080 -0.7356 -0.3843
  886SOL    HW211875   3.332   0.719   0.775 -2.0327 -0.0855  0.5410
  888SOL     OW11876   2.364   1.771   1.049 -0.0046 -0.1887 -0.4300
  888SOL    HW111877   2.422   1.712   1.104  0.2908  1.1500  0.7323
  888SOL    HW211878   2.269   1.761   1.078  0.3433  1.7192  1.4928
  889SOL     OW11879   3.625   2.040   0.946 -0.2497  0.3083  0.1933
  889SOL    HW111880   3.553   1.981   0.909  0.1252  0.1880 -0.3658
  889SOL    HW211881   3.666   1.998   1.027 -0.3949  0.0872  0.1495
  890SOL     OW11882   2.333   4.252   0.973  0.0255 -0.4836  0.3660
  890SOL    HW111883   2.312   4.300   0.887  0.4626  0.9814  1.0634
  890SOL    HW211884   2.253   4.254   1.032  0.1813 -0.2144  0.5710
  891SOL     OW11885   4.697   2.638   0.622 -0.1858  0.5606  0.1450
  891SOL    HW111886   4.684   2.659   0.718 -0.9017  0.5030  0.0650
  891SOL    HW211887   4.705   2.723   0.569  1.7874  0.5787  0.4596
  892SOL     OW11888   4.593   3.636   1.201  0.3980  0.0571 -0.4741
  892SOL    HW111889   4.545   3.701   1.259  0.2891 -0.3590 -0.0957
  892SOL    HW211890   4.691   3.645   1.216  0.3663 -0.1171 -0.1492
  893SOL     OW11891   3.992   4.222   2.244  0.2534  0.2696 -0.8112
  893SOL    HW111892   3.959   4.309   2.281  2.3165  1.0019 -0.6028
  893SOL    HW211893   4.048   4.176   2.313 -0.3218 -0.9467 -1.1450
  894SOL     OW11894   3.026   3.789   0.293 -0.3937 -0.4050 -0.0622
  894SOL    HW111895   3.072   3.833   0.370 -0.2522 -2.7751  1.2653
  894SOL    HW211896   2.942   3.746   0.325 -2.7424  2.3937 -2.1255
  896SOL     OW11897   2.773   9.859   2.276  0.3298  0.4867  0.0593
  896SOL    HW111898   2.673   9.849   2.281  0.4067  0.1247  0.8652
  896SOL    HW211899   2.795   9.956   2.264 -0.0884  0.6840  0.8312
  897SOL     OW11900   4.239   1.995   0.722 -0.5075  0.0464 -1.0459
  897SOL    HW111901   4.339   2.002   0.729 -0.6144 -0.3931  1.3999
  897SOL    HW211902   4.198   2.085   0.741 -0.6769 -0.4389  0.9899
  899SOL     OW11903   2.592   9.488   0.953 -0.3329  0.2621  0.2054
  899SOL    HW111904   2.585   9.571   0.896 -0.1309  1.1717  1.4855
  899SOL    HW211905   2.512   9.480   1.011  0.1960  0.2016  0.9367
  900SOL     OW11906   2.253   0.402   1.688 -0.1585 -0.5806  0.3838
  900SOL    HW111907   2.178   0.394   1.621  0.9238 -1.2889 -0.7669
  900SOL    HW211908   2.215   0.422   1.778 -1.6396  0.6787 -0.4873
  901SOL     OW11909   3.463   3.821   2.312  0.4574  0.6135  0.0308
  901SOL    HW111910   3.510   3.765   2.244  0.4354  0.8796 -0.2018
  901SOL    HW211911   3.504   3.912   2.314 -0.0044  0.8259 -0.1261
  902SOL     OW11912   4.233   3.869   2.289  0.2055  0.2703  0.7765
  902SOL    HW111913   4.176   3.791   2.265 -0.6708  0.8183  1.0721
  902SOL    HW211914   4.325   3.836   2.312 -0.3539 -0.7540  1.6142
  903SOL     OW11915   2.380   0.756   1.615 -0.4264  0.2321  0.2479
  903SOL    HW111916   2.416   0.843   1.580  0.0076 -0.1090 -0.1466
  903SOL    HW211917   2.424   0.680   1.568 -1.9183 -0.1881 -0.5178
  904SOL     OW11918   1.990   1.479   1.093  0.2141  0.3783  0.2215
  904SOL    HW111919   2.049   1.398   1.094 -0.2758  0.0033 -0.5276
  904SOL    HW211920   1.912   1.464   1.153 -0.6093 -0.2698 -1.0004
  906SOL     OW11921   3.884   2.799   0.306 -0.1796 -0.4376 -0.2145
  906SOL    HW111922   3.902   2.897   0.316  0.0327 -0.2680 -2.1373
  906SOL    HW211923   3.934   2.749   0.377 -1.1559  0.9189  1.4495
  907SOL     OW11924   3.650   4.090   1.069 -0.5952 -0.1282  0.1397
  907SOL    HW111925   3.661   4.134   1.158  0.6943 -0.7747  0.3087
  907SOL    HW211926   3.608   4.155   1.005  0.8973  1.2102  0.4895
  908SOL     OW11927   3.442   4.085   0.560 -0.0890 -0.5629 -0.4088
  908SOL    HW111928   3.525   4.139   0.544  0.3727 -1.2981 -0.5571
  908SOL    HW211929   3.399   4.062   0.472  1.6345 -3.3488 -0.6061
  909SOL     OW11930   2.830   4.124   2.339  0.0323 -0.1639  0.2590
  909SOL    HW111931   2.830   4.112   2.240  0.7408 -0.0347  0.2428
  909SOL    HW211932   2.859   4.217   2.361  1.3589 -0.6565  0.6396
  910SOL     OW11933   3.089   8.504   1.774 -0.5511 -0.2037 -0.0455
  910SOL    HW111934   3.184   8.504   1.804 -0.5135 -2.4797 -0.0812
  910SOL    HW211935   3.030   8.521   1.853 -0.2255 -1.6272  0.5353
  911SOL     OW11936   2.256   0.485   1.952 -0.2256 -0.0445 -0.5266
  911SOL    HW111937   2.257   0.469   2.051 -0.3718  0.3068 -0.4687
  911SOL    HW211938   2.247   0.583   1.934 -0.7574 -0.1576 -0.8884
  913SOL     OW11939   2.532   9.584   1.994 -0.0751  0.6177 -0.8614
  913SOL    HW111940   2.597   9.607   1.921 -0.3014 -0.0292 -1.2644
  913SOL    HW211941   2.475   9.664   2.013 -1.1023  0.3077 -2.5125
  915SOL     OW11942   2.353   9.003   1.267 -0.2909 -0.1062  0.1000
  915SOL    HW111943   2.438   8.984   1.317  0.2403  0.4988 -0.5620
  915SOL    HW211944   2.298   9.068   1.320 -1.1401 -1.7904  1.3459
  916SOL     OW11945   4.547   3.241   1.939 -0.2320  0.5351  0.1910
  916SOL    HW111946   4.513   3.332   1.964  1.2655  1.2766 -0.4191
  916SOL    HW211947   4.531   3.225   1.842  0.4501  0.5650  0.0744
  917SOL     OW11948   3.568   9.841   0.936  0.4134 -0.3388 -0.2306
  917SOL    HW111949   3.598   9.791   1.017  2.3904  1.7546  0.3854
  917SOL    HW211950   3.487   9.797   0.897  1.2917 -3.1996  1.0464
  918SOL     OW11951   3.371   4.580   1.330 -0.0400 -0.1814 -0.0257
  918SOL    HW111952   3.293   4.526   1.299  0.6445  0.3546 -2.9110
  918SOL    HW211953   3.344   4.677   1.333 -0.5817 -0.3876  2.8163
  919SOL     OW11954   4.407   3.145   0.776  0.1194  0.7156  0.9072
  919SOL    HW111955   4.341   3.126   0.849 -0.9571  1.6814  0.1970
  919SOL    HW211956   4.484   3.081   0.784 -0.0749  0.6735  2.7528
  920SOL     OW11957   3.524   2.592   0.707  0.9409  0.0099 -0.5264
  920SOL    HW111958   3.487   2.680   0.735  1.1988  0.0685 -0.3656
  920SOL    HW211959   3.484   2.519   0.762 -0.1926 -0.1051 -1.4792
  921SOL     OW11960   3.225   9.964   0.584 -0.5515 -0.2141 -0.5202
  921SOL    HW111961   3.222   9.918   0.672 -1.8089 -0.2832 -0.6007
  921SOL    HW211962   3.214  10.063   0.597  1.0831 -0.0155 -0.4472
  922SOL     OW11963   3.696   1.539   1.197 -0.3890  0.2455 -0.3607
  922SOL    HW111964   3.598   1.548   1.184 -0.3119 -2.4558 -3.2071
  922SOL    HW211965   3.715   1.461   1.257  0.0845 -0.2545 -1.1634
  924SOL     OW11966   2.982   8.808   0.531 -0.7334  0.1213 -0.1876
  924SOL    HW111967   2.909   8.796   0.464 -0.6222 -0.5917 -0.1821
  924SOL    HW211968   2.945   8.852   0.613 -0.4686  2.7747 -1.4526
  925SOL     OW11969   3.143   3.340   1.294  0.4812  0.1090 -0.5211
  925SOL    HW111970   3.197   3.341   1.209  2.1444 -1.0448  0.5134
  925SOL    HW211971   3.194   3.388   1.366  0.4296 -1.5508  0.6355
  926SOL     OW11972   3.898   8.864   1.318  0.4815 -0.0916  0.4888
  926SOL    HW111973   3.964   8.928   1.280  1.4379 -0.9578  0.6703
  926SOL    HW211974   3.877   8.794   1.251 -0.8734  0.6284  0.1468
  928SOL     OW11975   2.363   1.069   0.754 -0.4525  0.1580  0.5097
  928SOL    HW111976   2.395   0.987   0.802 -0.9225 -0.8289 -0.8248
  928SOL    HW211977   2.265   1.060   0.736 -0.8779  1.7912  1.8520
  929SOL     OW11978   4.202   3.680   1.192 -0.3594  0.9803  0.6246
  929SOL    HW111979   4.220   3.583   1.173 -0.5540  1.2629 -1.0724
  929SOL    HW211980   4.289   3.729   1.197 -0.3444  1.1390 -0.9184
  930SOL     OW11981   2.766   4.062   0.826 -0.4707  0.2580 -0.1511
  930SOL    HW111982   2.671   4.086   0.846  0.5066  2.5658  2.1330
  930SOL    HW211983   2.806   4.014   0.904 -0.4839 -3.1981 -2.1682
  931SOL     OW11984   3.149   1.138   1.936 -0.3212  0.2372  0.0130
  931SOL    HW111985   3.175   1.043   1.915  2.2166  1.2218 -1.5323
  931SOL    HW211986   3.088   1.138   2.016  1.8457 -2.5268  1.8016
  932SOL     OW11987   4.124   1.861   0.514  0.4312 -0.4670  0.0016
  932SOL    HW111988   4.066   1.922   0.459  2.3176  0.4248 -1.0554
  932SOL    HW211989   4.142   1.904   0.603 -1.1524 -1.1027  0.6460
  933SOL     OW11990   3.044   9.534   0.285  0.2908  0.1169 -0.2377
  933SOL    HW111991   3.124   9.583   0.320  0.0168 -0.1387  0.7381
  933SOL    HW211992   3.018   9.574   0.197  0.5114  1.2575  0.2029
  935SOL     OW11993   4.244   3.773   0.632 -0.3694 -0.4667 -0.6595
  935SOL    HW111994   4.146   3.762   0.642 -0.1049 -1.6830  0.7862
  935SOL    HW211995   4.265   3.867   0.605 -1.7580  0.6483  1.9361
  936SOL     OW11996   4.943   3.482   1.584  0.3846 -0.2006  0.1535
  936SOL    HW111997   4.896   3.500   1.497  2.0078  1.5105 -0.4130
  936SOL    HW211998   4.881   3.434   1.646 -1.5232  0.4567 -1.1866
  937SOL     OW11999   2.915   2.383   1.348 -0.1198  1.0065 -0.4090
  937SOL    HW112000   2.966   2.373   1.263  0.6609  0.3616  0.1353
  937SOL    HW212001   2.833   2.325   1.344  0.7035 -0.1763 -0.1099
  939SOL     OW12002   2.971  10.007   1.074 -0.1405 -0.1058  0.2067
  939SOL    HW112003   3.038   9.985   1.144  0.7044 -1.9007 -1.1215
  939SOL    HW212004   2.902   9.935   1.070  0.0515 -0.2317 -1.0697
  940SOL     OW12005   3.699   2.490   1.106 -0.4150  0.4035 -0.1794
  940SOL    HW112006   3.749   2.528   1.183 -0.5866  0.4286 -0.0793
  940SOL    HW212007   3.612   2.539   1.095 -1.0786 -0.5755  0.5496
  941SOL     OW12008   3.546  10.141   0.984 -0.4159  0.3259 -0.7926
  941SOL    HW112009   3.568  10.043   0.975  1.5226  0.6257  0.3776
  941SOL    HW212010   3.593  10.192   0.911  0.6515  0.6607  0.1137
  942SOL     OW12011   2.211   1.361   0.833  0.1140  0.0796 -0.0354
  942SOL    HW112012   2.151   1.355   0.753 -1.0622 -0.5171  0.8711
  942SOL    HW212013   2.269   1.280   0.837 -0.1621 -0.1194 -0.0294
  945SOL     OW12014   2.472   4.327   0.376  0.0245 -0.4773  0.3238
  945SOL    HW112015   2.471   4.257   0.305 -0.8767  1.1762 -1.3211
  945SOL    HW212016   2.553   4.384   0.364 -1.6351  1.6216 -1.2202
  946SOL     OW12017   4.463   2.849   1.484 -0.5297  0.4265  0.2700
  946SOL    HW112018   4.471   2.789   1.405  1.8011  0.4803  0.4097
  946SOL    HW212019   4.502   2.803   1.564 -0.3944  1.4032  0.7688
  947SOL     OW12020   3.273   9.432   1.962  0.3653 -0.2330 -0.0731
  947SOL    HW112021   3.273   9.446   2.061  0.4370  0.6262 -0.1926
  947SOL    HW212022   3.221   9.505   1.918 -0.0303 -0.8505 -0.6403
  948SOL     OW12023   3.276   0.910   1.420 -0.6954 -0.1689 -0.5569
  948SOL    HW112024   3.354   0.903   1.357 -1.7828 -0.1023 -1.9411
  948SOL    HW212025   3.243   1.004   1.421 -2.2003 -0.6610 -1.7720
  949SOL     OW12026   2.603   3.964   1.906  0.2671 -0.0743 -0.2915
  949SOL    HW112027   2.559   4.049   1.876  0.9580  0.2145 -0.5127
  949SOL    HW212028   2.550   3.923   1.980 -1.4101 -0.7449 -1.8365
  950SOL     OW12029   2.487   3.397   1.869 -0.3199 -0.4466 -0.5965
  950SOL    HW112030   2.466   3.299   1.871  0.8234 -0.6892  0.1183
  950SOL    HW212031   2.515   3.423   1.776 -0.4724 -0.8400 -0.7519
  951SOL     OW12032   3.006   8.573   2.020  0.4089 -0.5332 -0.1232
  951SOL    HW112033   2.926   8.627   1.994  2.4709  1.4711 -2.4825
  951SOL    HW212034   3.000   8.549   2.117 -1.6768  1.9844  0.4092
  952SOL     OW12035   3.478   1.393   1.549  0.4465 -0.0724 -0.1104
  952SOL    HW112036   3.491   1.482   1.507 -1.4866 -0.0451 -0.6766
  952SOL    HW212037   3.413   1.400   1.625 -0.3987 -1.1578 -0.7216
  953SOL     OW12038   3.417   1.861   0.881 -0.3380 -0.0007 -0.4818
  953SOL    HW112039   3.456   1.775   0.847  2.1471  0.2592  1.6384
  953SOL    HW212040   3.331   1.842   0.929 -1.4525 -0.8950 -2.7600
  954SOL     OW12041   2.913   0.986   1.477  0.1789  0.2640  0.1905
  954SOL    HW112042   2.883   1.017   1.387  2.5988  1.7889 -0.1458
  954SOL    HW212043   2.902   1.060   1.543  0.8756  0.0194  0.5834
  955SOL     OW12044   2.664   9.276   1.501 -0.0446  0.1866 -0.1933
  955SOL    HW112045   2.666   9.376   1.505 -1.1106  0.1565  1.8306
  955SOL    HW212046   2.689   9.239   1.591  1.0086 -1.3866 -1.1154
  956SOL     OW12047   3.777   4.231   1.307 -0.4300  0.0596 -0.2225
  956SOL    HW112048   3.793   4.200   1.400 -0.1709 -0.7092 -0.5237
  956SOL    HW212049   3.818   4.321   1.294  0.6411 -0.3899  0.0291
  959SOL     OW12050   2.508   3.439   2.164 -0.1631  0.1664 -0.4325
  959SOL    HW112051   2.596   3.421   2.208  0.5344  1.9090 -1.0435
  959SOL    HW212052   2.513   3.414   2.067 -0.0668  0.9857 -0.6474
  961SOL     OW12053   3.578   0.930   0.990  0.0650  0.6487  0.3022
  961SOL    HW112054   3.592   1.021   0.951 -1.7671  0.1830 -1.5323
  961SOL    HW212055   3.627   0.863   0.935 -1.2511  0.1609 -0.2805
  962SOL     OW12056   3.738   5.073   0.430  0.1035 -0.2001 -0.3624
  962SOL    HW112057   3.726   4.991   0.375 -0.5405  0.1988 -0.8207
  962SOL    HW212058   3.743   5.153   0.370  0.5204  0.1211  0.0920
  963SOL     OW12059   3.872   3.463   0.860  0.5711  0.4997  0.0052
  963SOL    HW112060   3.911   3.503   0.778  1.9244  0.7182  0.7348
  963SOL    HW212061   3.860   3.534   0.930 -0.9034  0.3835 -0.1237
  965SOL     OW12062   2.613   1.558   0.398 -0.4545  0.0234  0.5487
  965SOL    HW112063   2.616   1.594   0.492 -0.5258  3.6527 -0.7544
  965SOL    HW212064   2.518   1.550   0.368 -0.3755  3.1808 -0.7087
  966SOL     OW12065   2.662   1.872   1.378 -0.1731 -0.1801  0.1109
  966SOL    HW112066   2.656   1.935   1.300  2.3901  2.5197  1.9947
  966SOL    HW212067   2.744   1.816   1.369  1.0995  1.3809  1.7067
  968SOL     OW12068   4.669   2.869   0.489 -0.7558 -0.1291 -0.0390
  968SOL    HW112069   4.583   2.903   0.451 -0.5266  1.9359  1.1974
  968SOL    HW212070   4.745   2.896   0.428 -1.0023 -2.3671 -1.3793
  969SOL     OW12071   2.666   2.088   1.521  0.1956 -0.4870  0.0185
  969SOL    HW112072   2.678   2.006   1.465  0.1646 -1.2969  1.1811
  969SOL    HW212073   2.739   2.092   1.589 -0.1820  0.1017  0.3917
  971SOL     OW12074   2.636   1.667   0.636 -0.0365 -0.9877 -0.2740
  971SOL    HW112075   2.606   1.636   0.726 -0.4558 -3.6822 -1.3169
  971SOL    HW212076   2.722   1.717   0.646 -0.0634 -1.2716  1.6206
  972SOL     OW12077   3.525   4.736   2.020  0.1477 -0.7415 -0.4217
  972SOL    HW112078   3.621   4.711   2.007  0.3263  0.1655 -0.8695
  972SOL    HW212079   3.487   4.769   1.933 -1.1117 -2.8558 -0.7309
  973SOL     OW12080   3.353   9.758   1.993  0.4322 -0.2656  0.0144
  973SOL    HW112081   3.317   9.788   2.081 -0.6981  0.1291 -0.5729
  973SOL    HW212082   3.453   9.756   1.996  0.4034  0.0112  1.2110
  974SOL     OW12083   3.186   1.698   1.013  0.6244 -0.5265  0.6397
  974SOL    HW112084   3.111   1.759   1.037  2.6411  1.8950  0.9108
  974SOL    HW212085   3.211   1.642   1.092 -1.0784 -1.5949  0.4478
  975SOL     OW12086   4.069   2.303   1.100  0.4014  0.0033 -0.1269
  975SOL    HW112087   4.124   2.233   1.056  0.7344  0.4335 -0.4013
  975SOL    HW212088   4.062   2.383   1.041  0.7330  0.5301  0.5334
  976SOL     OW12089   3.130   4.461   1.255 -0.2749 -0.8077  0.1254
  976SOL    HW112090   3.145   4.364   1.232  0.0918 -0.7877  0.2736
  976SOL    HW212091   3.036   4.474   1.286 -0.9757 -0.7404 -1.9259
  977SOL     OW12092   2.658   9.989   1.820 -0.6835 -0.4386  0.2257
  977SOL    HW112093   2.752  10.005   1.852 -1.2632  2.3998  0.6759
  977SOL    HW212094   2.648  10.028   1.729 -1.8538  0.8087  0.8639
  978SOL     OW12095   4.507   2.047   0.692 -0.3017  0.2565  0.0028
  978SOL    HW112096   4.529   2.069   0.597  0.6211 -1.3804 -0.1915
  978SOL    HW212097   4.592   2.025   0.741 -1.0206 -1.4686  0.5124
  979SOL     OW12098   3.722   0.831   1.863 -0.0907  0.0626 -0.2708
  979SOL    HW112099   3.657   0.756   1.875  0.0035  0.2285  1.4179
  979SOL    HW212100   3.814   0.800   1.884 -0.0948  0.7284  0.7683
  980SOL     OW12101   2.445   9.679   1.214  0.0660  0.1643  0.2943
  980SOL    HW112102   2.366   9.634   1.172  0.6468 -0.3865 -0.2194
  980SOL    HW212103   2.480   9.623   1.289  0.5006 -0.0155 -0.0411
  982SOL     OW12104   4.404   2.581   0.970 -0.0517  0.6809  0.1786
  982SOL    HW112105   4.339   2.608   1.040  0.0563  1.2525  0.0617
  982SOL    HW212106   4.397   2.643   0.892  1.0447  1.1113  0.4131
  983SOL     OW12107   3.707   1.666   0.921  0.2777  0.4376  0.5755
  983SOL    HW112108   3.797   1.621   0.925 -0.5369 -1.4850 -1.2264
  983SOL    HW212109   3.700   1.718   0.836 -0.3089  0.5303  0.6786
  984SOL     OW12110   3.328   1.838   0.387 -0.5318 -0.2336 -0.0253
  984SOL    HW112111   3.316   1.756   0.444 -1.8733 -0.5319 -0.7017
  984SOL    HW212112   3.239   1.880   0.371 -0.2585 -0.4856 -2.3907
  985SOL     OW12113   3.354   9.112   1.383  0.2970 -0.6904  0.2259
  985SOL    HW112114   3.453   9.107   1.385  0.2157 -2.3154  0.6878
  985SOL    HW212115   3.316   9.020   1.375 -1.2123 -0.2426  2.0202
  986SOL     OW12116   3.129   3.845   2.105 -0.1036 -0.2102  0.2601
  986SOL    HW112117   3.100   3.784   2.031 -1.8576 -0.2763  0.9813
  986SOL    HW212118   3.153   3.790   2.186 -3.6133  0.0918  1.5769
  987SOL     OW12119   3.436   3.341   0.817  0.3098  0.4047  0.0658
  987SOL    HW112120   3.501   3.406   0.777  1.8694 -1.1122  0.0575
  987SOL    HW212121   3.486   3.275   0.873 -1.3406 -0.3314  0.7050
  988SOL     OW12122   2.437   0.220   0.771  0.3941  0.2018  0.3237
  988SOL    HW112123   2.476   0.217   0.863 -0.6711 -2.8183  0.7314
  988SOL    HW212124   2.510   0.210   0.704  1.1661  2.3314  0.8031
  989SOL     OW12125   2.309   2.152   2.274  0.0568  0.0243  0.3084
  989SOL    HW112126   2.246   2.138   2.198  1.3063 -0.0634 -0.7236
  989SOL    HW212127   2.303   2.247   2.306 -3.4804 -0.9471  2.8517
  990SOL     OW12128   2.879   1.627   0.300 -0.9773  0.8746  0.8207
  990SOL    HW112129   2.783   1.598   0.305 -0.9755  0.7561  0.2146
  990SOL    HW212130   2.897   1.695   0.371 -1.2393  0.1202  1.6175
  991SOL     OW12131   3.196   8.535   1.040 -0.0648 -0.1503 -0.6944
  991SOL    HW112132   3.208   8.594   0.960 -1.4973 -0.6695 -1.3136
  991SOL    HW212133   3.108   8.556   1.084  0.1867 -0.6656  0.0609
  993SOL     OW12134   3.743   3.896   1.419 -0.1241  0.3301  0.3693
  993SOL    HW112135   3.784   3.968   1.475 -0.3735  0.1657  0.7688
  993SOL    HW212136   3.815   3.835   1.385 -0.0558 -0.0653  1.2214
  994SOL     OW12137   2.795   3.876   0.638 -0.3053 -0.1450 -0.0847
  994SOL    HW112138   2.856   3.806   0.677 -1.0697 -0.2527  0.9306
  994SOL    HW212139   2.784   3.951   0.703 -1.1727 -0.0725 -0.3120
  995SOL     OW12140   2.060   2.097   0.698  0.2493 -0.0121 -0.6020
  995SOL    HW112141   1.963   2.074   0.699  0.3301 -0.4238 -1.2477
  995SOL    HW212142   2.108   2.034   0.636  1.0769 -0.3968  0.4122
  996SOL     OW12143   2.801   9.161   1.118 -0.6115 -0.5656  0.4459
  996SOL    HW112144   2.836   9.071   1.092  0.1034 -0.3378  0.5834
  996SOL    HW212145   2.861   9.200   1.188 -0.9943 -0.0416  0.4816
  997SOL     OW12146   2.212   9.573   0.829  0.3084 -0.5127 -0.0840
  997SOL    HW112147   2.124   9.614   0.806  0.3393 -0.3378  0.1064
  997SOL    HW212148   2.286   9.634   0.801  0.3182  0.2346  1.5092
  998SOL     OW12149   3.222  10.041   1.256  0.4328  0.1017  0.3269
  998SOL    HW112150   3.241  10.035   1.354  0.0450  0.2627  0.4150
  998SOL    HW212151   3.257   9.959   1.210  0.1363 -0.2282  0.6850
  999SOL     OW12152   2.541   2.327   1.644  0.2557 -0.0406  0.0224
  999SOL    HW112153   2.505   2.318   1.737 -1.9297 -1.4844 -0.9157
  999SOL    HW212154   2.604   2.251   1.626 -1.7622 -1.5882 -0.7053
 1000SOL     OW12155   2.683   2.171   1.906 -0.1064  0.1882  0.2241
 1000SOL    HW112156   2.626   2.230   1.963 -0.0595 -0.2838  0.7584
 1000SOL    HW212157   2.750   2.226   1.857 -0.1112  0.5825  0.6659
 1001SOL     OW12158   2.926   5.163   1.976  0.9162  0.1215  0.4225
 1001SOL    HW112159   2.950   5.145   2.071  0.4416 -0.2967  0.4594
 1001SOL    HW212160   2.853   5.102   1.947  0.1562  1.1241  0.1834
 1002SOL     OW12161   2.954   1.653   2.100  0.0633 -0.0029  0.0963
 1002SOL    HW112162   2.978   1.557   2.114  2.3397  0.4765 -0.4011
 1002SOL    HW212163   2.963   1.703   2.187 -0.2358 -0.0429  0.1520
 1003SOL     OW12164   4.275   1.440   1.971 -0.1552  0.1841  0.2146
 1003SOL    HW112165   4.327   1.479   1.895  1.6708 -2.5115  0.0475
 1003SOL    HW212166   4.255   1.344   1.952 -3.2465  0.5400  1.3354
 1004SOL     OW12167   2.868   4.214   0.302 -0.0224  0.1395  0.0090
 1004SOL    HW112168   2.833   4.303   0.332 -0.7537  0.7343 -2.4843
 1004SOL    HW212169   2.814   4.141   0.343 -1.2057  0.9366 -0.1184
 1005SOL     OW12170   2.137   0.787   1.529  0.2934 -0.3173 -0.2453
 1005SOL    HW112171   2.131   0.688   1.522  1.2426 -0.2146 -2.9865
 1005SOL    HW212172   2.215   0.812   1.586 -0.2576 -1.1174  0.8917
 1007SOL     OW12173   2.574   9.405   2.201  0.6109  0.3716 -0.1619
 1007SOL    HW112174   2.647   9.341   2.176 -0.5420 -0.7331 -0.7309
 1007SOL    HW212175   2.556   9.466   2.125  1.1385  0.8442  0.0863
 1008SOL     OW12176   3.795   2.613   0.669  0.0871 -0.0863 -0.1154
 1008SOL    HW112177   3.699   2.614   0.697  0.1101  0.0430 -0.0431
 1008SOL    HW212178   3.823   2.518   0.653 -0.1857 -0.0913 -0.5924
 1009SOL     OW12179   3.032   5.166   2.232 -0.3366 -0.0626  0.0384
 1009SOL    HW112180   3.125   5.141   2.204  0.6855  1.0961  2.2484
 1009SOL    HW212181   3.013   5.128   2.322 -1.2386  1.4388  0.4991
 1010SOL     OW12182   2.530   2.012   2.355  0.4099  0.8838  0.0331
 1010SOL    HW112183   2.453   2.057   2.309  0.4555  0.8191 -0.1075
 1010SOL    HW212184   2.552   1.927   2.307  1.4363  1.5705 -0.7217
 1012SOL     OW12185   4.194   2.902   1.450 -0.2459 -0.0701  0.2296
 1012SOL    HW112186   4.195   3.002   1.447 -1.6201 -0.0702 -1.3752
 1012SOL    HW212187   4.287   2.867   1.462  0.3463  1.3810 -0.0706
 1013SOL     OW12188   3.093   9.062   2.038 -0.0221 -0.2134  0.4316
 1013SOL    HW112189   3.142   8.979   2.063 -1.2947 -1.0856  0.0815
 1013SOL    HW212190   3.150   9.116   1.975  0.8721 -0.7386  0.7778
 1014SOL     OW12191   4.374   3.379   0.667 -0.7693  0.5451  0.0970
 1014SOL    HW112192   4.445   3.387   0.597 -0.6578 -1.4813 -0.0450
 1014SOL    HW212193   4.373   3.286   0.703 -3.3103  0.5774  0.1673
 1015SOL     OW12194   3.278  10.073   1.530  0.5647 -0.6439  0.0232
 1015SOL    HW112195   3.252  10.070   1.626  1.1742  0.1521  0.2217
 1015SOL    HW212196   3.305  10.166   1.506  1.9252 -1.1569 -0.5059
 1016SOL     OW12197   2.711   2.878   0.592  0.5223  0.0527  0.1924
 1016SOL    HW112198   2.795   2.833   0.623 -1.3717 -1.4575  3.3673
 1016SOL    HW212199   2.643   2.809   0.567 -0.0035  1.2583 -1.8134
 1017SOL     OW12200   2.858   1.225   1.623  0.2533 -0.1068  0.2532
 1017SOL    HW112201   2.806   1.205   1.706  1.1468 -0.4728  0.7442
 1017SOL    HW212202   2.823   1.308   1.580 -1.0252 -0.6136  0.3043
 1018SOL     OW12203   4.020   2.072   0.363 -0.5428  0.1648 -0.0005
 1018SOL    HW112204   3.928   2.112   0.359 -0.6017 -0.0627 -1.1018
 1018SOL    HW212205   4.088   2.144   0.347 -0.6053  0.0320 -0.9018
 1020SOL     OW12206   3.655   3.119   0.691  0.1781 -0.1873  0.1392
 1020SOL    HW112207   3.656   3.174   0.607  0.0165 -1.9855 -1.0677
 1020SOL    HW212208   3.703   3.033   0.675 -0.9116 -1.0758  1.5341
 1021SOL     OW12209   2.135   3.541   1.169 -0.6003  0.0773 -0.3380
 1021SOL    HW112210   2.148   3.592   1.255 -0.4884  2.1317 -1.5286
 1021SOL    HW212211   2.070   3.466   1.184  0.9348 -0.8483  2.0094
 1023SOL     OW12212   2.334   9.342   0.666  0.1615 -0.2801  0.5100
 1023SOL    HW112213   2.290   9.343   0.576  0.6635  0.7104  0.2688
 1023SOL    HW212214   2.343   9.435   0.699  2.3330 -0.4337  0.4301
 1024SOL     OW12215   2.753   9.143   1.740  0.0804 -0.4235 -0.2124
 1024SOL    HW112216   2.848   9.160   1.713  0.3720 -0.6314  0.6611
 1024SOL    HW212217   2.752   9.103   1.831 -0.7094 -2.9915 -1.2999
 1025SOL     OW12218   3.036   2.506   0.252  0.0986  0.6149 -0.2222
 1025SOL    HW112219   3.025   2.507   0.153 -1.8859  2.2925 -0.0226
 1025SOL    HW212220   2.996   2.421   0.289  0.7702  0.0256 -0.8437
 1026SOL     OW12221   2.146   9.858   0.319 -0.1153 -0.1924  0.1457
 1026SOL    HW112222   2.210   9.785   0.298  1.2274  1.1988 -0.7080
 1026SOL    HW212223   2.113   9.848   0.413  0.1013 -1.8374  0.0509
 1027SOL     OW12224   3.229   4.802   1.869  0.4732  0.0814  0.0645
 1027SOL    HW112225   3.312   4.835   1.824 -0.3515 -0.4585 -1.9064
 1027SOL    HW212226   3.210   4.859   1.950  2.8771  0.0402  0.6934
 1028SOL     OW12227   3.202   1.624   0.508 -0.1799  1.1002  0.2749
 1028SOL    HW112228   3.195   1.553   0.439 -2.0388  0.9083  0.6415
 1028SOL    HW212229   3.127   1.690   0.497  0.2927  1.8284  1.2515
 1029SOL     OW12230   3.441   3.224   0.330  0.1607 -0.7779  0.6934
 1029SOL    HW112231   3.388   3.231   0.414 -1.7990  0.8979 -0.6323
 1029SOL    HW212232   3.535   3.253   0.347 -0.5002  0.6077  2.0448
 1030SOL     OW12233   3.355   4.032   2.040 -0.4852 -0.6679 -0.5718
 1030SOL    HW112234   3.310   3.943   2.053 -0.3344 -0.6061  0.4333
 1030SOL    HW212235   3.302   4.103   2.086  0.6556 -0.6048  0.7076
 1031SOL     OW12236   3.762   1.210   2.037  0.2474 -0.1614 -0.5558
 1031SOL    HW112237   3.680   1.165   2.002 -0.5438  1.2621 -0.5196
 1031SOL    HW212238   3.737   1.284   2.099  1.5905 -0.8590  0.8712
  10.00000  10.00000   2.86600
