chitosan Film  in water:acetic acid 2%
54082
    1CHTO  H203    1   5.308   6.403   3.820  0.3105 -0.3066 -1.0191
    1CHTO   O82    2   5.335   6.313   3.820  0.0839 -0.3751  0.0804
    1CHTO  C123    3   5.476   6.302   3.863  0.4890  0.8252 -1.0260
    1CHTO  H227    4   5.477   6.308   3.973  2.4688  0.8915 -1.0227
    1CHTO   O77    5   5.500   6.170   3.804 -0.2201  0.2221 -0.2935
    1CHTO  C118    6   5.628   6.123   3.836  0.7229  0.4017 -0.2478
    1CHTO  H222    7   5.651   6.139   3.942  1.7273  1.0114 -0.5514
    1CHTO  C125    8   5.640   5.956   3.809 -0.0990 -0.2172  0.5788
    1CHTO   O84    9   5.564   5.927   3.693 -0.5223  0.1060  0.2740
    1CHTO  H205   10   5.536   5.838   3.686 -0.9137  0.4358 -3.0843
    1CHTO  C114   11   5.736   6.199   3.762  0.1894 -0.9646  0.2112
    1CHTO  H218   12   5.708   6.203   3.656  0.1286  1.2107  0.2860
    1CHTO  C116   13   5.725   6.347   3.812  0.5586  0.1907 -0.2375
    1CHTO  H220   14   5.743   6.355   3.921  2.3629  0.7256 -0.5667
    1CHTO   O79   15   5.831   6.423   3.748  0.3379  0.2767 -0.0210
    1CHTO  H201   16   5.840   6.393   3.660  1.4927  2.0377 -0.5267
    1CHTO  C120   17   5.571   6.396   3.784  0.6240 -0.4751 -0.5796
    1CHTO  H224   18   5.536   6.387   3.679 -0.9802  0.6073 -0.1557
    1CHTO   N21   19   5.560   6.540   3.819 -0.3491  0.4487 -0.1761
    1CHTO  H211   20   5.648   6.576   3.870 -0.9554 -0.6131  1.6349
    1CHTO  H212   21   5.540   6.582   3.721 -0.3594 -2.2723 -1.3907
    1CHTO   O75   22   5.858   6.135   3.783 -0.0899 -0.3228  0.0767
    1CHTO  C112   23   5.936   6.119   3.636  0.6415  0.5102  0.3276
    1CHTO  H216   24   5.938   6.215   3.583  0.7063  0.1048 -0.4200
    1CHTO   O73   25   5.867   6.015   3.560  0.5927 -0.0496  0.8294
    1CHTO  C113   26   5.920   5.955   3.437  0.3369  0.0379 -0.1910
    1CHTO  H217   27   5.920   6.035   3.360  0.3429 -0.1580 -0.3944
    1CHTO  C124   28   5.830   5.836   3.400 -0.0808 -0.3996 -0.8849
    1CHTO   O83   29   5.848   5.702   3.457  0.4260 -0.7810 -0.3498
    1CHTO  H204   30   5.927   5.659   3.433  0.6689  0.2521 -1.4702
    1CHTO  C109   31   6.067   5.912   3.458  0.4771 -0.0287  0.3793
    1CHTO  H213   32   6.066   5.837   3.539 -0.0270 -0.6618 -0.2156
    1CHTO  C110   33   6.155   6.026   3.528 -0.1553 -0.0653  0.3865
    1CHTO  H214   34   6.151   6.110   3.459  0.5358  1.1638  1.8187
    1CHTO   O78   35   6.291   5.995   3.548 -0.4747 -0.5698 -0.5034
    1CHTO  H200   36   6.328   5.949   3.475 -1.2662  0.2846 -1.4548
    1CHTO  C111   37   6.085   6.066   3.662  0.5304  0.0602 -0.2114
    1CHTO  H215   38   6.075   5.975   3.724  1.1008 -0.2511 -0.5680
    1CHTO   N19   39   6.158   6.171   3.742 -0.3579  0.3620 -0.0253
    1CHTO  H207   40   6.102   6.264   3.739 -0.5689  0.2458  0.3653
    1CHTO  H208   41   6.166   6.158   3.849 -2.7186  0.9952  0.2593
    1CHTO   O74   42   6.122   5.861   3.336  0.3368  0.3523 -0.0034
    1CHTO  C115   43   6.189   5.713   3.353  0.4877 -0.7271  0.1000
    1CHTO  H219   44   6.190   5.682   3.458 -1.7007 -3.2584 -0.5844
    1CHTO   O76   45   6.095   5.600   3.280  0.1819 -0.0848 -0.1256
    1CHTO  C122   46   6.088   5.619   3.144 -0.0686 -0.0897  0.1608
    1CHTO  H226   47   6.033   5.713   3.133  0.1823  0.2121  1.4138
    1CHTO  C126   48   6.004   5.507   3.072 -0.1798  0.1566 -0.1294
    1CHTO   O85   49   5.875   5.480   3.125 -0.0087  0.9137 -0.0571
    1CHTO  H206   50   5.813   5.547   3.106  0.5397  1.5824  0.4854
    1CHTO  C121   51   6.225   5.629   3.071  0.2129  0.6547 -0.0176
    1CHTO  H225   52   6.247   5.549   2.997  4.5289  1.6036  0.0723
    1CHTO   O81   53   6.234   5.746   2.991 -0.5555  0.2378  0.5337
    1CHTO  H202   54   6.248   5.822   3.044  0.9031 -1.7754  3.1327
    1CHTO  C119   55   6.342   5.619   3.170 -0.9922 -0.4017  0.2399
    1CHTO  H223   56   6.335   5.522   3.219 -0.4931 -0.9939 -0.8545
    1CHTO  C117   57   6.327   5.725   3.283 -0.3159 -0.2367 -0.3275
    1CHTO  H221   58   6.330   5.830   3.255 -1.2016 -0.3643 -0.9229
    1CHTO   N20   59   6.432   5.710   3.393 -0.0638  0.2606 -0.2253
    1CHTO  H209   60   6.436   5.796   3.459 -0.7036 -0.3347  0.5882
    1CHTO  H210   61   6.531   5.702   3.349 -0.9661 -3.4254 -1.7615
    1CHTO   O80   62   6.475   5.600   3.092  0.3488 -0.2987  0.4760
    1CHTO  C103   63   6.543   5.459   3.098  0.1614 -0.3409  0.1224
    1CHTO  H190   64   6.536   5.420   3.200 -0.4925  0.1077  0.2586
    1CHTO  C101   65   6.478   5.360   3.003  0.1099  0.3908  0.1513
    1CHTO  H188   66   6.476   5.409   2.905 -1.5993  0.2958  0.1392
    1CHTO   O68   67   6.325   5.309   3.060 -0.0253  0.0552  0.3537
    1CHTO  H168   68   6.298   5.235   3.009  0.6128  0.8611 -1.1794
    1CHTO   C99   69   6.574   5.231   2.973 -0.2476  0.0173  0.3222
    1CHTO  H186   70   6.581   5.176   3.069 -0.6641  0.1699  0.4413
    1CHTO   N17   71   6.514   5.145   2.866 -0.2108 -0.0952  0.1162
    1CHTO  H174   72   6.406   5.147   2.861 -0.2511 -0.0117  0.8954
    1CHTO  H175   73   6.557   5.046   2.860  1.3464  0.3542  2.9132
    1CHTO   C97   74   6.720   5.279   2.936 -0.1799  0.5447 -0.3977
    1CHTO  H184   75   6.717   5.333   2.840 -2.1855 -1.6250 -1.6069
    1CHTO   O64   76   6.768   5.365   3.047 -0.3856  0.5621  0.4097
    1CHTO  C104   77   6.694   5.488   3.064 -1.0438  0.1843 -0.0632
    1CHTO  H191   78   6.701   5.559   2.982 -2.5505  2.3957  1.6457
    1CHTO  C108   79   6.757   5.566   3.177  0.0651 -0.2847  0.1099
    1CHTO   O71   80   6.875   5.631   3.144 -0.0052 -0.3111  0.0874
    1CHTO  H171   81   6.931   5.636   3.220  0.1683  1.1251 -0.1263
    1CHTO   O62   82   6.815   5.167   2.921  0.0342 -0.1865 -0.3726
    1CHTO   C91   83   6.940   5.212   2.865  0.3133 -0.2702  0.6870
    1CHTO  H178   84   6.951   5.315   2.898 -0.8052 -0.4169  1.5609
    1CHTO   C92   85   6.944   5.213   2.707 -0.4282  0.7255  0.1427
    1CHTO  H179   86   6.846   5.249   2.674 -1.9545 -0.3628  3.2871
    1CHTO   O66   87   7.056   5.299   2.671 -0.4039 -0.1727 -0.0435
    1CHTO  H166   88   7.036   5.361   2.604  0.9491 -0.0847 -0.3913
    1CHTO   C93   89   6.965   5.066   2.648 -0.2808 -0.4766 -0.6541
    1CHTO  H180   90   6.983   5.072   2.540 -1.6799  1.1933 -0.8191
    1CHTO   N16   91   6.836   4.992   2.659 -0.0878 -0.2155  0.0767
    1CHTO  H172   92   6.749   5.050   2.635  0.3505  0.2397 -0.4483
    1CHTO  H173   93   6.833   4.929   2.746  0.8146 -0.0015  0.2702
    1CHTO   C94   94   7.089   4.993   2.722 -0.6938 -0.6531  0.0486
    1CHTO  H181   95   7.062   4.892   2.753  0.1698 -0.7968  0.3489
    1CHTO   O61   96   7.147   5.069   2.831  0.0152  0.4062 -0.0246
    1CHTO   C95   97   7.059   5.135   2.922 -0.0986 -0.2406 -0.2240
    1CHTO  H182   98   7.024   5.062   2.995  2.3585 -0.8526  0.3807
    1CHTO  C106   99   7.159   5.232   3.002 -0.3545  0.1484 -1.2442
    1CHTO   O69  100   7.236   5.312   2.913 -0.0490 -0.0505 -0.3649
    1CHTO  H169  101   7.308   5.264   2.877  1.4221  1.9275 -0.1508
    1CHTO   O63  102   7.203   4.979   2.626  0.4547  0.2763 -0.0461
    1CHTO   C96  103   7.277   4.858   2.654 -0.4521  0.0772  0.4906
    1CHTO  H183  104   7.204   4.778   2.668  0.1023 -0.5755 -0.2330
    1CHTO   C98  105   7.374   4.844   2.779 -0.6604 -0.4064  0.4978
    1CHTO  H185  106   7.327   4.870   2.875 -0.8047 -0.1124  0.3455
    1CHTO   O67  107   7.412   4.704   2.788 -0.5312  0.3163 -0.2597
    1CHTO  H167  108   7.448   4.685   2.872  0.6764  1.9457 -0.3882
    1CHTO  C102  109   7.516   4.920   2.760 -0.0367 -0.0859 -0.5469
    1CHTO  H189  110   7.585   4.872   2.832 -0.2429  1.2728  0.5762
    1CHTO   N18  111   7.502   5.065   2.798 -0.1941  0.0509 -0.8025
    1CHTO  H176  112   7.586   5.134   2.797  1.3524 -1.7230  1.7166
    1CHTO  H177  113   7.425   5.079   2.872 -0.6960 -1.3026 -1.0636
    1CHTO  C105  114   7.569   4.899   2.612  0.1512  0.8069  0.9443
    1CHTO  H192  115   7.557   4.992   2.557 -2.5111 -0.8589 -1.3979
    1CHTO   O65  116   7.492   4.806   2.534 -0.2851  0.0425  0.1448
    1CHTO  C100  117   7.349   4.823   2.518 -0.5374 -0.2385 -0.1223
    1CHTO  H187  118   7.339   4.906   2.447  1.0484  1.1195  1.2221
    1CHTO  C107  119   7.279   4.702   2.454 -0.1740 -0.3283  0.0654
    1CHTO   O70  120   7.320   4.670   2.321  0.0693  0.1732  0.1668
    1CHTO  H170  121   7.245   4.623   2.291  1.0955 -0.6530 -1.1462
    1CHTO   O57  122   7.733   4.872   2.636 -0.0918  0.7179 -0.7448
    1CHTO   C85  123   7.814   4.754   2.628  0.0506 -0.7965 -0.8767
    1CHTO  H157  124   7.814   4.727   2.520 -1.8346 -0.4714 -0.9862
    1CHTO   C83  125   7.762   4.631   2.706 -0.2127  0.0888 -0.6078
    1CHTO  H155  126   7.668   4.615   2.654  0.0099 -0.0925 -0.9564
    1CHTO   O56  127   7.735   4.671   2.840  0.2935 -0.3496 -0.5040
    1CHTO  H135  128   7.669   4.738   2.835  2.3448  1.6958 -0.7224
    1CHTO   C81  129   7.855   4.506   2.696  0.4739  0.1447  0.1148
    1CHTO  H153  130   7.862   4.485   2.589 -2.2596 -0.5748  0.0286
    1CHTO   N14  131   7.769   4.393   2.736 -0.1010 -0.0189 -0.2093
    1CHTO  H141  132   7.678   4.385   2.681 -0.6455  1.1512  0.5112
    1CHTO  H142  133   7.747   4.383   2.840 -1.7150 -1.5493 -0.6668
    1CHTO   C79  134   7.994   4.532   2.758  0.0673  0.1111 -0.5359
    1CHTO  H151  135   8.062   4.452   2.731  0.8785 -0.5846  3.3579
    1CHTO   O52  136   8.045   4.658   2.699  0.2169 -0.0933  0.0646
    1CHTO   C86  137   7.956   4.775   2.686  1.1730 -0.0296 -0.4960
    1CHTO  H158  138   7.951   4.817   2.788 -3.0192  0.9549 -1.0395
    1CHTO   C90  139   8.037   4.871   2.604 -0.0218 -0.2806  0.0079
    1CHTO   O60  140   8.138   4.923   2.679 -0.1932  0.2214  0.0623
    1CHTO  H138  141   8.104   4.976   2.748 -0.6032  0.6287 -0.4452
    1CHTO   O50  142   8.004   4.537   2.900 -0.3935 -0.3301  0.0684
    1CHTO   C73  143   8.068   4.520   3.023  0.0051  0.1092  0.6235
    1CHTO  H145  144   8.166   4.476   2.998 -0.5465 -1.3438  0.9378
    1CHTO   C74  145   7.981   4.418   3.102 -0.1468 -0.3892 -0.1910
    1CHTO  H146  146   7.975   4.323   3.047 -0.3092 -0.1735 -0.5526
    1CHTO   O54  147   8.058   4.384   3.214  0.0668  0.1708 -0.4264
    1CHTO  H133  148   8.085   4.295   3.222  1.6794  0.7435  0.8031
    1CHTO   C75  149   7.839   4.484   3.132 -0.3584  0.2044 -0.4127
    1CHTO  H147  150   7.790   4.504   3.036 -1.8463 -1.4094 -0.0102
    1CHTO   N13  151   7.749   4.396   3.215  0.5387  0.4760 -0.1294
    1CHTO  H139  152   7.799   4.305   3.243  0.7896 -0.1630 -2.4842
    1CHTO  H140  153   7.672   4.356   3.151  0.6417  1.8729 -1.1495
    1CHTO   C76  154   7.865   4.632   3.202  0.3572  0.3542 -0.1587
    1CHTO  H148  155   7.921   4.618   3.294 -1.1389 -0.1497  0.7068
    1CHTO   O49  156   7.956   4.708   3.120 -0.2926  0.2800 -0.6014
    1CHTO   C77  157   8.084   4.655   3.096 -0.5664 -0.2617  0.4013
    1CHTO  H149  158   8.137   4.637   3.189  2.1670 -1.7522 -1.3775
    1CHTO   C88  159   8.176   4.760   3.032  0.0531 -0.0405 -0.1616
    1CHTO   O58  160   8.196   4.868   3.121  0.2503  1.1056 -0.6574
    1CHTO  H136  161   8.246   4.836   3.194  1.0517  2.1269 -0.7419
    1CHTO   O51  162   7.729   4.718   3.186  0.1929  0.1316 -0.3040
    1CHTO   C78  163   7.728   4.814   3.297  0.3495  0.2430  0.1730
    1CHTO  H150  164   7.829   4.842   3.333 -0.4413  1.4753  1.4573
    1CHTO   C80  165   7.636   4.762   3.408 -0.4070  0.9151  0.4613
    1CHTO  H152  166   7.536   4.742   3.363  0.0041  0.7397 -0.3904
    1CHTO   O55  167   7.689   4.633   3.448  0.6128 -0.1320  0.0783
    1CHTO  H134  168   7.625   4.565   3.458  0.0274  0.2933 -0.6862
    1CHTO   C84  169   7.630   4.863   3.527  0.1771  0.3886  0.7351
    1CHTO  H156  170   7.733   4.876   3.561 -0.1572  0.0196  1.9256
    1CHTO   N15  171   7.545   4.810   3.637  0.4452  0.0735 -0.4547
    1CHTO  H143  172   7.546   4.868   3.727  0.3357 -1.4847  0.5825
    1CHTO  H144  173   7.561   4.707   3.664  0.0769  0.0466 -0.3322
    1CHTO   C87  174   7.573   4.992   3.470 -0.6110 -0.1534  0.1086
    1CHTO  H159  175   7.478   4.964   3.424 -0.0640  1.2297 -1.9742
    1CHTO   O53  176   7.663   5.046   3.351 -0.1971 -0.2946 -0.6297
    1CHTO   C82  177   7.674   4.949   3.247  0.3186  0.2715 -0.2411
    1CHTO  H154  178   7.580   4.939   3.193 -0.1089 -1.3370  0.7495
    1CHTO   C89  179   7.776   5.008   3.143 -0.0283 -0.1737  0.6232
    1CHTO   O59  180   7.763   4.926   3.030  0.0393  0.1999  0.0666
    1CHTO  H137  181   7.817   4.943   2.956 -0.9233 -1.0483 -0.9494
    1CHTO   O45  182   7.559   5.115   3.569  0.1755  0.3541  0.1318
    1CHTO   C67  183   7.446   5.195   3.537 -0.1329  0.1851  0.2500
    1CHTO  H124  184   7.360   5.130   3.521  1.6328 -1.6564 -2.0068
    1CHTO   C65  185   7.427   5.289   3.661 -0.2054 -0.1219 -0.8665
    1CHTO  H122  186   7.451   5.228   3.748  2.2406  5.3162  2.5313
    1CHTO   O44  187   7.294   5.345   3.658  0.3673  0.3300  0.1926
    1CHTO  H102  188   7.287   5.402   3.584  0.0282  0.5322  0.3823
    1CHTO   C63  189   7.541   5.393   3.669  0.0313 -0.5307  0.9000
    1CHTO  H120  190   7.633   5.335   3.669  0.5437  0.2605  2.3149
    1CHTO   N11  191   7.545   5.466   3.795 -0.6825 -0.4907  0.0255
    1CHTO  H108  192   7.637   5.445   3.847 -0.4576  1.4339  0.4524
    1CHTO  H109  193   7.552   5.571   3.775  0.4275 -0.6693 -0.5317
    1CHTO   C61  194   7.530   5.485   3.541 -0.3808  0.5388  0.6626
    1CHTO  H118  195   7.624   5.542   3.535  1.0516 -1.6614  1.6648
    1CHTO   O40  196   7.526   5.405   3.424  0.1800  0.6803  0.0876
    1CHTO   C68  197   7.450   5.283   3.403 -0.1873  0.3968 -0.1704
    1CHTO  H125  198   7.506   5.214   3.336 -3.7996 -1.8753 -0.9573
    1CHTO   C72  199   7.311   5.301   3.344 -0.2296  0.3034  0.1580
    1CHTO   O48  200   7.260   5.180   3.283 -0.6469  0.5059 -0.6995
    1CHTO  H105  201   7.235   5.200   3.195 -1.5809  4.3866  0.3286
    1CHTO   O38  202   7.413   5.570   3.524  0.3348  0.1335  0.4825
    1CHTO   C55  203   7.440   5.704   3.464 -0.4449  0.1785  0.4100
    1CHTO  H112  204   7.522   5.690   3.391  0.8750  2.7871  1.3280
    1CHTO   C56  205   7.476   5.808   3.568 -0.0921  0.4490 -0.2278
    1CHTO  H113  206   7.405   5.796   3.651  0.5312 -0.7537  0.1446
    1CHTO   O42  207   7.605   5.768   3.622 -0.0558 -0.6350 -0.0205
    1CHTO  H100  208   7.598   5.694   3.679 -1.1999 -0.9460 -0.5538
    1CHTO   C57  209   7.470   5.958   3.509  0.6894 -0.2918  0.1283
    1CHTO  H114  210   7.550   5.970   3.437  1.5469 -1.5266  0.8601
    1CHTO   N10  211   7.493   6.061   3.615  0.4956 -0.1899  0.0155
    1CHTO  H106  212   7.531   6.016   3.706  1.0532  0.3675  0.0611
    1CHTO  H107  213   7.402   6.115   3.636  1.4918  1.6235 -0.2182
    1CHTO   C58  214   7.335   5.975   3.431  0.1887 -0.1039  0.3792
    1CHTO  H115  215   7.255   5.936   3.498  1.0727 -2.1672  0.2434
    1CHTO   O37  216   7.343   5.878   3.326  0.6411  0.5695  0.6638
    1CHTO   C59  217   7.324   5.742   3.376  0.0127 -0.3253  0.2517
    1CHTO  H116  218   7.228   5.730   3.428 -0.0204  0.0840  0.2866
    1CHTO   C70  219   7.308   5.640   3.259 -0.3048  0.0986 -0.0686
    1CHTO   O46  220   7.416   5.638   3.161  0.3986 -0.2810 -0.1468
    1CHTO  H103  221   7.380   5.600   3.083  0.4158  0.7261 -0.6519
    1CHTO   O39  222   7.305   6.108   3.374  0.0902  0.1108 -0.4555
    1CHTO   C60  223   7.174   6.129   3.328  0.1508 -0.2633  0.1036
    1CHTO  H117  224   7.116   6.036   3.322  1.7810 -1.3165  0.4479
    1CHTO   C62  225   7.102   6.229   3.424 -0.2417  0.3675 -0.1336
    1CHTO  H119  226   7.071   6.174   3.515 -1.8845  2.1270  0.3798
    1CHTO   O43  227   7.190   6.340   3.460  0.2045 -0.2250  0.0249
    1CHTO  H101  228   7.165   6.415   3.411  1.3347  0.6584  0.7663
    1CHTO   C66  229   6.958   6.266   3.356  0.3188 -0.4214  0.1382
    1CHTO  H123  230   6.896   6.178   3.341  1.8991 -1.4838 -0.3420
    1CHTO   N12  231   6.882   6.352   3.448 -0.2007  0.2180  0.3123
    1CHTO  H110  232   6.800   6.291   3.484  1.0238 -2.5870 -1.4421
    1CHTO  H111  233   6.945   6.400   3.521 -2.3240  1.3528  1.4399
    1CHTO   C69  234   6.987   6.324   3.216  0.7097 -0.3393  0.1064
    1CHTO  H126  235   7.049   6.414   3.233  0.7131 -0.0745 -1.3194
    1CHTO   O41  236   7.050   6.220   3.131  0.7780 -0.4700 -0.1543
    1CHTO   C64  237   7.189   6.179   3.177  0.0922 -0.4029 -0.7418
    1CHTO  H121  238   7.262   6.262   3.177  0.7870 -0.9598  1.7772
    1CHTO   C71  239   7.248   6.067   3.081  0.3233  0.1645 -0.6763
    1CHTO   O47  240   7.240   6.116   2.946  0.1659 -0.0296  0.3384
    1CHTO  H104  241   7.283   6.199   2.942  0.0272  0.0607  0.7286
    1CHTO   O34  242   6.853   6.375   3.142  0.6511 -0.0092 -0.0836
    1CHTO   C49  243   6.869   6.482   3.018 -0.0177  0.0145  0.0540
    1CHTO   H91  244   6.927   6.562   3.063  0.5077  0.6331 -1.6879
    1CHTO   C47  245   6.733   6.545   2.969 -0.1763 -0.7052 -0.1583
    1CHTO   H89  246   6.757   6.619   2.890  0.4943  0.2161  0.8886
    1CHTO   O33  247   6.668   6.609   3.077  0.1055  0.4086  0.4842
    1CHTO   H70  248   6.606   6.674   3.052  1.4002  1.5843  0.2875
    1CHTO   C45  249   6.660   6.425   2.893 -0.1122  0.2622 -0.3714
    1CHTO   H87  250   6.660   6.346   2.969 -0.0447 -0.7278 -1.3772
    1CHTO    N8  251   6.516   6.461   2.868 -0.1184 -0.0721 -0.1114
    1CHTO   H75  252   6.491   6.534   2.943  0.6908 -1.0934  1.1539
    1CHTO   H76  253   6.448   6.377   2.869  0.4800 -0.5591 -0.0193
    1CHTO   C43  254   6.741   6.368   2.777  0.8408  1.0768  0.1399
    1CHTO   H85  255   6.685   6.280   2.743  0.4562  1.4072 -0.0867
    1CHTO   O29  256   6.875   6.326   2.826  0.1302  0.0251 -0.3576
    1CHTO   C50  257   6.948   6.420   2.901 -0.1279 -0.1120 -0.1575
    1CHTO   H92  258   7.034   6.360   2.936  0.6592  0.9761 -0.1829
    1CHTO   C54  259   7.014   6.522   2.813 -1.1567  0.3060  0.1523
    1CHTO   O36  260   7.107   6.472   2.723  0.5150 -0.6023 -0.4033
    1CHTO   H72  261   7.108   6.510   2.637  0.7537  2.0172  0.7120
    1CHTO   O27  262   6.740   6.455   2.662 -0.8641  0.1513  0.1371
    1CHTO   C37  263   6.808   6.454   2.536 -0.6262  0.2352 -0.2962
    1CHTO   H79  264   6.916   6.445   2.552 -0.7899 -2.4322 -0.4571
    1CHTO   C38  265   6.768   6.337   2.445  0.1324 -0.2297 -0.4558
    1CHTO   H80  266   6.662   6.347   2.416  0.2051  1.3401 -0.2267
    1CHTO   O31  267   6.788   6.211   2.510  0.0580 -0.2523 -0.6770
    1CHTO   H68  268   6.709   6.171   2.541 -0.3511  0.5471 -0.6595
    1CHTO   C39  269   6.845   6.335   2.310  0.1706 -0.5645  0.3570
    1CHTO   H81  270   6.951   6.315   2.327 -0.0786 -1.1054  1.3082
    1CHTO    N7  271   6.803   6.237   2.211 -0.1038 -0.0490  0.2362
    1CHTO   H73  272   6.724   6.169   2.238 -1.0565  1.3633  1.1246
    1CHTO   H74  273   6.791   6.284   2.114 -1.4915 -1.2891 -0.2030
    1CHTO   C40  274   6.833   6.489   2.248  0.2240  0.2124 -0.7789
    1CHTO   H82  275   6.731   6.501   2.211 -0.0968 -0.1258 -0.0099
    1CHTO   O26  276   6.860   6.594   2.344 -0.2071  0.5088 -0.0966
    1CHTO   C41  277   6.775   6.590   2.463  0.1716  0.5107  0.3715
    1CHTO   H83  278   6.670   6.594   2.428 -0.3201  0.7701  1.8242
    1CHTO   C52  279   6.810   6.709   2.556  0.6044 -1.0275  0.1133
    1CHTO   O35  280   6.721   6.741   2.648  0.1872 -0.8471 -0.6044
    1CHTO   H71  281   6.707   6.833   2.652 -0.3906 -0.9530 -0.0950
    1CHTO   O28  282   6.901   6.506   2.126  0.1406 -0.0660  0.2066
    1CHTO   C42  283   7.045   6.506   2.105  0.4305  0.6311  0.8189
    1CHTO   H84  284   7.071   6.410   2.151 -0.3288  0.6056  1.2021
    1CHTO   C44  285   7.132   6.616   2.174 -0.4109  0.0286 -0.7819
    1CHTO   H86  286   7.088   6.714   2.156 -1.2843  0.4323  3.1657
    1CHTO   O32  287   7.122   6.605   2.321  0.2827  0.3001 -0.3456
    1CHTO   H69  288   7.031   6.596   2.343 -0.0290 -0.3672 -1.8375
    1CHTO   C48  289   7.279   6.611   2.129  0.0619  0.0847  0.4398
    1CHTO   H90  290   7.330   6.524   2.169  0.8085  0.2678 -0.0916
    1CHTO    N9  291   7.364   6.717   2.193  0.7091 -0.8036 -0.2939
    1CHTO   H77  292   7.423   6.775   2.123  0.0205 -3.1549 -2.9241
    1CHTO   H78  293   7.432   6.660   2.255  1.0822 -0.1717 -0.1121
    1CHTO   C51  294   7.283   6.617   1.975  0.0182  0.4494 -0.2597
    1CHTO   H93  295   7.225   6.705   1.947 -0.7939  0.1926  0.5868
    1CHTO   O30  296   7.225   6.498   1.934 -1.0529  0.1734 -0.2452
    1CHTO   C46  297   7.078   6.490   1.951 -0.1541  0.0820 -0.1063
    1CHTO   H88  298   7.031   6.562   1.885  2.5729 -0.5475 -2.8507
    1CHTO   C53  299   7.028   6.352   1.904  0.1636 -0.0876  0.4319
    1CHTO   O72  300   7.052   6.326   1.767  0.3080  0.4444  0.0739
    1CHTO  H199  301   7.140   6.353   1.749  0.6822 -0.1489  0.9599
    1CHTO   O22  302   7.418   6.609   1.914  0.1553 -0.0766  0.0010
    1CHTO   C31  303   7.460   6.711   1.816  0.1023  0.1121 -0.5482
    1CHTO   H59  304   7.384   6.792   1.813 -1.1218 -1.0203 -0.2257
    1CHTO   C29  305   7.595   6.777   1.844  0.0650 -0.0143  0.2452
    1CHTO   H57  306   7.671   6.698   1.854 -1.1872 -1.0737  1.6398
    1CHTO   O21  307   7.590   6.836   1.972 -0.1989 -0.8612  0.4585
    1CHTO   H37  308   7.667   6.812   2.020  1.9322  0.4076 -2.1821
    1CHTO   C27  309   7.643   6.875   1.725 -0.1308 -0.3149  0.3228
    1CHTO   H55  310   7.597   6.972   1.744  1.7194  0.7860 -0.6660
    1CHTO    N5  311   7.784   6.895   1.724  0.0066 -0.4395 -0.5037
    1CHTO   H43  312   7.816   6.901   1.827  1.7000 -2.4906 -0.8774
    1CHTO   H44  313   7.809   6.973   1.654  1.4604 -0.7404 -0.3373
    1CHTO   C25  314   7.592   6.832   1.576  0.1904  0.1770 -0.4661
    1CHTO   H53  315   7.666   6.768   1.526  0.2003 -1.1301  1.1602
    1CHTO   O17  316   7.468   6.755   1.579 -0.2249 -0.3116 -0.3631
    1CHTO   C32  317   7.460   6.643   1.670 -0.1528 -0.4436 -0.2376
    1CHTO   H60  318   7.551   6.583   1.660 -0.6376 -1.3285  0.6219
    1CHTO   C36  319   7.338   6.561   1.629  0.1912 -0.5430 -0.0965
    1CHTO   O25  320   7.343   6.502   1.498 -0.2216  0.1353 -0.3205
    1CHTO   H40  321   7.269   6.536   1.452 -0.6414 -0.8468 -0.3853
    1CHTO   O15  322   7.570   6.966   1.499 -0.5654 -0.1757 -0.5531
    1CHTO   C19  323   7.538   6.999   1.366  0.6316  0.8137 -0.1660
    1CHTO   H47  324   7.566   7.104   1.349  0.9579  1.3662  3.3475
    1CHTO   C20  325   7.612   6.918   1.264  0.2129 -0.2895 -0.2905
    1CHTO   H48  326   7.582   6.813   1.273  1.5413 -0.6016  0.5094
    1CHTO   O19  327   7.749   6.929   1.296 -0.3430 -0.5434  0.4599
    1CHTO   H35  328   7.764   6.941   1.387 -0.1201  3.1970  0.0117
    1CHTO   C21  329   7.574   6.954   1.116 -0.0388 -0.2154 -0.3348
    1CHTO   H49  330   7.610   7.054   1.094 -0.3862 -0.3791 -1.7149
    1CHTO    N4  331   7.631   6.863   1.014  0.3375  0.1648  0.2861
    1CHTO   H41  332   7.617   6.760   1.042 -0.3941 -0.4969 -2.3857
    1CHTO   H42  333   7.735   6.882   0.991  0.9299 -1.4681  1.5245
    1CHTO   C22  334   7.418   6.964   1.101 -0.1478  0.1672  0.6643
    1CHTO   H50  335   7.371   6.866   1.104  2.0735 -0.9889 -1.1290
    1CHTO   O14  336   7.364   7.043   1.209  0.0146 -0.2465  0.1353
    1CHTO   C23  337   7.384   6.984   1.338 -0.2446 -0.2574 -0.4096
    1CHTO   H51  338   7.357   6.877   1.331  0.8297 -0.5431 -0.3026
    1CHTO   C34  339   7.302   7.060   1.435  0.4946  0.2868  0.3909
    1CHTO   O23  340   7.286   7.005   1.562 -0.4365  0.0063  0.1233
    1CHTO   H38  341   7.227   6.934   1.545  1.4833 -0.8994 -3.0514
    1CHTO   O16  342   7.379   7.022   0.977 -0.3802 -0.0087 -0.0714
    1CHTO   C24  343   7.308   6.924   0.880  0.0662  0.9255  0.3963
    1CHTO   H52  344   7.333   6.821   0.904 -1.1020  0.6505  0.4948
    1CHTO   C26  345   7.360   6.955   0.738  1.0875 -0.1088 -0.4938
    1CHTO   H54  346   7.347   7.063   0.714  1.1933  0.4777  1.9901
    1CHTO   O20  347   7.499   6.927   0.727  0.6357 -0.3734  0.3864
    1CHTO   H36  348   7.554   6.990   0.768 -0.5122 -0.1633  1.6467
    1CHTO   C30  349   7.278   6.875   0.629  0.4705  0.6050  0.3715
    1CHTO   H58  350   7.285   6.765   0.633 -3.5735  0.1761 -1.5735
    1CHTO    N6  351   7.304   6.907   0.486  0.2717 -0.5444  0.1060
    1CHTO   H45  352   7.320   6.821   0.423 -1.0782 -1.3757  0.8598
    1CHTO   H46  353   7.390   6.971   0.483 -0.3889  0.5319  2.6300
    1CHTO   C33  354   7.125   6.887   0.657  0.3367 -0.3603  0.2592
    1CHTO   H61  355   7.098   6.993   0.646 -1.3419 -0.6224  1.5745
    1CHTO   O18  356   7.092   6.857   0.795 -0.2592  0.4507  0.3138
    1CHTO   C28  357   7.155   6.937   0.900 -0.2216  0.0782 -0.7312
    1CHTO   H56  358   7.128   7.043   0.894  2.4978  0.9331  1.4718
    1CHTO   C35  359   7.108   6.888   1.036  0.2643 -0.1662 -0.1223
    1CHTO   O24  360   6.963   6.885   1.062 -0.1086  0.3846 -0.0069
    1CHTO   H39  361   6.951   6.796   1.088  1.3284  0.2899  0.3859
    1CHTO    O9  362   7.039   6.812   0.570  0.2231  0.1540  0.0200
    1CHTO   C13  363   6.886   6.857   0.552 -0.7260 -0.7748 -0.3257
    1CHTO   H26  364   6.879   6.959   0.509  0.7495 -0.5344 -0.0326
    1CHTO   C11  365   6.802   6.839   0.688 -0.6499 -0.2929 -0.2407
    1CHTO   H24  366   6.842   6.904   0.767 -0.2744 -1.3591  0.4705
    1CHTO    O8  367   6.823   6.703   0.736  0.3533  0.3752  0.5110
    1CHTO    H3  368   6.787   6.692   0.822 -0.0490  1.2301  0.4555
    1CHTO    C9  369   6.656   6.879   0.658 -0.0342 -0.3711 -0.6923
    1CHTO   H22  370   6.667   6.979   0.614 -0.0657  0.5394  1.3061
    1CHTO    N2  371   6.575   6.909   0.779  0.2178 -0.0735  0.1877
    1CHTO   H10  372   6.566   6.822   0.842 -0.7630 -0.8142 -0.9352
    1CHTO   H11  373   6.637   6.985   0.824  2.0981 -0.5064 -1.6171
    1CHTO    C7  374   6.584   6.781   0.559 -0.0019 -0.5995  0.7919
    1CHTO   H20  375   6.500   6.839   0.515  1.8861  1.8417  0.2871
    1CHTO    O4  376   6.676   6.738   0.456  0.4319  0.1013 -0.0490
    1CHTO   C14  377   6.816   6.766   0.436 -0.3751  0.5502 -0.2277
    1CHTO   H27  378   6.830   6.823   0.342  0.0134  3.1390  1.3675
    1CHTO   C18  379   6.878   6.623   0.417  0.0499  0.0584 -0.9986
    1CHTO   O13  380   6.824   6.553   0.306  0.3729 -0.5236 -0.5142
    1CHTO    H7  381   6.773   6.479   0.334  1.6876 -2.0216 -1.9117
    1CHTO    O2  382   6.513   6.648   0.637 -0.0230  0.4641 -0.0275
    1CHTO    C1  383   6.422   6.577   0.550  0.6191 -0.2815 -0.6723
    1CHTO   H14  384   6.443   6.606   0.445 -0.6720 -1.1847 -1.1931
    1CHTO    C2  385   6.267   6.612   0.580  0.5885  0.4347  0.7501
    1CHTO   H15  386   6.244   6.583   0.684  1.1259 -0.2699  0.6772
    1CHTO    O6  387   6.240   6.751   0.550 -0.1544  0.0759  0.6091
    1CHTO    H1  388   6.266   6.771   0.462 -0.0473  1.7353  0.9912
    1CHTO    C3  389   6.174   6.518   0.486  0.1051  0.7135  0.3420
    1CHTO   H16  390   6.180   6.563   0.385 -0.1001 -1.3192 -0.5915
    1CHTO    N1  391   6.033   6.538   0.530 -0.1374  0.0519  0.5408
    1CHTO    H8  392   6.015   6.635   0.572 -0.6371 -0.1755  0.8526
    1CHTO    H9  393   5.968   6.513   0.448  1.4720 -1.5779 -0.2813
    1CHTO    C4  394   6.219   6.369   0.470 -0.1239  0.5560 -0.2346
    1CHTO   H17  395   6.187   6.306   0.553  1.2417 -3.0261 -2.3291
    1CHTO    O1  396   6.362   6.361   0.453 -0.5775  0.0741 -0.6591
    1CHTO    C5  397   6.439   6.423   0.549  0.0505  0.4066 -0.5385
    1CHTO   H18  398   6.403   6.389   0.646 -1.0297  1.9620 -0.3809
    1CHTO   C16  399   6.584   6.368   0.530 -0.1139 -0.5524 -0.1617
    1CHTO   O11  400   6.578   6.236   0.578 -0.7615  0.5232  0.1633
    1CHTO    H5  401   6.621   6.176   0.519  1.3522  1.3511  0.8012
    1CHTO    O3  402   6.171   6.320   0.342 -0.5503 -1.0882  0.5583
    1CHTO    C6  403   6.082   6.208   0.352  0.0311 -0.0604 -0.1255
    1CHTO   H19  404   6.034   6.200   0.449 -0.9052 -0.6957 -0.6380
    1CHTO    C8  405   5.962   6.223   0.254  0.0384  0.7331 -0.0934
    1CHTO   H21  406   6.000   6.218   0.152  0.5953  0.0661  0.1381
    1CHTO    O7  407   5.886   6.343   0.280 -0.1058 -0.2959 -0.3809
    1CHTO    H2  408   5.835   6.371   0.206 -2.4320  0.9546  1.5957
    1CHTO   C12  409   5.864   6.099   0.274 -0.1616  0.0282  0.3856
    1CHTO   H25  410   5.834   6.115   0.380  0.3886  0.2944  0.5073
    1CHTO    N3  411   5.745   6.098   0.184  0.1270  0.5855 -0.3645
    1CHTO   H12  412   5.718   5.998   0.154  1.9657 -0.0704  0.1219
    1CHTO   H13  413   5.659   6.152   0.220 -0.1850  2.4674 -3.6873
    1CHTO   C15  414   5.949   5.972   0.266 -0.1430 -0.1558  0.7863
    1CHTO   H28  415   5.968   5.943   0.163 -2.9719  2.7875 -0.6285
    1CHTO   O10  416   5.865   5.843   0.323 -0.5355  0.0508 -0.1113
    1CHTO    H4  417   5.914   5.763   0.315  1.6439  1.3342 -0.0955
    1CHTO    O5  418   6.053   5.975   0.357 -0.7009 -0.4392  0.3320
    1CHTO   C10  419   6.153   6.074   0.319 -0.2018 -0.6925 -0.6058
    1CHTO   H23  420   6.171   6.074   0.211 -0.1746 -0.6901 -0.6013
    1CHTO   C17  421   6.295   6.043   0.378  0.2606 -0.2726  0.2244
    1CHTO   O12  422   6.333   5.910   0.358 -0.6467  0.0300  0.2383
    1CHTO    H6  423   6.419   5.903   0.396 -0.2211  2.0784 -0.3061
    2CHTO  H203  424   5.922   4.091   5.372 -2.4869 -0.6515  0.3452
    2CHTO   O82  425   5.945   4.005   5.340  0.2490  0.1540  0.0414
    2CHTO  C123  426   5.899   3.998   5.204 -0.5757 -0.2176  0.0112
    2CHTO  H227  427   5.924   3.898   5.164  1.3906  0.2063  0.1538
    2CHTO   O77  428   5.746   4.006   5.222  0.1587 -0.1656 -0.3326
    2CHTO  C118  429   5.671   4.012   5.099 -0.6543  1.0675 -0.1508
    2CHTO  H222  430   5.697   3.920   5.044  0.3658  1.1444  0.2027
    2CHTO  C125  431   5.520   4.010   5.137  0.1986 -0.0063  0.4497
    2CHTO   O84  432   5.495   3.889   5.209  0.3388 -0.1736  0.4223
    2CHTO  H205  433   5.466   3.827   5.144  1.2362  0.1143 -0.2602
    2CHTO  C114  434   5.719   4.126   5.008 -0.0297  0.2981  0.7082
    2CHTO  H218  435   5.688   4.220   5.054 -1.3871  0.2940 -0.1502
    2CHTO  C116  436   5.871   4.124   4.976  0.4223  0.5718  0.2532
    2CHTO  H220  437   5.891   4.032   4.917 -2.2781 -0.9058  1.5609
    2CHTO   O79  438   5.897   4.242   4.900 -0.2911 -0.1404  0.1091
    2CHTO  H201  439   5.989   4.261   4.906 -0.0675 -1.6613  2.0794
    2CHTO  C120  440   5.947   4.121   5.114  0.1991  0.6736 -0.5525
    2CHTO  H224  441   5.922   4.214   5.169 -1.1959  0.7439 -1.2978
    2CHTO   N21  442   6.091   4.119   5.094 -0.5172 -0.2208  0.0221
    2CHTO  H211  443   6.137   4.165   5.180  0.7755 -3.1790  0.9803
    2CHTO  H212  444   6.133   4.020   5.080  2.4794  0.9751  0.0361
    2CHTO   O75  445   5.642   4.115   4.886 -0.1045  0.2263  0.4126
    2CHTO  C112  446   5.575   4.262   4.826  0.5037 -0.3839 -0.5947
    2CHTO  H216  447   5.649   4.343   4.841  1.4006 -1.5244  1.2831
    2CHTO   O73  448   5.455   4.281   4.901  0.2231  0.0836  0.3533
    2CHTO  C113  449   5.392   4.407   4.877  0.0480  0.0985  0.2512
    2CHTO  H217  450   5.460   4.487   4.912  0.3691  0.3397 -0.9412
    2CHTO  C124  451   5.268   4.429   4.971 -0.2257  0.1735  0.3722
    2CHTO   O83  452   5.292   4.441   5.108  0.1287 -0.4504  0.8634
    2CHTO  H204  453   5.231   4.502   5.143  0.1886  1.6839 -2.5439
    2CHTO  C109  454   5.354   4.433   4.724  1.0710 -0.4277 -0.2595
    2CHTO  H213  455   5.261   4.378   4.706  1.9755 -1.4709 -1.9539
    2CHTO  C110  456   5.462   4.377   4.631 -0.0041 -0.2854  0.4233
    2CHTO  H214  457   5.534   4.457   4.616 -4.4839  3.5705 -1.8838
    2CHTO   O78  458   5.414   4.362   4.493  1.0209  0.4522  0.0752
    2CHTO  H200  459   5.355   4.429   4.466 -0.2673 -0.5615  0.2970
    2CHTO  C111  460   5.535   4.246   4.676 -0.2332 -0.3043 -0.7682
    2CHTO  H215  461   5.458   4.168   4.671 -0.3442 -0.1323 -1.7893
    2CHTO   N19  462   5.643   4.204   4.591 -0.0333  0.2394  0.2971
    2CHTO  H207  463   5.623   4.221   4.486  3.5093 -1.4552 -0.7388
    2CHTO  H208  464   5.734   4.256   4.615 -0.3614  0.4926  0.9943
    2CHTO   O74  465   5.332   4.579   4.695  0.4246 -0.7160  0.4130
    2CHTO  C115  466   5.188   4.604   4.625 -0.0577 -0.5717 -0.4503
    2CHTO  H219  467   5.168   4.539   4.541  0.8419 -0.5334 -0.6966
    2CHTO   O76  468   5.074   4.579   4.725  0.7565  0.0955 -0.5011
    2CHTO  C122  469   5.018   4.688   4.800  0.2691  0.9320 -0.2679
    2CHTO  H226  470   5.095   4.730   4.866 -1.5477  1.7611  1.3542
    2CHTO  C126  471   4.901   4.659   4.904  0.2824 -0.4398  0.1541
    2CHTO   O85  472   4.929   4.541   4.981  0.1594  0.0775 -0.2549
    2CHTO  H206  473   4.858   4.490   5.015  0.5269 -0.8355 -0.8468
    2CHTO  C121  474   4.976   4.805   4.705  0.2630 -0.4795 -0.7584
    2CHTO  H225  475   4.866   4.811   4.693  0.0969  0.0464  1.0170
    2CHTO   O81  476   5.010   4.935   4.764 -0.5476  0.2590  0.1095
    2CHTO  H202  477   4.978   5.008   4.715  1.4990 -0.2214 -2.0159
    2CHTO  C119  478   5.043   4.800   4.563 -0.5697 -0.1739 -0.0143
    2CHTO  H223  479   4.985   4.727   4.506 -0.0598  0.0380 -0.8156
    2CHTO  C117  480   5.195   4.753   4.573 -0.2865  0.1439  0.0512
    2CHTO  H221  481   5.267   4.811   4.630  0.5111 -0.5523 -0.2412
    2CHTO   N20  482   5.266   4.743   4.441  0.0665  0.5395 -0.0303
    2CHTO  H209  483   5.267   4.839   4.392  0.0808  1.2075  1.2602
    2CHTO  H210  484   5.361   4.698   4.464  0.1477  1.3065  1.2035
    2CHTO   O80  485   5.027   4.939   4.484 -0.4546 -0.1171  0.4270
    2CHTO  C103  486   4.921   4.944   4.372  0.2500 -0.6319 -0.3141
    2CHTO  H190  487   4.941   4.859   4.306  0.0591 -1.5836  0.8216
    2CHTO  C101  488   4.770   4.944   4.421  0.3016  0.2032 -0.0926
    2CHTO  H188  489   4.752   5.018   4.499 -1.1016  2.6823 -2.6914
    2CHTO   O68  490   4.735   4.806   4.466  0.0595 -0.5039  0.0353
    2CHTO  H168  491   4.670   4.770   4.408 -0.8803 -0.4802  1.0481
    2CHTO   C99  492   4.678   4.980   4.290  0.2768 -0.6674 -0.1835
    2CHTO  H186  493   4.704   4.902   4.216  1.5974 -1.3288  0.9391
    2CHTO   N17  494   4.530   4.979   4.313  0.4022  1.0471 -0.0048
    2CHTO  H174  495   4.492   5.075   4.280  2.9013  1.9554 -0.3700
    2CHTO  H175  496   4.489   4.888   4.274  2.6494 -1.1957  2.5792
    2CHTO   C97  497   4.722   5.118   4.233 -0.1437  0.5055 -0.4837
    2CHTO  H184  498   4.708   5.197   4.308 -0.1384  2.2012 -2.2086
    2CHTO   O64  499   4.857   5.102   4.187 -0.3069  0.3012  0.1343
    2CHTO  C104  500   4.950   5.083   4.291 -0.2719 -0.3330  0.0876
    2CHTO  H191  501   4.948   5.167   4.359 -4.9355 -0.3309  0.0854
    2CHTO  C108  502   5.089   5.086   4.227  0.1635 -0.0021  0.7829
    2CHTO   O71  503   5.200   5.074   4.319 -0.4457  0.0436 -0.3099
    2CHTO  H171  504   5.228   4.985   4.311  0.0001  0.1703 -0.1811
    2CHTO   O62  505   4.652   5.150   4.112 -0.9031  0.1171  0.4609
    2CHTO   C91  506   4.668   5.289   4.080 -0.0705 -0.1815  0.2324
    2CHTO  H178  507   4.712   5.334   4.169  3.0904 -0.7936 -0.9790
    2CHTO   C92  508   4.524   5.353   4.059 -0.1586 -0.0801 -0.5441
    2CHTO  H179  509   4.455   5.333   4.142 -0.3555 -0.4355 -0.7964
    2CHTO   O66  510   4.546   5.495   4.061 -0.0607  0.3678  0.4436
    2CHTO  H166  511   4.531   5.525   4.149 -1.2226 -3.4996  1.6671
    2CHTO   C93  512   4.456   5.313   3.924 -0.1783 -0.3522  0.3690
    2CHTO  H180  513   4.384   5.394   3.904  0.4830  0.0662 -0.3335
    2CHTO   N16  514   4.389   5.178   3.929 -0.0728 -0.0396  0.1497
    2CHTO  H172  515   4.300   5.205   3.985 -0.1805  2.4133 -1.1319
    2CHTO  H173  516   4.360   5.145   3.830 -1.5777 -0.4737  0.7187
    2CHTO   C94  517   4.568   5.312   3.804 -0.5285 -0.9001 -0.6635
    2CHTO  H181  518   4.589   5.211   3.769 -1.6606 -1.2565 -0.3518
    2CHTO   O61  519   4.689   5.377   3.845 -0.2369  0.5533 -0.1261
    2CHTO   C95  520   4.759   5.317   3.952 -0.8751 -0.2319 -0.1270
    2CHTO  H182  521   4.797   5.224   3.910 -3.8023  0.0832 -3.7530
    2CHTO  C106  522   4.870   5.417   3.991 -0.1137 -0.1355  0.1128
    2CHTO   O69  523   4.960   5.376   4.088  0.5088 -0.3630 -0.8019
    2CHTO  H169  524   5.009   5.300   4.063  0.0378 -0.0442 -2.7894
    2CHTO   O63  525   4.517   5.398   3.675 -0.3935  0.2652 -0.2295
    2CHTO   C96  526   4.448   5.533   3.690  0.3859  0.6286  0.3403
    2CHTO  H183  527   4.459   5.557   3.796  1.7197  1.2220  0.0819
    2CHTO   C98  528   4.304   5.526   3.644  0.3193  0.1333  0.2700
    2CHTO  H185  529   4.296   5.486   3.542  1.7598  1.2504 -0.3028
    2CHTO   O67  530   4.231   5.433   3.722  0.2039  0.1536 -0.5075
    2CHTO  H167  531   4.175   5.478   3.782  0.9031 -0.1982  0.4249
    2CHTO  C102  532   4.238   5.673   3.652 -0.0895 -0.5043 -0.0566
    2CHTO  H189  533   4.239   5.701   3.759 -1.0505  2.0752 -0.6647
    2CHTO   N18  534   4.089   5.676   3.614  0.1405 -0.5110  0.0057
    2CHTO  H176  535   4.054   5.777   3.633  1.1555 -0.1206 -0.1690
    2CHTO  H177  536   4.087   5.643   3.511 -1.1747 -3.0683  0.8071
    2CHTO  C105  537   4.326   5.769   3.558 -0.2153  0.2162 -0.0315
    2CHTO  H192  538   4.328   5.738   3.453  1.2792  0.4458 -0.0868
    2CHTO   O65  539   4.461   5.767   3.612 -0.4667  0.2686  0.1390
    2CHTO  C100  540   4.532   5.644   3.607  0.1198 -0.1526 -0.0979
    2CHTO  H187  541   4.532   5.606   3.503  0.7589 -0.3329 -0.0297
    2CHTO  C107  542   4.676   5.658   3.664 -1.0882 -0.1585  0.3611
    2CHTO   O70  543   4.772   5.740   3.594 -0.8516  0.1300  0.4575
    2CHTO  H170  544   4.855   5.733   3.636 -0.2345 -2.1465 -1.0705
    2CHTO   O57  545   4.262   5.932   3.565  0.7338 -0.2445 -0.3021
    2CHTO   C85  546   4.208   5.991   3.444 -0.2513  0.2968  0.0127
    2CHTO  H157  547   4.128   5.923   3.407 -1.5361 -0.0584  3.3217
    2CHTO   C83  548   4.310   5.997   3.325 -0.0688 -0.0588 -0.2213
    2CHTO  H155  549   4.329   5.894   3.293 -1.4022 -0.2139 -0.5154
    2CHTO   O56  550   4.433   6.061   3.364 -0.2993  0.2814 -0.4120
    2CHTO  H135  551   4.499   6.049   3.299 -1.4537 -0.4942 -1.4615
    2CHTO   C81  552   4.241   6.069   3.209  0.3020 -0.4299  0.0432
    2CHTO  H153  553   4.152   6.013   3.180  0.4522  0.1034 -1.4346
    2CHTO   N14  554   4.325   6.065   3.088  0.2203  0.2039 -0.4892
    2CHTO  H141  555   4.389   5.979   3.079 -0.7000 -0.6267  0.7062
    2CHTO  H142  556   4.383   6.155   3.091 -1.2954  1.1502  1.4288
    2CHTO   C79  557   4.196   6.213   3.245 -0.1227  0.0929 -0.0957
    2CHTO  H151  558   4.140   6.249   3.159  1.6548  1.8288 -0.5829
    2CHTO   O52  559   4.105   6.212   3.356  0.1033  0.2983  0.1929
    2CHTO   C86  560   4.153   6.135   3.474  0.4525 -0.4145 -0.0287
    2CHTO  H158  561   4.238   6.199   3.507 -0.1213  1.3148 -1.7902
    2CHTO   C90  562   4.052   6.139   3.585 -0.1937  0.1765 -0.3441
    2CHTO   O60  563   3.917   6.099   3.549  0.4039 -0.1378  0.3499
    2CHTO  H138  564   3.880   6.042   3.614  0.2184  0.0735  0.4289
    2CHTO   O50  565   4.307   6.299   3.265  0.3493 -0.3192 -0.2377
    2CHTO   C73  566   4.352   6.433   3.251  0.2475 -0.1725 -0.4751
    2CHTO  H145  567   4.271   6.495   3.210  0.5277 -0.1946 -1.0794
    2CHTO   C74  568   4.469   6.441   3.147  0.7705  0.5361  0.7559
    2CHTO  H146  569   4.424   6.403   3.054  0.5135  1.2176  0.5983
    2CHTO   O54  570   4.507   6.579   3.119 -0.0813  1.1265  0.4903
    2CHTO  H133  571   4.527   6.619   3.201  2.2882  1.6114 -0.2650
    2CHTO   C75  572   4.589   6.352   3.202  0.3661 -0.0297 -1.2565
    2CHTO  H147  573   4.557   6.247   3.205 -4.5537  1.3743  3.4714
    2CHTO   N13  574   4.707   6.353   3.113 -0.1752  0.5011  0.1937
    2CHTO  H139  575   4.797   6.309   3.154 -0.6185 -1.1653 -0.6076
    2CHTO  H140  576   4.692   6.304   3.019  0.3474 -0.2875  0.5115
    2CHTO   C76  577   4.627   6.401   3.351 -0.6754 -0.2764  0.0807
    2CHTO  H148  578   4.681   6.495   3.345  2.2763 -1.8465  1.3504
    2CHTO   O49  579   4.509   6.410   3.438  0.1064  0.2039  0.5986
    2CHTO   C77  580   4.398   6.489   3.385  0.4573  0.3116  1.1481
    2CHTO  H149  581   4.447   6.585   3.365  1.6968 -0.6486 -0.6447
    2CHTO   C88  582   4.290   6.523   3.487 -0.1295  0.1285 -0.0987
    2CHTO   O58  583   4.259   6.418   3.588 -0.3028  0.2831  0.2224
    2CHTO  H136  584   4.339   6.400   3.634 -0.9467 -2.2888  0.4211
    2CHTO   O51  585   4.718   6.301   3.421 -0.1020 -0.2957  0.1565
    2CHTO   C78  586   4.743   6.336   3.587 -0.5853 -0.4229 -0.0040
    2CHTO  H150  587   4.658   6.379   3.643 -2.8951 -2.1367 -2.0500
    2CHTO   C80  588   4.868   6.426   3.599  0.2133  0.2289 -0.0142
    2CHTO  H152  589   4.946   6.381   3.534 -1.6720 -0.9705 -1.5246
    2CHTO   O55  590   4.830   6.549   3.531 -0.1695  0.2546  0.3312
    2CHTO  H134  591   4.748   6.581   3.565 -1.4130 -0.5146 -1.8092
    2CHTO   C84  592   4.913   6.442   3.752 -0.1596 -0.4717 -0.2877
    2CHTO  H156  593   4.832   6.504   3.791 -0.8282 -1.3650 -0.2411
    2CHTO   N15  594   5.034   6.528   3.763  0.3512 -0.3133  0.8003
    2CHTO  H143  595   5.121   6.482   3.805  1.5509 -0.5220 -1.8159
    2CHTO  H144  596   5.011   6.616   3.820  0.3322 -1.1632  2.1196
    2CHTO   C87  597   4.914   6.308   3.823  0.1660  0.1871  0.5150
    2CHTO  H159  598   5.000   6.255   3.782 -1.2076 -1.4740 -0.2613
    2CHTO   O53  599   4.788   6.221   3.794 -0.4472 -0.2105 -0.0656
    2CHTO   C82  600   4.764   6.200   3.658 -0.3234 -0.0159  0.2829
    2CHTO  H154  601   4.839   6.135   3.613 -0.5260 -0.5979  0.7773
    2CHTO   C89  602   4.627   6.124   3.641 -0.2941  0.1078 -0.0741
    2CHTO   O59  603   4.639   6.008   3.721  0.2553 -0.0959  0.5359
    2CHTO  H137  604   4.559   6.006   3.769 -1.3638  0.9847 -1.9923
    2CHTO   O45  605   4.937   6.335   3.984 -0.4363 -0.0430  0.8822
    2CHTO   C67  606   4.957   6.214   4.058 -0.1614 -0.3717  0.1034
    2CHTO  H124  607   4.885   6.139   4.025  1.3339 -1.3236 -1.1000
    2CHTO   C65  608   5.106   6.160   4.025 -0.0803 -0.3435 -0.2470
    2CHTO  H122  609   5.160   6.247   3.987 -1.8087  0.9234  0.1524
    2CHTO   O44  610   5.097   6.062   3.922  0.4619  0.0129  0.1539
    2CHTO  H102  611   5.012   6.023   3.910 -0.7751  2.2400  1.4848
    2CHTO   C63  612   5.183   6.123   4.157 -0.4028 -0.2638 -0.4388
    2CHTO  H120  613   5.212   6.216   4.207 -0.8810 -0.4359  0.1700
    2CHTO   N11  614   5.324   6.070   4.143 -0.0135 -0.9016 -0.1638
    2CHTO  H108  615   5.384   6.139   4.087  0.8043 -0.2659  1.4543
    2CHTO  H109  616   5.372   6.055   4.238 -0.1999  1.5820  0.3754
    2CHTO   C61  617   5.083   6.039   4.245 -0.1290  0.0526 -0.4808
    2CHTO  H118  618   5.130   6.032   4.345  2.2654  1.5533 -1.4770
    2CHTO   O40  619   4.960   6.110   4.265  0.0548  0.1657  0.0609
    2CHTO   C68  620   4.941   6.238   4.206 -0.1069 -0.4627 -0.2658
    2CHTO  H125  621   5.016   6.312   4.242 -0.9908  1.1768 -1.6984
    2CHTO   C72  622   4.801   6.295   4.249 -0.6039  0.1793 -0.4907
    2CHTO   O48  623   4.684   6.229   4.208  0.2795 -0.6692  0.1319
    2CHTO  H105  624   4.626   6.226   4.281  0.3740  3.2644  0.5036
    2CHTO   O38  625   5.064   5.907   4.199  0.3061 -0.6004  0.4260
    2CHTO   C55  626   5.042   5.793   4.286 -0.3028  0.0703 -0.2326
    2CHTO  H112  627   5.001   5.834   4.380  0.5994  0.6221 -0.0768
    2CHTO   C56  628   5.171   5.708   4.318 -0.9607 -0.7652  0.2566
    2CHTO  H113  629   5.216   5.670   4.224  1.4823  1.8836  0.2893
    2CHTO   O42  630   5.278   5.796   4.359  0.3026 -0.0251  0.2263
    2CHTO  H100  631   5.246   5.861   4.418 -1.1173 -0.8071  0.3555
    2CHTO   C57  632   5.144   5.597   4.423 -0.2443 -0.1228  0.1754
    2CHTO  H114  633   5.123   5.637   4.522  0.8913 -0.6735  0.6518
    2CHTO   N10  634   5.256   5.503   4.448  0.2383 -0.1237  0.5876
    2CHTO  H106  635   5.264   5.435   4.364 -1.6058  0.3931 -0.0418
    2CHTO  H107  636   5.347   5.560   4.458 -0.8428  1.8002 -0.2343
    2CHTO   C58  637   5.026   5.510   4.379 -0.0666  0.2483  0.2784
    2CHTO  H115  638   5.058   5.438   4.300 -0.0930 -0.0231  0.5128
    2CHTO   O37  639   4.918   5.586   4.324  0.3586  0.4317  0.1457
    2CHTO   C59  640   4.944   5.689   4.225  0.0348 -0.0335 -0.4611
    2CHTO  H116  641   4.989   5.643   4.138  3.0528  2.3725 -0.2457
    2CHTO   C70  642   4.816   5.757   4.170 -0.3208  0.0286  0.2119
    2CHTO   O46  643   4.818   5.805   4.036  0.6566  0.0592  0.6420
    2CHTO  H103  644   4.752   5.869   4.015  3.9703  3.2538 -0.6390
    2CHTO   O39  645   4.970   5.410   4.517 -0.5325  0.7545 -0.1704
    2CHTO   C60  646   4.853   5.466   4.580  0.3202 -1.3735  0.0670
    2CHTO  H117  647   4.824   5.558   4.530 -0.7502 -0.7664  1.7756
    2CHTO   C62  648   4.726   5.373   4.559 -0.2928 -0.0150  0.1946
    2CHTO  H119  649   4.724   5.353   4.449  0.7311 -1.7049  0.4693
    2CHTO   O43  650   4.746   5.249   4.627 -0.4658 -0.1204 -0.0784
    2CHTO  H101  651   4.682   5.230   4.692  0.7758 -3.0104  0.3566
    2CHTO   C66  652   4.587   5.458   4.584 -0.0688 -0.4654  0.3518
    2CHTO  H123  653   4.584   5.543   4.515 -1.4035 -1.5500 -0.9543
    2CHTO   N12  654   4.455   5.389   4.548  0.1550  0.0465 -0.6215
    2CHTO  H110  655   4.381   5.458   4.584 -0.9205 -1.6176  0.4082
    2CHTO  H111  656   4.445   5.294   4.598 -1.0222  0.3206 -0.3266
    2CHTO   C69  657   4.597   5.511   4.725 -0.0061 -0.4774 -0.5181
    2CHTO  H126  658   4.559   5.445   4.805  0.2041 -0.4281 -0.3789
    2CHTO   O41  659   4.753   5.567   4.775 -0.1510  0.1197 -0.3634
    2CHTO   C64  660   4.865   5.494   4.727 -0.2196  0.0018 -0.8190
    2CHTO  H121  661   4.881   5.397   4.779  0.9970  1.5796  1.8859
    2CHTO   C71  662   4.994   5.568   4.764 -0.0325 -0.6675 -0.0077
    2CHTO   O47  663   4.989   5.703   4.733 -0.4490  0.7111 -0.6445
    2CHTO  H104  664   5.009   5.712   4.642  2.6224  1.2644  0.0165
    2CHTO   O34  665   4.500   5.627   4.739 -0.4508 -0.6489  0.6289
    2CHTO   C49  666   4.489   5.796   4.708 -0.9719 -0.0714  0.0974
    2CHTO   H91  667   4.538   5.825   4.801  0.6857  1.0935 -1.1006
    2CHTO   C47  668   4.347   5.849   4.692  0.1122  0.0545  0.6880
    2CHTO   H89  669   4.351   5.959   4.686  0.2012  0.1302  1.9375
    2CHTO   O33  670   4.267   5.807   4.809  1.0164  0.3564 -0.4554
    2CHTO   H70  671   4.301   5.860   4.879  0.4213 -1.2376  1.0770
    2CHTO   C45  672   4.292   5.773   4.561  0.4120 -0.6650  0.7153
    2CHTO   H87  673   4.306   5.665   4.576 -1.7737 -1.0179  0.3456
    2CHTO    N8  674   4.153   5.799   4.534  0.2976 -0.1892  0.1101
    2CHTO   H75  675   4.126   5.901   4.559 -0.4830  0.0808 -1.7726
    2CHTO   H76  676   4.132   5.786   4.429  1.6211 -2.7141  0.1300
    2CHTO   C43  677   4.383   5.809   4.430 -1.4035  0.2170 -0.0349
    2CHTO   H85  678   4.341   5.746   4.352  0.7198 -2.0319  0.5554
    2CHTO   O29  679   4.524   5.776   4.455 -0.8854  0.6386  0.1779
    2CHTO   C50  680   4.581   5.820   4.581  0.6733  0.6489 -0.4667
    2CHTO   H92  681   4.676   5.768   4.602  1.2332  1.6491 -0.4869
    2CHTO   C54  682   4.624   5.966   4.564  0.0922  0.9045 -0.7322
    2CHTO   O36  683   4.766   5.979   4.518 -0.1756  0.5575 -0.2008
    2CHTO   H72  684   4.780   6.070   4.499 -0.1426  0.6165  0.1004
    2CHTO   O27  685   4.367   5.943   4.384  0.1358 -0.6217  0.0174
    2CHTO   C37  686   4.398   6.021   4.270 -0.3850  0.4413 -0.1150
    2CHTO   H79  687   4.507   6.039   4.267  0.4868 -3.7681  1.8834
    2CHTO   C38  688   4.364   5.940   4.145 -0.8304  0.2028  0.3753
    2CHTO   H80  689   4.261   5.902   4.153 -1.4066  1.2845 -1.4648
    2CHTO   O31  690   4.443   5.820   4.140 -0.0399 -0.1834  0.4097
    2CHTO   H68  691   4.516   5.820   4.199  1.0596  0.5335 -0.9255
    2CHTO   C39  692   4.367   6.029   4.011 -0.0450  0.7371 -0.7910
    2CHTO   H81  693   4.471   6.049   3.985  0.2794 -0.2085 -0.2094
    2CHTO    N7  694   4.305   5.966   3.887  0.2674  0.5998 -0.2092
    2CHTO   H73  695   4.363   5.886   3.843  0.4084 -0.3933  1.7288
    2CHTO   H74  696   4.207   5.923   3.902 -0.7230  2.5504 -0.9383
    2CHTO   C40  697   4.289   6.161   4.039  0.8596 -0.5427 -0.3517
    2CHTO   H82  698   4.181   6.151   4.048  0.7612  1.7638  1.4156
    2CHTO   O26  699   4.348   6.221   4.151  0.1351  0.1979 -0.2842
    2CHTO   C41  700   4.319   6.160   4.277 -0.2373 -0.4868  0.1118
    2CHTO   H83  701   4.214   6.138   4.304 -1.0700  1.7179 -1.2136
    2CHTO   C52  702   4.381   6.254   4.384  0.2424  0.0053  0.2191
    2CHTO   O35  703   4.371   6.225   4.512 -0.6076 -0.4438 -0.0794
    2CHTO   H71  704   4.399   6.301   4.560 -0.4164 -0.7687  0.3356
    2CHTO   O28  705   4.326   6.257   3.934 -0.2365  0.0894 -0.3318
    2CHTO   C42  706   4.346   6.408   3.946 -0.0171  0.1822  0.4351
    2CHTO   H84  707   4.335   6.434   3.840 -2.2457 -1.1332  0.3113
    2CHTO   C44  708   4.490   6.450   3.993  0.1193  1.1925 -0.3808
    2CHTO   H86  709   4.515   6.397   4.085  0.1167  0.5199 -0.7699
    2CHTO   O32  710   4.570   6.394   3.893 -0.3453 -0.4606  0.2081
    2CHTO   H69  711   4.661   6.414   3.887 -0.6671  0.5777 -2.1327
    2CHTO   C48  712   4.502   6.607   4.023 -0.1234 -0.4584 -0.2868
    2CHTO   H90  713   4.493   6.658   3.928  2.7961  0.5470 -0.0752
    2CHTO    N9  714   4.648   6.637   4.077  0.3160  0.5320 -0.3916
    2CHTO   H77  715   4.662   6.740   4.106  0.4693 -0.0954  1.8216
    2CHTO   H78  716   4.658   6.570   4.161  2.4271  0.1475 -0.9129
    2CHTO   C51  717   4.391   6.657   4.123  0.8546  0.4951 -0.0836
    2CHTO   H93  718   4.394   6.595   4.213 -1.4534  0.5632  0.0808
    2CHTO   O30  719   4.273   6.637   4.047  0.4605  0.4646  0.1698
    2CHTO   C46  720   4.235   6.486   4.023 -0.1998  0.5148 -0.4211
    2CHTO   H88  721   4.223   6.432   4.117  4.2289 -2.6873 -1.5276
    2CHTO   C53  722   4.111   6.474   3.930 -0.4802  0.1043  0.4796
    2CHTO   O72  723   4.071   6.335   3.910 -0.2964 -0.1138  0.1365
    2CHTO  H199  724   4.112   6.306   3.831  0.6405  0.6367  0.3383
    2CHTO   O22  725   4.391   6.798   4.163  0.6680  0.0051 -0.2284
    2CHTO   C31  726   4.292   6.848   4.252 -0.1654 -0.3360  0.1906
    2CHTO   H59  727   4.314   6.957   4.262 -0.0388 -0.2611 -0.8086
    2CHTO   C29  728   4.141   6.835   4.207 -0.2945 -0.1605  0.0747
    2CHTO   H57  729   4.117   6.728   4.205 -0.6755 -0.0888  0.5727
    2CHTO   O21  730   4.125   6.888   4.073 -0.4590  0.0202 -0.2477
    2CHTO   H37  731   4.192   6.853   4.018 -0.5719 -1.0717  0.2984
    2CHTO   C27  732   4.048   6.906   4.313 -0.3459  0.7273 -0.2479
    2CHTO   H55  733   4.075   7.013   4.316 -0.0329  0.7108 -2.0375
    2CHTO    N5  734   3.903   6.900   4.290  0.0349 -0.1569  1.4224
    2CHTO   H43  735   3.871   6.819   4.226 -0.0387  0.8244  0.1903
    2CHTO   H44  736   3.872   6.994   4.245  0.3478 -0.7157  0.0294
    2CHTO   C25  737   4.081   6.837   4.452  0.8331 -0.3555  0.0784
    2CHTO   H53  738   4.059   6.730   4.446 -1.4571 -0.0385  2.0529
    2CHTO   O17  739   4.218   6.852   4.486 -0.5709  0.5735 -0.0326
    2CHTO   C32  740   4.313   6.787   4.398  0.3972 -0.1547  0.5498
    2CHTO   H60  741   4.302   6.679   4.391 -0.4402 -0.0641  0.4514
    2CHTO   C36  742   4.454   6.832   4.449  0.1948  0.6199 -0.3757
    2CHTO   O25  743   4.553   6.734   4.414 -0.5851 -0.3177  0.1740
    2CHTO   H40  744   4.611   6.708   4.483  0.7636 -0.5364 -1.0182
    2CHTO   O15  745   4.006   6.900   4.573  0.0054 -0.2958 -0.0155
    2CHTO   C19  746   3.909   6.863   4.684  0.1596 -0.1738 -0.2408
    2CHTO   H47  747   3.826   6.926   4.650  0.6669 -0.5974 -2.3588
    2CHTO   C20  748   3.877   6.707   4.692 -0.1250 -0.2047  0.1102
    2CHTO   H48  749   3.969   6.649   4.707 -0.0042  0.1546  0.7783
    2CHTO   O19  750   3.820   6.675   4.564 -0.1217 -1.5125 -0.4530
    2CHTO   H35  751   3.857   6.592   4.544  0.5090 -0.8514 -2.1247
    2CHTO   C21  752   3.771   6.678   4.797  0.2158 -0.5390 -0.6979
    2CHTO   H49  753   3.677   6.729   4.773  0.9299  0.8742 -0.5586
    2CHTO    N4  754   3.738   6.534   4.806 -0.1330  0.0420  0.0682
    2CHTO   H41  755   3.827   6.480   4.836  0.2722  1.6113  1.7695
    2CHTO   H42  756   3.702   6.491   4.713 -0.7179 -1.9521  1.1898
    2CHTO   C22  757   3.820   6.744   4.928 -0.3147  0.2540 -0.0867
    2CHTO   H50  758   3.904   6.690   4.972  0.2455  0.5960 -0.7370
    2CHTO   O14  759   3.846   6.882   4.911 -0.4123  0.1475 -0.0003
    2CHTO   C23  760   3.949   6.915   4.818 -0.2523 -0.2210 -0.2784
    2CHTO   H51  761   4.046   6.877   4.852 -0.3707  1.0385  1.5391
    2CHTO   C34  762   3.957   7.071   4.820 -0.2640  0.9208 -0.3994
    2CHTO   O23  763   4.028   7.111   4.940 -0.1779  0.4098  0.0236
    2CHTO   H38  764   4.121   7.110   4.927  0.0222  0.2222  1.3856
    2CHTO   O16  765   3.709   6.754   5.018 -0.8464  0.4322 -0.4042
    2CHTO   C24  766   3.760   6.760   5.182 -0.5520  0.0584  0.3413
    2CHTO   H52  767   3.866   6.785   5.189 -0.1426 -1.5191  0.0096
    2CHTO   C26  768   3.752   6.625   5.255  0.4113  1.0246  0.2963
    2CHTO   H54  769   3.646   6.593   5.253  0.5724  0.4625 -3.0344
    2CHTO   O20  770   3.826   6.535   5.174 -0.1924  0.2670 -0.0901
    2CHTO   H36  771   3.785   6.517   5.091  0.6127  0.4564 -0.5393
    2CHTO   C30  772   3.806   6.635   5.398  0.1904  0.1906  1.0721
    2CHTO   H58  773   3.911   6.667   5.407  0.5874  0.0221 -2.2946
    2CHTO    N6  774   3.800   6.501   5.468 -0.3409 -0.4128  0.0860
    2CHTO   H45  775   3.799   6.518   5.574 -0.5211 -0.8786  0.1612
    2CHTO   H46  776   3.892   6.447   5.453  0.3187  0.6538  0.2689
    2CHTO   C33  777   3.718   6.747   5.468 -0.6086 -0.7357 -0.5979
    2CHTO   H61  778   3.612   6.716   5.467 -0.5304 -1.0839 -3.3117
    2CHTO   O18  779   3.724   6.867   5.398 -0.1374 -0.2939  0.8973
    2CHTO   C28  780   3.686   6.862   5.259 -0.0209 -0.2704  0.3151
    2CHTO   H56  781   3.578   6.846   5.249  0.2690 -0.7691 -2.3758
    2CHTO   C35  782   3.727   7.004   5.212  0.2879  1.0243  0.2199
    2CHTO   O24  783   3.647   7.097   5.281  0.6489 -0.8865  0.3365
    2CHTO   H39  784   3.576   7.127   5.227  1.2215  0.8350  0.5341
    2CHTO    O9  785   3.759   6.761   5.610  0.0978 -0.5326 -0.1008
    2CHTO   C13  786   3.652   6.864   5.683 -0.2821 -0.4679 -0.1277
    2CHTO   H26  787   3.552   6.850   5.635 -0.4572 -0.3682  0.2051
    2CHTO   C11  788   3.697   7.009   5.671 -0.8515  0.0304 -0.1069
    2CHTO   H24  789   3.684   7.034   5.564  0.4329 -1.2233 -0.5820
    2CHTO    O8  790   3.827   7.019   5.714 -0.7216  1.1016  0.2070
    2CHTO    H3  791   3.884   6.973   5.656  0.2488  0.9706  1.2456
    2CHTO    C9  792   3.612   7.106   5.754  0.5789  0.1607  0.1244
    2CHTO   H22  793   3.510   7.091   5.715  1.0207  1.0097 -1.4197
    2CHTO    N2  794   3.635   7.253   5.724  0.2665 -0.3563 -0.4203
    2CHTO   H10  795   3.541   7.297   5.755  0.1159 -0.5578 -0.5867
    2CHTO   H11  796   3.652   7.257   5.617 -1.7118  0.4443 -0.7249
    2CHTO    C7  797   3.613   7.071   5.901  0.3675  0.1750 -0.1119
    2CHTO   H20  798   3.531   7.127   5.949 -0.6585 -2.1565  0.9379
    2CHTO    O4  799   3.582   6.931   5.911  0.1785  0.3984  0.0200
    2CHTO   C14  800   3.638   6.827   5.834 -0.3443  0.0634 -0.2724
    2CHTO   H27  801   3.561   6.748   5.847 -0.4457 -0.0452 -1.4949
    2CHTO   C18  802   3.762   6.776   5.902 -0.1872 -0.3482 -0.0841
    2CHTO   O13  803   3.746   6.728   6.038  0.0386 -0.1795 -0.3519
    2CHTO    H7  804   3.720   6.638   6.042  3.3400 -1.1967 -0.5652
    2CHTO    O2  805   3.768   7.099   5.985 -0.4728 -0.0673 -0.0641
    2CHTO    C1  806   3.775   7.061   6.126  0.6568  0.8143 -0.0305
    2CHTO   H14  807   3.754   6.952   6.130  2.7619  0.3977  0.2864
    2CHTO    C2  808   3.688   7.141   6.231 -0.2082 -0.2653  0.5567
    2CHTO   H15  809   3.722   7.245   6.218  1.5637 -1.0640 -1.6844
    2CHTO    O6  810   3.551   7.118   6.194 -0.6441  0.3874  0.4820
    2CHTO    H1  811   3.534   7.158   6.111  0.3708 -0.0825  0.0530
    2CHTO    C3  812   3.701   7.096   6.376 -0.5305 -0.3108 -0.8959
    2CHTO   H16  813   3.655   6.997   6.386  1.7351 -1.1397  2.0678
    2CHTO    N1  814   3.637   7.181   6.484 -0.2700  0.0174 -0.1902
    2CHTO    H8  815   3.538   7.157   6.519 -0.9142 -0.5867 -2.3399
    2CHTO    H9  816   3.661   7.286   6.475 -0.3755  0.2312  1.8230
    2CHTO    C4  817   3.861   7.074   6.409  0.4736 -0.6250 -0.4619
    2CHTO   H17  818   3.898   7.172   6.440 -0.8524 -0.0256 -0.7317
    2CHTO    O1  819   3.941   7.021   6.306 -0.2780  0.8446 -0.4473
    2CHTO    C5  820   3.924   7.078   6.175 -1.1147 -0.2747 -0.5444
    2CHTO   H18  821   3.948   7.184   6.184  0.4395 -0.7617  1.1943
    2CHTO   C16  822   4.024   7.020   6.072  0.1830 -0.3397 -0.2736
    2CHTO   O11  823   4.152   7.080   6.076  0.1708  0.3732 -0.4486
    2CHTO    H5  824   4.210   7.016   6.112 -0.3721  1.2940  2.1447
    2CHTO    O3  825   3.866   6.981   6.517 -0.2398  0.2495 -0.1433
    2CHTO    C6  826   4.000   6.932   6.570 -0.0676  0.2179  0.0498
    2CHTO   H19  827   4.067   6.920   6.485  0.6176 -0.2652  0.6566
    2CHTO    C8  828   4.070   7.029   6.674 -0.9680 -0.4470  0.3471
    2CHTO   H21  829   3.996   7.056   6.750 -2.2215  1.0053 -1.3484
    2CHTO    O7  830   4.118   7.146   6.602 -0.2073 -1.1061  0.1112
    2CHTO    H2  831   4.051   7.184   6.548  0.2300  0.5624  0.7304
    2CHTO   C12  832   4.197   6.955   6.745  0.3231  0.7979 -0.6114
    2CHTO   H25  833   4.285   6.940   6.679  0.0507 -3.9649 -0.0296
    2CHTO    N3  834   4.250   7.040   6.857  0.4405  0.3877 -0.3306
    2CHTO   H12  835   4.358   7.044   6.862  0.4246 -0.5022  1.2093
    2CHTO   H13  836   4.210   7.139   6.844  1.7916  0.7884 -1.5328
    2CHTO   C15  837   4.152   6.817   6.792  0.7545 -0.3186  0.1823
    2CHTO   H28  838   4.086   6.819   6.880  0.3139  0.9646 -0.1613
    2CHTO   O10  839   4.288   6.721   6.840  0.0855 -0.1267  0.3512
    2CHTO    H4  840   4.344   6.683   6.775  1.4611 -1.2226  2.1030
    2CHTO    O5  841   4.095   6.731   6.694 -0.2143 -0.4661  0.2401
    2CHTO   C10  842   3.978   6.787   6.629 -0.2158  0.3674 -0.3699
    2CHTO   H23  843   3.897   6.797   6.702  1.3684 -0.4850  1.5415
    2CHTO   C17  844   3.933   6.690   6.513  0.2716  0.2695  0.2077
    2CHTO   O12  845   3.793   6.673   6.538  0.1506 -0.3582 -0.1230
    2CHTO    H6  846   3.747   6.753   6.524  0.1001 -0.1715  1.1256
    3CHTO  H203  847   6.149   3.161   2.519 -0.8960 -3.3395 -0.0457
    3CHTO   O82  848   6.238   3.134   2.503  0.0256 -0.2272 -0.5094
    3CHTO  C123  849   6.252   3.023   2.410  0.3135  0.3679  0.1443
    3CHTO  H227  850   6.226   2.932   2.466  1.2279 -0.1821 -0.3218
    3CHTO   O77  851   6.152   3.056   2.306 -0.5281  0.0130  0.1251
    3CHTO  C118  852   6.150   2.985   2.179 -0.1211 -0.1845 -0.0090
    3CHTO  H222  853   6.102   2.886   2.185  1.1374 -0.7921  0.3389
    3CHTO  C125  854   6.053   3.074   2.092 -0.0138 -0.3836  0.5377
    3CHTO   O84  855   6.115   3.205   2.065  0.6429 -1.3632  0.4250
    3CHTO  H205  856   6.044   3.265   2.080  0.8694 -1.1876  0.8115
    3CHTO  C114  857   6.286   2.967   2.117  0.0962  0.4362  0.1832
    3CHTO  H218  858   6.327   3.065   2.091 -0.5055  0.6548  0.0469
    3CHTO  C116  859   6.394   2.909   2.214  0.3621  0.6201  0.0753
    3CHTO  H220  860   6.374   2.806   2.250  3.0285  0.4604  1.2009
    3CHTO   O79  861   6.526   2.895   2.152 -0.0718  0.4645  0.9012
    3CHTO  H201  862   6.576   2.968   2.184  2.7335 -0.0460 -2.1206
    3CHTO  C120  863   6.399   3.008   2.345  1.4127  0.0205 -0.2828
    3CHTO  H224  864   6.430   3.107   2.305 -1.3126  0.1771 -2.1350
    3CHTO   N21  865   6.499   2.960   2.443 -0.4686 -0.0689  0.5862
    3CHTO  H211  866   6.579   2.924   2.381 -2.4676 -1.4348 -1.2797
    3CHTO  H212  867   6.468   2.884   2.513 -0.7359 -1.5165 -1.0954
    3CHTO   O75  868   6.255   2.889   1.996 -0.3914  0.0126 -0.0643
    3CHTO  C112  869   6.365   2.846   1.884  0.0366  0.1330  0.8283
    3CHTO  H216  870   6.397   2.745   1.911 -0.0467  0.3318  1.6711
    3CHTO   O73  871   6.472   2.941   1.889 -0.1715  0.3823 -0.1776
    3CHTO  C113  872   6.586   2.902   1.815  0.3663  0.6434  0.6308
    3CHTO  H217  873   6.612   2.799   1.850 -0.8572  0.9287  2.4489
    3CHTO  C124  874   6.709   2.985   1.849  0.0404 -0.3422 -0.2003
    3CHTO   O83  875   6.702   3.110   1.778  0.4807  0.2262  0.1957
    3CHTO  H204  876   6.788   3.141   1.760  0.1902  0.0889 -1.5385
    3CHTO  C109  877   6.557   2.887   1.661 -1.0512 -0.1161 -0.1315
    3CHTO  H213  878   6.533   2.988   1.624  0.7788  0.6115  0.5690
    3CHTO  C110  879   6.428   2.796   1.639  0.1549 -0.7198  0.5205
    3CHTO  H214  880   6.457   2.691   1.649  1.7811 -0.2741  0.5161
    3CHTO   O78  881   6.398   2.812   1.501 -0.0284 -0.0551 -0.7454
    3CHTO  H200  882   6.311   2.787   1.479  0.3389 -0.3193 -1.9660
    3CHTO  C111  883   6.314   2.837   1.737 -0.9595 -0.1228  0.6330
    3CHTO  H215  884   6.279   2.939   1.715  0.5418  0.7418  2.1008
    3CHTO   N19  885   6.196   2.748   1.731  0.4304 -0.3218 -0.0211
    3CHTO  H207  886   6.111   2.791   1.781  1.9563  0.8013  1.6669
    3CHTO  H208  887   6.177   2.702   1.635 -0.8909  0.5197 -0.1793
    3CHTO   O74  888   6.669   2.843   1.585 -0.0899  0.0126  0.1198
    3CHTO  C115  889   6.686   2.870   1.446  0.2759 -0.0155  0.4691
    3CHTO  H219  890   6.604   2.930   1.406  0.6866 -0.8951 -1.7760
    3CHTO   O76  891   6.809   2.950   1.414  0.4067  0.0652  0.2281
    3CHTO  C122  892   6.931   2.903   1.469 -0.1901  0.2499 -0.5251
    3CHTO  H226  893   6.943   2.955   1.564  0.2766 -0.1438 -0.3660
    3CHTO  C126  894   7.038   2.952   1.375  0.0511  0.0793 -0.5869
    3CHTO   O85  895   7.166   2.925   1.423  0.0352 -0.0845  0.4384
    3CHTO  H206  896   7.207   3.007   1.445  1.2931 -0.1889 -1.3689
    3CHTO  C121  897   6.939   2.742   1.482 -0.1097 -0.2204 -0.4380
    3CHTO  H225  898   7.044   2.709   1.464 -0.1681 -1.3883  1.3125
    3CHTO   O81  899   6.914   2.699   1.611  0.0053 -0.0838 -0.5926
    3CHTO  H202  900   6.990   2.699   1.666 -0.3536  0.9596 -0.0822
    3CHTO  C119  901   6.843   2.679   1.366  0.6325 -0.4729  0.2647
    3CHTO  H223  902   6.887   2.726   1.278  0.4490 -0.4661  0.1775
    3CHTO  C117  903   6.690   2.725   1.379  0.1530 -0.2371 -0.5915
    3CHTO  H221  904   6.625   2.668   1.445 -1.0245  0.4576 -1.1397
    3CHTO   N20  905   6.616   2.726   1.245  0.0208 -1.0196  0.0847
    3CHTO  H209  906   6.669   2.761   1.158 -1.5538 -1.3328 -1.0372
    3CHTO  H210  907   6.522   2.779   1.251 -0.6298 -2.1016 -0.2353
    3CHTO   O80  908   6.870   2.541   1.337  0.3205  0.6314  0.3935
    3CHTO  C103  909   6.881   2.431   1.449  0.9402 -0.2670 -0.0166
    3CHTO  H190  910   6.932   2.473   1.536  0.7188  1.4567 -0.7002
    3CHTO  C101  911   6.743   2.360   1.505  0.5285 -0.0966  0.2286
    3CHTO  H188  912   6.678   2.330   1.423 -0.3057 -0.4496  1.0048
    3CHTO   O68  913   6.657   2.474   1.586 -0.0999  0.4709 -0.0406
    3CHTO  H168  914   6.709   2.520   1.649  0.7230  0.7342 -0.9082
    3CHTO   C99  915   6.781   2.234   1.586  0.2362 -0.1769  0.3520
    3CHTO  H186  916   6.851   2.276   1.660  0.0146  1.2922 -0.2597
    3CHTO   N17  917   6.672   2.161   1.663  0.1050 -0.0141  0.3086
    3CHTO  H174  918   6.685   2.180   1.768  0.3310  3.4284 -0.2965
    3CHTO  H175  919   6.647   2.060   1.635 -0.4438  0.3773 -0.6324
    3CHTO   C97  920   6.864   2.137   1.498  0.0817  0.4126 -0.0615
    3CHTO  H184  921   6.806   2.114   1.408 -1.3189  1.0223  0.6707
    3CHTO   O64  922   6.988   2.212   1.469  0.0324  0.1066  0.1458
    3CHTO  C104  923   6.972   2.318   1.379  0.0911  0.4231  0.1520
    3CHTO  H191  924   6.924   2.269   1.295  1.8204 -1.1264  0.0399
    3CHTO  C108  925   7.113   2.370   1.330 -0.9299 -0.2719  0.3630
    3CHTO   O71  926   7.165   2.258   1.251  0.1145  0.7797 -0.6692
    3CHTO  H171  927   7.115   2.241   1.173 -0.0024  0.6840 -0.5717
    3CHTO   O62  928   6.911   2.017   1.558 -0.8869 -0.1728  0.2924
    3CHTO   C91  929   6.876   1.898   1.474 -0.0981  0.5087 -0.4039
    3CHTO  H178  930   6.770   1.901   1.447 -0.3471 -0.4850  0.3928
    3CHTO   C92  931   6.888   1.767   1.561  0.6420  0.3118  0.5382
    3CHTO  H179  932   6.993   1.734   1.575  1.0598  0.6678 -1.6668
    3CHTO   O66  933   6.830   1.787   1.691  0.0457 -0.3170  0.4719
    3CHTO  H166  934   6.816   1.705   1.736  0.6154 -0.1501  0.9638
    3CHTO   C93  935   6.809   1.641   1.482 -0.7629 -0.0674  0.1682
    3CHTO  H180  936   6.701   1.649   1.504 -1.1633  2.0124 -2.1804
    3CHTO   N16  937   6.848   1.503   1.528  0.3385 -0.2070  0.1156
    3CHTO  H172  938   6.800   1.428   1.466  0.5025  0.5472 -0.9421
    3CHTO  H173  939   6.955   1.490   1.519  0.2269 -1.5706  0.6478
    3CHTO   C94  940   6.827   1.657   1.324 -0.0349  0.0905  0.1236
    3CHTO  H181  941   6.845   1.561   1.274  0.4566 -0.6003  1.6049
    3CHTO   O61  942   6.937   1.735   1.291 -0.1590  0.4401  0.1834
    3CHTO   C95  943   6.968   1.869   1.343  0.2978  0.2612  0.0975
    3CHTO  H182  944   7.073   1.870   1.374  1.4712 -2.2439 -3.4938
    3CHTO  C106  945   6.959   1.973   1.231  0.1775 -0.4952 -0.1899
    3CHTO   O69  946   6.831   1.975   1.165 -0.5628 -0.4659  0.1070
    3CHTO  H169  947   6.851   1.923   1.089 -1.8716  0.3346 -0.7930
    3CHTO   O63  948   6.700   1.734   1.260 -0.0551  0.8474 -0.6286
    3CHTO   C96  949   6.556   1.657   1.259 -0.2061  0.1783  0.5018
    3CHTO  H183  950   6.551   1.613   1.359  2.4193  0.1083  0.6245
    3CHTO   C98  951   6.539   1.553   1.159 -0.1616  0.3459  0.0272
    3CHTO  H185  952   6.597   1.589   1.073  3.4500  2.4574  3.2048
    3CHTO   O67  953   6.622   1.447   1.207  0.0218  0.0146 -0.1146
    3CHTO  H167  954   6.623   1.372   1.150 -0.6384  0.8720 -1.2723
    3CHTO  C102  955   6.395   1.512   1.111  0.5903  0.1380  0.4454
    3CHTO  H189  956   6.352   1.453   1.193  0.3387  0.4854  0.5703
    3CHTO   N18  957   6.395   1.426   0.992  0.1084 -0.2816 -1.2382
    3CHTO  H176  958   6.422   1.325   1.019  0.7894 -0.1102 -1.2577
    3CHTO  H177  959   6.298   1.423   0.944 -0.3075  0.8218 -0.4901
    3CHTO  C105  960   6.308   1.635   1.091 -0.2859 -0.6450  0.1707
    3CHTO  H192  961   6.337   1.679   0.995  2.3591 -0.8745  0.8201
    3CHTO   O65  962   6.310   1.729   1.204 -0.2976 -0.1572 -0.3672
    3CHTO  C100  963   6.441   1.766   1.251  0.1666  0.1056  0.6333
    3CHTO  H187  964   6.475   1.833   1.171  0.5277  0.9264  1.4537
    3CHTO  C107  965   6.428   1.850   1.390 -0.4981 -0.0660  0.4435
    3CHTO   O70  966   6.353   1.788   1.490 -0.5444 -0.0168 -0.4217
    3CHTO  H170  967   6.338   1.856   1.553  1.2984 -0.7096  0.8245
    3CHTO   O57  968   6.150   1.584   1.076 -0.8273 -0.1387 -0.5012
    3CHTO   C85  969   6.067   1.652   0.979 -0.0207  0.1690  1.2523
    3CHTO  H157  970   6.118   1.626   0.883 -0.6363  0.4417  0.8452
    3CHTO   C83  971   6.071   1.805   1.001 -0.3474 -0.5789  0.2185
    3CHTO  H155  972   6.174   1.842   1.004 -0.2030 -0.9602  0.0319
    3CHTO   O56  973   6.027   1.833   1.138 -0.1206  0.1233 -0.0915
    3CHTO  H135  974   5.935   1.846   1.139  0.0184  1.1887 -0.3602
    3CHTO   C81  975   5.994   1.880   0.883  0.3775 -0.3069  0.2142
    3CHTO  H153  976   6.042   1.854   0.789 -0.1971  1.7431 -0.6734
    3CHTO   N14  977   6.009   2.027   0.899 -0.2132  0.4601 -0.2478
    3CHTO  H141  978   5.989   2.060   0.999  0.1126  0.3935 -0.1578
    3CHTO  H142  979   6.107   2.059   0.871 -0.0085  1.3256  1.4258
    3CHTO   C79  980   5.844   1.829   0.878  0.4658 -0.2091 -0.2581
    3CHTO  H151  981   5.797   1.867   0.787  0.2313 -1.1699 -0.5438
    3CHTO   O52  982   5.841   1.687   0.871  0.4919 -0.2746  0.5247
    3CHTO   C86  983   5.917   1.611   0.975 -0.1459  1.2455 -0.5772
    3CHTO  H158  984   5.875   1.647   1.071  0.3718  1.1750 -0.3226
    3CHTO   C90  985   5.890   1.465   0.968 -0.0090  0.8155 -0.5274
    3CHTO   O60  986   5.754   1.426   0.936  0.4624 -0.4908 -0.2489
    3CHTO  H138  987   5.709   1.469   0.866 -0.7254 -0.1895  0.6795
    3CHTO   O50  988   5.765   1.868   0.988  0.0891  0.5442 -0.5272
    3CHTO   C73  989   5.630   1.865   1.025 -0.4900  0.2100  0.1157
    3CHTO  H145  990   5.584   1.775   0.983  0.7281 -0.4072  0.0703
    3CHTO   C74  991   5.560   1.995   0.966  0.1709 -0.2028  0.1555
    3CHTO  H146  992   5.574   1.987   0.857 -0.3998 -0.9917  0.1339
    3CHTO   O54  993   5.416   1.980   0.980 -0.1383 -0.0648  0.5416
    3CHTO  H133  994   5.373   2.064   0.978 -0.2674 -0.1323 -2.4881
    3CHTO   C75  995   5.628   2.124   1.026  0.2724  0.1436 -0.3644
    3CHTO  H147  996   5.735   2.131   0.999 -0.3567  1.2378 -2.5949
    3CHTO   N13  997   5.570   2.249   0.972  1.3474  0.0620  0.1020
    3CHTO  H139  998   5.542   2.308   1.058 -0.7027 -0.8843  0.1266
    3CHTO  H140  999   5.482   2.228   0.912  1.6249  2.5321 -1.2498
    3CHTO   C76 1000   5.622   2.114   1.181  0.0541 -0.3718  0.2360
    3CHTO  H148 1001   5.523   2.151   1.209 -0.6863 -0.4671 -2.1148
    3CHTO   O49 1002   5.652   1.985   1.234  0.2894  0.2273  0.2546
    3CHTO   C77 1003   5.602   1.866   1.177 -0.7023  0.1043  0.0599
    3CHTO  H149 1004   5.495   1.857   1.192 -0.7879 -0.5552 -0.8979
    3CHTO   C88 1005   5.672   1.749   1.250 -0.0121 -0.0765  0.5187
    3CHTO   O58 1006   5.632   1.624   1.202 -0.2050  0.0622 -0.4931
    3CHTO  H136 1007   5.540   1.615   1.219 -0.1572 -3.3195 -1.6060
    3CHTO   O51 1008   5.733   2.203   1.252 -0.2604 -0.5164 -0.3550
    3CHTO   C78 1009   5.700   2.237   1.413 -0.2711  0.1238  0.2956
    3CHTO  H150 1010   5.639   2.155   1.456 -0.0509  0.6378  1.5887
    3CHTO   C80 1011   5.635   2.375   1.442  0.3442  0.1694  0.1187
    3CHTO  H152 1012   5.680   2.452   1.376  0.1612 -1.2558 -1.7115
    3CHTO   O55 1013   5.504   2.365   1.381  0.0332 -0.4124  0.6453
    3CHTO  H134 1014   5.444   2.317   1.434 -1.6488  1.8636  0.8815
    3CHTO   C84 1015   5.638   2.411   1.598  0.4939 -0.5230  0.7819
    3CHTO  H156 1016   5.572   2.344   1.655 -0.5353  1.6221  2.2106
    3CHTO   N15 1017   5.577   2.546   1.612  0.2050 -0.5457 -0.2963
    3CHTO  H143 1018   5.509   2.554   1.695  2.2929  1.5326  1.2468
    3CHTO  H144 1019   5.638   2.633   1.610  0.3951 -0.5262  2.8835
    3CHTO   C87 1020   5.778   2.396   1.652 -0.5400 -0.2866  0.5912
    3CHTO  H159 1021   5.847   2.463   1.600  0.2021  0.4080  2.3983
    3CHTO   O53 1022   5.821   2.251   1.623 -0.0623 -0.1749 -0.4718
    3CHTO   C82 1023   5.841   2.226   1.480 -0.9005 -0.2209 -0.3642
    3CHTO  H154 1024   5.917   2.291   1.439 -1.1126 -2.0107 -3.7348
    3CHTO   C89 1025   5.891   2.081   1.463  0.1837  0.2239 -0.0559
    3CHTO   O59 1026   6.006   2.037   1.540 -0.1038 -0.2954  0.1166
    3CHTO  H137 1027   5.989   1.948   1.566  1.3442 -0.0245  2.0134
    3CHTO   O45 1028   5.789   2.406   1.824 -0.0315 -0.4524 -0.0192
    3CHTO   C67 1029   5.917   2.436   1.873  0.4799  0.6015 -0.6383
    3CHTO  H124 1030   5.981   2.486   1.800  2.3357 -0.7575  0.0124
    3CHTO   C65 1031   5.906   2.528   1.999  0.1314  0.1593  0.0757
    3CHTO  H122 1032   5.805   2.567   2.000  0.3346  0.7039  1.6248
    3CHTO   O44 1033   5.998   2.640   1.984  0.3115 -0.2447  0.3000
    3CHTO  H102 1034   5.966   2.708   2.041 -1.3019  0.5813 -1.5672
    3CHTO   C63 1035   5.916   2.443   2.132  0.1746 -0.2765 -0.3119
    3CHTO  H120 1036   5.844   2.364   2.114 -0.3684  0.3933 -1.1454
    3CHTO   N11 1037   5.850   2.504   2.259  0.0458 -0.0725  0.0389
    3CHTO  H108 1038   5.904   2.494   2.351  1.0416 -0.1071 -0.5352
    3CHTO  H109 1039   5.744   2.493   2.255 -0.0454  1.0015 -0.6037
    3CHTO   C61 1040   6.057   2.388   2.148 -0.4839 -0.1592 -0.3440
    3CHTO  H118 1041   6.048   2.307   2.223  0.5669  0.4946  0.5032
    3CHTO   O40 1042   6.093   2.327   2.028  0.0712 -0.2912 -0.3479
    3CHTO   C68 1043   6.002   2.303   1.917 -0.4657  0.3134  0.1219
    3CHTO  H125 1044   5.934   2.218   1.939 -2.2064  1.3578 -1.0930
    3CHTO   C72 1045   6.088   2.259   1.793 -0.1154 -0.1371  0.2575
    3CHTO   O48 1046   6.159   2.138   1.816  0.3178 -0.7760  0.2480
    3CHTO  H105 1047   6.101   2.065   1.828 -2.1607  1.3152  1.3810
    3CHTO   O38 1048   6.158   2.484   2.175 -0.0221  0.4118 -0.4854
    3CHTO   C55 1049   6.271   2.436   2.252  0.3600 -0.0334  0.0398
    3CHTO  H112 1050   6.268   2.326   2.252  1.0189 -0.0510 -0.0408
    3CHTO   C56 1051   6.266   2.495   2.403  0.4373  0.9031 -0.3946
    3CHTO  H113 1052   6.244   2.601   2.384  0.0236  0.7469 -0.8136
    3CHTO   O42 1053   6.160   2.435   2.486  0.4639 -0.2153  0.2642
    3CHTO  H100 1054   6.146   2.343   2.477 -1.6870 -0.2395  2.8750
    3CHTO   C57 1055   6.404   2.482   2.490  0.1619  0.2128  0.0977
    3CHTO  H114 1056   6.422   2.378   2.518  1.5949  0.4321  0.0643
    3CHTO   N10 1057   6.411   2.563   2.619  0.7652  0.3594 -0.2732
    3CHTO  H106 1058   6.383   2.501   2.703  1.8176  0.5915  0.2528
    3CHTO  H107 1059   6.508   2.609   2.628  0.8146  0.6487 -1.9978
    3CHTO   C58 1060   6.524   2.519   2.400  0.6883 -0.2001 -0.0618
    3CHTO  H115 1061   6.518   2.627   2.373  0.2402 -0.6633 -1.8585
    3CHTO   O37 1062   6.508   2.441   2.280 -0.1458  0.3552  0.1179
    3CHTO   C59 1063   6.411   2.480   2.184  0.2601  0.3500  0.3975
    3CHTO  H116 1064   6.419   2.587   2.164 -0.6629  0.0434 -1.7660
    3CHTO   C70 1065   6.426   2.400   2.052  0.0772  0.0216 -0.2352
    3CHTO   O46 1066   6.559   2.383   1.998  0.3946  0.2396 -0.5140
    3CHTO  H103 1067   6.585   2.293   1.987 -1.0976 -0.0321 -2.1161
    3CHTO   O39 1068   6.682   2.490   2.466  0.0371 -0.1542  0.7055
    3CHTO   C60 1069   6.783   2.548   2.380 -0.3803  0.1354  0.1661
    3CHTO  H117 1070   6.763   2.529   2.274 -0.1892  0.4395  0.0743
    3CHTO   C62 1071   6.790   2.702   2.385  0.2960 -0.2596  0.2251
    3CHTO  H119 1072   6.695   2.743   2.345  1.2051  3.2109  1.4881
    3CHTO   O43 1073   6.821   2.738   2.522 -0.3205 -0.0715 -0.0101
    3CHTO  H101 1074   6.833   2.831   2.524  1.3982 -0.2493 -1.5891
    3CHTO   C66 1075   6.894   2.762   2.277  0.1460 -0.2743 -0.7062
    3CHTO  H123 1076   6.871   2.718   2.179  1.6888  0.5705 -1.4635
    3CHTO   N12 1077   6.893   2.912   2.251  0.4278 -0.2545 -0.0698
    3CHTO  H110 1078   6.934   2.929   2.152  2.3154  0.9166  0.8689
    3CHTO  H111 1079   6.796   2.955   2.269  0.5978  0.4080 -0.7064
    3CHTO   C69 1080   7.028   2.690   2.295  0.3429  0.5265  0.6367
    3CHTO  H126 1081   7.079   2.730   2.385  1.5383 -0.0708  0.2461
    3CHTO   O41 1082   7.003   2.521   2.312  1.6813  0.1816 -0.1842
    3CHTO   C64 1083   6.922   2.489   2.405 -0.4446  0.6735  0.3879
    3CHTO  H121 1084   6.961   2.534   2.498  1.3595 -1.0763  0.5168
    3CHTO   C71 1085   6.944   2.330   2.420  0.0474 -0.1795  0.0507
    3CHTO   O47 1086   7.076   2.296   2.466 -0.2053  0.7760 -0.3722
    3CHTO  H104 1087   7.078   2.222   2.523 -1.7128  2.0957  1.4623
    3CHTO   O34 1088   7.120   2.716   2.172  0.3975 -0.2864  0.4711
    3CHTO   C49 1089   7.186   2.654   2.057 -1.1824  0.2124 -0.1511
    3CHTO   H91 1090   7.252   2.729   2.013  0.2597 -1.9972 -1.8895
    3CHTO   C47 1091   7.085   2.612   1.942 -1.1149 -0.3723 -0.2513
    3CHTO   H89 1092   7.152   2.590   1.857 -2.0684  1.0304 -1.3999
    3CHTO   O33 1093   6.996   2.721   1.906  0.0032 -0.1297 -0.4247
    3CHTO   H70 1094   6.919   2.735   1.957  0.5864  0.7761  0.2255
    3CHTO   C45 1095   6.997   2.474   1.986  0.0296 -0.7077 -0.0418
    3CHTO   H87 1096   6.938   2.501   2.075  0.4040 -0.8980  0.2652
    3CHTO    N8 1097   6.892   2.438   1.883  0.2286  0.3153 -0.2942
    3CHTO   H75 1098   6.788   2.460   1.904  0.6099  0.1578  1.9059
    3CHTO   H76 1099   6.902   2.336   1.851  1.8275  0.7405 -1.2067
    3CHTO   C43 1100   7.093   2.354   2.022 -0.2686 -0.0010 -0.2695
    3CHTO   H85 1101   7.017   2.297   2.077 -1.0049  0.8394 -0.3973
    3CHTO   O29 1102   7.195   2.407   2.114 -0.4827 -0.5674 -0.0202
    3CHTO   C50 1103   7.267   2.532   2.086 -0.2383  0.2111  0.0750
    3CHTO   H92 1104   7.323   2.561   2.176 -0.1630  2.2396 -0.6012
    3CHTO   C54 1105   7.389   2.512   1.987  0.0433 -0.4473  0.4400
    3CHTO   O36 1106   7.491   2.434   2.052  0.2261  0.3137  0.4698
    3CHTO   H72 1107   7.525   2.368   1.995 -0.6439  0.4040 -0.1645
    3CHTO   O27 1108   7.154   2.283   1.916  0.3847 -0.4430 -0.2378
    3CHTO   C37 1109   7.233   2.179   1.857  0.7034 -0.9616  0.3109
    3CHTO   H79 1110   7.336   2.189   1.893  0.9225 -0.0204 -0.5574
    3CHTO   C38 1111   7.173   2.048   1.908  0.5080  0.5902  0.0146
    3CHTO   H80 1112   7.066   2.039   1.881  1.2681 -1.1933 -2.6130
    3CHTO   O31 1113   7.182   2.045   2.051  0.3478 -0.2968 -0.0713
    3CHTO   H68 1114   7.107   2.008   2.093  1.4945  0.4526  2.7282
    3CHTO   C39 1115   7.241   1.913   1.845 -0.3604 -0.1600  0.0070
    3CHTO   H81 1116   7.344   1.915   1.881  1.3101  1.2011 -4.5127
    3CHTO    N7 1117   7.176   1.782   1.889 -0.1001 -0.1292 -0.5315
    3CHTO   H73 1118   7.198   1.778   1.995 -1.4715 -0.7643 -0.2628
    3CHTO   H74 1119   7.071   1.769   1.865 -0.3812  1.0410  0.0710
    3CHTO   C40 1120   7.253   1.931   1.693 -0.0378 -0.7573 -0.0942
    3CHTO   H82 1121   7.160   1.907   1.643  0.5465  0.2997 -1.7045
    3CHTO   O26 1122   7.305   2.060   1.659  0.2445 -0.7724  0.2054
    3CHTO   C41 1123   7.230   2.180   1.704 -0.4620  0.3149  0.2238
    3CHTO   H83 1124   7.125   2.188   1.673  0.3332  3.4352 -1.8337
    3CHTO   C52 1125   7.304   2.309   1.653  0.2055  0.5050  0.1439
    3CHTO   O35 1126   7.231   2.442   1.653 -0.6044 -0.3862  0.0205
    3CHTO   H71 1127   7.259   2.502   1.587  0.2648  0.1894  0.9010
    3CHTO   O28 1128   7.363   1.844   1.659 -0.1924 -0.4481  0.0908
    3CHTO   C42 1129   7.395   1.793   1.522  0.6000 -0.5580 -0.3304
    3CHTO   H84 1130   7.494   1.748   1.526  0.8494 -0.1558 -1.8153
    3CHTO   C44 1131   7.409   1.905   1.421 -0.1677 -0.2007 -0.2050
    3CHTO   H86 1132   7.314   1.960   1.416  0.9751  1.7205 -1.4921
    3CHTO   O32 1133   7.513   1.985   1.477  0.0520 -0.2084  0.0868
    3CHTO   H69 1134   7.542   2.050   1.416 -0.4256 -0.3943 -0.3450
    3CHTO   C48 1135   7.455   1.851   1.284 -0.0762  0.5664 -0.6080
    3CHTO   H90 1136   7.553   1.803   1.287 -0.0312  0.7336  0.7249
    3CHTO    N9 1137   7.466   1.964   1.183 -0.1471  0.1232 -0.1228
    3CHTO   H77 1138   7.405   1.929   1.102 -1.5642 -1.7048  1.6656
    3CHTO   H78 1139   7.566   1.977   1.145 -1.0799 -1.7739 -3.3845
    3CHTO   C51 1140   7.347   1.747   1.240 -0.5974  0.3356  0.0844
    3CHTO   H93 1141   7.253   1.801   1.232 -2.6519 -2.9063  1.2663
    3CHTO   O30 1142   7.338   1.644   1.342 -0.1839  0.2606 -0.0161
    3CHTO   C46 1143   7.297   1.686   1.474 -0.4043  0.2478 -0.3262
    3CHTO   H88 1144   7.193   1.717   1.464  0.3873  2.7305 -1.1383
    3CHTO   C53 1145   7.303   1.572   1.578  0.0103  0.3755 -0.3945
    3CHTO   O72 1146   7.254   1.444   1.529 -0.0733  0.3098 -0.0554
    3CHTO  H199 1147   7.162   1.436   1.545 -0.0544 -1.3729 -0.6808
    3CHTO   O22 1148   7.371   1.677   1.112  0.0256  0.2403  0.4310
    3CHTO   C31 1149   7.265   1.626   1.029 -0.0099 -0.3361 -0.5101
    3CHTO   H59 1150   7.314   1.566   0.949  3.1659 -1.7418  2.3463
    3CHTO   C29 1151   7.168   1.525   1.103  0.0187  0.3644 -1.2418
    3CHTO   H57 1152   7.126   1.577   1.190  0.9494  0.2690 -0.7401
    3CHTO   O21 1153   7.242   1.413   1.151  0.3636  0.1407  0.3322
    3CHTO   H37 1154   7.295   1.437   1.225 -2.4359  2.9632  1.5217
    3CHTO   C27 1155   7.048   1.488   1.002  0.9926 -0.9548  0.1501
    3CHTO   H55 1156   7.092   1.425   0.924  0.9880 -0.4767 -0.2437
    3CHTO    N5 1157   6.948   1.403   1.078  0.2317 -0.0891  0.1747
    3CHTO   H43 1158   6.998   1.332   1.143  0.0037 -2.4985 -2.1884
    3CHTO   H44 1159   6.913   1.344   0.995  0.3889 -0.6086  0.4807
    3CHTO   C25 1160   6.983   1.623   0.953  0.4158 -0.3090 -0.2432
    3CHTO   H53 1161   6.944   1.672   1.043 -2.5693  1.1751 -2.2995
    3CHTO   O17 1162   7.084   1.694   0.879  0.1188  0.3090 -0.0651
    3CHTO   C32 1163   7.191   1.739   0.958 -0.2802 -0.0500 -0.5686
    3CHTO   H60 1164   7.140   1.806   1.027 -0.6461 -0.5472 -0.3477
    3CHTO   C36 1165   7.292   1.813   0.863 -1.0367 -0.2045  0.3665
    3CHTO   O25 1166   7.252   1.944   0.819  0.3361 -1.1913  0.1382
    3CHTO   H40 1167   7.166   1.934   0.782  1.2713 -1.2574 -2.1537
    3CHTO   O15 1168   6.843   1.598   0.856  0.0589 -0.1190 -0.2911
    3CHTO   C19 1169   6.749   1.673   0.774  0.1430 -0.1656 -0.9696
    3CHTO   H47 1170   6.789   1.667   0.671 -2.0806 -0.8267 -1.8310
    3CHTO   C20 1171   6.605   1.627   0.772  0.3779 -0.7111  0.0656
    3CHTO   H48 1172   6.549   1.658   0.861 -1.4474  1.4485 -1.7670
    3CHTO   O19 1173   6.605   1.484   0.759  0.4004 -0.0513 -0.0196
    3CHTO   H35 1174   6.515   1.459   0.763 -0.2573  2.1992 -0.0373
    3CHTO   C21 1175   6.520   1.688   0.656  0.0433 -0.3156  0.3806
    3CHTO   H49 1176   6.572   1.660   0.564 -0.0929 -0.7373  0.4301
    3CHTO    N4 1177   6.374   1.643   0.655  0.5207  0.6358 -0.0393
    3CHTO   H41 1178   6.308   1.729   0.662 -0.2885 -0.2212  4.3779
    3CHTO   H42 1179   6.351   1.583   0.568  2.1046 -2.3340  1.5061
    3CHTO   C22 1180   6.532   1.841   0.673  0.4664 -0.5209  0.1219
    3CHTO   H50 1181   6.472   1.881   0.755 -1.9656  0.9784 -2.2959
    3CHTO   O14 1182   6.666   1.881   0.696 -0.2224  0.0385 -0.1458
    3CHTO   C23 1183   6.735   1.826   0.806  0.2072  0.3093 -0.6292
    3CHTO   H51 1184   6.673   1.844   0.896 -0.0021  0.8233 -0.8739
    3CHTO   C34 1185   6.854   1.914   0.822  0.4488  0.4647 -0.1491
    3CHTO   O23 1186   6.825   2.048   0.860 -0.6746 -0.3222  0.3637
    3CHTO   H38 1187   6.903   2.096   0.836  0.1050 -2.9641 -2.7536
    3CHTO   O16 1188   6.476   1.899   0.553 -0.4853  0.2354 -0.1420
    3CHTO   C24 1189   6.386   2.047   0.582  0.0039 -0.8730 -1.0427
    3CHTO   H52 1190   6.369   2.061   0.689  0.3534  1.1245 -1.2422
    3CHTO   C26 1191   6.248   2.037   0.517 -0.2568  0.5674  0.2560
    3CHTO   H54 1192   6.264   2.011   0.411 -0.4075  1.6499 -0.0398
    3CHTO   O20 1193   6.176   1.926   0.580  0.3911  0.2797 -0.6154
    3CHTO   H36 1194   6.201   1.897   0.666 -1.5969 -0.3573 -0.2210
    3CHTO   C30 1195   6.172   2.173   0.518  0.7650 -0.5331 -0.2845
    3CHTO   H58 1196   6.129   2.199   0.616  2.9062 -3.3263  1.4905
    3CHTO    N6 1197   6.050   2.164   0.430 -0.1928  0.1584  0.1782
    3CHTO   H45 1198   6.059   2.089   0.353  0.5615  0.2889  0.1274
    3CHTO   H46 1199   6.042   2.264   0.388  2.3465  0.8937  1.3099
    3CHTO   C33 1200   6.273   2.286   0.474  0.3308 -0.2769  0.0540
    3CHTO   H61 1201   6.305   2.265   0.371  1.0218  0.7530  0.0539
    3CHTO   O18 1202   6.389   2.284   0.562  0.0593  0.2523  0.0630
    3CHTO   C28 1203   6.469   2.175   0.533  0.7982 -1.2136 -0.5024
    3CHTO   H56 1204   6.476   2.175   0.425 -4.2411  1.3496 -0.9598
    3CHTO   C35 1205   6.610   2.184   0.587  0.0503  0.3228 -0.2575
    3CHTO   O24 1206   6.674   2.301   0.534  0.1074  0.1528  0.2597
    3CHTO   H39 1207   6.720   2.293   0.453  0.5062  1.1256  0.3808
    3CHTO    O9 1208   6.215   2.417   0.470  0.0796 -0.1521  0.5364
    3CHTO   C13 1209   6.263   2.514   0.341  0.4906 -1.0847 -0.3594
    3CHTO   H26 1210   6.239   2.460   0.247  0.7819  0.1219 -1.1506
    3CHTO   C11 1211   6.410   2.549   0.351 -0.4735  0.0203 -0.4028
    3CHTO   H24 1212   6.457   2.451   0.333  1.5514  0.6975  0.9920
    3CHTO    O8 1213   6.444   2.593   0.487  0.1200 -0.1474  0.7467
    3CHTO    H3 1214   6.409   2.677   0.510  0.8372  0.1192  0.8945
    3CHTO    C9 1215   6.443   2.645   0.235  0.2688 -0.0195 -0.4117
    3CHTO   H22 1216   6.416   2.590   0.143  1.7346  1.6291 -1.8769
    3CHTO    N2 1217   6.587   2.668   0.215  0.2302 -0.1331  0.8376
    3CHTO   H10 1218   6.611   2.772   0.198  1.0979 -0.7396 -2.0372
    3CHTO   H11 1219   6.625   2.611   0.131 -0.9633 -1.2129  1.0188
    3CHTO    C7 1220   6.353   2.776   0.250  0.0333 -0.0500 -0.2927
    3CHTO   H20 1221   6.369   2.826   0.152  1.1070  1.1242  0.4648
    3CHTO    O4 1222   6.210   2.741   0.256 -0.1960 -0.7047 -1.1514
    3CHTO   C14 1223   6.164   2.640   0.346 -0.4416  0.0611  0.1730
    3CHTO   H27 1224   6.065   2.606   0.310 -0.1162 -0.9194  0.1827
    3CHTO   C18 1225   6.143   2.696   0.489  0.8904  0.0136 -0.1562
    3CHTO   O13 1226   6.027   2.778   0.477  0.2473 -0.2478 -0.2982
    3CHTO    H7 1227   6.024   2.837   0.404 -2.4048  1.5746  1.1798
    3CHTO    O2 1228   6.394   2.859   0.372  0.1602  0.5250 -0.3581
    3CHTO    C1 1229   6.384   2.998   0.349 -0.2755  0.0234  0.7224
    3CHTO   H14 1230   6.395   3.044   0.449  1.5487  0.1219  0.4982
    3CHTO    C2 1231   6.247   3.051   0.287  0.2155  0.7678 -0.4910
    3CHTO   H15 1232   6.235   2.989   0.196 -0.0386  0.1402 -0.0295
    3CHTO    O6 1233   6.135   3.025   0.380  0.0712  0.4296  0.4148
    3CHTO    H1 1234   6.124   2.934   0.402 -1.7913  0.6067  0.3463
    3CHTO    C3 1235   6.253   3.207   0.263 -0.5089 -0.6373 -0.0100
    3CHTO   H16 1236   6.257   3.247   0.365  1.5302 -0.6237 -0.0620
    3CHTO    N1 1237   6.130   3.250   0.182 -0.6403  0.4041  0.1520
    3CHTO    H8 1238   6.036   3.253   0.236 -0.3614  1.5857  0.5989
    3CHTO    H9 1239   6.124   3.180   0.100 -1.5152  1.7646 -0.9718
    3CHTO    C4 1240   6.383   3.246   0.197 -0.6318 -0.5595  0.1861
    3CHTO   H17 1241   6.389   3.213   0.093  2.5698  2.1168 -0.5666
    3CHTO    O1 1242   6.499   3.200   0.270 -0.6069  0.4040  0.1238
    3CHTO    C5 1243   6.509   3.056   0.275 -0.0800 -0.6971 -0.9738
    3CHTO   H18 1244   6.512   3.020   0.172  2.7523  1.2475 -1.6172
    3CHTO   C16 1245   6.646   3.014   0.345  0.3484 -0.4843  0.0978
    3CHTO   O11 1246   6.760   3.033   0.263  0.5378  0.2625 -0.4406
    3CHTO    H5 1247   6.747   2.997   0.177  1.7094 -3.3821  0.8061
    3CHTO    O3 1248   6.397   3.392   0.206 -0.5944  0.0149 -0.3771
    3CHTO    C6 1249   6.474   3.453   0.093  0.3469  0.0078 -0.8141
    3CHTO   H19 1250   6.551   3.386   0.056  0.9099 -0.1982  0.7072
    3CHTO    C8 1251   6.370   3.499  -0.022 -0.1628  0.1530  0.6137
    3CHTO   H21 1252   6.289   3.556   0.024  0.3051  2.1635 -0.9442
    3CHTO    O7 1253   6.304   3.378  -0.084  0.0729 -0.2023  0.2578
    3CHTO    H2 1254   6.218   3.401  -0.111  0.1230  1.2280  1.2508
    3CHTO   C12 1255   6.453   3.585  -0.131 -0.4495  0.1587  0.4355
    3CHTO   H25 1256   6.507   3.522  -0.205  0.5484  1.9798 -0.4173
    3CHTO    N3 1257   6.363   3.643  -0.228  0.1570 -0.0487 -0.1089
    3CHTO   H12 1258   6.284   3.700  -0.181  0.5700  1.3638 -1.0902
    3CHTO   H13 1259   6.422   3.695  -0.302 -1.4975  4.2189  1.3857
    3CHTO   C15 1260   6.556   3.686  -0.071 -0.3736 -0.3321  0.0703
    3CHTO   H28 1261   6.509   3.781  -0.048 -0.5462 -1.0806  2.9420
    3CHTO   O10 1262   6.663   3.721  -0.165  0.1096 -0.0498 -0.2701
    3CHTO    H4 1263   6.641   3.802  -0.207  1.5377  0.6135  0.2207
    3CHTO    O5 1264   6.624   3.633   0.037 -0.0409 -1.0152 -0.4932
    3CHTO   C10 1265   6.543   3.580   0.142  0.4242  0.2776 -0.2094
    3CHTO   H23 1266   6.478   3.663   0.168  1.3652  0.0923  3.0539
    3CHTO   C17 1267   6.634   3.564   0.261 -0.0880 -0.3648 -0.2561
    3CHTO   O12 1268   6.749   3.492   0.222  0.1453  0.4176  0.1563
    3CHTO    H6 1269   6.800   3.475   0.299  2.0776  0.7178 -1.0220
    4CHTO  H203 1270   6.907   6.775   1.885 -0.3911  1.5789 -0.2697
    4CHTO   O82 1271   6.994   6.809   1.873  0.0932  0.4836  0.1125
    4CHTO  C123 1272   6.984   6.956   1.881  0.0665 -0.1288 -0.3566
    4CHTO  H227 1273   6.934   6.981   1.976  1.0713  3.2388 -0.6755
    4CHTO   O77 1274   7.124   6.986   1.879 -0.4230 -0.4911 -0.4673
    4CHTO  C118 1275   7.149   7.128   1.900 -0.0226  0.6213 -0.6633
    4CHTO  H222 1276   7.098   7.178   1.984 -0.6821 -1.3066  0.1343
    4CHTO  C125 1277   7.303   7.133   1.924  0.4929  0.4647 -0.2107
    4CHTO   O84 1278   7.335   7.045   2.035 -0.4806  0.2245  0.2240
    4CHTO  H205 1279   7.391   6.975   2.005 -1.3533 -0.7861  0.8841
    4CHTO  C114 1280   7.107   7.199   1.771 -0.0501 -0.0132 -0.8093
    4CHTO  H218 1281   7.168   7.165   1.687 -0.1103 -0.6810 -0.5846
    4CHTO  C116 1282   6.955   7.175   1.735  0.1244  0.8599  0.2207
    4CHTO  H220 1283   6.898   7.225   1.815 -0.0203  0.3789  0.4198
    4CHTO   O79 1284   6.924   7.233   1.605 -0.3020 -0.4074 -0.1536
    4CHTO  H201 1285   6.936   7.326   1.594  0.7426 -0.6388 -1.0319
    4CHTO  C120 1286   6.920   7.018   1.745  0.2771  0.3783  0.2925
    4CHTO  H224 1287   6.975   6.966   1.664 -0.5758  0.0824 -0.1034
    4CHTO   N21 1288   6.774   6.986   1.733 -0.5969 -0.1726  0.1695
    4CHTO  H211 1289   6.751   6.957   1.631  0.5166 -2.4852  0.5406
    4CHTO  H212 1290   6.709   7.068   1.760 -0.9960 -0.7682  1.0594
    4CHTO   O75 1291   7.143   7.333   1.792 -0.1482  0.1601  0.0921
    4CHTO  C112 1292   7.197   7.412   1.661  0.3217  0.1537  0.4705
    4CHTO  H216 1293   7.152   7.366   1.571  1.6633  2.2402 -1.3055
    4CHTO   O73 1294   7.341   7.402   1.656  0.9869  0.3814  0.5045
    4CHTO  C113 1295   7.399   7.454   1.531 -0.5064  0.3975  0.1453
    4CHTO  H217 1296   7.347   7.415   1.441  0.2185  3.0188 -1.4639
    4CHTO  C124 1297   7.552   7.428   1.527  0.4120  0.0957  0.2258
    4CHTO   O83 1298   7.585   7.291   1.527  0.0800  0.1175 -0.0227
    4CHTO  H204 1299   7.511   7.239   1.504  0.7324 -0.8970  0.1371
    4CHTO  C109 1300   7.376   7.611   1.534 -0.2411  0.1968 -0.3951
    4CHTO  H213 1301   7.432   7.650   1.620  0.2617 -0.1694 -0.5541
    4CHTO  C110 1302   7.219   7.638   1.546 -0.4110  0.2655  0.5916
    4CHTO  H214 1303   7.171   7.606   1.453 -0.5956 -0.8763  1.0758
    4CHTO   O78 1304   7.202   7.783   1.553  0.2817 -0.3374 -0.3238
    4CHTO  H200 1305   7.260   7.819   1.618 -2.4338  0.2177  1.8750
    4CHTO  C111 1306   7.155   7.559   1.665  0.2352  0.1343 -0.0254
    4CHTO  H215 1307   7.205   7.600   1.754 -1.1721 -2.2251  1.9193
    4CHTO   N19 1308   7.008   7.569   1.691  0.5152  0.2736 -0.5757
    4CHTO  H207 1309   6.989   7.626   1.781 -1.3529  1.2689 -1.5538
    4CHTO  H208 1310   6.963   7.622   1.608 -1.3625  0.7940  0.7360
    4CHTO   O74 1311   7.432   7.676   1.419 -0.0743  0.3941 -0.3698
    4CHTO  C115 1312   7.523   7.794   1.439 -0.3190 -0.7299 -0.3499
    4CHTO  H219 1313   7.509   7.839   1.537 -0.6967 -1.4719 -0.0637
    4CHTO   O76 1314   7.700   7.752   1.421  0.4258  0.4875 -0.1180
    4CHTO  C122 1315   7.737   7.698   1.291 -0.3791 -0.0137  0.4332
    4CHTO  H226 1316   7.706   7.593   1.296  1.3669 -0.6615 -1.5293
    4CHTO  C126 1317   7.893   7.704   1.276  0.2479 -0.3141 -0.3535
    4CHTO   O85 1318   7.938   7.652   1.150 -0.6447 -0.5503 -0.7241
    4CHTO  H206 1319   7.866   7.646   1.090 -2.5388 -0.5297  1.4903
    4CHTO  C121 1320   7.665   7.782   1.180 -0.1048  0.5735 -0.2068
    4CHTO  H225 1321   7.729   7.811   1.095  0.6657 -2.5214 -0.7530
    4CHTO   O81 1322   7.561   7.707   1.116 -0.0017 -0.1402  0.2780
    4CHTO  H202 1323   7.594   7.677   1.034 -0.3414  2.9540 -1.0224
    4CHTO  C119 1324   7.602   7.915   1.233  0.1626  0.7961  0.7657
    4CHTO  H223 1325   7.683   7.965   1.287  1.7385 -1.9392  1.0332
    4CHTO  C117 1326   7.483   7.894   1.330 -0.3591 -0.5103  0.5078
    4CHTO  H221 1327   7.396   7.851   1.281 -0.0968  0.6784 -1.0326
    4CHTO   N20 1328   7.438   8.026   1.385  0.4325 -0.2964 -0.3429
    4CHTO  H209 1329   7.388   8.009   1.479 -0.3343  0.9266 -0.5274
    4CHTO  H210 1330   7.373   8.068   1.310 -0.5404 -1.5700 -0.2269
    4CHTO   O80 1331   7.579   8.012   1.114 -0.5865 -0.8604 -0.6761
    4CHTO  C103 1332   7.681   8.130   1.070 -0.0145  0.1415  0.5124
    4CHTO  H190 1333   7.630   8.226   1.059  0.5559  0.2449 -1.5040
    4CHTO  C101 1334   7.814   8.154   1.151 -0.0608  0.2472 -0.6964
    4CHTO  H188 1335   7.867   8.060   1.170 -0.5686  0.1401  0.2538
    4CHTO   O68 1336   7.773   8.214   1.301 -0.0633 -0.5456 -0.7262
    4CHTO  H168 1337   7.846   8.238   1.354 -0.7696  1.0959 -0.4709
    4CHTO   C99 1338   7.912   8.252   1.073  0.4262 -0.4147 -0.7399
    4CHTO  H186 1339   7.873   8.356   1.079  3.2070  0.6098  1.2743
    4CHTO   N17 1340   8.046   8.268   1.132  0.3554 -0.7901 -0.9082
    4CHTO  H174 1341   8.092   8.353   1.083  0.2183  0.7553  1.5490
    4CHTO  H175 1342   8.030   8.279   1.238 -0.6448 -3.0907 -0.7947
    4CHTO   C97 1343   7.923   8.217   0.921 -0.4414  0.1982  0.0340
    4CHTO  H184 1344   7.992   8.132   0.915 -1.3162 -0.6369  1.6826
    4CHTO   O64 1345   7.801   8.194   0.859 -0.0101  0.3322 -0.1369
    4CHTO  C104 1346   7.727   8.085   0.927  0.2310  0.5334  0.8487
    4CHTO  H191 1347   7.781   7.991   0.935  2.5168  1.7692  0.4468
    4CHTO  C108 1348   7.607   8.051   0.840 -0.0396 -0.2952  0.2316
    4CHTO   O71 1349   7.645   7.971   0.726  0.0949  0.1565  0.2534
    4CHTO  H171 1350   7.691   8.025   0.666 -1.4101 -0.9243 -1.9237
    4CHTO   O62 1351   7.973   8.333   0.843  0.1621 -0.1436 -0.3338
    4CHTO   C91 1352   8.056   8.318   0.728  0.3698 -0.0685 -0.3548
    4CHTO  H178 1353   8.124   8.236   0.750 -1.2594 -1.5678 -0.7937
    4CHTO   C92 1354   8.143   8.452   0.725  0.0670 -0.1767 -0.3654
    4CHTO  H179 1355   8.181   8.468   0.827  0.8270  0.5644 -0.7593
    4CHTO   O66 1356   8.254   8.432   0.640  0.1449  0.0605  0.0942
    4CHTO  H166 1357   8.308   8.369   0.685 -0.2941 -1.4395 -1.4272
    4CHTO   C93 1358   8.064   8.579   0.661  0.1253 -0.2743 -1.1375
    4CHTO  H180 1359   8.137   8.650   0.619  1.9831 -2.3326 -1.4465
    4CHTO   N16 1360   7.976   8.656   0.760 -0.2002 -0.2935  0.1019
    4CHTO  H172 1361   7.875   8.619   0.759 -0.2328 -0.1975 -0.1911
    4CHTO  H173 1362   8.016   8.645   0.859 -0.1448  0.3381  0.1469
    4CHTO   C94 1363   7.973   8.529   0.542  0.2838 -0.0229  1.1265
    4CHTO  H181 1364   7.868   8.519   0.568 -0.0566 -3.2242 -1.1338
    4CHTO   O61 1365   8.012   8.397   0.492 -0.6843 -0.2731  0.6013
    4CHTO   C95 1366   7.986   8.290   0.585 -0.3754  0.0848 -0.1519
    4CHTO  H182 1367   7.878   8.281   0.598 -0.0312 -2.6082  1.2233
    4CHTO  C106 1368   8.037   8.163   0.501  0.4560 -0.6158  0.5021
    4CHTO   O69 1369   7.953   8.128   0.390 -0.3181  0.1063 -0.1598
    4CHTO  H169 1370   7.869   8.107   0.427  0.6925 -4.0684  0.0407
    4CHTO   O63 1371   7.979   8.629   0.418 -0.1263  0.5039 -0.1925
    4CHTO   C96 1372   7.843   8.645   0.339 -0.2766  0.2189  0.4582
    4CHTO  H183 1373   7.760   8.637   0.409  0.2423 -0.1937  1.0297
    4CHTO   C98 1374   7.827   8.552   0.213 -0.0815  0.3279 -0.9535
    4CHTO  H185 1375   7.911   8.571   0.145  0.2400 -4.3132 -2.0293
    4CHTO   O67 1376   7.835   8.412   0.242 -0.1322 -0.7790 -0.4842
    4CHTO  H167 1377   7.760   8.384   0.290 -1.1375 -1.9025 -2.6276
    4CHTO  C102 1378   7.685   8.571   0.141 -0.3905 -0.0113  0.2890
    4CHTO  H189 1379   7.615   8.501   0.189 -0.5277 -0.0350  0.0509
    4CHTO   N18 1380   7.694   8.531  -0.002  0.3509 -0.4856  1.1383
    4CHTO  H176 1381   7.717   8.426  -0.011 -2.0268 -0.7371 -2.7129
    4CHTO  H177 1382   7.772   8.584  -0.055 -0.7973  1.7808  1.6308
    4CHTO  C105 1383   7.632   8.714   0.162  0.1404  0.3582 -0.0925
    4CHTO  H192 1384   7.580   8.745   0.071  0.7401  3.2619  0.5137
    4CHTO   O65 1385   7.741   8.809   0.183  0.2898  0.2111 -0.4454
    4CHTO  C100 1386   7.837   8.794   0.289  0.5706 -0.3486 -0.3131
    4CHTO  H187 1387   7.930   8.825   0.240  1.5181 -1.0213  1.0178
    4CHTO  C107 1388   7.809   8.885   0.405 -0.3538 -0.9360  0.1861
    4CHTO   O70 1389   7.903   8.877   0.516  0.4501  0.4494 -0.4828
    4CHTO  H170 1390   7.963   8.947   0.499  1.1975 -0.3604 -1.2603
    4CHTO   O57 1391   7.541   8.701   0.287 -0.2320  0.8207 -0.2613
    4CHTO   C85 1392   7.406   8.762   0.281 -0.3404  0.2669 -0.7818
    4CHTO  H157 1393   7.389   8.790   0.175  2.6564 -0.8846 -1.6334
    4CHTO   C83 1394   7.400   8.901   0.357  0.1432  0.5831 -0.5411
    4CHTO  H155 1395   7.474   8.970   0.319 -3.3394  4.2830 -0.9509
    4CHTO   O56 1396   7.438   8.867   0.494 -0.2829 -0.1231 -0.2615
    4CHTO  H135 1397   7.531   8.869   0.503 -0.2782 -2.6792  0.4787
    4CHTO   C81 1398   7.253   8.969   0.350  0.1085  0.3269 -0.1792
    4CHTO  H153 1399   7.236   9.001   0.247  2.1607  2.4289  0.0707
    4CHTO   N14 1400   7.249   9.095   0.422 -0.4273 -0.4534 -0.2415
    4CHTO  H141 1401   7.151   9.139   0.418 -0.6404 -0.8979 -0.0146
    4CHTO  H142 1402   7.268   9.064   0.522 -0.8813 -0.6974 -0.2296
    4CHTO   C79 1403   7.154   8.855   0.391  0.1879 -0.5252 -0.1889
    4CHTO  H151 1404   7.055   8.896   0.373 -0.2100 -1.2537  0.3239
    4CHTO   O52 1405   7.169   8.732   0.312 -0.2682  0.0731  0.2585
    4CHTO   C86 1406   7.295   8.669   0.335  0.4906  0.0283  0.3280
    4CHTO  H158 1407   7.310   8.656   0.444  1.7930  0.7784  0.2465
    4CHTO   C90 1408   7.295   8.525   0.272 -0.0229  0.2703  0.3871
    4CHTO   O60 1409   7.172   8.447   0.281  0.9483 -0.7160  0.3858
    4CHTO  H138 1410   7.184   8.362   0.243 -0.0621 -0.3675 -0.7197
    4CHTO   O50 1411   7.155   8.812   0.527 -0.1982  0.2608  0.2139
    4CHTO   C73 1412   7.059   8.809   0.628 -0.1909  0.1371 -0.5696
    4CHTO  H145 1413   6.984   8.889   0.621 -2.6181 -2.0011  0.0944
    4CHTO   C74 1414   7.134   8.817   0.769 -1.0571  0.5262  0.1195
    4CHTO  H146 1415   7.190   8.911   0.766 -0.6156  0.2605 -0.0277
    4CHTO   O54 1416   7.033   8.832   0.868  0.5721  0.3580 -0.2518
    4CHTO  H133 1417   6.981   8.755   0.871  1.9347 -0.5748 -0.1336
    4CHTO   C75 1418   7.228   8.692   0.789  0.0906  0.1643  0.1927
    4CHTO  H147 1419   7.303   8.689   0.709 -0.4532 -0.9814 -0.2776
    4CHTO   N13 1420   7.304   8.707   0.916 -0.0370  0.8773 -0.0587
    4CHTO  H139 1421   7.342   8.617   0.961  0.5115  1.0301 -0.2117
    4CHTO  H140 1422   7.239   8.753   0.990  1.3672  0.2243  1.6110
    4CHTO   C76 1423   7.140   8.559   0.767 -0.0910  0.5005 -0.1105
    4CHTO  H148 1424   7.072   8.559   0.852 -0.2226  1.6643 -0.2131
    4CHTO   O49 1425   7.067   8.570   0.640  0.3285 -0.6357  0.5037
    4CHTO   C77 1426   6.980   8.678   0.630  0.4411 -0.1207 -0.5909
    4CHTO  H149 1427   6.916   8.669   0.717  0.4539 -0.4662 -0.6177
    4CHTO   C88 1428   6.890   8.661   0.505  0.7794 -0.0012  0.0933
    4CHTO   O58 1429   6.814   8.562   0.519 -0.5983 -0.1876 -0.9237
    4CHTO  H136 1430   6.859   8.488   0.484  2.6300  0.7825  0.8729
    4CHTO   O51 1431   7.252   8.421   0.770 -0.1665  0.1375 -0.1888
    4CHTO   C78 1432   7.295   8.355   0.622 -0.0805  0.2414 -0.5523
    4CHTO  H150 1433   7.276   8.427   0.540  0.7780  0.2349 -0.7654
    4CHTO   C80 1434   7.208   8.227   0.602 -0.0108 -0.5891 -0.2973
    4CHTO  H152 1435   7.226   8.156   0.686  0.7520 -2.3839 -1.9467
    4CHTO   O55 1436   7.069   8.260   0.615 -0.0120 -0.1410  0.1553
    4CHTO  H134 1437   7.055   8.303   0.697 -2.4670 -3.2792  1.5477
    4CHTO   C84 1438   7.254   8.163   0.465  1.0434  0.1618  0.4194
    4CHTO  H156 1439   7.227   8.227   0.381 -1.2793 -0.5387  0.5973
    4CHTO   N15 1440   7.178   8.028   0.436  0.1610 -0.6321  1.4346
    4CHTO  H143 1441   7.127   8.041   0.344 -1.5973 -2.5213  2.1013
    4CHTO  H144 1442   7.100   8.012   0.508 -0.1070 -2.2859  0.7968
    4CHTO   C87 1443   7.399   8.137   0.450  0.2264  0.3408  0.5918
    4CHTO  H159 1444   7.427   8.062   0.525 -0.9118 -0.6324  0.0706
    4CHTO   O53 1445   7.469   8.278   0.490 -0.1875 -0.2165 -0.1131
    4CHTO   C82 1446   7.440   8.324   0.620  0.0600 -0.0395  0.1649
    4CHTO  H154 1447   7.476   8.258   0.699  2.6047 -2.0968 -2.5859
    4CHTO   C89 1448   7.522   8.456   0.637  0.3493  0.2921  0.5243
    4CHTO   O59 1449   7.553   8.486   0.774  0.5110 -0.2639  0.0963
    4CHTO  H137 1450   7.471   8.502   0.817 -0.1909 -1.3674 -0.8141
    4CHTO   O45 1451   7.456   8.109   0.293 -0.1873 -0.1530  0.5843
    4CHTO   C67 1452   7.601   8.077   0.269  0.2496 -0.8214 -0.2719
    4CHTO  H124 1453   7.665   8.155   0.312  0.6351 -1.0920 -0.3539
    4CHTO   C65 1454   7.632   7.938   0.331  0.1095 -0.3284 -0.2731
    4CHTO  H122 1455   7.578   7.949   0.425 -0.2188  1.1158 -0.6179
    4CHTO   O44 1456   7.771   7.917   0.348 -0.8201 -0.0002 -0.0835
    4CHTO  H102 1457   7.786   7.834   0.389  1.6774  1.2200  1.6338
    4CHTO   C63 1458   7.564   7.822   0.253 -0.2678 -0.0519 -0.9509
    4CHTO  H120 1459   7.458   7.848   0.241 -0.8465 -1.3891  1.0249
    4CHTO   N11 1460   7.556   7.691   0.304  0.1042  0.1149  0.0976
    4CHTO  H108 1461   7.537   7.688   0.409  0.0850 -1.3251  0.0621
    4CHTO  H109 1462   7.474   7.649   0.250  0.1980 -1.6656  1.2948
    4CHTO   C61 1463   7.614   7.826   0.100  0.1346  0.1585 -0.1301
    4CHTO  H118 1464   7.543   7.759   0.050 -3.0845  3.5947 -0.3743
    4CHTO   O40 1465   7.586   7.963   0.046  0.1670 -0.3902 -0.0448
    4CHTO   C68 1466   7.640   8.084   0.114  0.3820  0.6972  0.3020
    4CHTO  H125 1467   7.591   8.174   0.070  0.8421  0.9561  0.3257
    4CHTO   C72 1468   7.796   8.106   0.098  0.2015  0.5337  0.1965
    4CHTO   O48 1469   7.838   8.114  -0.037  0.1729 -0.6208 -0.4093
    4CHTO  H105 1470   7.868   8.035  -0.079  2.2910 -0.6322  1.0260
    4CHTO   O38 1471   7.749   7.778   0.078  0.2812  0.0149  0.4036
    4CHTO   C55 1472   7.775   7.660  -0.003 -0.2293 -0.4166 -0.5206
    4CHTO  H112 1473   7.677   7.621  -0.036 -1.0472  0.7323  0.5499
    4CHTO   C56 1474   7.860   7.553   0.074 -0.5625  1.4977  0.0789
    4CHTO  H113 1475   7.951   7.600   0.112 -1.1609  0.0448  3.4870
    4CHTO   O42 1476   7.785   7.503   0.185  0.3411 -0.7381 -0.0239
    4CHTO  H100 1477   7.838   7.443   0.233  0.6017 -0.6842 -0.2412
    4CHTO   C57 1478   7.906   7.435  -0.022  0.2919 -0.3767 -0.4462
    4CHTO  H114 1479   7.810   7.385  -0.036  0.6693 -0.5896 -2.4313
    4CHTO   N10 1480   7.993   7.338   0.046 -0.0263  0.1077  0.0623
    4CHTO  H106 1481   7.996   7.244  -0.007  1.7153  0.6160 -0.7778
    4CHTO  H107 1482   8.093   7.374   0.064  0.9825 -2.4067 -0.2875
    4CHTO   C58 1483   7.958   7.479  -0.162  0.3289  0.5334  0.6652
    4CHTO  H115 1484   8.063   7.515  -0.155  0.9648 -1.5268  2.5579
    4CHTO   O37 1485   7.879   7.584  -0.217 -0.0934  0.0319  0.4246
    4CHTO   C59 1486   7.851   7.697  -0.135 -0.9225 -0.5903 -0.5001
    4CHTO  H116 1487   7.951   7.734  -0.115 -1.1554 -0.7363  1.0260
    4CHTO   C70 1488   7.784   7.807  -0.221  0.2848 -0.2516  0.0122
    4CHTO   O46 1489   7.654   7.783  -0.274 -0.3114 -0.1894 -0.9435
    4CHTO  H103 1490   7.594   7.798  -0.203  1.9149  1.5431  0.6507
    4CHTO   O39 1491   7.968   7.376  -0.271 -0.1361  0.4451 -0.9747
    4CHTO   C60 1492   7.847   7.293  -0.289  0.3715  0.4910  0.1539
    4CHTO  H117 1493   7.826   7.233  -0.200 -0.5895  0.6631  0.0426
    4CHTO   C62 1494   7.714   7.365  -0.332  0.7588  0.2076 -0.1859
    4CHTO  H119 1495   7.677   7.435  -0.254 -2.8555  0.7037 -2.2069
    4CHTO   O43 1496   7.741   7.457  -0.438  0.5573  0.3998 -0.8442
    4CHTO  H101 1497   7.668   7.454  -0.497  0.0773  1.6094 -0.3468
    4CHTO   C66 1498   7.608   7.255  -0.362 -0.3927 -0.0979  0.8635
    4CHTO  H123 1499   7.591   7.202  -0.268 -0.4015  0.4021  1.1460
    4CHTO   N12 1500   7.482   7.322  -0.404  0.4011 -0.0279  0.3270
    4CHTO  H110 1501   7.498   7.400  -0.477  0.0469  0.8929  1.2183
    4CHTO  H111 1502   7.423   7.247  -0.456 -2.1162  0.8868  1.7660
    4CHTO   C69 1503   7.657   7.151  -0.468  0.9269 -0.0648 -0.3313
    4CHTO  H126 1504   7.672   7.204  -0.565  0.3028  0.5613 -0.0938
    4CHTO   O41 1505   7.800   7.084  -0.417  0.2522  0.3500 -0.2640
    4CHTO   C64 1506   7.906   7.189  -0.389 -0.3176 -0.5041  0.0628
    4CHTO  H121 1507   7.933   7.249  -0.478 -0.3275 -0.4810  0.0755
    4CHTO   C71 1508   8.027   7.115  -0.326 -0.0346 -0.6841 -0.6167
    4CHTO   O47 1509   8.079   7.013  -0.407  0.3862 -0.8057  0.0404
    4CHTO  H104 1510   8.042   7.019  -0.493  0.6019 -1.6693 -0.1212
    4CHTO   O34 1511   7.554   7.055  -0.491  0.3095 -0.8009 -0.0909
    4CHTO   C49 1512   7.569   6.907  -0.563  0.0626  0.2417 -0.4546
    4CHTO   H91 1513   7.660   6.869  -0.516 -0.9226 -0.4620  0.9532
    4CHTO   C47 1514   7.586   6.919  -0.719 -0.0453 -0.1461 -0.3967
    4CHTO   H89 1515   7.625   6.823  -0.758  0.6070 -0.8913  1.9772
    4CHTO   O33 1516   7.688   7.027  -0.749  0.0288  0.4026  0.3336
    4CHTO   H70 1517   7.648   7.110  -0.732  1.1505  0.9781  0.2430
    4CHTO   C45 1518   7.446   6.939  -0.796  0.2416 -0.1492  0.0543
    4CHTO   H87 1519   7.408   7.025  -0.739 -3.1294 -0.6576 -1.3654
    4CHTO    N8 1520   7.456   6.971  -0.940 -0.4938 -0.1895 -0.8529
    4CHTO   H75 1521   7.487   6.888  -1.001  0.1312  0.4667 -1.4258
    4CHTO   H76 1522   7.362   7.016  -0.967 -0.4392 -0.4456 -1.4661
    4CHTO   C43 1523   7.351   6.816  -0.760  0.4243 -0.4366  0.1146
    4CHTO   H85 1524   7.257   6.838  -0.811 -0.5917 -0.8464  1.7673
    4CHTO   O29 1525   7.333   6.816  -0.621  0.0211  0.0412 -0.7507
    4CHTO   C50 1526   7.448   6.813  -0.533 -0.0007  1.1857  0.4368
    4CHTO   H92 1527   7.415   6.854  -0.436 -1.7240 -2.4424  1.4810
    4CHTO   C54 1528   7.491   6.672  -0.489 -0.4502  0.5302  0.2468
    4CHTO   O36 1529   7.508   6.562  -0.585 -0.3810 -0.6670 -0.5760
    4CHTO   H72 1530   7.560   6.491  -0.554 -2.2796 -1.2532  1.3723
    4CHTO   O27 1531   7.393   6.691  -0.805 -0.8198  0.0424 -0.0076
    4CHTO   C37 1532   7.376   6.567  -0.879 -0.4717 -0.1738  0.1501
    4CHTO   H79 1533   7.342   6.594  -0.980  0.2692 -0.7041 -0.2431
    4CHTO   C38 1534   7.499   6.474  -0.895  0.1493 -0.5190  0.1632
    4CHTO   H80 1535   7.555   6.466  -0.801 -1.2315  1.9587  1.2383
    4CHTO   O31 1536   7.577   6.549  -0.991 -0.5621 -0.5515 -0.3894
    4CHTO   H68 1537   7.668   6.528  -0.992 -0.0698  1.4133 -0.2879
    4CHTO   C39 1538   7.465   6.330  -0.961  0.4371 -0.1150 -0.6084
    4CHTO   H81 1539   7.428   6.351  -1.061  1.6425 -1.8406 -1.4344
    4CHTO    N7 1540   7.592   6.251  -0.957 -0.0978 -0.5593  0.4420
    4CHTO   H73 1541   7.584   6.146  -0.937 -0.1556 -0.8778 -1.1631
    4CHTO   H74 1542   7.628   6.261  -1.059  0.8846 -0.1699  0.8170
    4CHTO   C40 1543   7.348   6.266  -0.876 -0.3678  0.0418  0.2886
    4CHTO   H82 1544   7.376   6.242  -0.773  0.9322 -2.1904 -0.5487
    4CHTO   O26 1545   7.243   6.361  -0.884  0.1668 -0.0305 -0.3856
    4CHTO   C41 1546   7.268   6.482  -0.810  0.2671 -0.9881 -0.2927
    4CHTO   H83 1547   7.299   6.454  -0.708 -0.4644 -2.8376 -0.5579
    4CHTO   C52 1548   7.135   6.570  -0.797 -0.5640 -0.3061  0.2677
    4CHTO   O35 1549   7.044   6.490  -0.742  0.2332  0.0913  0.4480
    4CHTO   H71 1550   6.974   6.545  -0.712  1.0270  1.3425  0.0093
    4CHTO   O28 1551   7.302   6.140  -0.930 -0.0024 -0.4736 -0.3356
    4CHTO   C42 1552   7.201   6.059  -0.867 -0.0726 -0.8617 -0.4395
    4CHTO   H84 1553   7.206   5.969  -0.928  2.2136 -1.0808  0.0478
    4CHTO   C44 1554   7.057   6.116  -0.872  0.3683 -0.7953 -0.6840
    4CHTO   H86 1555   7.052   6.212  -0.822 -1.0488 -1.0560 -0.2975
    4CHTO   O32 1556   7.030   6.147  -1.009 -0.5182 -0.0275  0.1678
    4CHTO   H69 1557   6.963   6.213  -1.009 -0.4499  0.0513  1.9806
    4CHTO   C48 1558   6.952   6.017  -0.806 -0.3994 -0.0436 -0.9290
    4CHTO   H90 1559   6.956   5.921  -0.858 -1.6168 -0.4577 -0.3018
    4CHTO    N9 1560   6.810   6.064  -0.818 -0.0199  0.4976 -0.2287
    4CHTO   H77 1561   6.796   6.170  -0.800  0.8661  0.7265 -0.8829
    4CHTO   H78 1562   6.740   6.011  -0.754  1.8906 -0.8073  0.8149
    4CHTO   C51 1563   7.002   5.981  -0.660  0.6501 -0.0159  0.7913
    4CHTO   H93 1564   7.001   6.070  -0.597  0.8498 -0.1054  0.9176
    4CHTO   O30 1565   7.134   5.923  -0.661  0.3991  0.2780 -0.2361
    4CHTO   C46 1566   7.238   6.019  -0.723 -0.4496 -0.2215  0.5824
    4CHTO   H88 1567   7.230   6.111  -0.666 -1.2544  0.7977 -1.1377
    4CHTO   C53 1568   7.372   5.945  -0.700  0.0766 -0.5795  0.1421
    4CHTO   O72 1569   7.380   5.812  -0.745 -0.1982  0.0177 -0.3970
    4CHTO  H199 1570   7.366   5.755  -0.672 -0.6860 -0.3484 -0.7746
    4CHTO   O22 1571   6.915   5.887  -0.604 -0.1422 -0.0406 -0.4463
    4CHTO   C31 1572   6.935   5.845  -0.460  0.1900  0.2148 -0.5291
    4CHTO   H59 1573   6.997   5.753  -0.461  0.1462  0.1657  0.5187
    4CHTO   C29 1574   6.996   5.943  -0.362  0.0156 -0.2106 -0.0868
    4CHTO   H57 1575   6.960   6.044  -0.387  1.8471  0.4680 -0.1083
    4CHTO   O21 1576   7.137   5.946  -0.392  0.0236 -0.2353 -0.3471
    4CHTO   H37 1577   7.180   6.018  -0.350 -0.0589  0.3062 -1.1812
    4CHTO   C27 1578   6.973   5.917  -0.209 -0.3338  0.1658  0.0859
    4CHTO   H55 1579   7.049   5.841  -0.182  0.8632  0.8371 -1.3055
    4CHTO    N5 1580   6.986   6.043  -0.128 -0.0380 -0.7517  0.1706
    4CHTO   H43 1581   6.918   6.047  -0.044  1.2965  0.9320  1.2188
    4CHTO   H44 1582   7.006   6.140  -0.171 -1.8329 -1.2142 -1.7333
    4CHTO   C25 1583   6.832   5.833  -0.179 -0.2359 -0.5193 -0.8241
    4CHTO   H53 1584   6.752   5.907  -0.189 -0.7029 -1.0038 -0.6743
    4CHTO   O17 1585   6.804   5.734  -0.280  0.2997  0.5405  0.5207
    4CHTO   C32 1586   6.794   5.799  -0.409  0.2412 -0.8208  0.2882
    4CHTO   H60 1587   6.733   5.889  -0.413  0.5721 -0.6882 -1.9978
    4CHTO   C36 1588   6.731   5.699  -0.512  0.0156  0.0864 -0.6945
    4CHTO   O25 1589   6.596   5.679  -0.481  0.1921  0.6692  0.5788
    4CHTO   H40 1590   6.582   5.636  -0.399  1.5556 -1.6411 -0.3607
    4CHTO   O15 1591   6.827   5.772  -0.027 -0.0419 -0.0365 -0.2054
    4CHTO   C19 1592   6.913   5.752   0.092  0.2540  0.1676 -0.0265
    4CHTO   H47 1593   6.847   5.686   0.150 -0.5161  2.6809  2.0573
    4CHTO   C20 1594   7.049   5.684   0.073 -0.2848 -0.1341 -0.4390
    4CHTO   H48 1595   7.112   5.735  -0.002 -2.4693 -0.1856 -2.3544
    4CHTO   O19 1596   7.009   5.551   0.030 -0.1516 -0.4735  0.2602
    4CHTO   H35 1597   7.088   5.507   0.009  0.6143  1.5952 -1.4417
    4CHTO   C21 1598   7.134   5.674   0.206 -0.4460 -0.0667 -0.3802
    4CHTO   H49 1599   7.093   5.596   0.270 -1.4131  0.9645  0.2632
    4CHTO    N4 1600   7.270   5.621   0.182 -0.0261  0.0146  0.1364
    4CHTO   H41 1601   7.261   5.537   0.114  0.1012  0.8074 -0.8795
    4CHTO   H42 1602   7.313   5.580   0.272  0.2512 -2.4056 -1.0498
    4CHTO   C22 1603   7.130   5.810   0.272  0.0098 -0.3337 -0.4372
    4CHTO   H50 1604   7.177   5.887   0.211 -1.4409  2.3809  1.7621
    4CHTO   O14 1605   6.999   5.847   0.303  0.1254 -0.6113  0.4305
    4CHTO   C23 1606   6.924   5.881   0.182 -0.1028 -0.1168  0.2704
    4CHTO   H51 1607   6.982   5.957   0.129  0.9179 -1.4736 -0.5982
    4CHTO   C34 1608   6.778   5.922   0.218 -0.3339  0.2703 -0.6438
    4CHTO   O23 1609   6.771   6.047   0.290  0.2187  0.4442 -0.0207
    4CHTO   H38 1610   6.802   6.117   0.236 -0.9658  0.8594 -0.1915
    4CHTO   O16 1611   7.211   5.802   0.396 -0.4352  0.3199  0.7222
    4CHTO   C24 1612   7.302   5.916   0.436  0.3659 -0.2481 -0.6353
    4CHTO   H52 1613   7.279   6.008   0.381 -0.3392 -0.3791 -0.5641
    4CHTO   C26 1614   7.454   5.883   0.405  0.8745  0.6297 -0.0424
    4CHTO   H54 1615   7.479   5.783   0.447 -0.6515 -0.0927 -0.8050
    4CHTO   O20 1616   7.461   5.883   0.258 -0.0280  0.0022 -0.4111
    4CHTO   H36 1617   7.544   5.904   0.221  0.4208 -1.4917 -0.3043
    4CHTO   C30 1618   7.544   5.994   0.454  0.3043 -0.2828  0.4590
    4CHTO   H58 1619   7.512   6.091   0.413  1.1315 -0.3954 -0.4699
    4CHTO    N6 1620   7.689   5.975   0.425 -0.1206  0.0153  0.0984
    4CHTO   H45 1621   7.746   6.009   0.510  0.3542  0.4428 -0.3819
    4CHTO   H46 1622   7.725   6.033   0.341  0.2818 -1.1692 -0.5585
    4CHTO   C33 1623   7.513   6.014   0.608 -0.1814 -0.1733  0.4363
    4CHTO   H61 1624   7.522   5.914   0.651 -0.5289  0.4786  2.0479
    4CHTO   O18 1625   7.372   6.058   0.618 -0.2794  0.4566 -0.0465
    4CHTO   C28 1626   7.283   5.946   0.585  0.4735  0.0227  0.0550
    4CHTO   H56 1627   7.313   5.861   0.646  1.8045  0.7534  0.4536
    4CHTO   C35 1628   7.136   5.986   0.607 -0.6069 -0.7732 -0.0752
    4CHTO   O24 1629   7.103   6.025   0.742  0.1191  0.0172  0.2249
    4CHTO   H39 1630   7.011   6.018   0.757  0.2854 -1.5766  0.6405
    4CHTO    O9 1631   7.599   6.102   0.682  0.0706  0.0570 -0.4313
    4CHTO   C13 1632   7.609   6.068   0.848  0.1103 -0.1949  0.4299
    4CHTO   H26 1633   7.682   5.984   0.856  2.1932  1.5136 -0.2572
    4CHTO   C11 1634   7.476   6.033   0.914  0.1824 -0.3627 -0.1038
    4CHTO   H24 1635   7.438   5.948   0.855  0.7449 -0.4915 -0.2849
    4CHTO    O8 1636   7.392   6.150   0.899  0.0301  0.7407 -0.4681
    4CHTO    H3 1637   7.326   6.139   0.833 -1.4907 -1.6507  1.3611
    4CHTO    C9 1638   7.507   5.996   1.065 -0.5764  0.7763  1.0779
    4CHTO   H22 1639   7.564   5.902   1.059 -0.2931  1.0262 -0.2601
    4CHTO    N2 1640   7.387   5.938   1.135 -0.1725 -0.2468  0.3547
    4CHTO   H10 1641   7.334   5.862   1.078 -0.6616  0.7560 -0.5375
    4CHTO   H11 1642   7.330   6.025   1.163  0.5563  0.2446  0.3151
    4CHTO    C7 1643   7.584   6.113   1.141  0.0351 -0.0232 -0.3763
    4CHTO   H20 1644   7.683   6.070   1.168  0.1800  1.0238  0.8073
    4CHTO    O4 1645   7.613   6.221   1.050  0.0163  0.0619 -0.6486
    4CHTO   C14 1646   7.679   6.186   0.930  0.3190 -0.0135 -0.8466
    4CHTO   H27 1647   7.783   6.156   0.954 -0.0542 -2.0587 -1.7264
    4CHTO   C18 1648   7.692   6.321   0.847 -0.1918  0.5035 -0.4062
    4CHTO   O13 1649   7.794   6.405   0.895 -0.5252 -0.3392 -0.3704
    4CHTO    H7 1650   7.849   6.447   0.831  1.5130  0.3068  1.7355
    4CHTO    O2 1651   7.510   6.178   1.286 -0.0371 -0.1989  0.1728
    4CHTO    C1 1652   7.590   6.155   1.401 -0.3578 -0.3193  0.7684
    4CHTO   H14 1653   7.689   6.118   1.368 -0.2800  1.1903 -0.7805
    4CHTO    C2 1654   7.521   6.045   1.503 -0.2173  0.1043 -0.0104
    4CHTO   H15 1655   7.413   6.067   1.503 -0.4142 -0.8720  0.5847
    4CHTO    O6 1656   7.547   5.915   1.458 -0.1511 -0.1710 -0.1748
    4CHTO    H1 1657   7.638   5.904   1.437  0.5587  1.2111  1.9885
    4CHTO    C3 1658   7.584   6.058   1.646  0.1541  0.2276 -0.7141
    4CHTO   H16 1659   7.684   6.012   1.640  0.3985  0.5864  0.4810
    4CHTO    N1 1660   7.508   5.979   1.744 -0.1104 -0.1981 -0.5019
    4CHTO    H8 1661   7.402   5.988   1.726 -0.6148 -1.4508  1.6244
    4CHTO    H9 1662   7.530   6.011   1.845 -0.2503  1.1172 -0.8862
    4CHTO    C4 1663   7.600   6.204   1.692 -0.4866  0.3823  0.2853
    4CHTO   H17 1664   7.501   6.247   1.710 -0.9051  0.1085 -1.3227
    4CHTO    O1 1665   7.665   6.288   1.594  0.2510  0.1430  0.4856
    4CHTO    C5 1666   7.599   6.297   1.466  0.3260  0.2066  0.2938
    4CHTO   H18 1667   7.496   6.333   1.466 -0.2222 -1.3075  0.5221
    4CHTO   C16 1668   7.693   6.394   1.381 -0.0926  0.1582 -0.0518
    4CHTO   O11 1669   7.680   6.534   1.422  0.1187 -0.1540 -0.4131
    4CHTO    H5 1670   7.763   6.576   1.408  0.6698 -0.9049  0.5670
    4CHTO    O3 1671   7.682   6.218   1.806  0.1920 -0.1014 -0.2762
    4CHTO    C6 1672   7.667   6.330   1.900 -0.4680  0.4362 -0.5269
    4CHTO   H19 1673   7.598   6.408   1.869 -1.2991  0.2296  0.7472
    4CHTO    C8 1674   7.632   6.277   2.046  0.0686  0.2315 -0.3146
    4CHTO   H21 1675   7.705   6.200   2.067 -2.4393 -1.9708  0.6318
    4CHTO    O7 1676   7.502   6.217   2.033 -0.3524  0.7616  0.1469
    4CHTO    H2 1677   7.501   6.132   1.994 -2.3576  0.2975  1.1625
    4CHTO   C12 1678   7.636   6.389   2.159 -0.0960  0.5590 -0.7276
    4CHTO   H25 1679   7.550   6.457   2.141  1.0880  2.3168  0.1097
    4CHTO    N3 1680   7.629   6.322   2.289 -0.4671  0.8691  0.0368
    4CHTO   H12 1681   7.626   6.399   2.366 -0.8502  1.2142 -0.3228
    4CHTO   H13 1682   7.709   6.255   2.313 -0.5562  1.0043  0.7311
    4CHTO   C15 1683   7.768   6.473   2.147  0.9315  0.1189  0.0373
    4CHTO   H28 1684   7.860   6.425   2.180 -1.3938 -4.2859  0.6522
    4CHTO   O10 1685   7.752   6.609   2.203 -0.4813  0.5323  0.0488
    4CHTO    H4 1686   7.662   6.624   2.224 -0.6897  0.8146 -0.9951
    4CHTO    O5 1687   7.799   6.510   2.013  0.0480 -0.2552  0.3046
    4CHTO   C10 1688   7.800   6.398   1.922 -0.0637 -0.7433  0.3870
    4CHTO   H23 1689   7.881   6.333   1.955  1.5596  0.5400 -0.9608
    4CHTO   C17 1690   7.844   6.456   1.785 -0.1685  0.2479 -0.4086
    4CHTO   O12 1691   7.990   6.475   1.790  0.1877  0.3960  0.2204
    4CHTO    H6 1692   8.030   6.406   1.838  0.0477  0.7347  0.8385
    5CHTO  H203 1693   7.556   3.492   2.539 -0.2645  1.2279  0.4793
    5CHTO   O82 1694   7.488   3.488   2.603 -0.4608 -0.0561  0.2019
    5CHTO  C123 1695   7.517   3.541   2.731 -0.4810 -0.0533 -0.3741
    5CHTO  H227 1696   7.619   3.582   2.727 -0.3238 -0.4818 -0.7342
    5CHTO   O77 1697   7.409   3.642   2.743 -0.6675 -0.6138 -0.0713
    5CHTO  C118 1698   7.403   3.711   2.868  0.4403  0.7504  0.1082
    5CHTO  H222 1699   7.499   3.763   2.885 -0.0114  2.2852 -1.7839
    5CHTO  C125 1700   7.291   3.820   2.849 -0.0134 -0.0263 -0.5233
    5CHTO   O84 1701   7.159   3.767   2.837 -0.0114  0.1371 -0.3828
    5CHTO  H205 1702   7.108   3.805   2.768  0.5715  1.1174 -0.2827
    5CHTO  C114 1703   7.374   3.609   2.980 -0.3444 -0.2121 -0.3909
    5CHTO  H218 1704   7.278   3.563   2.957  0.5613 -1.2473 -2.2281
    5CHTO  C116 1705   7.486   3.498   2.984 -0.3033 -0.4760  0.3008
    5CHTO  H220 1706   7.585   3.534   3.018 -0.2271 -1.6575  1.3544
    5CHTO   O79 1707   7.441   3.405   3.085 -0.5522 -0.0584  0.4059
    5CHTO  H201 1708   7.510   3.344   3.100 -0.6971 -0.2150  0.4329
    5CHTO  C120 1709   7.507   3.434   2.845 -0.2447  0.2153  0.9717
    5CHTO  H224 1710   7.416   3.374   2.827 -0.1816  0.1948  0.7240
    5CHTO   N21 1711   7.618   3.336   2.839  0.5258  0.4667 -0.0062
    5CHTO  H211 1712   7.593   3.246   2.893  0.1956 -0.2251 -1.2789
    5CHTO  H212 1713   7.644   3.314   2.736 -0.6016 -0.3914 -0.1207
    5CHTO   O75 1714   7.370   3.680   3.106  0.4173 -0.0358  0.0468
    5CHTO  C112 1715   7.233   3.660   3.186 -0.0044 -0.2044  0.4863
    5CHTO  H216 1716   7.201   3.557   3.166 -0.8865  0.0745  0.4067
    5CHTO   O73 1717   7.135   3.757   3.138 -0.2402  0.1113 -0.5987
    5CHTO  C113 1718   7.010   3.762   3.202  0.7285 -0.9141 -0.7738
    5CHTO  H217 1719   6.965   3.661   3.196 -0.9819 -0.2153 -0.2253
    5CHTO  C124 1720   6.922   3.862   3.125  0.6398  0.0486 -0.5961
    5CHTO   O83 1721   6.790   3.880   3.183 -0.0313 -0.4548  0.2934
    5CHTO  H204 1722   6.748   3.939   3.124  1.7494  0.3101 -0.2408
    5CHTO  C109 1723   7.036   3.801   3.351  1.1327 -0.3416  0.0308
    5CHTO  H213 1724   7.085   3.900   3.352 -1.9264  1.2622 -0.0504
    5CHTO  C110 1725   7.129   3.702   3.414  0.1193  0.2595 -0.8024
    5CHTO  H214 1726   7.075   3.607   3.424 -0.3793  0.5050 -1.1626
    5CHTO   O78 1727   7.162   3.743   3.550  0.2360  0.2871  0.7970
    5CHTO  H200 1728   7.099   3.800   3.590  0.7288  1.8551 -0.6191
    5CHTO  C111 1729   7.258   3.673   3.337 -0.1649 -0.7194  0.3304
    5CHTO  H215 1730   7.328   3.758   3.348  1.0577 -1.7985  1.1306
    5CHTO   N19 1731   7.332   3.557   3.398 -0.3472  0.3449  0.0157
    5CHTO  H207 1732   7.293   3.538   3.497  0.4158 -0.1359  0.2245
    5CHTO  H208 1733   7.437   3.580   3.396 -0.5577  1.2351 -1.9605
    5CHTO   O74 1734   6.908   3.814   3.428 -0.0588 -0.3650  0.2920
    5CHTO  C115 1735   6.902   3.928   3.533  0.1220  0.8423 -0.4721
    5CHTO  H219 1736   6.957   3.897   3.622  0.6834 -2.3671 -1.8562
    5CHTO   O76 1737   6.986   4.070   3.481 -0.2854  0.4414  0.1241
    5CHTO  C122 1738   6.912   4.142   3.383 -0.0180 -0.2650 -0.1560
    5CHTO  H226 1739   6.918   4.093   3.286 -2.8244 -0.2973 -0.3804
    5CHTO  C126 1740   6.988   4.281   3.365  0.3157  0.1639 -0.3660
    5CHTO   O85 1741   6.958   4.348   3.244 -0.5356  0.2756 -0.2465
    5CHTO  H206 1742   6.888   4.410   3.253 -1.9095 -1.2842  0.0336
    5CHTO  C121 1743   6.764   4.174   3.427  0.3069  0.4361 -0.4789
    5CHTO  H225 1744   6.744   4.283   3.426 -0.5222  0.2940 -2.1527
    5CHTO   O81 1745   6.675   4.109   3.334  0.0406 -0.2728 -0.1249
    5CHTO  H202 1746   6.586   4.136   3.343 -0.6296 -1.8866 -1.5864
    5CHTO  C119 1747   6.728   4.116   3.574 -0.9442  0.0084  0.2736
    5CHTO  H223 1748   6.798   4.156   3.647 -0.0533 -1.0258 -0.0147
    5CHTO  C117 1749   6.750   3.965   3.566  0.1954  0.5150  0.5065
    5CHTO  H221 1750   6.698   3.908   3.489  1.8345 -0.6457  0.2278
    5CHTO   N20 1751   6.708   3.897   3.694  0.2644 -0.5193 -0.2001
    5CHTO  H209 1752   6.690   3.791   3.687  0.3962 -0.6143  0.7861
    5CHTO  H210 1753   6.613   3.933   3.729 -0.5126 -3.2569  0.6660
    5CHTO   O80 1754   6.588   4.174   3.623 -0.0564 -0.1601 -0.4486
    5CHTO  C103 1755   6.433   4.144   3.525  0.9875 -0.2121 -0.1736
    5CHTO  H190 1756   6.460   4.181   3.427 -0.0610  1.4641  0.1479
    5CHTO  C101 1757   6.371   3.989   3.518  0.4373 -0.0901  0.3892
    5CHTO  H188 1758   6.377   3.952   3.621 -0.4404 -1.5568 -0.0607
    5CHTO   O68 1759   6.440   3.894   3.421 -0.5014 -0.6153 -0.1800
    5CHTO  H168 1760   6.533   3.911   3.426 -0.7199  0.0997  2.0546
    5CHTO   C99 1761   6.214   3.989   3.487 -0.9841 -0.4452  0.4540
    5CHTO  H186 1762   6.216   4.009   3.377  1.3564  0.2281  0.5809
    5CHTO   N17 1763   6.156   3.855   3.506  0.5298 -0.2532 -0.0100
    5CHTO  H174 1764   6.064   3.863   3.563  0.3051 -1.1330 -0.2233
    5CHTO  H175 1765   6.129   3.821   3.407 -1.4823 -0.0814  0.4593
    5CHTO   C97 1766   6.140   4.106   3.562 -0.8738  0.0282  0.0395
    5CHTO  H184 1767   6.150   4.085   3.669 -1.7674  0.2480  0.1717
    5CHTO   O64 1768   6.203   4.231   3.524 -0.1861  0.1155  0.3890
    5CHTO  C104 1769   6.329   4.246   3.579 -0.6514  0.2441 -0.0754
    5CHTO  H191 1770   6.326   4.244   3.688 -2.1457  0.2562 -0.0984
    5CHTO  C108 1771   6.370   4.395   3.543 -0.1669  0.9513  0.6620
    5CHTO   O71 1772   6.322   4.474   3.647  0.3378 -0.4357 -0.2984
    5CHTO  H171 1773   6.329   4.562   3.618  0.0149 -1.1473 -2.6179
    5CHTO   O62 1774   5.998   4.111   3.556  0.4104  0.2700  0.0445
    5CHTO   C91 1775   5.921   4.150   3.435  0.0686  0.2611  0.3966
    5CHTO  H178 1776   5.954   4.251   3.412  0.0924  0.6585  2.1082
    5CHTO   C92 1777   5.764   4.156   3.483 -0.2365  0.3173 -0.1253
    5CHTO  H179 1778   5.760   4.208   3.580 -0.3809  0.2977 -0.1201
    5CHTO   O66 1779   5.703   4.252   3.392  0.0496  0.1055 -0.0608
    5CHTO  H166 1780   5.613   4.255   3.416  0.0416 -0.5128 -0.0073
    5CHTO   C93 1781   5.692   4.017   3.474  1.1585 -0.8245 -0.2088
    5CHTO  H180 1782   5.584   4.019   3.456  1.2248 -0.2988 -0.5263
    5CHTO   N16 1783   5.695   3.947   3.605 -0.9420 -0.0991  0.5958
    5CHTO  H172 1784   5.800   3.933   3.626 -0.2402 -0.8175 -3.0342
    5CHTO  H173 1785   5.648   4.019   3.670 -0.1626  1.9344 -1.0442
    5CHTO   C94 1786   5.751   3.921   3.363  0.1307 -0.7121  0.3496
    5CHTO  H181 1787   5.832   3.860   3.404  0.7820  0.6468  1.1011
    5CHTO   O61 1788   5.810   4.005   3.259 -0.8806  0.2274  0.3874
    5CHTO   C95 1789   5.935   4.064   3.303 -0.5287 -0.8049 -0.3025
    5CHTO  H182 1790   6.011   3.988   3.322  1.0034  1.0401  1.2066
    5CHTO  C106 1791   5.991   4.154   3.186 -0.2891  0.0462 -0.0763
    5CHTO   O69 1792   6.015   4.061   3.080 -0.0655 -0.8475  0.4696
    5CHTO  H169 1793   6.097   4.019   3.093  0.1460  0.0421  2.1531
    5CHTO   O63 1794   5.648   3.832   3.304  0.3260 -0.4995  0.4273
    5CHTO   C96 1795   5.686   3.771   3.162  0.3229  0.1690 -0.1611
    5CHTO  H183 1796   5.743   3.846   3.108  0.8619  1.2757  1.9021
    5CHTO   C98 1797   5.560   3.741   3.066 -0.2656  0.4580 -0.1113
    5CHTO  H185 1798   5.485   3.821   3.074 -0.3812  0.2784  0.5655
    5CHTO   O67 1799   5.616   3.741   2.936  0.0281  0.3689  0.0679
    5CHTO  H167 1800   5.547   3.746   2.872 -1.7848 -0.4224  1.8947
    5CHTO  C102 1801   5.505   3.601   3.090 -0.5216 -0.5126 -0.1922
    5CHTO  H189 1802   5.431   3.584   3.010 -0.1331  1.8321 -1.0591
    5CHTO   N18 1803   5.432   3.571   3.219  0.0239  0.1071  0.4725
    5CHTO  H176 1804   5.508   3.554   3.294 -0.1997 -1.5512  0.3428
    5CHTO  H177 1805   5.366   3.653   3.240  0.0704  0.3841 -0.4367
    5CHTO  C105 1806   5.621   3.491   3.079  0.8817  0.1938  0.9208
    5CHTO  H192 1807   5.603   3.413   3.153 -2.3143  0.6896  0.7122
    5CHTO   O65 1808   5.753   3.538   3.103 -0.6323 -0.0873 -0.3041
    5CHTO  C100 1809   5.774   3.645   3.191 -0.1744 -0.7540  0.0337
    5CHTO  H187 1810   5.746   3.607   3.290 -0.5071 -0.4069  0.0739
    5CHTO  C107 1811   5.920   3.692   3.200  0.2473  0.4364  0.0500
    5CHTO   O70 1812   5.989   3.602   3.288  0.1104 -0.7553  0.4386
    5CHTO  H170 1813   6.081   3.619   3.290  0.0450 -0.4976  1.2870
    5CHTO   O57 1814   5.607   3.438   2.921 -0.1948 -0.1042 -0.3536
    5CHTO   C85 1815   5.542   3.317   2.878 -0.0548 -0.3850 -0.3877
    5CHTO  H157 1816   5.440   3.318   2.920 -0.1083 -0.2846 -0.5194
    5CHTO   C83 1817   5.606   3.181   2.935  0.0793 -0.5018 -0.2197
    5CHTO  H155 1818   5.598   3.175   3.043  0.9132  0.2417 -0.1106
    5CHTO   O56 1819   5.748   3.168   2.911  0.7108  0.0626  0.6239
    5CHTO  H135 1820   5.763   3.085   2.871  1.0966 -0.1236  1.1481
    5CHTO   C81 1821   5.523   3.061   2.876  0.2806  0.1899  0.4138
    5CHTO  H153 1822   5.419   3.082   2.902 -0.2679 -1.1282 -0.6830
    5CHTO   N14 1823   5.552   2.931   2.947 -0.1222 -0.0543  0.0029
    5CHTO  H141 1824   5.651   2.909   2.981 -0.5010  0.3489  1.4025
    5CHTO  H142 1825   5.486   2.924   3.030  0.7975  0.3338  0.7806
    5CHTO   C79 1826   5.532   3.060   2.724  0.3589 -0.3525  0.3697
    5CHTO  H151 1827   5.481   2.972   2.687 -0.3142  0.6108 -1.0207
    5CHTO   O52 1828   5.470   3.186   2.675 -0.1697  0.6833  0.3991
    5CHTO   C86 1829   5.540   3.305   2.724  0.2476  0.6782  0.6175
    5CHTO  H158 1830   5.641   3.288   2.683  0.1288  0.7047  0.3137
    5CHTO   C90 1831   5.482   3.433   2.656 -0.5543  0.0220  0.9674
    5CHTO   O60 1832   5.548   3.559   2.680 -0.5850  0.0308  0.2412
    5CHTO  H138 1833   5.512   3.598   2.758 -0.4398  0.5895  0.0311
    5CHTO   O50 1834   5.668   3.050   2.679 -0.2330 -0.3573  0.2139
    5CHTO   C73 1835   5.758   3.011   2.574  0.0296  0.6321 -0.3893
    5CHTO  H145 1836   5.709   2.994   2.477 -0.2115  2.4699 -0.5995
    5CHTO   C74 1837   5.827   2.875   2.620 -0.4755  0.6847  0.6586
    5CHTO  H146 1838   5.752   2.797   2.635 -1.3709  1.6772  1.4271
    5CHTO   O54 1839   5.898   2.829   2.503 -0.0832 -0.0699 -0.5232
    5CHTO  H133 1840   5.940   2.750   2.528  0.3979  0.1909 -0.4987
    5CHTO   C75 1841   5.915   2.901   2.748 -0.0201 -0.1811  0.7517
    5CHTO  H147 1842   5.850   2.936   2.830 -1.4425  2.7662 -1.5560
    5CHTO   N13 1843   5.994   2.780   2.789 -0.1455 -0.6364  0.4438
    5CHTO  H139 1844   5.941   2.713   2.854 -1.2066 -0.6191 -0.3834
    5CHTO  H140 1845   6.015   2.721   2.700 -0.5466 -0.3538  0.1612
    5CHTO   C76 1846   6.019   3.018   2.725 -0.0346  0.3191 -0.0186
    5CHTO  H148 1847   6.090   3.004   2.643  2.2094  2.1842  1.5312
    5CHTO   O49 1848   5.949   3.142   2.672 -0.1985  0.2233 -0.8675
    5CHTO   C77 1849   5.871   3.114   2.552 -0.0133 -0.3513 -0.5028
    5CHTO  H149 1850   5.941   3.075   2.478  0.0150  0.6077 -0.9903
    5CHTO   C88 1851   5.823   3.246   2.493 -0.7288 -0.0947  0.0907
    5CHTO   O58 1852   5.732   3.218   2.349 -0.2228 -0.5669 -0.0196
    5CHTO  H136 1853   5.691   3.298   2.321 -0.3055 -0.3538  0.6945
    5CHTO   O51 1854   6.091   3.064   2.863  0.1019  0.1989 -0.1052
    5CHTO   C78 1855   6.215   3.141   2.853 -0.2700 -0.6867 -0.5204
    5CHTO  H150 1856   6.213   3.218   2.772  0.5464  0.0647  0.1669
    5CHTO   C80 1857   6.343   3.048   2.862 -0.1325  0.5588 -1.1407
    5CHTO  H152 1858   6.337   2.984   2.952 -2.1703  1.5622 -0.5323
    5CHTO   O55 1859   6.339   2.960   2.746 -0.0441 -0.3624  0.9886
    5CHTO  H134 1860   6.396   2.997   2.681 -3.1713  0.7981 -1.1619
    5CHTO   C84 1861   6.475   3.135   2.877 -0.4345  0.3072  0.4650
    5CHTO  H156 1862   6.494   3.200   2.791 -0.9788 -2.1269 -1.5160
    5CHTO   N15 1863   6.599   3.050   2.882 -0.1530 -0.6263 -0.0741
    5CHTO  H143 1864   6.603   2.984   2.798  1.1335  1.0978 -1.3858
    5CHTO  H144 1865   6.696   3.095   2.890 -0.4706 -0.1894  1.4684
    5CHTO   C87 1866   6.460   3.230   3.000  0.4298 -0.3185  0.2501
    5CHTO  H159 1867   6.443   3.181   3.096 -1.6335 -1.7771 -0.8279
    5CHTO   O53 1868   6.347   3.323   2.972 -0.4686 -0.2192 -0.1581
    5CHTO   C82 1869   6.217   3.246   2.971  0.5573 -0.4145 -0.0309
    5CHTO  H154 1870   6.208   3.210   3.074 -2.7187  2.3611  0.7484
    5CHTO   C89 1871   6.106   3.361   2.963 -0.3063 -0.3206  0.3994
    5CHTO   O59 1872   5.971   3.321   2.981 -0.4713  0.4911 -0.1782
    5CHTO  H137 1873   5.917   3.394   3.003  1.5106  1.3257  2.1788
    5CHTO   O45 1874   6.592   3.336   3.029 -0.3885 -0.0014 -0.2573
    5CHTO   C67 1875   6.593   3.391   3.160 -0.2088  0.5751 -0.1793
    5CHTO  H124 1876   6.494   3.388   3.206 -0.3159 -0.2190 -0.4471
    5CHTO   C65 1877   6.690   3.309   3.249  0.2058 -0.5208 -0.0950
    5CHTO  H122 1878   6.755   3.255   3.181 -1.0331 -1.3136 -0.6604
    5CHTO   O44 1879   6.611   3.213   3.328 -0.5294 -0.3602 -0.2387
    5CHTO  H102 1880   6.662   3.141   3.361  0.5798 -0.8634 -2.9152
    5CHTO   C63 1881   6.789   3.396   3.329 -0.4858 -0.4114 -0.3552
    5CHTO  H120 1882   6.856   3.438   3.254  0.0996  2.1645  1.5553
    5CHTO   N11 1883   6.880   3.331   3.426 -0.4762  0.7285 -0.2219
    5CHTO  H108 1884   6.946   3.263   3.376  0.5844  0.6926  1.1909
    5CHTO  H109 1885   6.837   3.296   3.517 -0.3909 -0.0179 -0.4669
    5CHTO   C61 1886   6.706   3.517   3.396  0.0256  0.6767 -0.4291
    5CHTO  H118 1887   6.779   3.580   3.449 -0.3448  0.8442 -0.1166
    5CHTO   O40 1888   6.638   3.604   3.292  0.0891  0.4784 -0.2083
    5CHTO   C68 1889   6.626   3.546   3.154  0.4110  0.4169  0.5519
    5CHTO  H125 1890   6.728   3.565   3.114 -0.1780 -1.9732 -2.2278
    5CHTO   C72 1891   6.529   3.625   3.071  0.2519  0.4633 -0.2057
    5CHTO   O48 1892   6.395   3.593   3.109  0.5764 -0.2684 -0.4720
    5CHTO  H105 1893   6.334   3.644   3.059 -0.3202 -1.0271 -0.1832
    5CHTO   O38 1894   6.608   3.454   3.488  0.4074  0.3863 -0.1344
    5CHTO   C55 1895   6.537   3.537   3.580 -0.0899  0.5469 -0.7957
    5CHTO  H112 1896   6.539   3.643   3.549  2.6576  1.1099  1.0883
    5CHTO   C56 1897   6.588   3.519   3.731 -0.5260 -0.3562  0.6435
    5CHTO  H113 1898   6.592   3.411   3.753  1.2159 -0.5135 -0.3946
    5CHTO   O42 1899   6.726   3.560   3.735 -0.3267  0.3071 -0.2093
    5CHTO  H100 1900   6.740   3.622   3.666  3.8781  0.8959  1.0375
    5CHTO   C57 1901   6.496   3.596   3.835 -0.3654 -0.3808 -1.0360
    5CHTO  H114 1902   6.523   3.697   3.805  0.4697  0.3185  1.9238
    5CHTO   N10 1903   6.530   3.570   3.975  0.3474 -0.1205 -0.7961
    5CHTO  H106 1904   6.629   3.549   4.013 -0.5359 -1.1752  0.9698
    5CHTO  H107 1905   6.461   3.508   4.029  0.8827 -1.3473 -1.4831
    5CHTO   C58 1906   6.347   3.575   3.809  0.2886  0.0027 -0.2211
    5CHTO  H115 1907   6.319   3.473   3.843  2.4085 -0.1441  1.1568
    5CHTO   O37 1908   6.317   3.590   3.671 -0.1118  0.0606  0.1143
    5CHTO   C59 1909   6.384   3.493   3.584 -0.5228 -0.1682 -0.3681
    5CHTO  H116 1910   6.384   3.393   3.628 -1.5343  1.2392  2.9518
    5CHTO   C70 1911   6.330   3.488   3.443 -0.0825  0.0681 -0.1755
    5CHTO   O46 1912   6.209   3.419   3.433 -0.6672 -0.2325  1.0497
    5CHTO  H103 1913   6.134   3.474   3.449  1.1035  1.8920  2.2777
    5CHTO   O39 1914   6.253   3.687   3.903  0.2041  0.4432 -0.5625
    5CHTO   C60 1915   6.106   3.708   3.881 -0.4034  0.7720 -0.1478
    5CHTO  H117 1916   6.091   3.808   3.841 -1.3527  0.7431  0.1262
    5CHTO   C62 1917   6.036   3.601   3.794 -0.6619 -0.0983  0.5359
    5CHTO  H119 1918   6.097   3.600   3.701 -1.2694  1.0808  0.1166
    5CHTO   O43 1919   6.053   3.475   3.863 -0.1042 -0.3788 -0.4963
    5CHTO  H101 1920   6.142   3.445   3.871  0.8053  2.1504 -0.6907
    5CHTO   C66 1921   5.889   3.644   3.771  0.0043 -0.3965  0.2715
    5CHTO  H123 1922   5.885   3.750   3.744 -0.2543 -0.7426 -1.0813
    5CHTO   N12 1923   5.823   3.561   3.668 -0.8919 -0.5305  0.3686
    5CHTO  H110 1924   5.742   3.504   3.711 -1.6490  0.4026  0.1905
    5CHTO  H111 1925   5.781   3.636   3.603  1.1130 -0.6513 -1.1166
    5CHTO   C69 1926   5.824   3.645   3.909 -0.2643 -0.6301 -0.2996
    5CHTO  H126 1927   5.839   3.545   3.955  0.4295 -0.7378 -0.7596
    5CHTO   O41 1928   5.891   3.751   4.000  0.1132  0.0297  0.2683
    5CHTO   C64 1929   6.048   3.719   4.032  0.4784  0.7171  0.2837
    5CHTO  H121 1930   6.052   3.619   4.080  0.9674 -0.5941 -2.3828
    5CHTO   C71 1931   6.114   3.826   4.118 -0.5989 -0.4819 -0.2083
    5CHTO   O47 1932   6.068   3.951   4.065 -0.0128 -0.3130  0.6045
    5CHTO  H104 1933   5.999   3.976   4.123 -1.3397  0.0454 -1.0764
    5CHTO   O34 1934   5.678   3.686   3.894 -0.0207  0.0062 -0.2121
    5CHTO   C49 1935   5.560   3.606   3.931  0.1241 -0.3995  0.1662
    5CHTO   H91 1936   5.588   3.501   3.928 -1.5955 -0.8917  0.5110
    5CHTO   C47 1937   5.462   3.647   3.817  0.5403  0.0586 -0.2934
    5CHTO   H89 1938   5.372   3.586   3.840  0.4937  0.8753  1.7376
    5CHTO   O33 1939   5.516   3.608   3.685  0.0249  0.5945  0.4717
    5CHTO   H70 1940   5.477   3.528   3.657  1.8263  0.3293 -1.4580
    5CHTO   C45 1941   5.421   3.800   3.838 -0.0497 -0.3441  0.5434
    5CHTO   H87 1942   5.513   3.859   3.851  1.8877 -2.5007 -2.7728
    5CHTO    N8 1943   5.348   3.866   3.733 -0.8619  0.2313 -0.3707
    5CHTO   H75 1944   5.309   3.785   3.673  0.0560 -0.6950  0.2713
    5CHTO   H76 1945   5.260   3.916   3.771  0.1619  1.4882  0.3635
    5CHTO   C43 1946   5.345   3.809   3.983 -0.1240 -0.4666  0.1659
    5CHTO   H85 1947   5.315   3.912   3.996  0.2724 -0.4062  0.6099
    5CHTO   O29 1948   5.422   3.753   4.088  0.1167 -0.3825 -0.0760
    5CHTO   C50 1949   5.502   3.637   4.069  0.1146  0.6969 -0.9130
    5CHTO   H92 1950   5.590   3.654   4.133 -2.5137 -1.1229  3.3892
    5CHTO   C54 1951   5.443   3.511   4.136 -0.3717 -0.3386 -0.3634
    5CHTO   O36 1952   5.418   3.522   4.275 -0.2605 -0.0180  0.1756
    5CHTO   H72 1953   5.344   3.577   4.291  1.4278  1.4129  3.8140
    5CHTO   O27 1954   5.222   3.725   3.974 -0.3641  0.3180  0.1721
    5CHTO   C37 1955   5.090   3.677   3.999  0.3546  0.1491 -0.4475
    5CHTO   H79 1956   5.016   3.748   3.958  0.0573 -0.1119 -0.3689
    5CHTO   C38 1957   5.064   3.539   3.944 -0.0081 -0.0424  0.5923
    5CHTO   H80 1958   5.127   3.464   3.993 -0.0047  0.0028  0.6576
    5CHTO   O31 1959   5.105   3.547   3.801  0.1545 -0.3671 -0.3604
    5CHTO   H68 1960   5.189   3.507   3.797  2.0265  3.0710  2.2469
    5CHTO   C39 1961   4.917   3.505   3.978  0.0998 -0.0658  0.1402
    5CHTO   H81 1962   4.852   3.581   3.935 -0.7829 -0.4203  0.8344
    5CHTO    N7 1963   4.867   3.386   3.912 -0.0103  0.2095  0.1274
    5CHTO   H73 1964   4.880   3.395   3.805 -1.6574 -2.3940 -0.3481
    5CHTO   H74 1965   4.759   3.380   3.918 -0.0008  0.3859  0.4857
    5CHTO   C40 1966   4.887   3.505   4.129 -0.7456 -0.1679 -0.1336
    5CHTO   H82 1967   4.956   3.430   4.170 -0.9517 -1.1233 -1.4993
    5CHTO   O26 1968   4.928   3.635   4.167 -0.0758  0.2431  0.6983
    5CHTO   C41 1969   5.063   3.669   4.152 -0.5876  0.8546  0.6110
    5CHTO   H83 1970   5.128   3.596   4.202  1.7799  3.6816  1.7769
    5CHTO   C52 1971   5.089   3.797   4.221  0.3853 -0.8564  0.0503
    5CHTO   O35 1972   5.062   3.796   4.358  0.2872 -0.3755 -0.1322
    5CHTO   H71 1973   5.118   3.865   4.390  0.3755 -1.1915  1.5478
    5CHTO   O28 1974   4.748   3.486   4.165 -0.5803  0.0301 -0.4158
    5CHTO   C42 1975   4.706   3.474   4.311 -0.0790  0.2166  0.7387
    5CHTO   H84 1976   4.603   3.438   4.302 -0.1085  0.1595  1.2879
    5CHTO   C44 1977   4.701   3.604   4.392  0.5247 -0.3422 -0.4378
    5CHTO   H86 1978   4.789   3.666   4.373 -0.6273  1.8055  1.0291
    5CHTO   O32 1979   4.598   3.696   4.342 -0.1457  0.1295 -0.1433
    5CHTO   H69 1980   4.532   3.644   4.300  0.9956 -0.5945 -1.0890
    5CHTO   C48 1981   4.697   3.578   4.555 -0.2081 -0.0352  0.0679
    5CHTO   H90 1982   4.598   3.554   4.593  0.1876 -3.2667 -0.8169
    5CHTO    N9 1983   4.736   3.714   4.623  0.2885  0.0665 -0.3125
    5CHTO   H77 1984   4.757   3.783   4.543  1.0288  0.2865  0.0616
    5CHTO   H78 1985   4.656   3.759   4.680  0.1313 -0.5318 -0.0541
    5CHTO   C51 1986   4.792   3.464   4.595  0.0601  0.2091 -0.0468
    5CHTO   H93 1987   4.895   3.493   4.574  0.1964 -0.1628  0.1076
    5CHTO   O30 1988   4.748   3.350   4.519 -0.1846 -0.2471 -0.6132
    5CHTO   C46 1989   4.786   3.361   4.382  0.0266 -0.3415 -0.6013
    5CHTO   H88 1990   4.893   3.379   4.376 -0.1828  0.6233 -1.4476
    5CHTO   C53 1991   4.749   3.227   4.320  0.0501 -0.7503  0.5072
    5CHTO   O72 1992   4.840   3.209   4.206 -0.3157 -0.1910  0.2800
    5CHTO  H199 1993   4.803   3.157   4.137 -2.0433  2.1923 -0.6788
    5CHTO   O22 1994   4.789   3.421   4.735  0.3519 -0.3952  0.0057
    5CHTO   C31 1995   4.908   3.370   4.811  0.2448 -0.7734  0.4063
    5CHTO   H59 1996   4.876   3.327   4.908  1.3145 -0.9197  0.7043
    5CHTO   C29 1997   4.988   3.260   4.737 -0.9592 -0.5173  0.1994
    5CHTO   H57 1998   4.999   3.293   4.633  0.1744 -0.1067  0.4427
    5CHTO   O21 1999   4.897   3.148   4.740 -0.2806 -0.3688  0.1184
    5CHTO   H37 2000   4.938   3.077   4.693  0.2449  0.9450 -1.4765
    5CHTO   C27 2001   5.141   3.239   4.790  0.1560  0.3799  0.2545
    5CHTO   H55 2002   5.136   3.198   4.892 -0.6091 -0.4623 -0.1167
    5CHTO    N5 2003   5.226   3.140   4.711 -0.5142 -0.2082 -0.5565
    5CHTO   H43 2004   5.178   3.090   4.628 -0.3237 -3.1823  1.0568
    5CHTO   H44 2005   5.315   3.190   4.675  0.5280 -0.7292  1.2317
    5CHTO   C25 2006   5.220   3.372   4.801  0.0485 -0.0626  0.2834
    5CHTO   H53 2007   5.237   3.415   4.701 -1.7854 -0.4621 -0.2307
    5CHTO   O17 2008   5.137   3.453   4.889 -0.1247 -0.5792 -0.3777
    5CHTO   C32 2009   5.005   3.489   4.844  0.0522 -0.3456 -1.0389
    5CHTO   H60 2010   5.014   3.555   4.757  0.0700 -1.1834 -1.6779
    5CHTO   C36 2011   4.955   3.574   4.952 -0.8170 -0.6109  0.6017
    5CHTO   O25 2012   4.928   3.517   5.077 -0.3082  0.0891 -0.1786
    5CHTO   H40 2013   4.846   3.474   5.064  0.9616 -2.2710 -0.8755
    5CHTO   O15 2014   5.378   3.360   4.877  0.0199 -0.5727 -0.1048
    5CHTO   C19 2015   5.460   3.477   4.898  0.1675  0.4551  0.6771
    5CHTO   H47 2016   5.394   3.565   4.892 -2.0192 -1.1766  0.2399
    5CHTO   C20 2017   5.536   3.475   5.039  0.0861 -0.2961 -0.3721
    5CHTO   H48 2018   5.599   3.387   5.055  1.5289  0.8811  0.4607
    5CHTO   O19 2019   5.426   3.471   5.138 -0.2698  0.1159 -0.2744
    5CHTO   H35 2020   5.391   3.385   5.135 -1.7282  0.7263 -1.8861
    5CHTO   C21 2021   5.630   3.610   5.053  0.0479 -0.5337 -0.7823
    5CHTO   H49 2022   5.563   3.695   5.062  0.7497 -0.0568  0.0689
    5CHTO    N4 2023   5.721   3.616   5.172 -0.1429  0.8632 -0.1485
    5CHTO   H41 2024   5.767   3.713   5.188 -1.6937  2.1049 -2.9027
    5CHTO   H42 2025   5.800   3.544   5.163 -0.9331  0.2067 -1.8823
    5CHTO   C22 2026   5.716   3.632   4.927  0.5247  0.5519  0.8491
    5CHTO   H50 2027   5.782   3.545   4.923 -0.1237  0.0695  0.2901
    5CHTO   O14 2028   5.626   3.632   4.812 -0.6982  0.7551  0.0194
    5CHTO   C23 2029   5.572   3.497   4.792  0.7550  0.4160  0.0672
    5CHTO   H51 2030   5.653   3.423   4.801  1.5086  0.9870 -1.8742
    5CHTO   C34 2031   5.518   3.490   4.647  0.1129 -0.1240 -0.0127
    5CHTO   O23 2032   5.486   3.351   4.608  0.0513 -0.3114  0.3342
    5CHTO   H38 2033   5.399   3.336   4.575 -0.8937 -2.2151  3.4624
    5CHTO   O16 2034   5.793   3.748   4.915  0.3101 -0.8640 -0.0414
    5CHTO   C24 2035   5.936   3.709   4.840 -0.0640 -0.2210 -0.4067
    5CHTO   H52 2036   5.933   3.606   4.805  0.8623 -0.7830  1.0951
    5CHTO   C26 2037   6.054   3.725   4.939 -0.3507 -0.5701  0.6587
    5CHTO   H54 2038   6.041   3.825   4.987 -0.0470 -0.9665  1.5711
    5CHTO   O20 2039   6.051   3.626   5.044 -0.0210  0.3093 -0.0241
    5CHTO   H36 2040   5.963   3.602   5.064 -0.3383  0.3486 -1.3133
    5CHTO   C30 2041   6.195   3.719   4.872  0.1257  0.0016  0.1517
    5CHTO   H58 2042   6.203   3.613   4.844  2.5375 -0.2496  1.6510
    5CHTO    N6 2043   6.300   3.752   4.972 -0.6127  0.3209 -0.7575
    5CHTO   H45 2044   6.301   3.857   4.995 -0.1009  0.4998 -1.5484
    5CHTO   H46 2045   6.397   3.724   4.931 -0.9422  1.1614 -2.1556
    5CHTO   C33 2046   6.190   3.790   4.733  0.4958  0.0466 -0.1811
    5CHTO   H61 2047   6.186   3.898   4.750 -1.7592 -0.3757  2.3200
    5CHTO   O18 2048   6.068   3.757   4.651 -0.6480  0.0669  0.3374
    5CHTO   C28 2049   5.949   3.791   4.719  0.6726  0.1886 -0.3252
    5CHTO   H56 2050   5.949   3.895   4.749 -0.7713 -0.3058  1.4876
    5CHTO   C35 2051   5.833   3.785   4.622  0.0929 -0.3623  0.7496
    5CHTO   O24 2052   5.820   3.664   4.546  0.0286  0.1000 -0.0400
    5CHTO   H39 2053   5.748   3.671   4.486 -0.2502 -1.1480  0.1313
    5CHTO    O9 2054   6.307   3.773   4.655 -0.0266  0.3093  0.1812
    5CHTO   C13 2055   6.325   3.633   4.582  0.3795 -0.5003  1.0479
    5CHTO   H26 2056   6.228   3.580   4.582 -0.6000  1.2414  0.6833
    5CHTO   C11 2057   6.435   3.557   4.661 -0.7183  0.0949 -0.8044
    5CHTO   H24 2058   6.398   3.536   4.763  0.2216  0.8874 -0.2871
    5CHTO    O8 2059   6.560   3.629   4.668 -0.5130  0.1559 -0.5857
    5CHTO    H3 2060   6.575   3.669   4.585 -0.8714 -0.9505 -1.2091
    5CHTO    C9 2061   6.453   3.426   4.580  0.2562  0.4530 -0.5274
    5CHTO   H22 2062   6.355   3.378   4.570  0.7997 -0.9867  0.8213
    5CHTO    N2 2063   6.533   3.334   4.664 -0.1529 -0.6380 -0.0697
    5CHTO   H10 2064   6.473   3.244   4.657  0.9418 -1.3500 -0.4547
    5CHTO   H11 2065   6.622   3.309   4.608 -1.6028 -2.0423 -1.8475
    5CHTO    C7 2066   6.505   3.453   4.434  0.8748  0.6842 -0.8809
    5CHTO   H20 2067   6.484   3.361   4.375 -0.7047  0.9586 -0.7651
    5CHTO    O4 2068   6.420   3.545   4.367  0.1879  0.2244 -0.0707
    5CHTO   C14 2069   6.360   3.660   4.429  0.2126 -0.3141  0.0266
    5CHTO   H27 2070   6.263   3.679   4.377 -0.5110  0.2546  1.5421
    5CHTO   C18 2071   6.460   3.781   4.404 -0.0779 -0.4536  0.6183
    5CHTO   O13 2072   6.472   3.809   4.267  0.1368  0.3025  0.1779
    5CHTO    H7 2073   6.410   3.877   4.246 -0.8225 -0.3311  0.8894
    5CHTO    O2 2074   6.651   3.507   4.426 -0.7122  0.0545  0.7031
    5CHTO    C1 2075   6.717   3.484   4.302 -0.4160 -0.5654  0.3789
    5CHTO   H14 2076   6.649   3.502   4.216  1.9568  0.6342 -1.3145
    5CHTO    C2 2077   6.772   3.335   4.289  0.7342 -0.3119 -0.0935
    5CHTO   H15 2078   6.833   3.324   4.380 -1.1332  0.9646  1.3516
    5CHTO    O6 2079   6.663   3.238   4.295 -0.5308  0.1425 -0.0575
    5CHTO    H1 2080   6.580   3.280   4.281 -1.6994 -1.3970  1.9358
    5CHTO    C3 2081   6.851   3.320   4.156  0.3282 -0.2133 -0.4941
    5CHTO   H16 2082   6.780   3.315   4.072 -0.6274 -1.3997  0.3547
    5CHTO    N1 2083   6.930   3.191   4.143  0.0255  0.5224  0.3868
    5CHTO    H8 2084   6.968   3.178   4.043  1.0440 -0.1707  0.8497
    5CHTO    H9 2085   7.006   3.190   4.219 -0.5137  0.2385  0.9330
    5CHTO    C4 2086   6.950   3.441   4.124 -0.4209  0.8954 -0.4009
    5CHTO   H17 2087   7.048   3.428   4.170 -0.1468  0.8327 -0.9993
    5CHTO    O1 2088   6.892   3.563   4.157  0.1018  0.5504 -0.0768
    5CHTO    C5 2089   6.839   3.573   4.289  0.5973  0.6301  0.1256
    5CHTO   H18 2090   6.916   3.546   4.360 -0.6569 -1.4151  0.7598
    5CHTO   C16 2091   6.797   3.718   4.317  0.7087 -0.2138 -0.5575
    5CHTO   O11 2092   6.903   3.810   4.295  0.4365  0.4791 -0.0041
    5CHTO    H5 2093   6.875   3.896   4.267  1.3534  1.8026  2.8902
    5CHTO    O3 2094   6.962   3.452   3.978  0.3261  0.6508 -0.2496
    5CHTO    C6 2095   7.096   3.493   3.933  0.5111 -0.2490 -0.0286
    5CHTO   H19 2096   7.155   3.520   4.021  0.1600 -0.2930  0.2228
    5CHTO    C8 2097   7.175   3.375   3.862 -0.4776  0.2085 -0.6351
    5CHTO   H21 2098   7.113   3.339   3.780 -0.9138  0.4064 -0.3964
    5CHTO    O7 2099   7.184   3.277   3.958 -0.2134 -0.8927  0.0240
    5CHTO    H2 2100   7.254   3.216   3.945 -1.5494 -1.5672 -4.7688
    5CHTO   C12 2101   7.320   3.427   3.822 -0.6213 -0.1312 -0.2410
    5CHTO   H25 2102   7.375   3.442   3.918 -0.1179 -0.5845 -0.4606
    5CHTO    N3 2103   7.391   3.319   3.742  0.1207  0.0877 -0.7340
    5CHTO   H12 2104   7.338   3.309   3.649 -2.6368 -0.3230  0.8130
    5CHTO   H13 2105   7.371   3.228   3.798  2.3093 -0.4573 -0.8065
    5CHTO   C15 2106   7.304   3.564   3.750 -1.1243 -0.4636  0.1725
    5CHTO   H28 2107   7.269   3.544   3.649  1.2466  2.7809 -1.4083
    5CHTO   O10 2108   7.431   3.635   3.740 -0.5118 -1.3423 -0.1192
    5CHTO    H4 2109   7.433   3.700   3.673  2.9604 -1.8651 -0.5980
    5CHTO    O5 2110   7.222   3.659   3.819  0.2964  0.5338 -0.0871
    5CHTO   C10 2111   7.091   3.612   3.848  0.4083  0.4930  0.4383
    5CHTO   H23 2112   7.037   3.589   3.756 -2.6430  1.5782  1.9054
    5CHTO   C17 2113   7.013   3.724   3.912  0.1187 -0.5314 -0.0168
    5CHTO   O12 2114   7.093   3.793   4.011  0.0814 -0.2141 -0.3521
    5CHTO    H6 2115   7.099   3.882   3.982  0.6763  0.3090  1.3331
    6CHTO  H203 2116   7.329   5.064   1.213  0.2489 -2.1405  0.6724
    6CHTO   O82 2117   7.266   5.055   1.144  0.4051 -0.3630  0.2832
    6CHTO  C123 2118   7.200   5.177   1.099  0.3178  0.2382  0.3664
    6CHTO  H227 2119   7.274   5.246   1.056  1.0177 -0.4560  0.4443
    6CHTO   O77 2120   7.111   5.137   0.999 -0.1595  0.4944  0.4833
    6CHTO  C118 2121   7.020   5.231   0.950  0.2503  0.2253  0.5023
    6CHTO  H222 2122   7.078   5.307   0.896 -0.6606  0.2054 -0.5342
    6CHTO  C125 2123   6.930   5.163   0.845  0.0932  0.4825  0.0125
    6CHTO   O84 2124   6.988   5.096   0.731  0.0759  0.0571  0.0947
    6CHTO  H205 2125   6.935   5.120   0.658  1.7609 -1.1489 -1.5676
    6CHTO  C114 2126   6.927   5.297   1.056  0.2952  0.0064  0.0817
    6CHTO  H218 2127   6.859   5.224   1.099  0.6429 -0.0943  0.4655
    6CHTO  C116 2128   7.014   5.354   1.170 -0.3130  0.4189  0.3637
    6CHTO  H220 2129   7.074   5.444   1.146  1.4784 -0.6957  0.5738
    6CHTO   O79 2130   6.918   5.391   1.280 -0.7420  0.3887 -0.1621
    6CHTO  H201 2131   6.961   5.444   1.345 -0.9849  0.0094  0.3139
    6CHTO  C120 2132   7.125   5.250   1.227  0.1796 -0.1383 -0.0168
    6CHTO  H224 2133   7.066   5.182   1.292 -1.5227  1.9368  0.6333
    6CHTO   N21 2134   7.225   5.311   1.316 -0.4477 -0.6218 -0.3122
    6CHTO  H211 2135   7.175   5.382   1.381  0.0372  1.8556 -2.5584
    6CHTO  H212 2136   7.304   5.353   1.255 -1.3007 -1.3015 -1.9251
    6CHTO   O75 2137   6.863   5.403   0.985 -0.0040  0.1906  0.4289
    6CHTO  C112 2138   6.717   5.435   1.029  0.1495 -0.3060  0.6378
    6CHTO  H216 2139   6.711   5.427   1.138  2.1328 -2.8908  0.6215
    6CHTO   O73 2140   6.637   5.332   0.970  0.1237 -0.1711 -0.1665
    6CHTO  C113 2141   6.502   5.352   0.983  0.9951  0.2320 -0.1139
    6CHTO  H217 2142   6.482   5.338   1.091 -0.2880  3.5931  0.1357
    6CHTO  C124 2143   6.435   5.235   0.908 -0.6770 -0.3778  0.3226
    6CHTO   O83 2144   6.347   5.144   0.982  0.2962  0.2001 -0.1601
    6CHTO  H204 2145   6.261   5.145   0.945  0.3441  0.1347 -0.2728
    6CHTO  C109 2146   6.439   5.486   0.927  0.0736  0.1718 -0.1144
    6CHTO  H213 2147   6.447   5.481   0.817  0.3647 -1.9175 -0.0314
    6CHTO  C110 2148   6.530   5.603   0.975  0.3831 -0.3253  0.3842
    6CHTO  H214 2149   6.492   5.630   1.073 -0.0441 -0.9053  0.3840
    6CHTO   O78 2150   6.504   5.718   0.893 -0.0800 -0.3918  0.5156
    6CHTO  H200 2151   6.553   5.712   0.814 -0.7297  2.2713 -0.1369
    6CHTO  C111 2152   6.679   5.577   0.980  0.1780  0.2054  0.1833
    6CHTO  H215 2153   6.721   5.593   0.879 -2.8315  1.0354 -0.9918
    6CHTO   N19 2154   6.746   5.671   1.069 -0.3173 -0.4242 -0.2672
    6CHTO  H207 2155   6.709   5.680   1.170 -1.8561  1.3270 -0.9628
    6CHTO  H208 2156   6.850   5.644   1.082  0.4545  2.7229  0.4620
    6CHTO   O74 2157   6.296   5.496   0.969  0.4641 -0.2602 -0.0953
    6CHTO  C115 2158   6.256   5.487   1.124 -0.4688 -0.2239 -0.1056
    6CHTO  H219 2159   6.293   5.396   1.170  1.5996  1.0933  0.9433
    6CHTO   O76 2160   6.322   5.615   1.219  0.3520 -0.0420 -0.3883
    6CHTO  C122 2161   6.249   5.733   1.182  0.6584 -0.3771 -0.1382
    6CHTO  H226 2162   6.247   5.734   1.073 -1.7749  0.3250 -0.0972
    6CHTO  C126 2163   6.322   5.859   1.234 -0.0555  0.0246 -0.3879
    6CHTO   O85 2164   6.263   5.975   1.167  0.2303  0.5245 -0.0978
    6CHTO  H206 2165   6.249   5.951   1.077  1.4156 -1.9497  0.3215
    6CHTO  C121 2166   6.102   5.714   1.240  0.5293  0.5551 -0.3482
    6CHTO  H225 2167   6.098   5.753   1.344 -1.1003 -1.0127  0.2095
    6CHTO   O81 2168   6.014   5.791   1.163 -0.6380 -0.1657 -0.1738
    6CHTO  H202 2169   5.931   5.789   1.208 -0.8714  0.2017 -0.5796
    6CHTO  C119 2170   6.049   5.569   1.246 -0.6990 -0.1810  0.5517
    6CHTO  H223 2171   6.093   5.526   1.336  0.8055 -0.1772 -0.1678
    6CHTO  C117 2172   6.099   5.497   1.129  0.1289 -0.5725  1.2273
    6CHTO  H221 2173   6.061   5.542   1.037 -2.6847 -1.0304  2.1021
    6CHTO   N20 2174   6.045   5.360   1.120  0.0285 -0.1308  0.6261
    6CHTO  H209 2175   5.937   5.368   1.123 -0.2372 -1.3978 -3.0158
    6CHTO  H210 2176   6.083   5.310   1.032 -2.7253 -1.9802  0.3992
    6CHTO   O80 2177   5.897   5.556   1.276  0.2195 -0.4150 -0.6258
    6CHTO  C103 2178   5.845   5.489   1.409 -0.4410  0.2687  0.7403
    6CHTO  H190 2179   5.897   5.394   1.418  0.1830  0.5926  0.6206
    6CHTO  C101 2180   5.870   5.572   1.549  0.1837 -0.7732 -0.0277
    6CHTO  H188 2181   5.810   5.663   1.553 -2.0404 -2.2120  0.8505
    6CHTO   O68 2182   6.028   5.602   1.582 -0.0438 -0.1226  0.3534
    6CHTO  H168 2183   6.030   5.621   1.674 -2.9860  0.4144  0.3447
    6CHTO   C99 2184   5.805   5.492   1.669 -1.1178  0.3318 -0.8574
    6CHTO  H186 2185   5.857   5.394   1.669 -1.7420 -0.0148  0.8610
    6CHTO   N17 2186   5.823   5.546   1.809  0.4759  0.2797  0.0435
    6CHTO  H174 2187   5.867   5.470   1.872  0.9989  0.4010 -0.1759
    6CHTO  H175 2188   5.727   5.582   1.842 -0.0755 -0.9574 -0.1898
    6CHTO   C97 2189   5.657   5.462   1.635 -0.3346 -0.2832  0.5995
    6CHTO  H184 2190   5.598   5.555   1.636  0.7500  0.4131  0.8604
    6CHTO   O64 2191   5.645   5.392   1.513 -0.1044 -0.1870  0.2262
    6CHTO  C104 2192   5.695   5.465   1.399  0.1057 -0.3955  0.2359
    6CHTO  H191 2193   5.643   5.561   1.396  4.8919  2.3608  1.5934
    6CHTO  C108 2194   5.657   5.389   1.276  0.5366 -0.3743 -0.6128
    6CHTO   O71 2195   5.516   5.367   1.278 -0.5411  0.0039 -0.0789
    6CHTO  H171 2196   5.495   5.344   1.190 -0.0804 -0.9523  0.0508
    6CHTO   O62 2197   5.594   5.363   1.713  0.1886 -0.4085  0.3782
    6CHTO   C91 2198   5.449   5.376   1.742  0.8779 -0.0301 -0.0287
    6CHTO  H178 2199   5.425   5.475   1.782  1.2176 -0.3971  1.0930
    6CHTO   C92 2200   5.430   5.277   1.859 -0.2148 -0.2295  0.0607
    6CHTO  H179 2201   5.508   5.286   1.936  0.1248  0.9529 -0.4101
    6CHTO   O66 2202   5.307   5.318   1.929  0.6793 -0.3291  0.3396
    6CHTO  H166 2203   5.283   5.243   1.979  0.6302 -0.1610  0.5686
    6CHTO   C93 2204   5.412   5.128   1.818 -0.5592  0.7768 -0.2259
    6CHTO  H180 2205   5.378   5.068   1.903  0.7591  0.6541  0.2275
    6CHTO   N16 2206   5.539   5.056   1.789 -0.1584 -0.1032 -0.0561
    6CHTO  H172 2207   5.596   5.102   1.710  0.8436  0.4706  0.9905
    6CHTO  H173 2208   5.513   4.957   1.754  0.1416  1.1157 -4.0066
    6CHTO   C94 2209   5.312   5.113   1.697  0.3688 -0.4358  0.1495
    6CHTO  H181 2210   5.364   5.072   1.610 -0.6871  0.6392 -0.9968
    6CHTO   O61 2211   5.254   5.236   1.654 -0.1025 -0.0508  0.0876
    6CHTO   C95 2212   5.354   5.335   1.627  0.0632 -0.0040  0.0369
    6CHTO  H182 2213   5.412   5.300   1.541  0.5849  0.0577  0.3571
    6CHTO  C106 2214   5.282   5.455   1.569  0.0366  0.1409 -0.2188
    6CHTO   O69 2215   5.207   5.529   1.665  0.1658  0.3485  0.0041
    6CHTO  H169 2216   5.262   5.545   1.739  0.3885 -2.7006  0.5710
    6CHTO   O63 2217   5.197   5.016   1.738 -0.0685 -0.1949 -0.4149
    6CHTO   C96 2218   5.231   4.866   1.683  0.3634 -0.4937  0.3404
    6CHTO  H183 2219   5.339   4.852   1.692  0.2464 -0.9055  1.1438
    6CHTO   C98 2220   5.203   4.841   1.530  0.4973 -0.0788 -0.0321
    6CHTO  H185 2221   5.097   4.867   1.517 -0.3847 -3.1721  0.6987
    6CHTO   O67 2222   5.279   4.941   1.448  0.1995  0.0747 -0.3262
    6CHTO  H167 2223   5.363   4.960   1.484 -0.6094  0.1940  1.5945
    6CHTO  C102 2224   5.238   4.690   1.479  0.0731 -0.9589 -0.0495
    6CHTO  H189 2225   5.346   4.685   1.462  0.1876  1.8878 -0.4262
    6CHTO   N18 2226   5.181   4.651   1.348 -0.1299 -0.7546  0.1119
    6CHTO  H176 2227   5.099   4.581   1.353  0.2238 -1.0547  2.1529
    6CHTO  H177 2228   5.143   4.740   1.300  0.2959 -0.0400  1.0662
    6CHTO  C105 2229   5.202   4.590   1.597  0.1520 -0.1889 -0.0732
    6CHTO  H192 2230   5.150   4.501   1.562 -2.4182  0.0881  2.8820
    6CHTO   O65 2231   5.114   4.651   1.695 -0.2373  0.3416 -0.0119
    6CHTO  C100 2232   5.146   4.769   1.766  0.0472  1.1896  0.2505
    6CHTO  H187 2233   5.046   4.808   1.788 -0.1196  1.6019 -1.2254
    6CHTO  C107 2234   5.230   4.728   1.896 -0.4524 -0.6764  0.4351
    6CHTO   O70 2235   5.257   4.838   1.983 -0.2125 -0.4286 -0.4172
    6CHTO  H170 2236   5.330   4.807   2.033 -0.4092  0.0345  0.1585
    6CHTO   O57 2237   5.360   4.557   1.659  0.9322  0.6359 -0.2248
    6CHTO   C85 2238   5.424   4.432   1.620  0.4428 -0.0148  0.2690
    6CHTO  H157 2239   5.388   4.409   1.517  0.0411  0.7552  0.2345
    6CHTO   C83 2240   5.376   4.315   1.708  0.2316  0.0548 -0.2309
    6CHTO  H155 2241   5.273   4.296   1.680  0.1000 -0.2558  0.4546
    6CHTO   O56 2242   5.374   4.348   1.849  0.5339 -0.1174  0.1970
    6CHTO  H135 2243   5.327   4.276   1.886  0.3602 -1.0318 -1.7500
    6CHTO   C81 2244   5.467   4.193   1.680 -0.1554 -0.1072 -0.4437
    6CHTO  H153 2245   5.462   4.174   1.572  2.5236  0.5774 -0.7406
    6CHTO   N14 2246   5.412   4.060   1.730 -0.6094  0.2452 -0.3190
    6CHTO  H141 2247   5.357   4.080   1.820  2.3531  2.4033  1.0936
    6CHTO  H142 2248   5.342   4.025   1.657  2.8913 -0.3849 -3.5406
    6CHTO   C79 2249   5.615   4.219   1.713 -0.1272 -0.2664 -0.7354
    6CHTO  H151 2250   5.678   4.142   1.667  0.4710 -2.3867  3.4161
    6CHTO   O52 2251   5.657   4.338   1.637  0.5130  0.4596  0.1592
    6CHTO   C86 2252   5.574   4.458   1.631  0.4730 -0.1937 -0.0195
    6CHTO  H158 2253   5.605   4.511   1.723  1.3621 -1.8405  0.6520
    6CHTO   C90 2254   5.613   4.551   1.513  0.0605 -0.4492 -0.3139
    6CHTO   O60 2255   5.741   4.589   1.520 -0.3293  0.6611  0.1113
    6CHTO  H138 2256   5.804   4.524   1.497 -0.5447  1.1916 -2.1592
    6CHTO   O50 2257   5.652   4.226   1.846 -0.1053 -0.0050 -0.1165
    6CHTO   C73 2258   5.725   4.220   1.969 -0.0385  0.1092 -0.3217
    6CHTO  H145 2259   5.738   4.114   1.993 -3.0792 -0.2538 -0.0623
    6CHTO   C74 2260   5.648   4.291   2.083 -0.1661 -0.0123 -0.0405
    6CHTO  H146 2261   5.548   4.247   2.091  0.2665 -0.8942  0.5277
    6CHTO   O54 2262   5.721   4.250   2.197 -0.5518 -0.4132  0.3168
    6CHTO  H133 2263   5.686   4.298   2.270 -0.7969 -0.4106  0.1982
    6CHTO   C75 2264   5.644   4.445   2.055  0.1702 -0.2016  0.5103
    6CHTO  H147 2265   5.583   4.459   1.965  1.5884 -1.2514 -0.6292
    6CHTO   N13 2266   5.569   4.528   2.156 -0.9588 -0.2288 -0.1270
    6CHTO  H139 2267   5.480   4.473   2.186 -1.7145  0.9727 -0.1551
    6CHTO  H140 2268   5.544   4.628   2.125 -0.1075 -0.0882 -0.3821
    6CHTO   C76 2269   5.782   4.509   1.996  0.3084 -0.2336  0.2494
    6CHTO  H148 2270   5.837   4.525   2.089  0.9349  1.4735 -0.3963
    6CHTO   O49 2271   5.848   4.422   1.902  0.2899  0.1832  0.1603
    6CHTO   C77 2272   5.869   4.288   1.947 -0.1998 -0.1806  0.6630
    6CHTO  H149 2273   5.922   4.292   2.042  1.5756 -1.2594 -0.2557
    6CHTO   C88 2274   5.950   4.215   1.838 -0.0653  0.0909  0.2776
    6CHTO   O58 2275   6.114   4.255   1.819  0.4541 -0.1970  0.8852
    6CHTO  H136 2276   6.150   4.185   1.768  2.2950 -0.0375  1.9292
    6CHTO   O51 2277   5.762   4.658   1.913 -0.5796  0.1798 -0.4535
    6CHTO   C78 2278   5.873   4.759   1.951  0.4216 -0.6694 -0.2296
    6CHTO  H150 2279   5.943   4.723   2.028  0.6220 -1.3960 -0.7444
    6CHTO   C80 2280   5.798   4.889   2.006 -0.6418  0.6747 -0.1089
    6CHTO  H152 2281   5.737   4.931   1.924  1.6993  0.4364 -2.0126
    6CHTO   O55 2282   5.715   4.862   2.120 -0.3395  0.0837  0.2299
    6CHTO  H134 2283   5.663   4.937   2.140  1.1061  0.9461  0.8211
    6CHTO   C84 2284   5.901   5.002   2.044 -0.9645  0.0167  0.3491
    6CHTO  H156 2285   5.973   4.964   2.116 -0.7820 -0.0149  0.1514
    6CHTO   N15 2286   5.844   5.130   2.096 -0.1837 -0.5388 -0.1408
    6CHTO  H143 2287   5.923   5.189   2.137  0.0183 -2.0483  1.7543
    6CHTO  H144 2288   5.774   5.108   2.174 -0.3298 -0.5831 -0.2851
    6CHTO   C87 2289   5.987   5.024   1.914  0.2137 -0.2623 -0.2303
    6CHTO  H159 2290   5.930   5.069   1.833 -0.3937 -0.4163  0.1060
    6CHTO   O53 2291   6.051   4.892   1.868 -0.5608  0.0048  0.1799
    6CHTO   C82 2292   5.954   4.794   1.832  0.3008  0.1563  0.1676
    6CHTO  H154 2293   5.890   4.834   1.753 -0.8506  0.0998  1.0634
    6CHTO   C89 2294   6.022   4.662   1.770  0.2659 -1.0425  0.7412
    6CHTO   O59 2295   6.126   4.684   1.678 -0.3283  0.0267  0.1484
    6CHTO  H137 2296   6.148   4.775   1.684 -0.1143  0.1305 -1.9403
    6CHTO   O45 2297   6.116   5.143   1.950  0.3856  0.4777 -0.4418
    6CHTO   C67 2298   6.216   5.156   1.852 -0.0284 -0.2821 -0.3017
    6CHTO  H124 2299   6.276   5.065   1.853  0.7612  0.2362  0.0753
    6CHTO   C65 2300   6.154   5.181   1.710  0.6851 -0.0856  0.4350
    6CHTO  H122 2301   6.066   5.242   1.726  0.4778 -0.7138  1.8092
    6CHTO   O44 2302   6.114   5.054   1.654  0.3573 -0.2544 -0.1763
    6CHTO  H102 2303   6.194   5.009   1.638 -0.5602 -2.1304  0.3797
    6CHTO   C63 2304   6.238   5.276   1.612 -0.1952  1.2383  0.0970
    6CHTO  H120 2305   6.216   5.380   1.635  0.0689  1.4570 -0.6325
    6CHTO   N11 2306   6.184   5.266   1.470 -0.5322  0.3797 -0.2666
    6CHTO  H108 2307   6.102   5.332   1.453  0.3552  1.3309 -0.8568
    6CHTO  H109 2308   6.261   5.293   1.401 -0.0028 -2.1373 -0.7187
    6CHTO   C61 2309   6.387   5.252   1.632  0.4759 -0.4768  0.0068
    6CHTO  H118 2310   6.436   5.334   1.577 -0.6737 -0.7715 -1.4884
    6CHTO   O40 2311   6.429   5.264   1.770 -0.3894  0.3045 -0.1803
    6CHTO   C68 2312   6.328   5.267   1.878  0.4910 -0.6660  0.4613
    6CHTO  H125 2313   6.276   5.365   1.882  0.2539 -0.7980  0.6356
    6CHTO   C72 2314   6.412   5.263   2.011  0.2635 -1.0190 -0.4100
    6CHTO   O48 2315   6.495   5.144   2.036  0.3470  0.0524  0.3234
    6CHTO  H105 2316   6.564   5.136   1.972 -0.2023 -1.7464 -0.0737
    6CHTO   O38 2317   6.421   5.117   1.589  0.2270 -0.0314 -0.1751
    6CHTO   C55 2318   6.549   5.106   1.533  0.3973  0.1114 -0.0360
    6CHTO  H112 2319   6.612   5.194   1.553  1.2236 -0.7438  1.2198
    6CHTO   C56 2320   6.528   5.074   1.379  0.1335  0.3715 -0.2327
    6CHTO  H113 2321   6.484   4.973   1.375  1.9888 -0.3938 -2.4311
    6CHTO   O42 2322   6.434   5.162   1.321 -0.2565 -0.0705  0.2826
    6CHTO  H100 2323   6.414   5.140   1.232  0.4612 -2.8402  0.7658
    6CHTO   C57 2324   6.668   5.066   1.309  1.0193  0.0393  0.3671
    6CHTO  H114 2325   6.713   5.165   1.321  0.8927  0.1722 -0.2616
    6CHTO   N10 2326   6.673   5.021   1.171 -0.8650  0.3829  0.2598
    6CHTO  H106 2327   6.767   4.978   1.141  0.9722  4.6485 -0.3908
    6CHTO  H107 2328   6.654   5.110   1.113 -0.1357  0.2465 -0.1843
    6CHTO   C58 2329   6.757   4.964   1.395 -0.3893 -0.1064  0.4552
    6CHTO  H115 2330   6.725   4.859   1.385 -1.6002  0.2672  0.4002
    6CHTO   O37 2331   6.759   4.993   1.539  0.8905 -0.1149 -0.0248
    6CHTO   C59 2332   6.634   4.997   1.602  0.5250  0.2218  0.1513
    6CHTO  H116 2333   6.582   4.903   1.584  1.1042  0.0017 -0.3664
    6CHTO   C70 2334   6.666   5.032   1.751  0.6791 -0.0315 -0.4172
    6CHTO   O46 2335   6.767   5.130   1.779  0.2023  0.3110  0.5152
    6CHTO  H103 2336   6.732   5.197   1.835  0.0101 -1.2168  2.2759
    6CHTO   O39 2337   6.916   4.981   1.355 -0.0503 -0.0555 -0.3871
    6CHTO   C60 2338   6.988   4.857   1.372 -0.2959 -0.0613 -0.1396
    6CHTO  H117 2339   6.946   4.791   1.448  0.0708 -1.6770 -1.3170
    6CHTO   C62 2340   6.990   4.766   1.241 -0.2420  0.1741 -0.7270
    6CHTO  H119 2341   6.895   4.715   1.215  0.7159 -1.0593 -1.8779
    6CHTO   O43 2342   7.022   4.855   1.131  0.5879  0.2928  0.1482
    6CHTO  H101 2343   7.021   4.800   1.055 -0.0724 -0.3309  0.5918
    6CHTO   C66 2344   7.091   4.644   1.254  0.0212 -0.3896  0.4673
    6CHTO  H123 2345   7.053   4.578   1.332  0.6967 -1.7814 -0.3714
    6CHTO   N12 2346   7.090   4.561   1.129  0.2458  0.0455  0.0102
    6CHTO  H110 2347   7.025   4.605   1.055 -1.5176  1.0578  2.1197
    6CHTO  H111 2348   7.058   4.463   1.159  0.8963  0.3956  1.8815
    6CHTO   C69 2349   7.234   4.704   1.286  0.5130 -0.2640 -0.3255
    6CHTO  H126 2350   7.272   4.767   1.203  0.1253  1.0431  0.4853
    6CHTO   O41 2351   7.216   4.782   1.419  0.6813 -0.5129  0.0434
    6CHTO   C64 2352   7.133   4.897   1.413  0.2669  0.3194  0.2780
    6CHTO  H121 2353   7.182   4.967   1.342 -1.1146  0.9656 -0.0488
    6CHTO   C71 2354   7.137   4.947   1.557  0.5539  0.7796  0.7601
    6CHTO   O47 2355   7.256   5.024   1.576 -0.1562  0.6934 -0.3758
    6CHTO  H104 2356   7.337   4.977   1.568 -0.3673 -0.1533  2.0741
    6CHTO   O34 2357   7.340   4.600   1.300 -0.5136  0.3522  0.5991
    6CHTO   C49 2358   7.461   4.542   1.270  0.0048 -0.2714  0.5287
    6CHTO   H91 2359   7.446   4.486   1.178 -0.0777 -0.2370  0.5207
    6CHTO   C47 2360   7.506   4.452   1.386 -0.1817  0.7803  0.5437
    6CHTO   H89 2361   7.604   4.405   1.361 -1.8453 -2.9204  0.7557
    6CHTO   O33 2362   7.409   4.354   1.397  0.5275  0.7646 -0.1694
    6CHTO   H70 2363   7.391   4.333   1.486  1.7877  0.9282  0.1295
    6CHTO   C45 2364   7.528   4.539   1.525  0.0996 -0.7357  0.1751
    6CHTO   H87 2365   7.431   4.532   1.577 -0.5191 -0.8684 -0.9707
    6CHTO    N8 2366   7.626   4.470   1.614 -0.4459  0.1906 -0.4188
    6CHTO   H75 2367   7.644   4.522   1.706 -0.1074  2.2192 -1.6204
    6CHTO   H76 2368   7.720   4.441   1.570 -1.1142 -0.4027 -1.4941
    6CHTO   C43 2369   7.558   4.693   1.486 -0.9705  0.6574  0.3661
    6CHTO   H85 2370   7.460   4.738   1.469 -0.5128  1.3134 -0.6018
    6CHTO   O29 2371   7.642   4.697   1.369 -0.2774  0.2111  0.0928
    6CHTO   C50 2372   7.571   4.652   1.246  0.4929 -0.0072 -0.0412
    6CHTO   H92 2373   7.527   4.738   1.193  0.2194 -0.5068 -0.6288
    6CHTO   C54 2374   7.671   4.604   1.136 -0.0208 -0.8927  0.3086
    6CHTO   O36 2375   7.779   4.525   1.191 -0.0546 -0.1105 -0.1085
    6CHTO   H72 2376   7.743   4.475   1.261 -0.0615 -0.5932 -0.4513
    6CHTO   O27 2377   7.615   4.769   1.594  0.3351 -0.1390  0.1116
    6CHTO   C37 2378   7.680   4.894   1.585  0.1135 -0.6542  0.0012
    6CHTO   H79 2379   7.748   4.888   1.498 -0.8701 -0.1980 -0.8141
    6CHTO   C38 2380   7.571   5.009   1.572 -0.0301  0.1931  0.6346
    6CHTO   H80 2381   7.488   4.990   1.641 -0.1816 -0.0977  0.3732
    6CHTO   O31 2382   7.521   5.006   1.433 -0.4261 -0.2124 -0.3884
    6CHTO   H68 2383   7.439   5.051   1.433 -0.7502 -0.7975 -0.1197
    6CHTO   C39 2384   7.623   5.157   1.609  0.2094 -0.7760  0.3799
    6CHTO   H81 2385   7.688   5.193   1.529  0.8025 -2.0396  0.2842
    6CHTO    N7 2386   7.510   5.253   1.615  0.2258 -0.2536 -0.2781
    6CHTO   H73 2387   7.500   5.277   1.719 -1.5329  0.5048 -0.5930
    6CHTO   H74 2388   7.431   5.207   1.556 -0.2732 -0.5344  0.6092
    6CHTO   C40 2389   7.713   5.159   1.733 -0.3896  0.6904 -0.4900
    6CHTO   H82 2390   7.650   5.157   1.822  0.3003  0.5843  0.0012
    6CHTO   O26 2391   7.810   5.053   1.737 -0.7143 -0.0036 -0.8850
    6CHTO   C41 2392   7.760   4.915   1.718 -0.2845  0.1061 -0.2921
    6CHTO   H83 2393   7.699   4.895   1.807  1.5340 -3.1236  0.2878
    6CHTO   C52 2394   7.873   4.815   1.717  0.1725 -0.0026 -0.2148
    6CHTO   O35 2395   7.969   4.821   1.834 -0.2604  0.1394  0.0485
    6CHTO   H71 2396   8.020   4.743   1.850  2.0162  1.7398  0.7878
    6CHTO   O28 2397   7.807   5.266   1.738  0.2065  0.3242  0.0162
    6CHTO   C42 2398   7.844   5.335   1.863  0.0302 -0.5575 -0.4567
    6CHTO   H84 2399   7.950   5.358   1.853 -0.1046  0.0358 -0.5907
    6CHTO   C44 2400   7.836   5.246   1.990  0.5096  0.0593 -0.0315
    6CHTO   H86 2401   7.738   5.198   1.999  0.9025 -0.3188  2.4457
    6CHTO   O32 2402   7.933   5.137   1.966  0.2906 -0.3875  0.2858
    6CHTO   H69 2403   7.924   5.073   2.034  0.7987  0.5480  1.2431
    6CHTO   C48 2404   7.865   5.326   2.126 -0.6470  0.6174  0.4450
    6CHTO   H90 2405   7.962   5.375   2.118  0.2674 -1.2943 -0.4687
    6CHTO    N9 2406   7.863   5.233   2.241 -0.2153  0.3555  0.4869
    6CHTO   H77 2407   7.810   5.283   2.321 -0.4029  2.6197 -0.9933
    6CHTO   H78 2408   7.963   5.201   2.266 -0.1095 -1.2553 -1.8733
    6CHTO   C51 2409   7.764   5.440   2.127  0.2446  0.7068  0.1384
    6CHTO   H93 2410   7.662   5.402   2.116  1.1332 -2.0825  1.0730
    6CHTO   O30 2411   7.796   5.533   2.021 -0.0101 -0.4814  0.7235
    6CHTO   C46 2412   7.771   5.466   1.877 -0.6130  0.1645 -0.2375
    6CHTO   H88 2413   7.664   5.443   1.877 -1.1657  2.5686  0.1811
    6CHTO   C53 2414   7.827   5.555   1.761  0.1832  0.2653  0.1408
    6CHTO   O72 2415   7.733   5.657   1.742 -0.6932 -0.4307 -0.5994
    6CHTO  H199 2416   7.689   5.643   1.661 -1.1662 -0.9356 -0.2567
    6CHTO   O22 2417   7.775   5.508   2.250  0.0435  0.3361 -0.1411
    6CHTO   C31 2418   7.670   5.594   2.308 -0.3234 -0.2507 -0.1965
    6CHTO   H59 2419   7.714   5.635   2.401  0.6533 -1.1196 -0.2647
    6CHTO   C29 2420   7.624   5.714   2.219 -0.6497  0.1511  0.1728
    6CHTO   H57 2421   7.598   5.668   2.122  2.0198 -0.2727 -0.3631
    6CHTO   O21 2422   7.737   5.796   2.197  0.2072  0.1608 -0.1322
    6CHTO   H37 2423   7.791   5.799   2.274 -2.1912  0.9845  1.5949
    6CHTO   C27 2424   7.495   5.787   2.276  0.9707  0.0019  0.2852
    6CHTO   H55 2425   7.517   5.852   2.362  0.6818 -0.1901  0.5002
    6CHTO    N5 2426   7.433   5.879   2.174  0.0902 -0.1677  1.0210
    6CHTO   H43 2427   7.487   5.892   2.082 -1.8461 -0.5571 -0.1952
    6CHTO   H44 2428   7.330   5.855   2.153  0.0607 -0.0856  1.0716
    6CHTO   C25 2429   7.393   5.683   2.340  0.6009  0.2317  0.0527
    6CHTO   H53 2430   7.347   5.628   2.257 -0.4392 -1.5529  1.7633
    6CHTO   O17 2431   7.461   5.595   2.428 -0.2684  0.5111 -0.3752
    6CHTO   C32 2432   7.552   5.506   2.361  0.0713 -0.5757 -0.4766
    6CHTO   H60 2433   7.506   5.456   2.276 -1.0474 -0.0245 -0.1975
    6CHTO   C36 2434   7.588   5.394   2.460 -0.1206 -0.4617 -0.2722
    6CHTO   O25 2435   7.633   5.431   2.593 -0.6003 -0.2172 -0.2360
    6CHTO   H40 2436   7.667   5.361   2.646 -0.5116  0.4848  0.6456
    6CHTO   O15 2437   7.284   5.754   2.412  0.2321  0.8143 -0.1746
    6CHTO   C19 2438   7.162   5.753   2.488 -0.1306  0.3440  0.0671
    6CHTO   H47 2439   7.077   5.728   2.423 -0.2330  0.8300  0.0140
    6CHTO   C20 2440   7.170   5.651   2.611 -0.1229  0.3810  0.2002
    6CHTO   H48 2441   7.260   5.664   2.671  1.0526 -0.2909 -1.3780
    6CHTO   O19 2442   7.194   5.519   2.566 -0.4470  0.1862 -0.1130
    6CHTO   H35 2443   7.268   5.503   2.511  0.5062 -2.1994  1.7852
    6CHTO   C21 2444   7.039   5.655   2.711  0.2201  0.5339 -0.1991
    6CHTO   H49 2445   6.961   5.596   2.663  0.7743  0.9967 -1.7344
    6CHTO    N4 2446   7.060   5.585   2.843 -0.3452  0.3301  0.1244
    6CHTO   H41 2447   6.966   5.548   2.881  0.0517 -1.1376 -0.3003
    6CHTO   H42 2448   7.102   5.664   2.904  2.1428  0.7928 -2.0529
    6CHTO   C22 2449   6.985   5.803   2.725  0.2817 -0.3480  0.1197
    6CHTO   H50 2450   7.045   5.861   2.795  1.6718 -0.1785 -1.1979
    6CHTO   O14 2451   6.983   5.876   2.596  0.2016  0.1920 -0.2777
    6CHTO   C23 2452   7.121   5.893   2.544  0.3964 -0.2225 -0.4851
    6CHTO   H51 2453   7.190   5.924   2.623 -0.4491 -3.0511  1.4593
    6CHTO   C34 2454   7.113   5.994   2.435 -0.1510 -0.4203  0.1519
    6CHTO   O23 2455   7.103   6.121   2.489  0.2591 -0.4199 -0.0783
    6CHTO   H38 2456   7.178   6.173   2.466 -1.0513  0.1962 -3.2633
    6CHTO   O16 2457   6.843   5.791   2.763 -0.3851  0.0535 -0.1578
    6CHTO   C24 2458   6.782   5.923   2.812 -0.0129  0.1818  0.3514
    6CHTO   H52 2459   6.839   6.007   2.772  2.1339 -0.4229  2.0461
    6CHTO   C26 2460   6.791   5.924   2.965 -1.2025  0.2334  0.1883
    6CHTO   H54 2461   6.751   5.824   2.994 -0.1682 -0.2173  0.0826
    6CHTO   O20 2462   6.924   5.934   2.998  0.0114  0.4328  0.0692
    6CHTO   H36 2463   6.941   5.925   3.090 -0.2331  1.9967  0.2836
    6CHTO   C30 2464   6.703   6.036   3.023  0.3735 -0.5223  0.3943
    6CHTO   H58 2465   6.735   6.136   2.990 -2.0886 -0.2055 -1.1564
    6CHTO    N6 2466   6.715   6.029   3.169 -0.3844  0.0269 -0.0143
    6CHTO   H45 2467   6.652   5.947   3.198  1.0547 -1.7433 -1.7642
    6CHTO   H46 2468   6.696   6.122   3.222 -0.3385  1.4851 -2.4827
    6CHTO   C33 2469   6.562   6.027   2.962  0.2715  0.8823 -0.1690
    6CHTO   H61 2470   6.523   5.926   2.978  0.1125  0.8894 -0.4922
    6CHTO   O18 2471   6.578   6.048   2.815 -0.0649 -0.1977  0.3682
    6CHTO   C28 2472   6.637   5.931   2.757 -0.5787  0.1123  0.3243
    6CHTO   H56 2473   6.585   5.838   2.781  0.6725 -0.6562  0.1622
    6CHTO   C35 2474   6.632   5.941   2.606  0.5921 -0.3727 -0.1894
    6CHTO   O24 2475   6.512   5.903   2.541 -0.3866 -0.0245 -0.0009
    6CHTO   H39 2476   6.471   5.832   2.586 -0.4684 -0.5449 -0.8947
    6CHTO    O9 2477   6.469   6.121   3.021 -0.3172  0.1893 -0.0642
    6CHTO   C13 2478   6.305   6.062   3.050  0.4134 -0.3598  0.0387
    6CHTO   H26 2479   6.303   5.969   3.111 -0.8546 -0.4491 -0.1361
    6CHTO   C11 2480   6.226   6.044   2.914  0.2624 -0.4800 -0.5548
    6CHTO   H24 2481   6.272   5.966   2.851  0.3748 -1.2864  0.5178
    6CHTO    O8 2482   6.244   6.170   2.850 -0.3308 -0.1470 -0.5548
    6CHTO    H3 2483   6.201   6.160   2.767  1.4865 -0.5821 -1.4747
    6CHTO    C9 2484   6.074   6.022   2.944  0.3609  0.1097  0.6869
    6CHTO   H22 2485   6.064   5.927   2.999  0.3933 -0.5775 -0.4910
    6CHTO    N2 2486   5.993   5.986   2.825 -0.4600  0.3374  0.4361
    6CHTO   H10 2487   5.954   6.074   2.777 -1.5738 -0.9119 -1.0071
    6CHTO   H11 2488   6.045   5.915   2.763 -1.6371  0.3341 -0.5694
    6CHTO    C7 2489   6.015   6.131   3.045 -0.3780  0.6773  0.0209
    6CHTO   H20 2490   5.981   6.067   3.129 -1.2130  2.6900  1.2503
    6CHTO    O4 2491   6.117   6.222   3.091  0.1402  0.1063  0.1612
    6CHTO   C14 2492   6.228   6.157   3.156 -0.3025 -0.5430  0.0673
    6CHTO   H27 2493   6.194   6.084   3.233  0.2617  0.2523  1.0858
    6CHTO   C18 2494   6.315   6.264   3.228 -0.6079  0.2782 -0.8664
    6CHTO   O13 2495   6.336   6.371   3.131 -0.2429 -0.4072 -0.4585
    6CHTO    H7 2496   6.405   6.429   3.157 -1.0845 -1.0863  3.6345
    6CHTO    O2 2497   5.883   6.229   2.975  0.6243 -0.5663 -0.1496
    6CHTO    C1 2498   5.778   6.270   3.067 -0.4218  0.7376  0.1889
    6CHTO   H14 2499   5.705   6.330   3.009 -0.0997  0.2775 -0.6930
    6CHTO    C2 2500   5.826   6.361   3.195  0.0690 -0.4382 -0.2711
    6CHTO   H15 2501   5.905   6.301   3.242  0.1131  1.2416  1.8542
    6CHTO    O6 2502   5.879   6.485   3.152 -0.2228  0.2630  0.8780
    6CHTO    H1 2503   5.938   6.531   3.209  2.7374  0.7783 -2.4056
    6CHTO    C3 2504   5.707   6.385   3.307 -0.6352 -0.2864  0.2181
    6CHTO   H16 2505   5.628   6.450   3.267 -1.3538  0.0784  2.1465
    6CHTO    N1 2506   5.771   6.449   3.431 -0.9626  0.2444 -0.6532
    6CHTO    H8 2507   5.864   6.399   3.451 -0.7788  1.5013  1.7989
    6CHTO    H9 2508   5.705   6.435   3.515  0.4177 -3.1812 -0.0626
    6CHTO    C4 2509   5.636   6.249   3.341  0.2500 -0.4052  0.2384
    6CHTO   H17 2510   5.709   6.181   3.385 -0.5775 -1.2859  0.2581
    6CHTO    O1 2511   5.601   6.195   3.210 -0.2710 -0.4209 -0.3034
    6CHTO    C5 2512   5.709   6.148   3.133 -1.2665 -0.6916  0.0213
    6CHTO   H18 2513   5.772   6.095   3.205 -1.7851  1.0307  1.7912
    6CHTO   C16 2514   5.651   6.048   3.033 -0.8755 -0.2178  0.5524
    6CHTO   O11 2515   5.609   5.929   3.090 -0.5047 -0.3270 -0.1265
    6CHTO    H5 2516   5.614   5.861   3.026 -2.0518 -1.0512  0.4945
    6CHTO    O3 2517   5.524   6.270   3.432 -0.3841  0.2009  0.2997
    6CHTO    C6 2518   5.397   6.212   3.410  0.6016 -0.1843 -0.1051
    6CHTO   H19 2519   5.377   6.206   3.303  2.5730 -1.7169 -0.4125
    6CHTO    C8 2520   5.379   6.064   3.465 -0.9183  0.1332  0.4536
    6CHTO   H21 2521   5.413   6.061   3.568  0.0141 -1.0966  0.1240
    6CHTO    O7 2522   5.469   5.982   3.390 -0.1292  0.1846  0.0289
    6CHTO    H2 2523   5.544   5.971   3.447  0.4894  1.3380 -0.5538
    6CHTO   C12 2524   5.227   6.016   3.462  0.6616 -0.2798 -0.1977
    6CHTO   H25 2525   5.203   5.997   3.355  1.1398  0.3058 -0.4107
    6CHTO    N3 2526   5.202   5.891   3.540 -0.1575  0.2628  0.4580
    6CHTO   H12 2527   5.222   5.801   3.483  2.0001  0.9267  0.1057
    6CHTO   H13 2528   5.279   5.889   3.615  0.1772 -3.0886  0.1084
    6CHTO   C15 2529   5.134   6.132   3.502 -0.1561 -0.1751  0.1378
    6CHTO   H28 2530   5.118   6.138   3.609 -4.3831 -1.0516 -0.3442
    6CHTO   O10 2531   4.987   6.092   3.449 -0.2598 -0.1178 -0.0585
    6CHTO    H4 2532   4.948   6.026   3.503 -1.2595  1.4685  1.1972
    6CHTO    O5 2533   5.161   6.258   3.434  0.6047 -0.0953 -0.0930
    6CHTO   C10 2534   5.290   6.302   3.475  0.0784 -0.0479 -0.4000
    6CHTO   H23 2535   5.285   6.299   3.584 -0.7751  1.8192 -0.3725
    6CHTO   C17 2536   5.310   6.448   3.441 -0.5491 -0.7407 -0.1357
    6CHTO   O12 2537   5.278   6.466   3.300 -0.0113  0.3593  0.0881
    6CHTO    H6 2538   5.184   6.465   3.297  0.0133 -0.8606 -0.5167
    7CHTO  H203 2539   5.352   2.956   3.517 -0.9006 -0.1388  1.5547
    7CHTO   O82 2540   5.389   3.041   3.503 -0.4372 -0.5020  0.5381
    7CHTO  C123 2541   5.493   3.009   3.413 -0.0657  0.8372  0.0753
    7CHTO  H227 2542   5.463   3.011   3.307 -0.0363  0.4960  0.0617
    7CHTO   O77 2543   5.584   3.125   3.415 -0.5643  0.2755 -0.5072
    7CHTO  C118 2544   5.710   3.127   3.354 -0.5214 -0.1754 -0.3448
    7CHTO  H222 2545   5.698   3.126   3.245 -0.5663  1.4027 -0.3528
    7CHTO  C125 2546   5.773   3.271   3.389  0.4861  0.0433  0.0269
    7CHTO   O84 2547   5.895   3.287   3.319  0.3542 -0.3298 -0.4678
    7CHTO  H205 2548   5.979   3.268   3.357  1.3905  3.0096 -0.8956
    7CHTO  C114 2549   5.796   3.005   3.398 -0.4361 -0.4871 -0.7042
    7CHTO  H218 2550   5.816   3.016   3.505 -0.4380 -1.3772 -0.6099
    7CHTO  C116 2551   5.724   2.869   3.372  0.7831  0.1078  0.1405
    7CHTO  H220 2552   5.724   2.842   3.264 -1.0986 -0.9461  0.3800
    7CHTO   O79 2553   5.810   2.765   3.431 -0.2132  0.2444  0.0513
    7CHTO  H201 2554   5.801   2.776   3.524  2.4384  1.9259  0.1594
    7CHTO  C120 2555   5.576   2.876   3.441  0.4226 -0.4369 -0.1698
    7CHTO  H224 2556   5.584   2.865   3.551 -0.6066  1.3760  0.1023
    7CHTO   N21 2557   5.501   2.759   3.389  0.1209  0.1940  0.0859
    7CHTO  H211 2558   5.510   2.668   3.447 -1.5988 -0.3932 -0.5341
    7CHTO  H212 2559   5.514   2.745   3.283 -0.3205 -0.5126  0.1187
    7CHTO   O75 2560   5.917   3.016   3.329 -0.2365 -0.8297 -0.4358
    7CHTO  C112 2561   6.043   2.985   3.412 -0.5873  0.6661 -0.0483
    7CHTO  H216 2562   6.036   2.881   3.448  1.9281  0.2823 -0.5690
    7CHTO   O73 2563   6.056   3.078   3.517  0.0256 -0.1386  0.5626
    7CHTO  C113 2564   6.158   3.035   3.605  0.3845  0.2819 -0.0216
    7CHTO  H217 2565   6.134   2.929   3.631  0.5966 -0.2895 -2.0732
    7CHTO  C124 2566   6.138   3.119   3.730  0.1641 -1.0498 -0.4525
    7CHTO   O83 2567   6.169   3.261   3.722  0.4165  0.1712 -0.3098
    7CHTO  H204 2568   6.261   3.280   3.719  0.4857  0.2213  1.7491
    7CHTO  C109 2569   6.296   3.059   3.536  0.0131 -0.1949  0.0884
    7CHTO  H213 2570   6.301   3.167   3.515  0.9804 -0.1264  0.6318
    7CHTO  C110 2571   6.298   2.969   3.407 -0.7968  0.1473  0.5078
    7CHTO  H214 2572   6.299   2.869   3.449 -0.4505  1.0911  2.8068
    7CHTO   O78 2573   6.423   3.001   3.338  0.3977 -0.0019 -0.8037
    7CHTO  H200 2574   6.415   3.092   3.316 -0.4455  0.0038 -0.4805
    7CHTO  C111 2575   6.170   2.992   3.316 -0.9120 -0.0122 -0.6583
    7CHTO  H215 2576   6.173   3.092   3.270  0.4544  0.0500 -0.4515
    7CHTO   N19 2577   6.166   2.897   3.203 -0.2261 -0.3796  0.0122
    7CHTO  H207 2578   6.076   2.918   3.147  1.5276  0.7217 -2.4443
    7CHTO  H208 2579   6.249   2.919   3.139  0.4734 -0.5645  0.8415
    7CHTO   O74 2580   6.414   3.023   3.619 -0.5380  0.6624 -0.2270
    7CHTO  C115 2581   6.514   3.146   3.678  0.3044 -0.2222  0.2432
    7CHTO  H219 2582   6.534   3.222   3.603  1.2869 -1.9814 -1.3483
    7CHTO   O76 2583   6.441   3.226   3.819 -0.1644  0.1273 -0.2787
    7CHTO  C122 2584   6.430   3.137   3.927 -0.4252 -0.2359 -0.4320
    7CHTO  H226 2585   6.360   3.061   3.894 -0.0926 -0.8053  0.1680
    7CHTO  C126 2586   6.364   3.219   4.043  0.2963  0.1233 -0.2787
    7CHTO   O85 2587   6.222   3.228   4.020 -0.0017 -0.6076  0.2631
    7CHTO  H206 2588   6.178   3.287   4.079  1.7777  0.3622  0.6345
    7CHTO  C121 2589   6.563   3.078   3.966  0.5285  0.5314  0.2135
    7CHTO  H225 2590   6.627   3.168   3.979  2.2050 -0.2208 -2.4534
    7CHTO   O81 2591   6.558   3.015   4.091  0.7650  0.0326  0.1338
    7CHTO  H202 2592   6.525   3.082   4.149 -0.4398 -0.5225  0.1081
    7CHTO  C119 2593   6.626   2.993   3.855  0.4379 -0.1168  0.7427
    7CHTO  H223 2594   6.718   2.948   3.891 -0.2254  0.3738  3.1089
    7CHTO  C117 2595   6.654   3.083   3.727 -0.4997 -0.0553  0.7026
    7CHTO  H221 2596   6.688   3.026   3.641 -0.8633 -0.3574  0.7601
    7CHTO   N20 2597   6.753   3.182   3.745  0.4821 -0.2729 -0.5265
    7CHTO  H209 2598   6.799   3.185   3.843 -1.9997  3.3916  0.6250
    7CHTO  H210 2599   6.831   3.178   3.670  2.3407  0.5222  1.3153
    7CHTO   O80 2600   6.534   2.874   3.830 -0.5079  0.2636 -0.0744
    7CHTO  C103 2601   6.560   2.726   3.885 -0.0980 -0.0725  0.4910
    7CHTO  H190 2602   6.508   2.667   3.809 -1.5798 -1.0136  2.1985
    7CHTO  C101 2603   6.706   2.677   3.892 -0.4164  0.1731 -0.3508
    7CHTO  H188 2604   6.760   2.749   3.955  0.0650  1.1427 -1.8417
    7CHTO   O68 2605   6.769   2.685   3.749  0.1613 -0.1467  0.2588
    7CHTO  H168 2606   6.846   2.631   3.744 -0.3470 -0.7036 -2.3607
    7CHTO   C99 2607   6.724   2.537   3.955  0.0008 -0.8541 -0.2920
    7CHTO  H186 2608   6.683   2.460   3.885 -2.3398 -0.6601  0.8398
    7CHTO   N17 2609   6.868   2.503   3.975  0.4448  0.2930 -0.0547
    7CHTO  H174 2610   6.933   2.569   3.920 -0.0743  0.9341  0.0903
    7CHTO  H175 2611   6.902   2.485   4.076 -0.6713  1.2734  0.5080
    7CHTO   C97 2612   6.635   2.530   4.084 -0.4846  0.0543  0.5648
    7CHTO  H184 2613   6.687   2.583   4.166  1.3661 -0.2837 -0.3585
    7CHTO   O64 2614   6.498   2.575   4.065  0.3348 -0.7094 -0.0198
    7CHTO  C104 2615   6.479   2.701   4.019 -0.3338  0.2260  0.6381
    7CHTO  H191 2616   6.512   2.768   4.098 -0.1372  0.5327  0.2938
    7CHTO  C108 2617   6.328   2.715   4.000 -0.3795 -0.5514  0.6092
    7CHTO   O71 2618   6.294   2.838   3.930  0.3457  0.0610 -0.5803
    7CHTO  H171 2619   6.318   2.834   3.840 -0.2381 -0.2682 -0.7264
    7CHTO   O62 2620   6.611   2.395   4.120 -0.0121 -0.2029  0.3125
    7CHTO   C91 2621   6.676   2.350   4.241  0.3184 -0.3691 -0.2332
    7CHTO  H178 2622   6.768   2.408   4.242 -0.3072  0.6742 -1.7821
    7CHTO   C92 2623   6.708   2.192   4.224  0.0844 -0.2446  0.3593
    7CHTO  H179 2624   6.766   2.176   4.132 -0.1948  1.7782 -0.2034
    7CHTO   O66 2625   6.796   2.153   4.328  0.4861 -0.3492  0.4710
    7CHTO  H166 2626   6.824   2.217   4.391 -0.9796 -0.1554  0.9508
    7CHTO   C93 2627   6.577   2.106   4.241 -0.4767  0.4947 -0.3312
    7CHTO  H180 2628   6.614   2.017   4.293  0.9014  1.4107  0.2926
    7CHTO   N16 2629   6.514   2.065   4.112 -0.3118  0.4811 -0.4830
    7CHTO  H172 2630   6.408   2.050   4.128 -0.1672  0.4965  0.4752
    7CHTO  H173 2631   6.571   1.998   4.049  2.9705  2.9462 -0.2473
    7CHTO   C94 2632   6.473   2.172   4.330  0.0507  0.4709 -0.0409
    7CHTO  H181 2633   6.403   2.231   4.270 -1.6180 -2.3920 -0.9848
    7CHTO   O61 2634   6.532   2.258   4.432 -0.0602  0.2206  0.4177
    7CHTO   C95 2635   6.587   2.380   4.375 -0.2334  0.0604 -0.2091
    7CHTO  H182 2636   6.506   2.449   4.356 -0.2040  0.5100  1.1907
    7CHTO  C106 2637   6.678   2.446   4.486  0.3795  0.4052 -0.7829
    7CHTO   O69 2638   6.608   2.531   4.584  0.4733 -0.4006 -0.4131
    7CHTO  H169 2639   6.550   2.479   4.637 -0.0547  0.8453  0.2393
    7CHTO   O63 2640   6.368   2.037   4.417 -0.2745 -0.5711 -0.0479
    7CHTO   C96 2641   6.441   1.992   4.553  0.2373  0.1623 -0.2595
    7CHTO  H183 2642   6.503   2.075   4.586  0.4865 -0.2852  0.3916
    7CHTO   C98 2643   6.519   1.860   4.525  0.1619 -0.9879 -0.2407
    7CHTO  H185 2644   6.548   1.853   4.419  0.2206  3.9828 -0.6527
    7CHTO   O67 2645   6.643   1.862   4.589 -0.2982 -0.1478 -0.4594
    7CHTO  H167 2646   6.691   1.943   4.584  0.4558 -0.3829  2.0592
    7CHTO  C102 2647   6.449   1.728   4.559 -0.0824 -0.5393  0.2883
    7CHTO  H189 2648   6.527   1.652   4.558  2.7469  2.2664  0.1093
    7CHTO   N18 2649   6.346   1.679   4.462  0.1651  0.2779  0.8386
    7CHTO  H176 2650   6.275   1.758   4.448 -3.8813 -3.1416  0.9587
    7CHTO  H177 2651   6.304   1.587   4.501 -2.1687  0.0427 -2.0229
    7CHTO  C105 2652   6.401   1.733   4.707  0.1754 -0.1142 -0.5732
    7CHTO  H192 2653   6.316   1.668   4.726  1.7486 -1.5821  1.7315
    7CHTO   O65 2654   6.368   1.866   4.761 -0.6354 -0.3022  0.2158
    7CHTO  C100 2655   6.337   1.979   4.670  0.3920  0.0572  0.4268
    7CHTO  H187 2656   6.242   1.947   4.625 -0.8020  0.2802  2.7285
    7CHTO  C107 2657   6.309   2.110   4.753  0.1941 -0.0847 -0.0291
    7CHTO   O70 2658   6.273   2.223   4.675  0.3860 -0.7189  0.1580
    7CHTO  H170 2659   6.208   2.207   4.610  1.3017 -1.1055 -0.6856
    7CHTO   O57 2660   6.528   1.664   4.794  0.6298  0.2580  0.5400
    7CHTO   C85 2661   6.575   1.529   4.780 -0.1345 -0.6165  0.2443
    7CHTO  H157 2662   6.589   1.508   4.672 -0.6003  0.6540 -0.0682
    7CHTO   C83 2663   6.461   1.430   4.828  0.2130 -0.9120 -0.3507
    7CHTO  H155 2664   6.385   1.434   4.750 -1.6071  1.3449  1.4803
    7CHTO   O56 2665   6.405   1.462   4.953 -0.3885 -0.0757  0.2446
    7CHTO  H135 2666   6.460   1.522   4.999  0.5197 -0.7858  0.1039
    7CHTO   C81 2667   6.518   1.287   4.827  0.7728  0.1255  0.3393
    7CHTO  H153 2668   6.542   1.262   4.724 -2.8634  1.6294 -0.9887
    7CHTO   N14 2669   6.416   1.181   4.858 -0.9601 -0.0737  0.2603
    7CHTO  H141 2670   6.463   1.088   4.833 -2.4765 -0.1803 -2.3541
    7CHTO  H142 2671   6.393   1.168   4.962 -0.4134 -2.1981  0.1374
    7CHTO   C79 2672   6.652   1.281   4.917 -0.4657 -0.2761  0.2105
    7CHTO  H151 2673   6.693   1.181   4.905  1.9110  0.6465  0.3572
    7CHTO   O52 2674   6.753   1.380   4.882 -0.9265 -0.5817 -0.2010
    7CHTO   C86 2675   6.707   1.521   4.858 -0.1115 -0.5978  0.2207
    7CHTO  H158 2676   6.690   1.558   4.961 -0.2988  0.8676 -0.3353
    7CHTO   C90 2677   6.823   1.602   4.792 -0.1670 -0.3072  0.2959
    7CHTO   O60 2678   6.913   1.657   4.886 -0.0193 -0.5581 -0.3526
    7CHTO  H138 2679   6.955   1.735   4.855 -0.6152 -0.4858 -0.9884
    7CHTO   O50 2680   6.620   1.291   5.062 -0.1486 -0.1143 -0.0823
    7CHTO   C73 2681   6.641   1.219   5.180  0.6325 -0.1752 -0.8235
    7CHTO  H145 2682   6.743   1.179   5.186  0.4737 -0.3695  0.6994
    7CHTO   C74 2683   6.546   1.092   5.189  1.1015 -0.4833 -0.1796
    7CHTO  H146 2684   6.561   1.034   5.097  0.7662  2.1136 -1.9127
    7CHTO   O54 2685   6.585   1.010   5.295  0.5006  0.6507  0.4198
    7CHTO  H133 2686   6.514   1.016   5.357 -0.3669 -0.4371 -0.4428
    7CHTO   C75 2687   6.391   1.136   5.208 -0.4876  0.2138 -0.5681
    7CHTO  H147 2688   6.356   1.186   5.117 -2.8018  0.6394  0.5089
    7CHTO   N13 2689   6.289   1.035   5.239 -0.3009  0.4137 -0.3481
    7CHTO  H139 2690   6.200   1.086   5.274  0.0757  1.9415 -1.6368
    7CHTO  H140 2691   6.266   0.974   5.153 -1.6602 -0.5723  0.6851
    7CHTO   C76 2692   6.382   1.253   5.320 -0.9225 -0.1876  0.4800
    7CHTO  H148 2693   6.393   1.206   5.418 -1.1745 -1.4858 -0.1065
    7CHTO   O49 2694   6.478   1.358   5.307 -0.5519 -0.4238  0.8494
    7CHTO   C77 2695   6.618   1.309   5.305 -0.3964  0.7212  0.3180
    7CHTO  H149 2696   6.634   1.255   5.398 -0.0849  0.4434  0.1024
    7CHTO   C88 2697   6.712   1.426   5.305 -0.1650  0.1411 -0.1478
    7CHTO   O58 2698   6.703   1.510   5.407  0.0551  0.4094  0.0678
    7CHTO  H136 2699   6.707   1.456   5.483  1.1718  0.1311 -0.1860
    7CHTO   O51 2700   6.244   1.326   5.299 -0.0304  0.0028  0.5566
    7CHTO   C78 2701   6.167   1.365   5.427  0.3537  0.3643 -0.7325
    7CHTO  H150 2702   6.245   1.374   5.506 -1.2761  0.8508  0.8620
    7CHTO   C80 2703   6.069   1.253   5.474 -0.1678 -0.4444 -1.1898
    7CHTO  H152 2704   5.995   1.233   5.393 -0.0789  2.2132 -1.9695
    7CHTO   O55 2705   6.141   1.132   5.512  0.4682 -0.0981 -0.6277
    7CHTO  H134 2706   6.090   1.057   5.486  1.2142 -1.0795  0.6561
    7CHTO   C84 2707   5.984   1.304   5.596  0.9922  0.0430 -0.9275
    7CHTO  H156 2708   6.056   1.302   5.678  0.8005  1.4847 -0.7120
    7CHTO   N15 2709   5.872   1.211   5.629 -0.6039 -0.1748  0.1339
    7CHTO  H143 2710   5.840   1.244   5.726  0.3136 -2.2662  1.1672
    7CHTO  H144 2711   5.911   1.112   5.639  0.4036  0.0656 -1.2146
    7CHTO   C87 2712   5.931   1.447   5.571 -0.3636  0.2818  0.7561
    7CHTO  H159 2713   5.838   1.459   5.515 -0.5105  2.0206  1.3565
    7CHTO   O53 2714   6.029   1.524   5.525 -0.3247 -0.2544  0.5861
    7CHTO   C82 2715   6.093   1.499   5.399 -0.8978  0.3891  0.9019
    7CHTO  H154 2716   6.011   1.492   5.328 -0.7089 -1.2973  0.8416
    7CHTO   C89 2717   6.182   1.620   5.359 -0.2309 -0.1093 -0.3605
    7CHTO   O59 2718   6.119   1.749   5.371 -0.6223  0.5357  0.2347
    7CHTO  H137 2719   6.149   1.807   5.304 -1.2141  0.5183 -0.0453
    7CHTO   O45 2720   5.898   1.519   5.724 -0.0135 -0.5366 -0.6846
    7CHTO   C67 2721   5.862   1.660   5.720 -0.2883 -0.4042 -0.1433
    7CHTO  H124 2722   5.924   1.703   5.641 -1.1475  0.3697 -0.4074
    7CHTO   C65 2723   5.713   1.672   5.673 -0.2237 -0.2708  0.0048
    7CHTO  H122 2724   5.675   1.572   5.688 -0.0903 -0.5995 -1.7299
    7CHTO   O44 2725   5.703   1.702   5.534  0.1452 -0.0313  0.0336
    7CHTO  H102 2726   5.783   1.736   5.498 -0.3063 -0.1642 -1.1325
    7CHTO   C63 2727   5.625   1.759   5.771  0.7703 -0.1607 -0.0221
    7CHTO  H120 2728   5.624   1.716   5.871 -1.5409  1.7757  0.8547
    7CHTO   N11 2729   5.480   1.770   5.739 -0.1141  0.5647  0.2626
    7CHTO  H108 2730   5.459   1.834   5.656  0.0324  0.0676 -0.1658
    7CHTO  H109 2731   5.425   1.678   5.749  2.1750 -0.7218  1.4455
    7CHTO   C61 2732   5.695   1.898   5.786  1.1069  0.1043  0.0555
    7CHTO  H118 2733   5.634   1.959   5.853  1.2602  0.2855  0.0311
    7CHTO   O40 2734   5.832   1.889   5.844 -0.3103  0.1987 -0.1790
    7CHTO   C68 2735   5.897   1.757   5.846 -0.2998  0.2241  1.0730
    7CHTO  H125 2736   5.863   1.693   5.930 -0.9332 -1.3518 -0.3317
    7CHTO   C72 2737   6.051   1.770   5.863 -0.5239  1.0064  0.5579
    7CHTO   O48 2738   6.131   1.651   5.891  0.2756 -0.9737 -0.0553
    7CHTO  H105 2739   6.105   1.578   5.837 -2.4636 -1.3023  1.5649
    7CHTO   O38 2740   5.711   1.968   5.662  0.4366  0.3763  0.3021
    7CHTO   C55 2741   5.728   2.113   5.671  0.0451  0.6826  0.5502
    7CHTO  H112 2742   5.767   2.145   5.768 -1.5710  0.6840  1.2246
    7CHTO   C56 2743   5.586   2.191   5.634 -0.5025  0.4949  0.2747
    7CHTO  H113 2744   5.549   2.147   5.541 -0.8961  1.4688 -0.0372
    7CHTO   O42 2745   5.483   2.161   5.735 -0.0796  0.8219 -0.4384
    7CHTO  H100 2746   5.474   2.071   5.759 -1.6810  0.8827 -0.7173
    7CHTO   C57 2747   5.612   2.347   5.603 -0.0793 -0.6626  0.0448
    7CHTO  H114 2748   5.633   2.392   5.700  0.7863 -0.4524 -0.2334
    7CHTO   N10 2749   5.497   2.421   5.544  0.1077 -0.0975 -0.5686
    7CHTO  H106 2750   5.405   2.388   5.589 -1.8096  2.2191 -2.6405
    7CHTO  H107 2751   5.504   2.525   5.574  0.5620 -0.7444  1.6824
    7CHTO   C58 2752   5.740   2.372   5.516  0.7570 -0.1096 -0.1959
    7CHTO  H115 2753   5.723   2.333   5.413  3.6039  0.3905 -0.8970
    7CHTO   O37 2754   5.850   2.304   5.572  0.0513 -0.4099  0.3288
    7CHTO   C59 2755   5.846   2.158   5.574  0.7631  0.4550  0.1185
    7CHTO  H116 2756   5.822   2.115   5.477  0.5114 -0.2902  0.5119
    7CHTO   C70 2757   5.987   2.113   5.621  0.3083  0.3370 -0.1371
    7CHTO   O46 2758   6.025   1.974   5.601 -0.5444  0.3781 -0.1660
    7CHTO  H103 2759   6.043   1.952   5.512 -0.8298  1.1693 -0.4273
    7CHTO   O39 2760   5.781   2.538   5.523 -0.0663  0.0565 -0.0281
    7CHTO   C60 2761   5.889   2.559   5.430  0.7559  0.7291 -0.0828
    7CHTO  H117 2762   5.937   2.464   5.405  0.9824  1.6209 -3.2268
    7CHTO   C62 2763   5.836   2.622   5.299  0.0654 -0.3618  0.1134
    7CHTO  H119 2764   5.773   2.552   5.240  1.2150  0.1875 -1.8189
    7CHTO   O43 2765   5.757   2.737   5.323  0.6965  0.5345  0.5345
    7CHTO  H101 2766   5.695   2.764   5.258 -0.4785 -0.1425  1.3577
    7CHTO   C66 2767   5.976   2.653   5.218 -0.0055  0.4385 -0.0717
    7CHTO  H123 2768   6.026   2.558   5.199 -1.8033 -1.0985  2.4683
    7CHTO   N12 2769   5.950   2.716   5.084  0.1563 -0.6387 -0.2076
    7CHTO  H110 2770   5.867   2.684   5.022 -0.4447  0.6865 -0.1002
    7CHTO  H111 2771   5.973   2.821   5.073  0.3234 -0.6043  0.4488
    7CHTO   C69 2772   6.080   2.741   5.293 -0.4613 -0.4157  0.6031
    7CHTO  H126 2773   6.033   2.841   5.307 -0.4926 -0.1453 -1.3533
    7CHTO   O41 2774   6.116   2.685   5.421  0.3286  0.2616  0.1390
    7CHTO   C64 2775   5.998   2.654   5.494  0.0379 -0.6232  0.5116
    7CHTO  H121 2776   5.952   2.750   5.524  0.9996 -0.2620  0.8530
    7CHTO   C71 2777   6.056   2.599   5.631 -0.0761  0.0512  0.3695
    7CHTO   O47 2778   5.947   2.594   5.728  0.2258 -0.3489 -0.5472
    7CHTO  H104 2779   5.970   2.531   5.793 -1.4126  1.6666  2.1110
    7CHTO   O34 2780   6.212   2.764   5.217 -0.4643 -0.0872 -0.2918
    7CHTO   C49 2781   6.290   2.890   5.266 -0.3126 -0.6803  0.1254
    7CHTO   H91 2782   6.215   2.970   5.272 -0.0857 -0.5670  1.8913
    7CHTO   C47 2783   6.389   2.940   5.165  0.0392  0.1155  0.2208
    7CHTO   H89 2784   6.407   3.043   5.203  0.0412 -1.0069  3.4300
    7CHTO   O33 2785   6.327   2.945   5.033  0.1743  0.7086 -0.1443
    7CHTO   H70 2786   6.399   2.943   4.973  0.7501 -1.6427  0.5855
    7CHTO   C45 2787   6.516   2.845   5.163  0.6170  0.4229  0.3628
    7CHTO   H87 2788   6.505   2.766   5.088 -0.7383  0.8452  0.1036
    7CHTO    N8 2789   6.636   2.925   5.124 -0.0428  0.6087 -0.4293
    7CHTO   H75 2790   6.685   2.985   5.200  2.3590  0.0299 -1.4790
    7CHTO   H76 2791   6.708   2.880   5.058 -0.8517  2.6569 -2.7617
    7CHTO   C43 2792   6.531   2.758   5.298 -0.8022 -0.4511  0.0639
    7CHTO   H85 2793   6.461   2.675   5.288 -0.2112 -1.3149  2.7935
    7CHTO   O29 2794   6.498   2.840   5.410 -0.4299  0.0453 -0.2794
    7CHTO   C50 2795   6.366   2.885   5.411  0.2479 -0.4403 -0.5521
    7CHTO   H92 2796   6.309   2.823   5.481 -0.9052  0.6214 -0.5283
    7CHTO   C54 2797   6.366   3.024   5.485 -0.1720  0.5257 -0.6725
    7CHTO   O36 2798   6.463   3.115   5.438 -0.3817 -0.1563  0.5019
    7CHTO   H72 2799   6.532   3.114   5.501  1.5823 -0.5643 -1.5649
    7CHTO   O27 2800   6.669   2.710   5.310  0.0291 -0.2715 -0.5492
    7CHTO   C37 2801   6.736   2.616   5.385 -0.1212 -0.0973 -0.5486
    7CHTO   H79 2802   6.754   2.652   5.487 -0.4279  1.3373 -0.9879
    7CHTO   C38 2803   6.648   2.481   5.400  0.7838  0.5680  0.0678
    7CHTO   H80 2804   6.612   2.452   5.301 -1.5623 -1.4246  1.4501
    7CHTO   O31 2805   6.532   2.514   5.478  0.4644  0.1956 -0.1468
    7CHTO   H68 2806   6.471   2.443   5.480 -0.5205  1.0563  1.0846
    7CHTO   C39 2807   6.730   2.360   5.468 -0.6567 -0.9462 -0.6052
    7CHTO   H81 2808   6.732   2.373   5.576  0.7390 -3.4479 -0.2877
    7CHTO    N7 2809   6.651   2.232   5.459 -0.0317 -0.1444 -0.0479
    7CHTO   H73 2810   6.552   2.259   5.425  0.8630  3.3849 -0.1291
    7CHTO   H74 2811   6.652   2.173   5.550  0.7024 -0.9238 -0.5566
    7CHTO   C40 2812   6.878   2.353   5.427 -0.1766  0.4619 -0.3470
    7CHTO   H82 2813   6.888   2.295   5.336 -0.2894 -1.0986  0.6243
    7CHTO   O26 2814   6.941   2.483   5.415 -0.0910 -0.7876  0.2299
    7CHTO   C41 2815   6.877   2.580   5.329 -0.5038  0.1639 -0.1365
    7CHTO   H83 2816   6.872   2.546   5.225 -0.1479  1.6354 -0.6545
    7CHTO   C52 2817   6.971   2.704   5.324  0.2216  0.2560 -0.1608
    7CHTO   O35 2818   7.089   2.672   5.298  0.0418  0.3524 -0.0913
    7CHTO   H71 2819   7.128   2.597   5.339  2.8464  0.8074 -1.7651
    7CHTO   O28 2820   6.949   2.277   5.530  0.5162 -0.4156  0.3038
    7CHTO   C42 2821   7.075   2.223   5.502 -0.2360  0.5107 -0.1929
    7CHTO   H84 2822   7.100   2.197   5.605  1.9600  1.4020 -0.4708
    7CHTO   C44 2823   7.191   2.319   5.451 -0.7230  0.1314  0.0689
    7CHTO   H86 2824   7.166   2.362   5.354 -1.9815 -1.7929 -0.4906
    7CHTO   O32 2825   7.201   2.433   5.534  0.0975  0.3691  0.6800
    7CHTO   H69 2826   7.244   2.410   5.614 -0.8976  0.5945  1.2859
    7CHTO   C48 2827   7.322   2.240   5.439 -0.0349 -0.0262 -0.5683
    7CHTO   H90 2828   7.362   2.191   5.528 -2.9173 -1.0629  0.1887
    7CHTO    N9 2829   7.437   2.330   5.392  0.0022  0.6219 -0.1387
    7CHTO   H77 2830   7.402   2.430   5.413  1.3022  0.9286  0.5893
    7CHTO   H78 2831   7.531   2.305   5.438 -0.9799 -1.4884  0.7971
    7CHTO   C51 2832   7.300   2.114   5.344 -0.4078 -0.0772 -0.6917
    7CHTO   H93 2833   7.247   2.152   5.257 -1.5363  0.8358  0.3731
    7CHTO   O30 2834   7.221   2.023   5.413  0.0096  0.0436  0.6308
    7CHTO   C46 2835   7.068   2.093   5.418  0.0260  0.6856 -0.2869
    7CHTO   H88 2836   7.037   2.116   5.316 -1.1031  1.7170  0.2699
    7CHTO   C53 2837   6.988   1.986   5.491 -0.5042  0.5290  0.7123
    7CHTO   O72 2838   6.983   1.865   5.413  0.0310 -0.3733 -0.4375
    7CHTO  H199 2839   6.902   1.855   5.367 -0.9266  1.2241  0.8588
    7CHTO   O22 2840   7.417   2.036   5.315 -0.4721 -0.0601  0.0090
    7CHTO   C31 2841   7.433   1.962   5.188  0.2628  0.2500 -0.3359
    7CHTO   H59 2842   7.522   1.899   5.206 -0.2205 -0.5946 -0.8318
    7CHTO   C29 2843   7.322   1.868   5.141  0.8081  0.8561 -0.5353
    7CHTO   H57 2844   7.224   1.918   5.145  0.5105  0.5294 -2.7450
    7CHTO   O21 2845   7.310   1.763   5.235 -0.5493 -0.0416  0.2933
    7CHTO   H37 2846   7.370   1.691   5.226  0.7328  0.6759  2.7797
    7CHTO   C27 2847   7.357   1.810   4.994 -0.4894 -0.5462  0.1656
    7CHTO   H55 2848   7.445   1.743   4.998  2.1939  2.8011 -0.2744
    7CHTO    N5 2849   7.248   1.736   4.927  0.1161 -0.2283 -0.3613
    7CHTO   H43 2850   7.274   1.697   4.829  1.3157 -2.3601  0.7809
    7CHTO   H44 2851   7.156   1.792   4.914  0.7687  0.3218 -2.9033
    7CHTO   C25 2852   7.412   1.919   4.894  0.0059 -0.3386 -0.1129
    7CHTO   H53 2853   7.334   1.993   4.869  1.1316  0.2548 -1.9855
    7CHTO   O17 2854   7.524   1.987   4.959 -0.2417  1.2825  0.4441
    7CHTO   C32 2855   7.473   2.065   5.071 -0.0627 -0.1882 -0.1388
    7CHTO   H60 2856   7.386   2.123   5.042 -0.9057 -0.6444  1.3997
    7CHTO   C36 2857   7.587   2.166   5.108 -0.0753 -0.7929 -0.5307
    7CHTO   O25 2858   7.573   2.282   5.029  0.3383 -0.0627  0.2769
    7CHTO   H40 2859   7.614   2.274   4.945 -0.0813  1.3940 -0.0805
    7CHTO   O15 2860   7.465   1.844   4.746 -0.6244 -0.4725 -0.2785
    7CHTO   C19 2861   7.465   1.912   4.617  0.9384  0.2948 -0.3347
    7CHTO   H47 2862   7.538   1.856   4.555  0.5995 -0.2919 -0.2081
    7CHTO   C20 2863   7.336   1.895   4.543  0.0694 -0.3419 -0.2854
    7CHTO   H48 2864   7.252   1.943   4.596  0.1408 -1.1591  0.5837
    7CHTO   O19 2865   7.306   1.755   4.530 -0.2377  0.2979  0.6500
    7CHTO   H35 2866   7.230   1.747   4.475  0.6814 -1.6618 -0.3926
    7CHTO   C21 2867   7.347   1.969   4.398  0.1557  0.1861 -0.3219
    7CHTO   H49 2868   7.415   1.915   4.333 -1.9647 -0.4257 -2.1106
    7CHTO    N4 2869   7.219   1.962   4.324 -0.4316 -0.3447  0.1765
    7CHTO   H41 2870   7.225   1.907   4.231 -1.0657 -1.9314  1.0646
    7CHTO   H42 2871   7.141   1.917   4.382 -0.5870  1.2811  1.2529
    7CHTO   C22 2872   7.405   2.112   4.414  0.5677  0.3291 -0.8029
    7CHTO   H50 2873   7.331   2.171   4.468 -1.3874 -1.1840 -1.7466
    7CHTO   O14 2874   7.523   2.110   4.487 -0.2758  0.2793 -0.2898
    7CHTO   C23 2875   7.513   2.063   4.623  0.0109  0.1552 -0.3286
    7CHTO   H51 2876   7.447   2.128   4.683  1.0991  0.1139  0.9340
    7CHTO   C34 2877   7.656   2.067   4.681  0.6410  0.0044 -0.0034
    7CHTO   O23 2878   7.697   2.202   4.691  0.5836 -0.6487 -0.1774
    7CHTO   H38 2879   7.786   2.212   4.666  0.8506 -1.7887  0.2945
    7CHTO   O16 2880   7.453   2.172   4.290  0.3548 -0.5672  0.4615
    7CHTO   C24 2881   7.404   2.311   4.273  0.3978  0.6977 -0.1600
    7CHTO   H52 2882   7.324   2.337   4.342  0.4291 -1.2747  0.6629
    7CHTO   C26 2883   7.367   2.333   4.127 -1.2369  0.4625 -0.3628
    7CHTO   H54 2884   7.460   2.322   4.067 -0.1024  0.9406  1.2852
    7CHTO   O20 2885   7.292   2.219   4.080 -0.1866  0.0537  0.0056
    7CHTO   H36 2886   7.278   2.216   3.987  1.7877 -1.5757 -0.2848
    7CHTO   C30 2887   7.308   2.477   4.113 -0.5618 -0.0817  0.0766
    7CHTO   H58 2888   7.212   2.487   4.166 -0.9366  2.1077 -0.9327
    7CHTO    N6 2889   7.267   2.500   3.973  0.4375  0.4726  0.1433
    7CHTO   H45 2890   7.211   2.592   3.968 -0.5601 -0.0305  1.7748
    7CHTO   H46 2891   7.199   2.420   3.946  0.3353  0.7563 -0.4428
    7CHTO   C33 2892   7.405   2.585   4.170  0.2583 -0.3605  0.0985
    7CHTO   H61 2893   7.488   2.605   4.099  1.9415  1.5840  2.5010
    7CHTO   O18 2894   7.467   2.550   4.295  1.2263  0.2954  0.2438
    7CHTO   C28 2895   7.517   2.412   4.307 -0.8139 -0.2770 -1.0700
    7CHTO   H56 2896   7.606   2.397   4.246 -0.4202  2.7864 -1.3488
    7CHTO   C35 2897   7.569   2.408   4.456  0.3684  0.0631  0.7333
    7CHTO   O24 2898   7.683   2.500   4.481  0.5485  0.4449  0.2650
    7CHTO   H39 2899   7.657   2.589   4.467  1.6025  0.7894  0.4787
    7CHTO    O9 2900   7.331   2.714   4.185 -0.1370  0.1603  0.2942
    7CHTO   C13 2901   7.404   2.844   4.116  0.2010 -0.2535 -0.0081
    7CHTO   H26 2902   7.462   2.806   4.030 -0.2119 -1.5983  0.2912
    7CHTO   C11 2903   7.497   2.904   4.221  0.5408 -0.5749  0.4048
    7CHTO   H24 2904   7.585   2.839   4.232  0.9613  0.0081  0.5064
    7CHTO    O8 2905   7.430   2.917   4.352  0.4446  0.6937  0.3368
    7CHTO    H3 2906   7.488   2.934   4.424 -1.0493 -0.1614  1.7798
    7CHTO    C9 2907   7.540   3.042   4.164 -0.9056  0.0734 -0.3655
    7CHTO   H22 2908   7.564   3.025   4.058 -0.8670  1.5788 -0.5982
    7CHTO    N2 2909   7.673   3.088   4.219 -0.4254 -0.1195 -0.0398
    7CHTO   H10 2910   7.659   3.189   4.255 -2.1585 -0.2546 -0.2718
    7CHTO   H11 2911   7.709   3.022   4.296 -1.5041 -1.9982 -1.1153
    7CHTO    C7 2912   7.411   3.137   4.176  0.7742  0.0428  0.1844
    7CHTO   H20 2913   7.428   3.219   4.103 -2.7522  0.7411  0.0586
    7CHTO    O4 2914   7.285   3.066   4.159  0.1095  0.2074  0.1543
    7CHTO   C14 2915   7.292   2.951   4.069  0.4731  0.1355 -0.3321
    7CHTO   H27 2916   7.316   2.995   3.970 -0.0844  3.0549  0.7658
    7CHTO   C18 2917   7.146   2.903   4.055 -0.4713 -0.5259  0.2661
    7CHTO   O13 2918   7.138   2.831   3.931 -0.3251 -0.5115  0.4215
    7CHTO    H7 2919   7.150   2.739   3.947  0.5505  0.2412  4.6790
    7CHTO    O2 2920   7.408   3.200   4.320 -0.0947 -0.4708  0.2972
    7CHTO    C1 2921   7.327   3.322   4.320  0.1184 -0.5340  0.0453
    7CHTO   H14 2922   7.258   3.330   4.234  0.4610 -0.4268 -0.2200
    7CHTO    C2 2923   7.399   3.456   4.331 -0.0809 -0.5191  0.3682
    7CHTO   H15 2924   7.470   3.449   4.415 -1.8671 -3.4036  1.6964
    7CHTO    O6 2925   7.459   3.484   4.203 -0.3362  0.3639 -0.4627
    7CHTO    H1 2926   7.442   3.574   4.184  0.7227  0.2646 -2.0757
    7CHTO    C3 2927   7.290   3.571   4.371  0.4306 -0.3537  0.2126
    7CHTO   H16 2928   7.220   3.576   4.287  0.5691 -0.7456  0.0742
    7CHTO    N1 2929   7.353   3.705   4.384 -0.0280  0.1797 -0.1615
    7CHTO    H8 2930   7.300   3.777   4.445  0.7618  0.5470  0.0983
    7CHTO    H9 2931   7.449   3.697   4.433 -0.7604 -0.2697  1.2249
    7CHTO    C4 2932   7.206   3.532   4.495 -0.5238  0.7669  0.9254
    7CHTO   H17 2933   7.279   3.519   4.575  0.9581  1.5443 -0.2601
    7CHTO    O1 2934   7.148   3.406   4.470  0.1150  0.8285 -0.2300
    7CHTO    C5 2935   7.235   3.302   4.452 -0.0478  0.2027 -0.3868
    7CHTO   H18 2936   7.305   3.298   4.535 -0.2593  2.2438 -0.0990
    7CHTO   C16 2937   7.143   3.178   4.455 -0.0665 -0.5166 -0.3449
    7CHTO   O11 2938   7.202   3.047   4.460 -0.0087 -0.7196  0.2170
    7CHTO    H5 2939   7.247   3.043   4.542 -0.2652  1.7185  0.5063
    7CHTO    O3 2940   7.100   3.623   4.519  0.7357 -0.5758  0.4718
    7CHTO    C6 2941   7.027   3.635   4.645  0.2709 -0.4560  0.1653
    7CHTO   H19 2942   6.941   3.702   4.635  1.1633  1.6318  5.0858
    7CHTO    C8 2943   6.978   3.499   4.701 -0.0432  0.3572 -0.5400
    7CHTO   H21 2944   7.066   3.436   4.714 -2.2586 -2.9892 -1.2202
    7CHTO    O7 2945   6.889   3.441   4.606  0.3854  0.0422 -0.5512
    7CHTO    H2 2946   6.814   3.496   4.596  0.6903  0.4149 -0.7820
    7CHTO   C12 2947   6.899   3.526   4.835  0.0148 -0.4702 -0.4519
    7CHTO   H25 2948   6.814   3.592   4.813  1.0382  1.2430  0.6602
    7CHTO    N3 2949   6.837   3.398   4.899 -0.5231  0.3621 -0.3065
    7CHTO   H12 2950   6.759   3.367   4.831  0.0136  0.4527 -0.9811
    7CHTO   H13 2951   6.920   3.331   4.915 -0.5232  0.8400  1.8564
    7CHTO   C15 2952   6.996   3.603   4.929  0.2827 -0.1003  0.0060
    7CHTO   H28 2953   7.075   3.533   4.957  2.0750  2.0169  0.4055
    7CHTO   O10 2954   6.931   3.639   5.061  0.2364 -0.7605 -0.1587
    7CHTO    H4 2955   6.917   3.559   5.108 -4.0219 -0.2902 -0.4958
    7CHTO    O5 2956   7.047   3.726   4.872 -0.2766 -0.2265  0.4146
    7CHTO   C10 2957   7.122   3.694   4.757 -0.4260 -0.1538  0.2911
    7CHTO   H23 2958   7.203   3.625   4.781 -0.2398 -0.8067 -2.1141
    7CHTO   C17 2959   7.190   3.826   4.713 -0.3932 -0.3307  0.3343
    7CHTO   O12 2960   7.311   3.862   4.786 -0.0769  0.4759 -0.0453
    7CHTO    H6 2961   7.366   3.920   4.736  1.4691 -0.6206  0.3554
    8CHTO  H203 2962   7.908   7.366   0.568  1.0873 -0.5020  0.3412
    8CHTO   O82 2963   7.885   7.278   0.589  0.2676 -0.2872  0.3304
    8CHTO  C123 2964   7.753   7.259   0.650  0.6848 -0.7007 -0.4407
    8CHTO  H227 2965   7.738   7.155   0.683 -0.3849 -0.8963 -1.4932
    8CHTO   O77 2966   7.769   7.338   0.774  0.1222  0.2981  0.0884
    8CHTO  C118 2967   7.671   7.313   0.871 -0.0746 -0.0850 -0.6176
    8CHTO  H222 2968   7.648   7.207   0.889  1.8179 -0.4104 -0.0915
    8CHTO  C125 2969   7.739   7.369   1.001  0.1061  0.1424  0.1651
    8CHTO   O84 2970   7.649   7.389   1.110  0.1201  0.1087  0.0771
    8CHTO  H205 2971   7.688   7.425   1.187  0.2923  2.0964 -0.8951
    8CHTO  C114 2972   7.544   7.389   0.829  0.3668 -0.2181 -0.0421
    8CHTO  H218 2973   7.567   7.495   0.827  0.1782 -0.1982 -2.9311
    8CHTO  C116 2974   7.512   7.341   0.676 -0.9275 -0.1926  0.4994
    8CHTO  H220 2975   7.477   7.236   0.676  1.0683 -0.8948 -0.6492
    8CHTO   O79 2976   7.400   7.422   0.618 -0.7291  0.6844  0.3038
    8CHTO  H201 2977   7.326   7.365   0.618 -0.3218  0.1327  2.5236
    8CHTO  C120 2978   7.639   7.340   0.584  1.0438 -0.0559  0.4524
    8CHTO  H224 2979   7.669   7.447   0.585 -0.5875  0.4308 -0.5960
    8CHTO   N21 2980   7.611   7.298   0.441 -0.1037  0.1469 -0.4318
    8CHTO  H211 2981   7.676   7.348   0.370  1.0078 -0.5095  0.1016
    8CHTO  H212 2982   7.632   7.192   0.435  0.3507  0.2015  0.1925
    8CHTO   O75 2983   7.439   7.352   0.924  0.0507  0.1530  0.1668
    8CHTO  C112 2984   7.306   7.462   0.940 -1.0595  0.2458 -0.6690
    8CHTO  H216 2985   7.218   7.413   0.897  0.0187 -1.1871 -1.2629
    8CHTO   O73 2986   7.341   7.580   0.867 -0.3894 -0.3734 -0.1769
    8CHTO  C113 2987   7.229   7.668   0.857 -0.4332 -0.3768  0.1163
    8CHTO  H217 2988   7.147   7.605   0.818 -1.3068  1.8714 -1.7153
    8CHTO  C124 2989   7.254   7.778   0.753  0.1562 -0.1505 -0.5000
    8CHTO   O83 2990   7.366   7.758   0.672  0.2571  0.4759 -0.0566
    8CHTO  H204 2991   7.363   7.835   0.618  2.2939 -0.2948 -1.3671
    8CHTO  C109 2992   7.187   7.722   0.997  0.2316  0.2638  0.1674
    8CHTO  H213 2993   7.266   7.791   1.030  1.1917 -1.6431  1.9783
    8CHTO  C110 2994   7.169   7.612   1.102  0.0866  0.0008 -0.3778
    8CHTO  H214 2995   7.069   7.568   1.098  0.4279 -0.9192  0.9977
    8CHTO   O78 2996   7.172   7.677   1.227  0.1716  0.1284  0.1541
    8CHTO  H200 2997   7.167   7.614   1.297  0.1518 -0.5380 -0.4423
    8CHTO  C111 2998   7.279   7.504   1.094 -0.4427  0.4529  0.6218
    8CHTO  H215 2999   7.372   7.544   1.135 -0.6928  0.7997  0.8553
    8CHTO   N19 3000   7.246   7.381   1.177 -0.5414  0.0472  0.7836
    8CHTO  H207 3001   7.144   7.350   1.159 -0.5629  1.7955 -2.3683
    8CHTO  H208 3002   7.256   7.420   1.277 -0.3094  1.2074  0.3068
    8CHTO   O74 3003   7.065   7.796   0.983  0.0293 -0.3472  0.1430
    8CHTO  C115 3004   7.023   7.911   1.088  0.0147 -0.3742 -0.2002
    8CHTO  H219 3005   6.978   7.868   1.178 -1.0172  1.7077  0.2974
    8CHTO   O76 3006   7.142   7.995   1.133 -0.0419 -0.0752 -0.1053
    8CHTO  C122 3007   7.177   8.093   1.036 -0.3752 -0.3009 -0.0268
    8CHTO  H226 3008   7.199   8.057   0.936  1.4034  1.8435 -0.4544
    8CHTO  C126 3009   7.307   8.169   1.083 -0.2807 -0.4560  0.3971
    8CHTO   O85 3010   7.371   8.254   0.988 -0.3779  0.0094 -0.5225
    8CHTO  H206 3011   7.429   8.320   1.019 -0.8338 -0.6141  1.7353
    8CHTO  C121 3012   7.053   8.198   1.029  0.7403  0.6281 -0.2483
    8CHTO  H225 3013   7.076   8.276   1.105 -0.9555 -0.3151  1.2643
    8CHTO   O81 3014   7.047   8.272   0.906 -0.1442 -0.1352 -0.2361
    8CHTO  H202 3015   7.137   8.289   0.883 -0.0924 -2.3985 -1.8640
    8CHTO  C119 3016   6.909   8.142   1.055  0.9489  0.1967  0.4195
    8CHTO  H223 3017   6.895   8.155   1.162 -2.3393 -1.4804  0.2578
    8CHTO  C117 3018   6.904   7.993   1.020  0.3273 -0.3007 -0.0298
    8CHTO  H221 3019   6.920   7.979   0.913  1.7182  0.5755  0.0408
    8CHTO   N20 3020   6.765   7.937   1.046 -0.7301 -0.1588  0.4827
    8CHTO  H209 3021   6.753   7.833   1.020  0.7158 -0.3223  0.4111
    8CHTO  H210 3022   6.686   7.997   1.003 -1.9325 -1.0310  1.4359
    8CHTO   O80 3023   6.789   8.232   0.998 -0.4048 -0.5957  0.8267
    8CHTO  C103 3024   6.761   8.381   1.060 -0.4750 -0.2060 -0.7654
    8CHTO  H190 3025   6.675   8.368   1.126 -0.3499 -0.1580 -0.5891
    8CHTO  C101 3026   6.877   8.466   1.129  0.4209 -1.5185  0.4837
    8CHTO  H188 3027   6.963   8.464   1.062  0.1749  1.7699 -0.0211
    8CHTO   O68 3028   6.913   8.408   1.264 -0.1024 -0.0142 -0.2576
    8CHTO  H168 3029   6.833   8.402   1.313  0.9045  1.0569  1.6003
    8CHTO   C99 3030   6.841   8.622   1.146 -0.4406 -0.3183 -0.3310
    8CHTO  H186 3031   6.777   8.647   1.234 -1.0660  1.2719 -1.2033
    8CHTO   N17 3032   6.955   8.707   1.196 -0.0302 -0.3005 -0.3798
    8CHTO  H174 3033   6.993   8.669   1.290 -3.1933 -0.1912  0.9994
    8CHTO  H175 3034   6.922   8.807   1.220  0.2203  0.1378 -1.7903
    8CHTO   C97 3035   6.767   8.680   1.026  0.2421 -0.3411 -0.4187
    8CHTO  H184 3036   6.837   8.699   0.943 -3.0800 -1.9098 -3.7653
    8CHTO   O64 3037   6.664   8.589   0.984  0.3001  0.4690  0.0552
    8CHTO  C104 3038   6.714   8.466   0.936  0.1906  0.6105 -0.4454
    8CHTO  H191 3039   6.804   8.487   0.878 -0.0987  2.1298 -0.3640
    8CHTO  C108 3040   6.615   8.401   0.837  1.0695  0.8004 -0.6744
    8CHTO   O71 3041   6.565   8.495   0.739  0.3654 -0.6903 -0.4750
    8CHTO  H171 3042   6.476   8.512   0.766  0.4718 -0.0643 -0.5012
    8CHTO   O62 3043   6.685   8.794   1.056 -0.3057  0.7733  0.4522
    8CHTO   C91 3044   6.739   8.924   1.010 -0.0477  0.5681  0.3922
    8CHTO  H178 3045   6.848   8.915   1.007  0.1340  2.1534  1.4382
    8CHTO   C92 3046   6.695   9.019   1.124  0.4602  0.5480  0.5468
    8CHTO  H179 3047   6.586   9.011   1.140  0.3401  1.6186  0.3257
    8CHTO   O66 3048   6.761   8.976   1.239 -0.0464  0.0448  0.0617
    8CHTO  H166 3049   6.736   8.890   1.267 -0.0445 -0.1487 -0.5253
    8CHTO   C93 3050   6.744   9.173   1.091 -0.3996 -0.0153 -0.0732
    8CHTO  H180 3051   6.853   9.185   1.100 -0.4836  0.9869 -0.3525
    8CHTO   N16 3052   6.693   9.275   1.192 -0.8167 -0.4882  0.4840
    8CHTO  H172 3053   6.738   9.371   1.175  0.1977 -0.6604  2.1021
    8CHTO  H173 3054   6.717   9.241   1.292 -3.5828 -0.7449  1.1258
    8CHTO   C94 3055   6.703   9.221   0.951  0.4376 -0.1391 -0.0152
    8CHTO  H181 3056   6.599   9.253   0.948 -0.1269 -1.8023  0.8968
    8CHTO   O61 3057   6.720   9.119   0.853  0.1111  0.8267 -0.0629
    8CHTO   C95 3058   6.673   8.983   0.875 -0.2695  0.1551 -0.1434
    8CHTO  H182 3059   6.564   8.981   0.875 -0.2735 -0.2566  1.4213
    8CHTO  C106 3060   6.714   8.907   0.753 -0.3146 -0.3526 -0.3525
    8CHTO   O69 3061   6.644   8.780   0.744 -0.6961  0.3946 -0.1287
    8CHTO  H169 3062   6.647   8.741   0.659 -1.9190  0.0473 -0.0249
    8CHTO   O63 3063   6.791   9.337   0.901 -0.1599  0.4674 -0.2069
    8CHTO   C96 3064   6.776   9.385   0.733  0.4818 -0.6223  0.4358
    8CHTO  H183 3065   6.705   9.318   0.684 -0.0916  0.7509 -0.6358
    8CHTO   C98 3066   6.915   9.374   0.653 -0.8292  0.0506  0.1464
    8CHTO  H185 3067   6.993   9.418   0.717 -1.5290  1.3576  0.1276
    8CHTO   O67 3068   6.946   9.233   0.645 -0.4795  0.1110 -0.1319
    8CHTO  H167 3069   6.954   9.203   0.734 -0.3086 -0.0649 -0.2062
    8CHTO  C102 3070   6.910   9.451   0.512 -0.7572 -0.5278  0.5451
    8CHTO  H189 3071   6.855   9.382   0.446 -1.5455 -0.1435  0.7856
    8CHTO   N18 3072   7.049   9.459   0.461 -0.4113 -0.5285 -0.1603
    8CHTO  H176 3073   7.114   9.526   0.515  0.9451 -2.2852  0.4384
    8CHTO  H177 3074   7.051   9.488   0.358 -0.8281 -0.2537 -0.0912
    8CHTO  C105 3075   6.831   9.584   0.515 -0.4948  0.7679  0.1187
    8CHTO  H192 3076   6.896   9.662   0.556 -0.0397 -0.6852  2.2042
    8CHTO   O65 3077   6.709   9.569   0.584  0.0270 -1.0980 -0.0133
    8CHTO  C100 3078   6.722   9.535   0.722  0.4532  0.1625 -0.7694
    8CHTO  H187 3079   6.801   9.589   0.775  0.6447  0.2938 -1.1853
    8CHTO  C107 3080   6.581   9.554   0.792  0.3648 -0.2148  0.2852
    8CHTO   O70 3081   6.580   9.527   0.929  0.4258 -0.1764 -0.5756
    8CHTO  H170 3082   6.653   9.472   0.949  0.9479  1.1126  1.2181
    8CHTO   O57 3083   6.788   9.612   0.371 -0.1801  0.8435  0.3356
    8CHTO   C85 3084   6.801   9.738   0.304 -0.0011 -0.3019  0.7132
    8CHTO  H157 3085   6.910   9.761   0.302  0.1148 -0.8483  0.7816
    8CHTO   C83 3086   6.733   9.838   0.406 -0.5179  0.1426 -0.1623
    8CHTO  H155 3087   6.778   9.833   0.505 -0.4849  0.1284 -0.1782
    8CHTO   O56 3088   6.591   9.805   0.406  0.7660 -0.3765  0.0947
    8CHTO  H135 3089   6.533   9.877   0.421  0.2654 -0.7181 -0.2188
    8CHTO   C81 3090   6.758   9.982   0.344  0.2286 -0.0578 -0.7795
    8CHTO  H153 3091   6.866   9.996   0.336  0.7030 -0.9909  2.9915
    8CHTO   N14 3092   6.715  10.088   0.447  0.2609 -0.0121 -0.1325
    8CHTO  H141 3093   6.610  10.104   0.461  0.3241 -0.8043  1.4132
    8CHTO  H142 3094   6.756  10.056   0.541  0.0498  0.1481  0.0162
    8CHTO   C79 3095   6.691   9.994   0.200 -0.1840  0.1874  0.1714
    8CHTO  H151 3096   6.729  10.086   0.155  0.3937 -1.0487 -1.9633
    8CHTO   O52 3097   6.732   9.888   0.108  0.8831  0.2042 -0.9722
    8CHTO   C86 3098   6.730   9.749   0.160 -0.0052 -0.3871 -0.4159
    8CHTO  H158 3099   6.626   9.712   0.164 -0.4510  0.6421 -2.1386
    8CHTO   C90 3100   6.820   9.667   0.068  0.3578 -0.0797 -0.0566
    8CHTO   O60 3101   6.804   9.683  -0.073 -0.4921 -0.4111  0.3180
    8CHTO  H138 3102   6.810   9.600  -0.118  0.6393  0.2430 -0.7709
    8CHTO   O50 3103   6.547   9.996   0.215 -0.6443 -0.5192  0.2118
    8CHTO   C73 3104   6.447  10.023   0.116  0.1598  0.2256 -0.1184
    8CHTO  H145 3105   6.487   9.996   0.017 -0.0655  0.2003 -0.2032
    8CHTO   C74 3106   6.413  10.178   0.123 -0.7677  0.2455  0.4232
    8CHTO  H146 3107   6.489  10.251   0.090 -0.9224 -0.1905 -0.9333
    8CHTO   O54 3108   6.318  10.196   0.010 -0.0180  0.5318 -0.2817
    8CHTO  H133 3109   6.236  10.231   0.040 -0.6846 -1.6842  0.5902
    8CHTO   C75 3110   6.347  10.219   0.263 -0.6628  0.3182  0.0698
    8CHTO  H147 3111   6.421  10.196   0.341  0.0159 -2.9545 -1.4367
    8CHTO   N13 3112   6.306  10.359   0.269 -0.4557 -0.3818  0.3354
    8CHTO  H139 3113   6.336  10.414   0.182  1.4125  0.6780  1.6134
    8CHTO  H140 3114   6.331  10.416   0.357 -0.3413  1.1026 -0.6553
    8CHTO   C76 3115   6.224  10.122   0.293 -0.0400  0.3087 -0.9470
    8CHTO  H148 3116   6.140  10.150   0.231  2.6383  1.3690 -4.2701
    8CHTO   O49 3117   6.266   9.982   0.270  0.3737 -0.2211  0.3887
    8CHTO   C77 3118   6.317   9.942   0.148 -0.3423  0.5063  0.3311
    8CHTO  H149 3119   6.236   9.965   0.080 -2.4740 -0.4595  2.4820
    8CHTO   C88 3120   6.333   9.790   0.147 -0.7312  0.1493 -0.1651
    8CHTO   O58 3121   6.214   9.735   0.160 -0.2114  0.3650  0.0541
    8CHTO  H136 3122   6.227   9.644   0.179  0.3300  0.4956  0.2880
    8CHTO   O51 3123   6.202  10.130   0.445  0.3483  0.6176 -0.5455
    8CHTO   C78 3124   6.085  10.053   0.496 -0.3837  0.4011 -0.8450
    8CHTO  H150 3125   6.056   9.981   0.418  1.9007 -0.5407 -0.8764
    8CHTO   C80 3126   5.972  10.148   0.526  0.1504 -0.1531 -0.6566
    8CHTO  H152 3127   6.006  10.234   0.587 -0.9668 -1.7136  2.2675
    8CHTO   O55 3128   5.934  10.195   0.394 -0.3859  0.3853 -0.3324
    8CHTO  H134 3129   5.906  10.285   0.398  0.4286  0.6558 -0.6667
    8CHTO   C84 3130   5.857  10.070   0.602  0.1727  0.5263  0.1050
    8CHTO  H156 3131   5.805  10.010   0.527 -0.5600 -0.5573  1.4646
    8CHTO   N15 3132   5.754  10.162   0.658 -0.2297  0.3127  0.0802
    8CHTO  H143 3133   5.795  10.201   0.748  0.1216  0.3152 -0.0820
    8CHTO  H144 3134   5.723  10.235   0.586 -1.1830 -0.3963 -0.2456
    8CHTO   C87 3135   5.898   9.977   0.714 -0.6339  0.2689  0.2918
    8CHTO  H159 3136   5.922  10.035   0.803  0.4227 -0.4139  0.4623
    8CHTO   O53 3137   6.018   9.909   0.675  0.5956  0.0390 -0.0184
    8CHTO   C82 3138   6.132   9.977   0.617  0.1597  0.1024  0.2664
    8CHTO  H154 3139   6.175  10.043   0.692 -0.7671  0.6647  0.3104
    8CHTO   C89 3140   6.230   9.864   0.596  0.3759  0.0960  0.5037
    8CHTO   O59 3141   6.357   9.916   0.567  0.1814  0.1961 -0.4016
    8CHTO  H137 3142   6.419   9.874   0.623  0.3703 -0.0376 -0.7888
    8CHTO   O45 3143   5.774   9.879   0.761 -0.0901  0.2027 -0.3805
    8CHTO   C67 3144   5.820   9.752   0.815  0.6726 -0.5309  0.4946
    8CHTO  H124 3145   5.924   9.733   0.788 -0.4543  0.6103 -5.1798
    8CHTO   C65 3146   5.808   9.741   0.967 -0.2122  0.1267 -0.0633
    8CHTO  H122 3147   5.726   9.809   0.991 -0.5978 -0.6595  0.8889
    8CHTO   O44 3148   5.938   9.795   1.011  0.7037  0.0464 -0.0919
    8CHTO  H102 3149   6.013   9.747   0.981  0.5682  0.5389 -1.2394
    8CHTO   C63 3150   5.766   9.590   1.018  0.1589  0.0868  0.3990
    8CHTO  H120 3151   5.657   9.580   1.016  0.4046 -3.0971  0.2786
    8CHTO   N11 3152   5.798   9.565   1.160 -0.3074 -0.1754 -0.0571
    8CHTO  H108 3153   5.804   9.464   1.192 -3.3905 -0.6009 -0.6753
    8CHTO  H109 3154   5.721   9.609   1.221 -1.0348  0.9123 -1.7281
    8CHTO   C61 3155   5.830   9.486   0.917  0.2587 -0.5134  0.0614
    8CHTO  H118 3156   5.793   9.385   0.941  1.5831 -0.8876  0.5584
    8CHTO   O40 3157   5.797   9.506   0.781  0.7827 -0.0543  0.6734
    8CHTO   C68 3158   5.740   9.641   0.746  0.0759 -0.4443  0.5475
    8CHTO  H125 3159   5.634   9.632   0.778 -0.1396  1.4954  0.4432
    8CHTO   C72 3160   5.740   9.660   0.595 -0.2396  0.0743  0.3506
    8CHTO   O48 3161   5.856   9.697   0.526 -0.4063  0.3173  0.3858
    8CHTO  H105 3162   5.880   9.787   0.529  0.1266  0.3618 -2.8887
    8CHTO   O38 3163   5.973   9.485   0.918 -0.1406  0.7133 -0.1078
    8CHTO   C55 3164   6.036   9.352   0.886 -0.6726 -0.0649 -0.3538
    8CHTO  H112 3165   5.964   9.286   0.836 -1.5215  0.5351  0.0812
    8CHTO   C56 3166   6.095   9.290   1.011 -0.2038  0.4174 -0.4222
    8CHTO  H113 3167   6.172   9.362   1.041  0.2305  0.3858 -1.4471
    8CHTO   O42 3168   5.996   9.295   1.114 -0.0642 -0.5267 -0.1479
    8CHTO  H100 3169   5.937   9.222   1.110  0.0807 -0.5971 -1.5322
    8CHTO   C57 3170   6.166   9.151   0.983  0.0218 -0.1239  0.1553
    8CHTO  H114 3171   6.098   9.072   0.952 -0.3906  0.0635  0.5728
    8CHTO   N10 3172   6.242   9.102   1.098  0.1333 -0.8357  0.1434
    8CHTO  H106 3173   6.348   9.124   1.096 -0.3352  1.5433  0.4895
    8CHTO  H107 3174   6.206   9.145   1.190  1.3068 -1.9059  1.1278
    8CHTO   C58 3175   6.267   9.172   0.866  0.0627 -1.2277 -0.3663
    8CHTO  H115 3176   6.341   9.245   0.904 -0.2658 -0.9552 -0.2485
    8CHTO   O37 3177   6.194   9.229   0.752 -0.4867 -0.2111 -0.3059
    8CHTO   C59 3178   6.151   9.361   0.778 -0.1096 -0.0870  0.2833
    8CHTO  H116 3179   6.234   9.422   0.814 -0.1988 -0.8747  1.8761
    8CHTO   C70 3180   6.100   9.414   0.639 -0.2386  0.0814  0.3516
    8CHTO   O46 3181   6.098   9.558   0.644  0.4611 -0.2147 -0.0151
    8CHTO  H103 3182   6.092   9.595   0.558  0.2313  0.6917  0.3839
    8CHTO   O39 3183   6.343   9.023   0.822  1.0886 -0.2516 -0.0500
    8CHTO   C60 3184   6.263   8.944   0.730  0.1809  0.0380  0.4514
    8CHTO  H117 3185   6.158   8.972   0.736  0.3534  0.2462  2.8747
    8CHTO   C62 3186   6.294   8.984   0.585 -0.1212  0.4978 -0.5542
    8CHTO  H119 3187   6.286   9.095   0.580  4.1776  1.0252  1.3426
    8CHTO   O43 3188   6.431   8.946   0.558  0.3288  0.2734  0.2881
    8CHTO  H101 3189   6.454   8.959   0.468 -0.9190 -1.5487 -0.3225
    8CHTO   C66 3190   6.184   8.905   0.491 -0.2761  0.9117 -0.3375
    8CHTO  H123 3191   6.083   8.934   0.518 -0.5821 -0.4911  0.0957
    8CHTO   N12 3192   6.203   8.935   0.347  0.0277 -0.0984 -0.8056
    8CHTO  H110 3193   6.126   8.889   0.286  1.6999  1.6391 -4.3427
    8CHTO  H111 3194   6.299   8.906   0.308  1.0229  1.8655  0.1059
    8CHTO   C69 3195   6.181   8.748   0.507 -0.6667 -0.1712  0.5066
    8CHTO  H126 3196   6.278   8.705   0.474  0.0387  1.2358  0.7217
    8CHTO   O41 3197   6.163   8.723   0.659  0.1726  0.5570  0.0060
    8CHTO   C64 3198   6.272   8.792   0.748  1.2356  0.0561 -0.1955
    8CHTO  H121 3199   6.361   8.738   0.712  0.1668 -1.8631 -0.0427
    8CHTO   C71 3200   6.257   8.741   0.897 -0.4129 -0.0467  0.0737
    8CHTO   O47 3201   6.266   8.602   0.903 -0.1484  0.2495  0.4123
    8CHTO  H104 3202   6.259   8.578   0.993  1.7540 -0.5337  0.3721
    8CHTO   O34 3203   6.053   8.673   0.415 -0.0561  0.7351  0.3879
    8CHTO   C49 3204   5.943   8.619   0.444  0.1590  0.0887 -0.2846
    8CHTO   H91 3205   5.959   8.528   0.501  0.7640 -0.1813 -0.8784
    8CHTO   C47 3206   5.867   8.580   0.314  0.9739 -0.3697  0.4482
    8CHTO   H89 3207   5.781   8.517   0.343 -0.3157  1.0846 -0.1311
    8CHTO   O33 3208   5.956   8.500   0.233 -0.3538  0.6731  0.0481
    8CHTO   H70 3209   5.924   8.464   0.152  1.7779 -2.0661  0.3639
    8CHTO   C45 3210   5.805   8.708   0.242  0.4272  0.4192 -0.4416
    8CHTO   H87 3211   5.890   8.769   0.211  2.6238 -3.0098 -1.5108
    8CHTO    N8 3212   5.726   8.667   0.121 -0.3453  0.6130 -0.2512
    8CHTO   H75 3213   5.644   8.606   0.155 -0.4581  1.3940  0.8843
    8CHTO   H76 3214   5.786   8.617   0.046 -1.4593 -1.7616  0.3929
    8CHTO   C43 3215   5.722   8.812   0.341  0.4756  0.6369 -0.5529
    8CHTO   H85 3216   5.724   8.910   0.293 -0.6636  0.5641 -0.7559
    8CHTO   O29 3217   5.787   8.822   0.473 -0.3485  0.6210 -0.3342
    8CHTO   C50 3218   5.846   8.705   0.535 -0.7094  0.3748  0.1690
    8CHTO   H92 3219   5.911   8.736   0.618  1.7835 -1.4380 -1.0615
    8CHTO   C54 3220   5.739   8.624   0.618  0.3539  0.5179 -0.3059
    8CHTO   O36 3221   5.796   8.539   0.718 -0.5130 -0.5742 -0.2411
    8CHTO   H72 3222   5.880   8.508   0.691  0.7391  0.3844  2.3288
    8CHTO   O27 3223   5.583   8.783   0.370 -0.0104 -0.3004  0.1906
    8CHTO   C37 3224   5.477   8.878   0.399 -0.1073  0.3073 -0.0669
    8CHTO   H79 3225   5.385   8.819   0.409  0.8527 -1.0712  0.7844
    8CHTO   C38 3226   5.500   8.951   0.536  0.1546  0.1684  0.4484
    8CHTO   H80 3227   5.592   9.011   0.536  0.4942 -0.3422  0.9217
    8CHTO   O31 3228   5.511   8.861   0.650  0.1570  0.2282 -0.6812
    8CHTO   H68 3229   5.594   8.819   0.658 -0.8961 -1.6045  1.0975
    8CHTO   C39 3230   5.391   9.053   0.575  0.2398 -0.7902 -0.0234
    8CHTO   H81 3231   5.297   8.999   0.583 -1.7238  2.0937 -2.2679
    8CHTO    N7 3232   5.413   9.129   0.704 -0.3237  0.1549 -0.3825
    8CHTO   H73 3233   5.501   9.191   0.694  0.3846 -0.7878 -0.0936
    8CHTO   H74 3234   5.327   9.192   0.725 -0.1871 -0.0441  0.8529
    8CHTO   C40 3235   5.368   9.152   0.457  0.0869  0.3210  0.2699
    8CHTO   H82 3236   5.459   9.212   0.454  1.3075 -1.4780  0.4042
    8CHTO   O26 3237   5.348   9.080   0.333 -0.7338  0.2573 -0.4923
    8CHTO   C41 3238   5.459   8.995   0.293  0.3899  0.5271 -1.1146
    8CHTO   H83 3239   5.548   9.059   0.289  0.9629 -0.1889  0.0732
    8CHTO   C52 3240   5.427   8.938   0.155 -0.2892  0.5263  0.3617
    8CHTO   O35 3241   5.354   9.030   0.050 -0.1094  0.0480  0.1896
    8CHTO   H71 3242   5.281   9.059   0.102  0.2179  1.9120 -0.3530
    8CHTO   O28 3243   5.246   9.237   0.467  0.5620  0.0943 -0.3036
    8CHTO   C42 3244   5.231   9.369   0.398  0.0601 -0.4043  0.3565
    8CHTO   H84 3245   5.135   9.411   0.427  0.1966 -0.6068  1.0997
    8CHTO   C44 3246   5.226   9.363   0.238 -0.3809  0.2564 -0.3700
    8CHTO   H86 3247   5.325   9.334   0.202  0.4848  1.3921  1.0198
    8CHTO   O32 3248   5.135   9.254   0.209 -0.1794  0.9081  0.6478
    8CHTO   H69 3249   5.166   9.168   0.227  0.4621  0.6850 -1.3210
    8CHTO   C48 3250   5.192   9.501   0.173 -0.3728  0.1728 -0.0029
    8CHTO   H90 3251   5.097   9.543   0.207 -0.6916  1.7308 -2.6595
    8CHTO    N9 3252   5.186   9.509   0.023  0.5442  0.6567  0.2608
    8CHTO   H77 3253   5.114   9.439  -0.018  1.0197  1.5447 -2.1540
    8CHTO   H78 3254   5.285   9.482  -0.011  1.1666 -0.4511  2.7930
    8CHTO   C51 3255   5.293   9.608   0.226 -0.6625  0.0130 -0.3841
    8CHTO   H93 3256   5.389   9.578   0.185 -0.0195 -1.2851  1.9725
    8CHTO   O30 3257   5.297   9.606   0.371 -0.4989  0.6536 -0.3008
    8CHTO   C46 3258   5.336   9.476   0.433  1.2757 -0.1990 -0.5675
    8CHTO   H88 3259   5.431   9.450   0.385  0.6680  1.0442 -2.4850
    8CHTO   C53 3260   5.362   9.489   0.584  0.6800  0.6688  0.3490
    8CHTO   O72 3261   5.436   9.611   0.615  0.2170  0.4136 -0.4553
    8CHTO  H199 3262   5.375   9.682   0.611  0.0031  0.1603 -1.9957
    8CHTO   O22 3263   5.269   9.750   0.197 -0.5271  0.3039  0.0548
    8CHTO   C31 3264   5.377   9.846   0.172  0.5496  0.6501 -0.6517
    8CHTO   H59 3265   5.333   9.947   0.191  0.1507  0.2236  0.7786
    8CHTO   C29 3266   5.505   9.843   0.267  0.4837 -0.0945 -0.0772
    8CHTO   H57 3267   5.530   9.737   0.280  0.4418 -0.2202 -0.9824
    8CHTO   O21 3268   5.465   9.883   0.399 -0.0606  0.8078 -0.6466
    8CHTO   H37 3269   5.398   9.823   0.425  0.5902 -0.0467 -0.9013
    8CHTO   C27 3270   5.622   9.925   0.203  1.3265 -0.0386 -0.2131
    8CHTO   H55 3271   5.591  10.030   0.200 -0.5940 -0.5665  0.2601
    8CHTO    N5 3272   5.749   9.917   0.272 -0.4307 -0.9534 -0.9038
    8CHTO   H43 3273   5.790   9.818   0.259  0.9271 -0.6722  1.0264
    8CHTO   H44 3274   5.822   9.984   0.228  0.3962 -0.3689  1.2822
    8CHTO   C25 3275   5.646   9.880   0.059 -0.7019  0.4358  0.0008
    8CHTO   H53 3276   5.656   9.771   0.074 -0.5873 -0.0796 -3.4338
    8CHTO   O17 3277   5.533   9.908  -0.021  0.0040  0.0192  0.9067
    8CHTO   C32 3278   5.412   9.842   0.016 -0.6809 -0.4714  0.7823
    8CHTO   H60 3279   5.427   9.736  -0.006 -2.3612 -0.8863  1.5448
    8CHTO   C36 3280   5.296   9.892  -0.071 -0.8694  0.1408 -0.0179
    8CHTO   O25 3281   5.321   9.859  -0.205 -0.5609 -0.0076  0.6005
    8CHTO   H40 3282   5.247   9.818  -0.247  0.9011  0.1526 -2.3097
    8CHTO   O15 3283   5.796   9.958  -0.025 -0.3487  1.2395  0.0845
    8CHTO   C19 3284   5.881   9.954  -0.142 -0.1332 -0.0153  0.4080
    8CHTO   H47 3285   5.816   9.922  -0.225  0.6841 -0.8576  0.0796
    8CHTO   C20 3286   5.944  10.096  -0.174  0.4899 -0.1008  0.0617
    8CHTO   H48 3287   5.995  10.137  -0.085  2.3030 -0.2220 -0.9057
    8CHTO   O19 3288   5.832  10.184  -0.212  0.1001  0.0838 -0.3121
    8CHTO   H35 3289   5.764  10.178  -0.148  1.4283 -2.1195  0.9662
    8CHTO   C21 3290   6.050  10.102  -0.292  0.4371  0.2647 -0.6491
    8CHTO   H49 3291   5.995  10.075  -0.382 -1.3545 -2.6747  1.2394
    8CHTO    N4 3292   6.117  10.235  -0.315  0.5070  0.0798  0.5637
    8CHTO   H41 3293   6.116  10.272  -0.416  0.9687  0.2567  0.6218
    8CHTO   H42 3294   6.218  10.241  -0.275  0.2358 -1.7569  1.5846
    8CHTO   C22 3295   6.149   9.986  -0.279  0.1055  0.1306 -0.2433
    8CHTO   H50 3296   6.203  10.005  -0.186 -0.6146 -1.7419  0.5784
    8CHTO   O14 3297   6.071   9.863  -0.269  0.1334  0.7985  0.1324
    8CHTO   C23 3298   5.995   9.849  -0.148  0.2221  0.3922 -0.5700
    8CHTO   H51 3299   6.061   9.863  -0.060  0.7323  1.4206 -1.1050
    8CHTO   C34 3300   5.938   9.706  -0.139 -0.0918 -0.4886 -0.4883
    8CHTO   O23 3301   6.035   9.602  -0.108 -1.1406 -0.9530  0.4517
    8CHTO   H38 3302   6.071   9.635  -0.027 -0.9380 -0.9083  0.3440
    8CHTO   O16 3303   6.234   9.974  -0.391 -0.3048 -0.5692  0.9998
    8CHTO   C24 3304   6.357   9.896  -0.366  0.2706 -0.6607 -0.9036
    8CHTO   H52 3305   6.352   9.834  -0.276  1.3285 -0.5615 -0.7655
    8CHTO   C26 3306   6.477   9.999  -0.361  0.3654  0.4504  0.7504
    8CHTO   H54 3307   6.493  10.037  -0.464  0.1321  0.7277  0.8162
    8CHTO   O20 3308   6.450  10.101  -0.265  0.2538 -0.4477 -0.1395
    8CHTO   H36 3309   6.380  10.152  -0.301  0.8452  0.2047 -0.3872
    8CHTO   C30 3310   6.600   9.908  -0.323 -0.2417 -1.1921 -0.6352
    8CHTO   H58 3311   6.578   9.854  -0.230 -1.8023  1.4169  0.5652
    8CHTO    N6 3312   6.725   9.986  -0.300 -0.5975  0.3915  0.0528
    8CHTO   H45 3313   6.706  10.053  -0.217 -0.4298 -0.8606  1.1294
    8CHTO   H46 3314   6.744  10.043  -0.389  1.3881  0.4706  0.4932
    8CHTO   C33 3315   6.621   9.795  -0.429 -0.5951  0.3497 -0.1100
    8CHTO   H61 3316   6.656   9.846  -0.521 -1.1228  0.7778 -0.0775
    8CHTO   O18 3317   6.501   9.721  -0.458  0.0643  0.4845  0.3991
    8CHTO   C28 3318   6.381   9.798  -0.491 -0.3867  0.4332 -0.0135
    8CHTO   H56 3319   6.393   9.860  -0.581 -0.3674 -0.1216 -0.3949
    8CHTO   C35 3320   6.270   9.693  -0.497 -0.4846  0.1081 -0.0477
    8CHTO   O24 3321   6.263   9.627  -0.369  0.6066  0.1658  0.4459
    8CHTO   H39 3322   6.172   9.629  -0.345  0.7382  3.6206  0.9303
    8CHTO    O9 3323   6.725   9.705  -0.380 -0.3649  0.1899  0.0674
    8CHTO   C13 3324   6.725   9.553  -0.458  0.0241 -0.0559  0.1323
    8CHTO   H26 3325   6.695   9.573  -0.562  0.3221  0.5572  0.1621
    8CHTO   C11 3326   6.629   9.458  -0.384  0.3494  0.1076 -0.4634
    8CHTO   H24 3327   6.523   9.483  -0.395  0.1263 -0.3854  0.5161
    8CHTO    O8 3328   6.665   9.457  -0.243  0.5627  0.0513  0.5971
    8CHTO    H3 3329   6.676   9.545  -0.212 -3.1710  0.4307  1.0260
    8CHTO    C9 3330   6.633   9.322  -0.454 -0.2809 -0.0384 -0.1051
    8CHTO   H22 3331   6.588   9.340  -0.552 -1.2049 -2.5257 -0.1718
    8CHTO    N2 3332   6.541   9.220  -0.388 -0.1124 -0.3554 -0.0279
    8CHTO   H10 3333   6.566   9.124  -0.430  0.9412 -0.7816  1.5248
    8CHTO   H11 3334   6.435   9.240  -0.398 -0.4612 -0.6312  2.8401
    8CHTO    C7 3335   6.785   9.266  -0.458 -0.2266  0.3436 -0.4199
    8CHTO   H20 3336   6.792   9.234  -0.564  1.5173 -1.6695  0.2623
    8CHTO    O4 3337   6.888   9.360  -0.418 -0.7918  0.0224  0.0673
    8CHTO   C14 3338   6.880   9.493  -0.465  0.8766  0.8100  0.8611
    8CHTO   H27 3339   6.911   9.483  -0.571  1.6008  1.4065  1.0209
    8CHTO   C18 3340   6.978   9.569  -0.391  0.7153 -0.0324 -0.8839
    8CHTO   O13 3341   7.002   9.708  -0.432 -0.2328 -0.6543  0.0025
    8CHTO    H7 3342   7.082   9.745  -0.401 -1.9596  1.0796  2.5747
    8CHTO    O2 3343   6.809   9.132  -0.364 -0.2703 -0.2431 -1.0313
    8CHTO    C1 3344   6.894   9.028  -0.407  0.1265 -0.1160  0.0639
    8CHTO   H14 3345   6.919   8.977  -0.312 -2.0963 -1.4032  0.0024
    8CHTO    C2 3346   7.021   9.070  -0.479  0.2666 -0.0120 -0.2394
    8CHTO   H15 3347   6.991   9.128  -0.568 -0.6578 -0.6513 -0.3545
    8CHTO    O6 3348   7.100   9.162  -0.396 -0.1536  0.0897 -0.2525
    8CHTO    H1 3349   7.130   9.119  -0.318  1.1303  2.0711  0.4064
    8CHTO    C3 3350   7.104   8.940  -0.524  0.4702 -0.4890  0.3553
    8CHTO   H16 3351   7.129   8.889  -0.430  1.3325  0.6138  0.7296
    8CHTO    N1 3352   7.226   8.980  -0.597 -0.1310  0.1896  0.4476
    8CHTO    H8 3353   7.310   8.925  -0.556  1.0196  1.2257 -0.4781
    8CHTO    H9 3354   7.238   9.087  -0.594  1.5819 -0.0243  2.1622
    8CHTO    C4 3355   7.015   8.837  -0.603 -0.3544  0.4186  0.0584
    8CHTO   H17 3356   6.997   8.868  -0.706  0.5012  1.6597  0.2650
    8CHTO    O1 3357   6.895   8.810  -0.536  0.0125 -0.2505 -0.4002
    8CHTO    C5 3358   6.813   8.923  -0.498  0.2996  0.1295 -0.1937
    8CHTO   H18 3359   6.780   8.974  -0.588 -0.7582 -0.4715 -0.1606
    8CHTO   C16 3360   6.696   8.863  -0.423 -0.0493 -0.2421  1.4330
    8CHTO   O11 3361   6.620   8.787  -0.516 -0.3975  0.6364 -0.6723
    8CHTO    H5 3362   6.557   8.842  -0.557 -0.3162  2.0898  1.0626
    8CHTO    O3 3363   7.066   8.700  -0.606 -0.2647 -0.4039  0.1536
    8CHTO    C6 3364   6.988   8.607  -0.686  0.2942  0.6380 -0.2502
    8CHTO   H19 3365   6.882   8.632  -0.697  0.1323 -1.2135 -3.3357
    8CHTO    C8 3366   7.045   8.593  -0.824 -0.0979 -0.4129  0.3423
    8CHTO   H21 3367   7.154   8.587  -0.815 -0.2304 -1.2620  1.6624
    8CHTO    O7 3368   7.004   8.720  -0.884 -0.0175  0.5514  0.8928
    8CHTO    H2 3369   7.052   8.739  -0.963 -2.9755  0.3576 -1.0463
    8CHTO   C12 3370   6.996   8.470  -0.907  0.1766 -0.4531  0.3053
    8CHTO   H25 3371   6.888   8.484  -0.929 -0.4675 -0.4248  3.2845
    8CHTO    N3 3372   7.069   8.462  -1.034  0.4526  0.4051  0.9918
    8CHTO   H12 3373   7.021   8.511  -1.118  2.7870 -0.1473 -0.7107
    8CHTO   H13 3374   7.169   8.503  -1.032  1.0064 -0.8126 -0.5058
    8CHTO   C15 3375   7.003   8.340  -0.814 -0.6925 -0.2357  0.1188
    8CHTO   H28 3376   7.110   8.326  -0.796 -0.4712  1.0520 -0.1344
    8CHTO   O10 3377   6.937   8.214  -0.856  0.0966 -0.8165  0.1241
    8CHTO    H4 3378   6.973   8.199  -0.942  3.0733  2.0361  0.7567
    8CHTO    O5 3379   6.928   8.372  -0.694  0.4041  0.7682  0.7277
    8CHTO   C10 3380   6.999   8.473  -0.619  0.4535  0.0067 -0.1292
    8CHTO   H23 3381   7.103   8.455  -0.594  0.2528 -2.8356 -1.1473
    8CHTO   C17 3382   6.925   8.478  -0.479  0.2805 -0.2378 -0.2657
    8CHTO   O12 3383   6.959   8.360  -0.404  0.1199  0.0035 -0.4755
    8CHTO    H6 3384   7.002   8.367  -0.321  1.9112  1.3717 -1.4879
    9CHTO  H203 3385   7.162   4.365   4.421  1.2172 -1.4395 -0.6767
    9CHTO   O82 3386   7.151   4.398   4.335  0.3230 -0.0324 -0.0307
    9CHTO  C123 3387   7.279   4.435   4.279 -0.0659 -0.5258 -0.1221
    9CHTO  H227 3388   7.335   4.490   4.356  0.3771  0.3459 -1.0710
    9CHTO   O77 3389   7.325   4.298   4.248  0.2012 -0.0436  0.5702
    9CHTO  C118 3390   7.444   4.281   4.178 -0.2683 -0.3441 -0.0091
    9CHTO  H222 3391   7.531   4.316   4.235  0.8074 -0.8554 -1.3051
    9CHTO  C125 3392   7.460   4.123   4.157 -0.2510 -0.0734  0.0007
    9CHTO   O84 3393   7.469   4.045   4.272 -0.4770 -0.5292  0.2999
    9CHTO  H205 3394   7.384   4.017   4.300 -0.1082 -1.0136  0.9498
    9CHTO  C114 3395   7.442   4.356   4.046  0.1467  0.5361 -0.2135
    9CHTO  H218 3396   7.362   4.313   3.985 -0.2340  0.8697  0.0485
    9CHTO  C116 3397   7.402   4.501   4.059  0.1311 -0.6349  0.1754
    9CHTO  H220 3398   7.478   4.565   4.108  0.2300  1.6409 -2.8226
    9CHTO   O79 3399   7.399   4.555   3.930  0.7942 -0.7792 -0.9342
    9CHTO  H201 3400   7.345   4.631   3.918 -0.5324 -1.2345  1.7886
    9CHTO  C120 3401   7.265   4.514   4.144 -0.2119  0.4065 -0.2805
    9CHTO  H224 3402   7.181   4.470   4.086  0.2331  1.4129 -1.7152
    9CHTO   N21 3403   7.219   4.653   4.161  1.0651 -0.4868  0.7739
    9CHTO  H211 3404   7.188   4.668   4.263  0.5884  0.1663  0.5352
    9CHTO  H212 3405   7.269   4.739   4.120  1.0264 -0.2579  1.2034
    9CHTO   O75 3406   7.577   4.330   4.002 -0.3836  0.3206  0.0722
    9CHTO  C112 3407   7.592   4.294   3.838 -0.2320  0.4011  0.5905
    9CHTO  H216 3408   7.514   4.357   3.793  1.4469  0.7107 -2.0771
    9CHTO   O73 3409   7.566   4.148   3.830 -0.4052 -0.0850  0.0952
    9CHTO  C113 3410   7.553   4.095   3.699 -0.0362 -0.3727  0.9901
    9CHTO  H217 3411   7.476   4.160   3.653  0.6980  0.5972  1.1146
    9CHTO  C124 3412   7.507   3.952   3.703 -0.2993  0.0804 -0.2189
    9CHTO   O83 3413   7.446   3.911   3.587  0.0951  0.5976 -0.4277
    9CHTO  H204 3414   7.368   3.959   3.565  1.2990  2.6226 -0.4009
    9CHTO  C109 3415   7.688   4.125   3.620  0.3350 -0.0325 -0.4028
    9CHTO  H213 3416   7.765   4.058   3.662  0.5544  0.7049  0.3785
    9CHTO  C110 3417   7.734   4.268   3.624  0.6907  0.2574  0.5892
    9CHTO  H214 3418   7.667   4.330   3.564  2.0138  1.2736  0.1286
    9CHTO   O78 3419   7.868   4.273   3.576  0.0121 -0.0767 -0.4221
    9CHTO  H200 3420   7.877   4.266   3.483 -1.4135  0.4988 -0.6105
    9CHTO  C111 3421   7.732   4.322   3.775 -0.1497  0.2234 -0.0012
    9CHTO  H215 3422   7.802   4.264   3.837 -2.1206 -0.5682  1.5012
    9CHTO   N19 3423   7.767   4.467   3.786  0.9515  0.1791 -0.2454
    9CHTO  H207 3424   7.712   4.503   3.872  0.2235 -0.7339 -0.3224
    9CHTO  H208 3425   7.715   4.519   3.707  0.5219 -0.7950 -0.6055
    9CHTO   O74 3426   7.672   4.091   3.475 -0.2367  0.0658  0.0709
    9CHTO  C115 3427   7.806   4.015   3.421 -0.6416  0.3859  0.9649
    9CHTO  H219 3428   7.895   4.071   3.450  0.2561 -0.2958 -0.3907
    9CHTO   O76 3429   7.822   3.852   3.478  0.1257  0.2833  0.0535
    9CHTO  C122 3430   7.727   3.767   3.421  0.5683 -0.5004 -0.1482
    9CHTO  H226 3431   7.624   3.797   3.441 -0.9383 -4.1427 -2.1733
    9CHTO  C126 3432   7.729   3.623   3.469  0.1894  0.0222  0.3586
    9CHTO   O85 3433   7.695   3.611   3.609  0.2197 -0.2133  0.4390
    9CHTO  H206 3434   7.604   3.631   3.622  0.3787  0.2251  0.8477
    9CHTO  C121 3435   7.736   3.768   3.265 -0.0466  0.0837  0.0842
    9CHTO  H225 3436   7.841   3.740   3.241  0.6589  1.8212  1.0910
    9CHTO   O81 3437   7.656   3.664   3.200 -0.1657  0.2206  0.0173
    9CHTO  H202 3438   7.568   3.692   3.184  0.0288  0.9592  0.2175
    9CHTO  C119 3439   7.705   3.913   3.213 -0.3437  0.3652  0.4996
    9CHTO  H223 3440   7.707   3.911   3.104  1.2581 -0.0449  0.5127
    9CHTO  C117 3441   7.802   4.024   3.259 -0.0569  0.5538 -0.3108
    9CHTO  H221 3442   7.765   4.125   3.239 -0.7218  0.0074 -1.9467
    9CHTO   N20 3443   7.941   4.014   3.204 -0.0997 -0.1690 -0.0995
    9CHTO  H209 3444   8.005   3.958   3.271 -1.1244 -1.3424 -0.0858
    9CHTO  H210 3445   7.953   3.999   3.098 -3.1012  3.1781 -0.9809
    9CHTO   O80 3446   7.547   3.957   3.229 -0.0855  0.2698  0.0360
    9CHTO  C103 3447   7.487   4.092   3.158  0.1111  0.5854 -0.0213
    9CHTO  H190 3448   7.532   4.179   3.206  1.3576  0.2598 -0.5572
    9CHTO  C101 3449   7.510   4.113   3.004  0.6994 -0.2337 -0.5405
    9CHTO  H188 3450   7.489   4.024   2.945  0.0070 -1.2541  1.2079
    9CHTO   O68 3451   7.660   4.135   2.981 -0.3179  0.3035 -0.4050
    9CHTO  H168 3452   7.706   4.057   3.002 -1.6690 -0.4865 -0.3354
    9CHTO   C99 3453   7.426   4.241   2.950  0.0906  0.2233  0.4290
    9CHTO  H186 3454   7.465   4.331   3.000  0.0342 -0.1891  1.2180
    9CHTO   N17 3455   7.443   4.268   2.804 -0.1454 -0.3931 -0.3122
    9CHTO  H174 3456   7.483   4.194   2.736  1.5000 -0.4632  0.7133
    9CHTO  H175 3457   7.360   4.327   2.767  0.0967  0.8490  1.1185
    9CHTO   C97 3458   7.277   4.232   2.995 -0.3537  0.2137 -0.5031
    9CHTO  H184 3459   7.227   4.143   2.953  0.3681 -0.5755  0.2776
    9CHTO   O64 3460   7.284   4.218   3.142  0.2920  0.1117  0.0128
    9CHTO  C104 3461   7.332   4.097   3.196 -0.0580 -0.0767 -0.1417
    9CHTO  H191 3462   7.278   4.013   3.154  0.1295 -0.7125  0.8532
    9CHTO  C108 3463   7.305   4.087   3.347  0.6830  0.2203  0.5712
    9CHTO   O71 3464   7.373   4.182   3.430  0.5020 -0.3950 -0.4468
    9CHTO  H171 3465   7.463   4.158   3.441  0.1296 -1.2779  0.6800
    9CHTO   O62 3466   7.207   4.356   2.970  0.0690  0.2508  0.2982
    9CHTO   C91 3467   7.111   4.348   2.859 -0.4769 -0.0342  0.7745
    9CHTO  H178 3468   7.155   4.283   2.783 -1.3845  0.7333 -0.4203
    9CHTO   C92 3469   7.097   4.495   2.798  0.0989 -0.7283 -0.1531
    9CHTO  H179 3470   7.195   4.544   2.790  0.6345 -1.3744  2.1376
    9CHTO   O66 3471   7.047   4.486   2.663 -0.2437 -0.1289 -0.2209
    9CHTO  H166 3472   7.045   4.571   2.622  1.3634  1.2851  2.5471
    9CHTO   C93 3473   7.001   4.595   2.879  0.6089  0.0493  0.2124
    9CHTO  H180 3474   6.961   4.667   2.806  1.5723  0.3186 -0.0572
    9CHTO   N16 3475   7.077   4.680   2.977 -0.3480 -0.0096 -0.3884
    9CHTO  H172 3476   7.149   4.748   2.933  1.0316 -0.3954  1.2031
    9CHTO  H173 3477   7.005   4.741   3.029  1.9889  0.6620  2.1811
    9CHTO   C94 3478   6.884   4.514   2.945 -0.1595 -0.5540 -0.1298
    9CHTO  H181 3479   6.903   4.492   3.050 -1.5638 -2.4475 -0.2465
    9CHTO   O61 3480   6.864   4.388   2.885  0.1980 -0.0264  0.3336
    9CHTO   C95 3481   6.968   4.293   2.906 -0.9052 -0.5034 -0.2514
    9CHTO  H182 3482   6.978   4.263   3.011  1.5029  0.8508 -0.0508
    9CHTO  C106 3483   6.931   4.156   2.834  0.0202  0.1448 -0.1562
    9CHTO   O69 3484   6.989   4.036   2.888 -0.4852 -0.2044  0.5188
    9CHTO  H169 3485   7.053   4.011   2.824  1.5004  1.1206  1.9540
    9CHTO   O63 3486   6.757   4.591   2.918  0.4026  0.2492  0.1681
    9CHTO   C96 3487   6.655   4.578   3.029  1.0107 -1.0873  0.2142
    9CHTO  H183 3488   6.715   4.554   3.117  1.3901 -3.1529 -0.5725
    9CHTO   C98 3489   6.553   4.463   3.012 -0.4517 -0.0612  0.5768
    9CHTO  H185 3490   6.519   4.472   2.908 -1.2502  0.9737  0.9229
    9CHTO   O67 3491   6.628   4.340   3.015 -0.1339  0.4706  0.0820
    9CHTO  H167 3492   6.685   4.325   3.087 -0.6086 -1.3281  0.1065
    9CHTO  C102 3493   6.445   4.462   3.125 -0.3232  0.2664 -0.1728
    9CHTO  H189 3494   6.509   4.452   3.214  2.4096  3.1047 -1.7100
    9CHTO   N18 3495   6.345   4.348   3.125  0.1257  0.4665 -0.4511
    9CHTO  H176 3496   6.367   4.271   3.053  0.0319  0.7710 -0.8095
    9CHTO  H177 3497   6.353   4.305   3.224 -0.1632  2.1614  0.3350
    9CHTO  C105 3498   6.383   4.603   3.133  0.0287  0.2404 -0.8831
    9CHTO  H192 3499   6.335   4.627   3.038 -2.3462 -0.9404 -0.0125
    9CHTO   O65 3500   6.482   4.701   3.145  0.0291  0.0236  0.2821
    9CHTO  C100 3501   6.582   4.721   3.044 -0.0130 -0.0428 -0.2638
    9CHTO  H187 3502   6.539   4.745   2.946  0.8117  0.4967 -0.5034
    9CHTO  C107 3503   6.673   4.844   3.080  0.9331 -0.0222 -0.2731
    9CHTO   O70 3504   6.796   4.848   3.005 -0.0836  0.0372 -0.0784
    9CHTO  H170 3505   6.784   4.898   2.927  0.7510  2.2934  1.1920
    9CHTO   O57 3506   6.284   4.616   3.248  0.4925 -0.5578  0.7518
    9CHTO   C85 3507   6.167   4.688   3.240 -0.0925  0.1249  0.1155
    9CHTO  H157 3508   6.117   4.648   3.149  0.8621 -1.2081  0.1674
    9CHTO   C83 3509   6.181   4.844   3.209  0.0002  0.0512 -0.5875
    9CHTO  H155 3510   6.224   4.857   3.109  2.2568 -1.8212  0.0976
    9CHTO   O56 3511   6.280   4.902   3.298  0.1673  0.2838 -0.5838
    9CHTO  H135 3512   6.367   4.880   3.273  0.3101 -2.0564  1.7982
    9CHTO   C81 3513   6.046   4.912   3.213 -0.3812  0.0806  0.6199
    9CHTO  H153 3514   5.980   4.864   3.142 -1.7878  0.9167  1.3389
    9CHTO   N14 3515   6.049   5.056   3.169  0.0954 -0.0962 -0.6056
    9CHTO  H141 3516   5.954   5.095   3.199 -1.1091 -2.3024 -1.4359
    9CHTO  H142 3517   6.133   5.100   3.219 -1.4491  0.3655  1.6601
    9CHTO   C79 3518   5.981   4.895   3.354 -0.1900  0.1989  0.1081
    9CHTO  H151 3519   5.882   4.942   3.349 -0.9943 -1.6389 -2.4367
    9CHTO   O52 3520   5.956   4.753   3.372 -0.1213  0.0936 -0.8489
    9CHTO   C86 3521   6.076   4.666   3.367  0.1512  0.6006  0.2146
    9CHTO  H158 3522   6.129   4.697   3.460  0.5949 -1.5747  0.7176
    9CHTO   C90 3523   6.044   4.517   3.389  0.0959 -0.2795 -0.0604
    9CHTO   O60 3524   6.020   4.486   3.526  0.3236  0.4281  0.6591
    9CHTO  H138 3525   6.031   4.394   3.537 -0.4970  0.1332 -0.8560
    9CHTO   O50 3526   6.062   4.932   3.467 -0.1622 -0.1150 -0.2052
    9CHTO   C73 3527   6.070   5.015   3.587 -0.1349  0.3753  0.1007
    9CHTO  H145 3528   5.974   5.001   3.638 -0.3307 -4.3728 -1.3458
    9CHTO   C74 3529   6.086   5.169   3.562 -0.5693 -0.0502 -0.4878
    9CHTO  H146 3530   6.000   5.203   3.502  0.4489 -0.0941 -1.9625
    9CHTO   O54 3531   6.073   5.242   3.685  0.2284  0.2072  0.6371
    9CHTO  H133 3532   5.997   5.297   3.689  1.0572  1.4181  0.0593
    9CHTO   C75 3533   6.228   5.191   3.485  0.4297  0.0587  0.2959
    9CHTO  H147 3534   6.220   5.139   3.389  2.4101 -2.8028  1.5811
    9CHTO   N13 3535   6.263   5.336   3.475  0.1959 -0.2236  0.4810
    9CHTO  H139 3536   6.183   5.378   3.416 -0.5697 -0.1590  1.5635
    9CHTO  H140 3537   6.354   5.347   3.418 -0.5728 -0.2391 -0.7740
    9CHTO   C76 3538   6.345   5.106   3.556  0.9638 -0.7666 -0.5601
    9CHTO  H148 3539   6.382   5.158   3.644 -0.2360 -0.0344 -0.4684
    9CHTO   O49 3540   6.302   4.971   3.600 -0.0927 -0.0672  0.7476
    9CHTO   C77 3541   6.180   4.971   3.680  0.2508  0.2033 -0.3768
    9CHTO  H149 3542   6.173   5.032   3.771 -1.1060 -0.0516 -0.2910
    9CHTO   C88 3543   6.157   4.825   3.719 -0.0808 -0.1929 -0.0387
    9CHTO   O58 3544   6.036   4.813   3.800  0.0503 -0.2948  0.3817
    9CHTO  H136 3545   5.982   4.741   3.771  1.0685 -1.1211  0.4852
    9CHTO   O51 3546   6.437   5.084   3.449 -0.0047 -0.4253 -0.5308
    9CHTO   C78 3547   6.600   5.048   3.489 -0.1223 -0.4924 -0.3706
    9CHTO  H150 3548   6.627   5.055   3.597  1.6975  1.9989 -0.9538
    9CHTO   C80 3549   6.687   5.151   3.413 -0.2731  0.7267 -0.3466
    9CHTO  H152 3550   6.660   5.146   3.305 -0.5424 -0.5056 -0.2361
    9CHTO   O55 3551   6.643   5.277   3.456 -0.2410 -0.4362  0.1339
    9CHTO  H134 3552   6.702   5.339   3.417 -0.1179 -0.9489 -0.4983
    9CHTO   C84 3553   6.845   5.144   3.424 -0.8520  0.6873 -0.0652
    9CHTO  H156 3554   6.875   5.147   3.529  1.5198  0.9962 -0.7227
    9CHTO   N15 3555   6.921   5.251   3.353 -0.7165 -0.4244  0.0128
    9CHTO  H143 3556   6.867   5.344   3.352  1.6502  1.0049  1.7136
    9CHTO  H144 3557   7.018   5.270   3.393 -0.0291 -3.4089 -0.1450
    9CHTO   C87 3558   6.891   5.005   3.369 -0.0562 -0.0671 -0.5714
    9CHTO  H159 3559   6.887   4.993   3.260  0.2634  0.7453 -0.6763
    9CHTO   O53 3560   6.790   4.892   3.462  0.4661 -0.0530  0.3019
    9CHTO   C82 3561   6.645   4.912   3.441  0.0882  0.2175 -0.4711
    9CHTO  H154 3562   6.623   4.907   3.335  3.4330 -0.5790 -1.2056
    9CHTO   C89 3563   6.558   4.802   3.517 -0.9324  0.0644  0.6405
    9CHTO   O59 3564   6.568   4.681   3.445 -0.4187 -0.1407 -0.2886
    9CHTO  H137 3565   6.481   4.647   3.453 -0.8231  0.6551 -1.1543
    9CHTO   O45 3566   7.064   4.985   3.411 -0.0910  0.2315  0.2886
    9CHTO   C67 3567   7.097   4.858   3.472  0.5082  0.2480  0.4338
    9CHTO  H124 3568   7.006   4.809   3.506  0.2386  0.2006 -0.3410
    9CHTO   C65 3569   7.173   4.757   3.374 -0.0887 -0.0122 -0.1918
    9CHTO  H122 3570   7.241   4.814   3.312  1.6836 -1.7811  0.0879
    9CHTO   O44 3571   7.074   4.694   3.298 -0.4445 -0.1059  0.1874
    9CHTO  H102 3572   7.106   4.610   3.269  1.1537  0.8285 -0.8531
    9CHTO   C63 3573   7.275   4.662   3.451  0.0249  0.2416 -0.0719
    9CHTO  H120 3574   7.362   4.721   3.481  0.7528 -1.1001  0.5000
    9CHTO   N11 3575   7.324   4.550   3.368 -0.6525 -0.0485 -0.3097
    9CHTO  H108 3576   7.285   4.546   3.269  0.5828  1.6287 -0.8841
    9CHTO  H109 3577   7.324   4.460   3.426 -4.4904  0.4800  0.6914
    9CHTO   C61 3578   7.224   4.631   3.598 -0.6587 -0.3837  0.4359
    9CHTO  H118 3579   7.305   4.575   3.648 -0.6137  0.1886  1.0161
    9CHTO   O40 3580   7.205   4.751   3.674 -0.0109  0.1999 -0.0517
    9CHTO   C68 3581   7.189   4.875   3.604 -0.2467 -0.1148  0.4063
    9CHTO  H125 3582   7.289   4.913   3.573 -0.1127 -2.4102 -2.2369
    9CHTO   C72 3583   7.125   4.969   3.712 -0.3894  0.6967  0.1597
    9CHTO   O48 3584   7.213   5.041   3.798 -0.1174  0.4539 -0.3763
    9CHTO  H105 3585   7.298   5.044   3.759 -1.0989  0.8328 -2.6095
    9CHTO   O38 3586   7.110   4.547   3.614 -0.0188  0.7753  0.4251
    9CHTO   C55 3587   7.081   4.494   3.739  0.3806  0.2036 -1.1712
    9CHTO  H112 3588   7.141   4.548   3.814  1.6954  0.5197 -2.4268
    9CHTO   C56 3589   7.112   4.338   3.739  0.2011 -0.3213  0.1607
    9CHTO  H113 3590   7.068   4.296   3.647  1.9168 -1.2123 -0.2797
    9CHTO   O42 3591   7.255   4.325   3.716  0.2597 -0.0294  0.4471
    9CHTO  H100 3592   7.282   4.236   3.702  0.2715 -0.2797  1.9111
    9CHTO   C57 3593   7.065   4.259   3.869  0.0175  0.3659 -0.0445
    9CHTO  H114 3594   7.137   4.285   3.947 -0.5000  1.2131  0.1537
    9CHTO   N10 3595   7.058   4.113   3.846  0.6415 -0.7611 -0.3741
    9CHTO  H106 3596   7.115   4.092   3.756  0.8094  1.1412 -0.7450
    9CHTO  H107 3597   7.097   4.055   3.928 -1.5137 -1.2018  0.3738
    9CHTO   C58 3598   6.918   4.311   3.911 -0.5172 -0.9807  0.6349
    9CHTO  H115 3599   6.842   4.271   3.840  0.7750 -0.5498 -1.0263
    9CHTO   O37 3600   6.916   4.453   3.922  0.6182 -0.1729  0.1561
    9CHTO   C59 3601   6.937   4.519   3.792 -0.2096 -0.0579 -0.1214
    9CHTO  H116 3602   6.856   4.487   3.726  0.1510 -0.7291 -0.2470
    9CHTO   C70 3603   6.931   4.670   3.819  0.4391 -0.3022  0.7977
    9CHTO   O46 3604   6.804   4.729   3.789  0.6387 -0.8725  0.4509
    9CHTO  H103 3605   6.733   4.678   3.824 -1.4263  0.4303 -1.7478
    9CHTO   O39 3606   6.876   4.248   4.062  0.9872 -0.1452 -0.6707
    9CHTO   C60 3607   6.740   4.247   4.089 -0.1303  0.1248  0.0685
    9CHTO  H117 3608   6.694   4.319   4.022 -0.3874  0.7655  0.9322
    9CHTO   C62 3609   6.660   4.113   4.052 -0.7732  1.2569  0.2439
    9CHTO  H119 3610   6.677   4.089   3.945  1.4735  0.7574  0.6767
    9CHTO   O43 3611   6.722   4.002   4.119  0.2864 -0.1583  0.0028
    9CHTO  H101 3612   6.687   4.002   4.206  0.8698  1.8366  0.2675
    9CHTO   C66 3613   6.507   4.128   4.088 -0.5088 -0.0715  0.3609
    9CHTO  H123 3614   6.466   4.213   4.035 -1.1131  1.5369  3.3361
    9CHTO   N12 3615   6.427   4.018   4.030 -0.6600 -0.3242 -0.0660
    9CHTO  H110 3616   6.407   3.937   4.099 -1.2211 -0.8802 -0.8681
    9CHTO  H111 3617   6.337   4.049   3.980 -0.3597  1.1123  0.2579
    9CHTO   C69 3618   6.492   4.150   4.241  0.1830 -0.8270 -0.0227
    9CHTO  H126 3619   6.532   4.062   4.295  0.4093 -0.0580  1.0687
    9CHTO   O41 3620   6.569   4.279   4.282  0.1199  0.6251  0.0503
    9CHTO   C64 3621   6.711   4.293   4.229  0.0335 -0.0943 -0.2509
    9CHTO  H121 3622   6.778   4.234   4.294 -1.9368 -1.2346  0.7835
    9CHTO   C71 3623   6.740   4.448   4.246  0.5621 -0.1385  0.6104
    9CHTO   O47 3624   6.749   4.490   4.385 -0.8482  0.1995 -0.2684
    9CHTO  H104 3625   6.672   4.458   4.427 -0.7900 -0.1409 -0.4192
    9CHTO   O34 3626   6.327   4.182   4.278 -0.2895 -0.0815 -0.0648
    9CHTO   C49 3627   6.227   4.208   4.395  0.5886  0.0047  0.3164
    9CHTO   H91 3628   6.131   4.234   4.349 -0.0168 -2.1869  0.2551
    9CHTO   C47 3629   6.279   4.318   4.485 -0.2057 -0.2298 -0.7533
    9CHTO   H89 3630   6.190   4.334   4.550  0.2645 -0.2049 -0.1133
    9CHTO   O33 3631   6.305   4.440   4.412  0.7816 -0.0045 -0.2565
    9CHTO   H70 3632   6.224   4.486   4.398 -0.1176 -0.9693  1.5319
    9CHTO   C45 3633   6.417   4.273   4.571  0.3820  0.0271  0.4787
    9CHTO   H87 3634   6.502   4.318   4.518  0.8574  1.1671  2.1650
    9CHTO    N8 3635   6.409   4.327   4.708  0.1408 -0.7071 -0.5621
    9CHTO   H75 3636   6.392   4.254   4.785 -0.6967 -1.0816 -1.0892
    9CHTO   H76 3637   6.494   4.391   4.730 -1.1139  0.9077 -0.3314
    9CHTO   C43 3638   6.417   4.113   4.575  0.3770  0.0028  0.0333
    9CHTO   H85 3639   6.465   4.081   4.482  0.1922  0.4424 -0.2152
    9CHTO   O29 3640   6.288   4.060   4.588 -0.2656  0.3074  0.2864
    9CHTO   C50 3641   6.196   4.073   4.479  0.7740  0.0647  0.2412
    9CHTO   H92 3642   6.206   3.991   4.406  1.9932 -0.7109  1.2649
    9CHTO   C54 3643   6.044   4.070   4.533 -0.1133 -0.5528  0.6480
    9CHTO   O36 3644   5.948   4.115   4.439  0.0432 -0.2603  0.6909
    9CHTO   H72 3645   5.877   4.053   4.437  0.5343 -0.7961 -1.7824
    9CHTO   O27 3646   6.492   4.056   4.687 -0.0490 -0.2094  0.4333
    9CHTO   C37 3647   6.635   4.033   4.697 -0.3526  0.5368  0.4291
    9CHTO   H79 3648   6.640   3.923   4.701 -2.5286  0.0600 -5.1786
    9CHTO   C38 3649   6.720   4.082   4.573  0.7090  0.1280 -0.3082
    9CHTO   H80 3650   6.675   4.177   4.541 -0.5436 -0.9625 -1.9356
    9CHTO   O31 3651   6.703   3.977   4.471 -0.0046 -0.2554 -0.5096
    9CHTO   H68 3652   6.765   3.979   4.401  0.2226  2.4605 -0.2718
    9CHTO   C39 3653   6.873   4.103   4.602  0.7778  0.0071 -0.7474
    9CHTO   H81 3654   6.915   4.006   4.628  0.8577 -0.1238 -1.3581
    9CHTO    N7 3655   6.954   4.165   4.491  0.6910 -0.1383 -0.3501
    9CHTO   H73 3656   6.901   4.158   4.397 -0.3398 -3.6081  0.4107
    9CHTO   H74 3657   7.055   4.128   4.493  0.1410 -1.6861 -0.1883
    9CHTO   C40 3658   6.897   4.179   4.738 -0.0056 -0.3724 -0.2041
    9CHTO   H82 3659   6.848   4.274   4.717  0.3356 -0.6566 -2.3904
    9CHTO   O26 3660   6.830   4.103   4.841  0.0016 -0.2794  0.0925
    9CHTO   C41 3661   6.686   4.091   4.831  0.1606 -0.4536 -0.2980
    9CHTO   H83 3662   6.636   4.187   4.850  1.5426 -0.1100  1.8086
    9CHTO   C52 3663   6.643   3.989   4.949 -1.0046  0.0360 -0.0595
    9CHTO   O35 3664   6.708   3.872   4.937 -0.2000  0.3526  0.2346
    9CHTO   H71 3665   6.657   3.798   4.912 -1.0434  0.2610  2.1248
    9CHTO   O28 3666   7.034   4.210   4.774  0.4878 -0.4033  0.4291
    9CHTO   C42 3667   7.061   4.341   4.826  0.0814 -0.0701  0.1515
    9CHTO   H84 3668   7.163   4.337   4.864  1.2885  0.7666 -2.8106
    9CHTO   C44 3669   6.967   4.384   4.946  0.5728 -0.1632  0.1049
    9CHTO   H86 3670   6.864   4.353   4.928  0.1338  0.3865  1.5934
    9CHTO   O32 3671   6.998   4.286   5.048  0.2844 -0.0901  0.0266
    9CHTO   H69 3672   7.049   4.323   5.118  3.1417  0.4933 -2.2897
    9CHTO   C48 3673   6.969   4.541   4.977 -0.1926  0.0677 -0.5266
    9CHTO   H90 3674   7.066   4.567   5.018 -1.0034 -1.2750  2.3843
    9CHTO    N9 3675   6.872   4.584   5.084 -0.1706  0.3630  0.5126
    9CHTO   H77 3676   6.887   4.691   5.096 -0.5397  0.1166  3.3191
    9CHTO   H78 3677   6.895   4.535   5.177 -2.6608  0.5415  1.2569
    9CHTO   C51 3678   6.949   4.618   4.839 -0.1057 -0.4518  0.4274
    9CHTO   H93 3679   6.858   4.573   4.800  0.2793 -0.2590 -0.6932
    9CHTO   O30 3680   7.062   4.586   4.759  0.0810 -0.3409 -0.0389
    9CHTO   C46 3681   7.063   4.450   4.709 -0.4983 -0.4068  0.4384
    9CHTO   H88 3682   6.984   4.421   4.640 -0.4910 -0.3078  0.3895
    9CHTO   C53 3683   7.195   4.439   4.632 -0.1754 -0.3028 -0.2234
    9CHTO   O72 3684   7.314   4.506   4.680  0.2003 -0.2441  0.0481
    9CHTO  H199 3685   7.300   4.595   4.705  0.5477  0.3363 -1.7256
    9CHTO   O22 3686   6.940   4.760   4.858  0.3372  0.3933  0.0541
    9CHTO   C31 3687   6.876   4.850   4.768 -0.4763  0.5291  0.1187
    9CHTO   H59 3688   6.886   4.950   4.816  1.2057  1.0045 -1.2010
    9CHTO   C29 3689   6.942   4.863   4.625  0.3586  0.1949  0.9818
    9CHTO   H57 3690   6.968   4.758   4.605  1.1450  0.5064  0.3352
    9CHTO   O21 3691   7.066   4.925   4.626 -0.8567 -0.7031  0.4703
    9CHTO   H37 3692   7.120   4.899   4.698  0.1059 -1.0971 -0.3744
    9CHTO   C27 3693   6.862   4.915   4.504  0.3116 -0.1090  0.2637
    9CHTO   H55 3694   6.854   5.024   4.512 -2.2057 -0.2902  0.4807
    9CHTO    N5 3695   6.912   4.876   4.370 -0.4446  0.4967 -0.0930
    9CHTO   H43 3696   6.996   4.809   4.383 -1.3955 -0.5083  0.9844
    9CHTO   H44 3697   6.938   4.960   4.307  0.2597 -0.1024 -0.6138
    9CHTO   C25 3698   6.717   4.862   4.517 -0.8216 -0.3068  0.4659
    9CHTO   H53 3699   6.711   4.753   4.497 -0.0156 -0.4676  1.0769
    9CHTO   O17 3700   6.657   4.887   4.642  0.4191  0.0613  0.3990
    9CHTO   C32 3701   6.723   4.825   4.751  0.8542  0.6030 -0.1177
    9CHTO   H60 3702   6.704   4.719   4.737  0.6846  0.4391  1.2980
    9CHTO   C36 3703   6.653   4.862   4.880  0.1935  0.4008 -0.4134
    9CHTO   O25 3704   6.529   4.799   4.905  0.1885  0.2638 -0.5661
    9CHTO   H40 3705   6.472   4.817   4.833 -0.2172 -2.3795 -0.9538
    9CHTO   O15 3706   6.613   4.940   4.403 -0.3970  0.0548 -0.1279
    9CHTO   C19 3707   6.508   4.882   4.319  0.4587  0.2330  0.1830
    9CHTO   H47 3708   6.436   4.961   4.295 -0.7704 -1.2300 -1.0661
    9CHTO   C20 3709   6.564   4.839   4.177  0.3874  0.2175  0.4631
    9CHTO   H48 3710   6.627   4.750   4.185  0.9595  0.7639  2.6563
    9CHTO   O19 3711   6.635   4.959   4.135 -0.0000  0.2189  0.0266
    9CHTO   H35 3712   6.707   4.951   4.074  0.4211  0.7482  0.4546
    9CHTO   C21 3713   6.443   4.801   4.082  0.3858  0.6273 -0.8040
    9CHTO   H49 3714   6.392   4.893   4.053  2.1794  1.9786  0.2145
    9CHTO    N4 3715   6.492   4.750   3.948  0.5593  0.1571  0.5688
    9CHTO   H41 3716   6.579   4.797   3.904 -0.0168  2.3810  1.6985
    9CHTO   H42 3717   6.503   4.643   3.956 -0.0587 -0.0812 -1.3325
    9CHTO   C22 3718   6.346   4.694   4.150 -0.3482  0.3255 -0.8989
    9CHTO   H50 3719   6.398   4.599   4.161  0.7925  1.1759  1.2983
    9CHTO   O14 3720   6.314   4.732   4.290  0.7347 -0.4614 -0.1771
    9CHTO   C23 3721   6.421   4.767   4.378 -0.4830  0.2928  0.0914
    9CHTO   H51 3722   6.480   4.678   4.404  0.8801  1.7065  1.9463
    9CHTO   C34 3723   6.356   4.799   4.510  0.3557 -0.2524  0.4258
    9CHTO   O23 3724   6.267   4.694   4.549 -0.1294  0.6887  0.3236
    9CHTO   H38 3725   6.298   4.607   4.531  1.6047  1.1963  0.7958
    9CHTO   O16 3726   6.225   4.691   4.084 -0.0975 -0.1309 -0.7153
    9CHTO   C24 3727   6.148   4.545   4.116  0.2185 -0.8932  0.0455
    9CHTO   H52 3728   6.200   4.483   4.190 -1.8434  0.1759  2.4947
    9CHTO   C26 3729   6.150   4.466   3.985 -0.3983 -0.0906 -0.1437
    9CHTO   H54 3730   6.095   4.523   3.907 -0.7539 -1.7870 -1.1456
    9CHTO   O20 3731   6.286   4.446   3.944 -0.2849  0.0990  0.1534
    9CHTO   H36 3732   6.307   4.367   3.898  1.2479  0.3983  0.3297
    9CHTO   C30 3733   6.079   4.328   3.995  0.0842 -0.5332 -0.5828
    9CHTO   H58 3734   6.125   4.265   4.072 -0.4247 -1.2869 -0.8903
    9CHTO    N6 3735   6.074   4.256   3.866  0.0073 -0.3051  0.2210
    9CHTO   H45 3736   5.976   4.221   3.835 -1.0602  1.1385  1.8679
    9CHTO   H46 3737   6.146   4.177   3.880  0.6810  0.1929 -0.3572
    9CHTO   C33 3738   5.939   4.351   4.053  0.3011 -0.3910  0.5500
    9CHTO   H61 3739   5.879   4.404   3.977  0.8975 -0.6824 -0.1395
    9CHTO   O18 3740   5.947   4.426   4.177  0.0792  0.9944 -0.4411
    9CHTO   C28 3741   6.004   4.556   4.168 -0.5092  0.1446 -0.0370
    9CHTO   H56 3742   5.945   4.624   4.107  1.1823  1.1839 -0.5423
    9CHTO   C35 3743   6.009   4.613   4.313 -0.8233 -0.3299  0.4368
    9CHTO   O24 3744   6.011   4.755   4.331 -0.0102  0.1790 -0.3114
    9CHTO   H39 3745   6.079   4.768   4.394  0.8751 -1.3192 -0.9370
    9CHTO    O9 3746   5.868   4.231   4.068 -0.7950  0.7082  0.3190
    9CHTO   C13 3747   5.698   4.234   4.025 -0.0069 -0.2541 -0.0155
    9CHTO   H26 3748   5.687   4.248   3.916  1.4831  1.6495  0.0415
    9CHTO   C11 3749   5.621   4.338   4.111 -0.2937  0.1954 -0.2317
    9CHTO   H24 3750   5.646   4.441   4.080 -2.7070  1.2876  1.2001
    9CHTO    O8 3751   5.657   4.321   4.250  0.5966 -0.0814  0.6290
    9CHTO    H3 3752   5.749   4.321   4.265  0.6142 -1.6755  0.5543
    9CHTO    C9 3753   5.469   4.309   4.072  0.3640  0.2966 -0.7117
    9CHTO   H22 3754   5.460   4.323   3.964 -1.9855 -0.7175 -0.6827
    9CHTO    N2 3755   5.378   4.415   4.122 -0.3750  0.4360 -0.1678
    9CHTO   H10 3756   5.375   4.434   4.228 -5.3990  0.8909 -0.2992
    9CHTO   H11 3757   5.400   4.509   4.073  0.7145 -0.0953 -0.7365
    9CHTO    C7 3758   5.426   4.162   4.111 -0.3240 -0.6596  0.2040
    9CHTO   H20 3759   5.325   4.143   4.070  0.4031 -0.8486 -1.5434
    9CHTO    O4 3760   5.508   4.066   4.049 -0.0667 -0.6430  0.2861
    9CHTO   C14 3761   5.654   4.085   4.042  0.2651  0.0795 -0.0428
    9CHTO   H27 3762   5.702   4.027   3.961  0.2168 -1.2050  0.8334
    9CHTO   C18 3763   5.721   4.032   4.176  0.2306  0.3518  1.1073
    9CHTO   O13 3764   5.698   3.894   4.203  0.5891 -0.0995 -0.2926
    9CHTO    H7 3765   5.771   3.836   4.190 -1.1277 -1.9432 -1.8805
    9CHTO    O2 3766   5.431   4.141   4.253 -0.0686 -0.1861  0.4109
    9CHTO    C1 3767   5.313   4.074   4.307 -0.2661  0.4828 -0.4763
    9CHTO   H14 3768   5.279   3.991   4.242 -2.3428  0.1925  0.9268
    9CHTO    C2 3769   5.185   4.162   4.337 -0.6280  0.3251 -0.4202
    9CHTO   H15 3770   5.222   4.266   4.343  0.0820  0.0649 -0.2367
    9CHTO    O6 3771   5.100   4.150   4.224  0.2931 -0.4244  0.0725
    9CHTO    H1 3772   5.131   4.209   4.157 -0.6821 -2.2423 -2.0277
    9CHTO    C3 3773   5.096   4.122   4.470 -0.3812 -0.2724  0.1096
    9CHTO   H16 3774   5.027   4.040   4.444  0.7041 -0.9097 -0.8036
    9CHTO    N1 3775   5.014   4.237   4.520  0.3338 -0.1309 -0.2911
    9CHTO    H8 3776   4.912   4.226   4.553  0.7035 -1.6217  0.4161
    9CHTO    H9 3777   5.024   4.327   4.460 -3.4701  0.6895  0.1693
    9CHTO    C4 3778   5.187   4.065   4.584  0.4341 -0.2520 -0.7103
    9CHTO   H17 3779   5.246   4.143   4.631  0.7722 -0.3887 -0.8989
    9CHTO    O1 3780   5.264   3.962   4.532 -0.0514  0.1720 -0.7616
    9CHTO    C5 3781   5.365   4.009   4.437  1.0846  0.3781 -0.8452
    9CHTO   H18 3782   5.424   4.085   4.488  1.7358  0.1606 -1.2694
    9CHTO   C16 3783   5.457   3.886   4.420 -0.1416  0.1419  0.8465
    9CHTO   O11 3784   5.516   3.851   4.545  0.1750 -0.0517  0.2681
    9CHTO    H5 3785   5.590   3.801   4.516  1.5468  1.2537  1.3881
    9CHTO    O3 3786   5.116   3.986   4.681  0.0712 -0.1485 -0.2503
    9CHTO    C6 3787   5.159   4.000   4.824  1.2094 -0.6527  0.1171
    9CHTO   H19 3788   5.255   4.050   4.840 -0.3874  2.3006  0.9810
    9CHTO    C8 3789   5.053   4.087   4.897 -0.5594  0.6731  0.0742
    9CHTO   H21 3790   4.958   4.035   4.884 -0.4562  0.3880  0.4660
    9CHTO    O7 3791   5.046   4.229   4.853  0.4826  0.1630  0.0319
    9CHTO    H2 3792   5.114   4.277   4.897  0.5355  0.7845 -0.7188
    9CHTO   C12 3793   5.081   4.086   5.057  0.6411  0.0881 -0.1261
    9CHTO   H25 3794   5.171   4.146   5.080  0.1889  0.4032  0.8596
    9CHTO    N3 3795   4.971   4.144   5.141  0.0670 -0.6321 -0.1773
    9CHTO   H12 3796   5.006   4.220   5.209 -1.0625 -0.0313 -0.2583
    9CHTO   H13 3797   4.901   4.197   5.079 -0.1017  2.0734  2.2365
    9CHTO   C15 3798   5.101   3.934   5.101 -0.9534  0.1744 -0.2192
    9CHTO   H28 3799   5.010   3.875   5.110 -0.0136 -1.1845  0.4520
    9CHTO   O10 3800   5.182   3.920   5.247 -0.0377 -0.0127 -0.3549
    9CHTO    H4 3801   5.188   3.827   5.255 -2.9427 -0.2733 -0.5777
    9CHTO    O5 3802   5.202   3.870   5.015 -0.2356 -0.1208  0.3406
    9CHTO   C10 3803   5.170   3.859   4.875  0.3254 -0.5172  0.3480
    9CHTO   H23 3804   5.075   3.807   4.860  0.2687 -0.1192 -0.6773
    9CHTO   C17 3805   5.285   3.787   4.806  0.2681  0.1083 -0.2463
    9CHTO   O12 3806   5.419   3.832   4.848  0.3484 -0.1642  0.6684
    9CHTO    H6 3807   5.432   3.811   4.939 -1.2553  0.6342  1.1082
   10CHTO  H203 3808   5.597   6.956   3.904  0.3631  1.0443  0.8066
   10CHTO   O82 3809   5.599   6.883   3.963 -0.1560  0.3261 -0.0492
   10CHTO  C123 3810   5.461   6.870   4.007 -0.1720  0.2886 -0.1880
   10CHTO  H227 3811   5.394   6.892   3.922 -0.2877  2.8806  0.5169
   10CHTO   O77 3812   5.450   6.740   4.074  0.6790  0.3254 -0.5813
   10CHTO  C118 3813   5.319   6.699   4.106  0.0470 -0.1297  0.0467
   10CHTO  H222 3814   5.249   6.716   4.023 -2.8580 -2.9433  1.7896
   10CHTO  C125 3815   5.325   6.555   4.141 -0.2943 -0.8157  0.3807
   10CHTO   O84 3816   5.195   6.490   4.137 -0.2178 -0.3284  0.1197
   10CHTO  H205 3817   5.170   6.486   4.047  2.2622 -0.3951 -0.5866
   10CHTO  C114 3818   5.271   6.793   4.219  0.5394 -0.8033 -0.4429
   10CHTO  H218 3819   5.341   6.786   4.302  0.8242  0.2136 -0.5866
   10CHTO  C116 3820   5.284   6.946   4.178  0.6624 -0.3066  0.1503
   10CHTO  H220 3821   5.208   6.978   4.104  0.4146  0.0137  0.5387
   10CHTO   O79 3822   5.254   7.029   4.294  0.5190  0.3677 -0.1037
   10CHTO  H201 3823   5.318   7.057   4.357  0.8067 -0.8929  0.1872
   10CHTO  C120 3824   5.431   6.977   4.123  0.1571 -0.2543  0.0763
   10CHTO  H224 3825   5.501   6.964   4.208  0.6953  1.4127 -0.0942
   10CHTO   N21 3826   5.433   7.122   4.078  0.1858 -0.1500 -0.2988
   10CHTO  H211 3827   5.517   7.187   4.096 -0.0766  1.0193 -3.0706
   10CHTO  H212 3828   5.405   7.139   3.975 -3.0707 -0.6917  0.4430
   10CHTO   O75 3829   5.138   6.750   4.250 -0.1561 -0.0285 -0.1417
   10CHTO  C112 3830   5.112   6.705   4.406  1.1878 -0.3728 -0.1252
   10CHTO  H216 3831   5.137   6.791   4.470 -0.9174  0.7534 -0.7403
   10CHTO   O73 3832   5.189   6.588   4.439 -0.3005  0.1171  0.7363
   10CHTO  C113 3833   5.173   6.519   4.560 -0.3148  0.4095 -0.3892
   10CHTO  H217 3834   5.204   6.581   4.647 -1.6634  2.0711 -1.0692
   10CHTO  C124 3835   5.273   6.405   4.568  0.0078  0.0064  0.2967
   10CHTO   O83 3836   5.258   6.302   4.478 -0.3157 -0.7170 -0.5382
   10CHTO  H204 3837   5.205   6.325   4.404 -0.6001  0.6889  0.0905
   10CHTO  C109 3838   5.023   6.466   4.569  0.2153 -0.9360  0.3370
   10CHTO  H213 3839   5.010   6.398   4.484  0.2449  1.3710 -1.5610
   10CHTO  C110 3840   4.925   6.581   4.539 -0.1102  0.0327  0.4549
   10CHTO  H214 3841   4.907   6.650   4.622 -0.9714  0.8873 -0.4352
   10CHTO   O78 3842   4.795   6.524   4.519 -0.1253  0.0999 -0.0958
   10CHTO  H200 3843   4.785   6.474   4.440  0.9903 -1.4204  0.7053
   10CHTO  C111 3844   4.966   6.672   4.420  0.4687  0.4937 -1.0410
   10CHTO  H215 3845   4.948   6.620   4.325  0.6368 -2.7963  0.6764
   10CHTO   N19 3846   4.889   6.801   4.421 -0.9211  0.2304 -0.4698
   10CHTO  H207 3847   4.856   6.815   4.319  1.2199  0.6676 -1.1296
   10CHTO  H208 3848   4.803   6.793   4.485 -0.5185 -0.9162 -0.0668
   10CHTO   O74 3849   4.998   6.394   4.694  0.0951 -0.0014  0.0279
   10CHTO  C115 3850   4.906   6.267   4.691 -0.0796 -0.5469 -0.8493
   10CHTO  H219 3851   4.845   6.266   4.600 -1.5864  0.5852  0.1302
   10CHTO   O76 3852   4.976   6.158   4.682 -0.0399 -0.1687 -0.5067
   10CHTO  C122 3853   5.037   6.105   4.803 -0.2065 -0.1399 -0.0699
   10CHTO  H226 3854   5.097   6.188   4.840 -1.7308  0.5601  0.8804
   10CHTO  C126 3855   5.140   5.983   4.761  0.2243 -0.3513 -0.7004
   10CHTO   O85 3856   5.214   6.009   4.643 -0.1969  0.4875  0.2998
   10CHTO  H206 3857   5.290   5.954   4.638  0.6158  1.3448  2.7435
   10CHTO  C121 3858   4.936   6.077   4.922 -1.0433 -0.4482 -0.6211
   10CHTO  H225 3859   4.933   5.967   4.935 -2.4216 -0.4633 -1.0540
   10CHTO   O81 3860   4.992   6.119   5.050 -0.0612 -0.5514 -0.2571
   10CHTO  H202 3861   5.057   6.187   5.046 -0.6606  0.1108  0.9224
   10CHTO  C119 3862   4.790   6.129   4.891 -0.2351 -0.5559  0.0841
   10CHTO  H223 3863   4.755   6.056   4.819 -1.3226  0.7031 -0.6856
   10CHTO  C117 3864   4.803   6.269   4.814 -0.0139  0.6430 -0.0435
   10CHTO  H221 3865   4.838   6.353   4.873 -1.1883  0.0344  1.5832
   10CHTO   N20 3866   4.672   6.312   4.762  0.2499 -0.5716 -0.3597
   10CHTO  H209 3867   4.602   6.300   4.843  0.1013 -1.8787 -0.6700
   10CHTO  H210 3868   4.690   6.417   4.744  1.6090 -0.3493  2.0773
   10CHTO   O80 3869   4.690   6.111   5.002 -0.0906 -0.6510  0.3309
   10CHTO  C103 3870   4.593   5.997   4.997  0.5211 -0.2651  0.1339
   10CHTO  H190 3871   4.560   5.992   4.894  0.1946 -2.4393  0.3281
   10CHTO  C101 3872   4.646   5.865   5.054 -0.0871  0.4590  0.5964
   10CHTO  H188 3873   4.693   5.891   5.148  0.2927  0.0737  0.5125
   10CHTO   O68 3874   4.765   5.812   4.954 -0.4444 -0.6765 -0.5828
   10CHTO  H168 3875   4.816   5.743   4.991 -1.2808 -0.6805  0.5972
   10CHTO   C99 3876   4.525   5.758   5.072  0.2997  0.5576 -0.3850
   10CHTO  H186 3877   4.476   5.733   4.975 -0.1809 -3.2998  0.7965
   10CHTO   N17 3878   4.559   5.621   5.121  0.1809  0.2221 -0.1551
   10CHTO  H174 3879   4.471   5.558   5.117 -0.3134  1.0251 -4.7797
   10CHTO  H175 3880   4.630   5.575   5.054  1.6808 -0.4926  1.8701
   10CHTO   C97 3881   4.416   5.822   5.158  0.6829  0.8529 -0.3406
   10CHTO  H184 3882   4.459   5.834   5.259  1.1048 -2.0554 -0.1059
   10CHTO   O64 3883   4.371   5.947   5.099  0.1598 -0.3088  0.5771
   10CHTO  C104 3884   4.470   6.046   5.081 -0.3275  0.8738  0.0663
   10CHTO  H191 3885   4.508   6.074   5.180 -2.0144  1.2634  0.6204
   10CHTO  C108 3886   4.412   6.172   5.016  0.3440 -0.5412 -0.2655
   10CHTO   O71 3887   4.372   6.154   4.882  0.5111 -0.3094  0.0373
   10CHTO  H171 3888   4.448   6.150   4.829 -0.0230 -0.0713 -0.7499
   10CHTO   O62 3889   4.302   5.744   5.164  0.0108  0.2636  0.2350
   10CHTO   C91 3890   4.213   5.745   5.275 -0.3073  0.0867 -0.0882
   10CHTO  H178 3891   4.240   5.826   5.341  0.2374  0.0736 -0.2913
   10CHTO   C92 3892   4.212   5.607   5.347 -0.1322 -0.3809 -0.3930
   10CHTO  H179 3893   4.167   5.529   5.285  0.1957  0.8259 -2.1919
   10CHTO   O66 3894   4.347   5.563   5.365  0.0368 -0.6845  0.0766
   10CHTO  H166 3895   4.376   5.529   5.283  0.6941  1.4459 -0.6062
   10CHTO   C93 3896   4.127   5.617   5.483 -0.2492  0.7130  0.0408
   10CHTO  H180 3897   4.185   5.692   5.539 -0.7485 -0.8464  2.6961
   10CHTO   N16 3898   4.120   5.505   5.577 -0.1554  1.0061 -0.6510
   10CHTO  H172 3899   4.035   5.517   5.642  0.8158  1.3205  0.5763
   10CHTO  H173 3900   4.213   5.493   5.631  0.1327 -0.8377 -1.4842
   10CHTO   C94 3901   3.982   5.675   5.451 -0.0055 -0.5219  0.5346
   10CHTO  H181 3902   3.914   5.598   5.413 -0.8227  1.0389 -1.2133
   10CHTO   O61 3903   3.978   5.773   5.351 -0.1630 -0.1873  0.0226
   10CHTO   C95 3904   4.057   5.761   5.236 -0.4419  0.0801 -0.3273
   10CHTO  H182 3905   4.024   5.677   5.175  1.1055 -0.6318 -0.2156
   10CHTO  C106 3906   4.021   5.882   5.138  0.3780  0.5994  0.7157
   10CHTO   O69 3907   4.028   6.003   5.212  0.4213 -0.5500 -0.2066
   10CHTO  H169 3908   4.119   6.028   5.213  0.4842 -0.5801 -2.4896
   10CHTO   O63 3909   3.909   5.754   5.585 -0.3810 -0.2030  0.2179
   10CHTO   C96 3910   3.969   5.888   5.629 -0.3899  0.8631  0.2827
   10CHTO  H183 3911   4.059   5.899   5.569 -0.9054  1.5253 -0.3744
   10CHTO   C98 3912   4.008   5.886   5.789  0.5635 -0.1820  0.0260
   10CHTO  H185 3913   3.912   5.862   5.838 -0.1133  1.3545 -0.5279
   10CHTO   O67 3914   4.099   5.773   5.801 -0.1310  0.0043  0.2796
   10CHTO  H167 3915   4.110   5.745   5.890 -0.4319 -0.8571  0.0505
   10CHTO  C102 3916   4.081   6.010   5.834  0.2392 -0.1925  0.0140
   10CHTO  H189 3917   4.180   5.999   5.788  0.6352 -2.9181  1.3680
   10CHTO   N18 3918   4.107   6.028   5.984 -0.4175 -0.1651  0.0867
   10CHTO  H176 3919   4.194   6.092   5.995 -1.2152  1.1611 -1.1093
   10CHTO  H177 3920   4.124   5.935   6.036  1.2195 -0.1874 -0.4607
   10CHTO  C105 3921   4.004   6.135   5.774 -0.4850  0.1045  0.3889
   10CHTO  H192 3922   3.915   6.157   5.834 -0.4320 -1.7644  1.1993
   10CHTO   O65 3923   3.957   6.123   5.643  0.1679  0.4223  0.6960
   10CHTO  C100 3924   3.871   6.012   5.611 -0.5834  0.9292 -0.3926
   10CHTO  H187 3925   3.786   6.006   5.681  0.9822  1.8276  1.6359
   10CHTO  C107 3926   3.819   6.033   5.468 -0.0439 -0.2129 -0.0113
   10CHTO   O70 3927   3.708   5.945   5.432  0.2484  0.0061 -0.0656
   10CHTO  H170 3928   3.729   5.901   5.352 -0.2048 -0.3186 -0.0057
   10CHTO   O57 3929   4.111   6.255   5.784  1.1294 -0.2738 -0.3082
   10CHTO   C85 3930   4.057   6.383   5.824 -0.3259  0.0712 -0.6225
   10CHTO  H157 3931   3.957   6.382   5.777  0.1138  1.2982 -1.6156
   10CHTO   C83 3932   4.138   6.496   5.758 -0.4016  0.0658  0.2943
   10CHTO  H155 3933   4.113   6.476   5.654 -0.8058 -0.0502  0.4126
   10CHTO   O56 3934   4.280   6.476   5.771 -0.9283 -0.6040 -0.0991
   10CHTO  H135 3935   4.324   6.515   5.698 -0.5793 -1.7939 -0.5467
   10CHTO   C81 3936   4.078   6.632   5.803  0.1085 -0.6640  0.3057
   10CHTO  H153 3937   3.972   6.632   5.777 -0.2707 -0.5846  1.7883
   10CHTO   N14 3938   4.132   6.741   5.718  0.5256 -0.9216  0.9038
   10CHTO  H141 3939   4.112   6.835   5.764 -0.0302 -1.7340  2.3698
   10CHTO  H142 3940   4.237   6.725   5.713  0.8015 -0.4256  4.1722
   10CHTO   C79 3941   4.100   6.658   5.959  0.4593  0.1808  0.8300
   10CHTO  H151 3942   4.022   6.727   5.993 -1.1451  0.1305 -2.5284
   10CHTO   O52 3943   4.091   6.533   6.051 -0.1945  0.1218  0.0439
   10CHTO   C86 3944   4.054   6.405   5.987  0.0200 -0.2399  0.2598
   10CHTO  H158 3945   4.125   6.337   6.040 -0.7932  0.1062  1.8304
   10CHTO   C90 3946   3.915   6.360   6.038 -0.2437  0.1701  0.0656
   10CHTO   O60 3947   3.897   6.321   6.174  0.1502 -0.0398 -0.2196
   10CHTO  H138 3948   3.841   6.379   6.221 -0.0383  0.2747 -0.8257
   10CHTO   O50 3949   4.223   6.717   5.979 -0.1493 -0.6024 -0.4438
   10CHTO   C73 3950   4.356   6.681   6.028 -0.3970 -0.1760  0.2526
   10CHTO  H145 3951   4.390   6.604   5.957  1.5806 -0.8010  1.8407
   10CHTO   C74 3952   4.365   6.619   6.171 -0.8663 -0.0332 -0.2619
   10CHTO  H146 3953   4.296   6.535   6.181  0.0952 -0.8705 -0.5228
   10CHTO   O54 3954   4.495   6.547   6.188 -0.0659  0.0186 -0.5280
   10CHTO  H133 3955   4.482   6.469   6.138  1.7261  1.2930 -3.1277
   10CHTO   C75 3956   4.340   6.728   6.276 -0.6688 -0.3080 -0.8975
   10CHTO  H147 3957   4.234   6.759   6.272 -0.5745  0.0816 -0.3487
   10CHTO   N13 3958   4.358   6.687   6.419 -0.3583  0.1347  0.7457
   10CHTO  H139 3959   4.428   6.736   6.486  1.8412  0.5793 -1.7508
   10CHTO  H140 3960   4.285   6.620   6.461 -1.5818  1.5951  0.9751
   10CHTO   C76 3961   4.420   6.860   6.240  0.7995 -0.5186  0.1307
   10CHTO  H148 3962   4.525   6.844   6.263  1.0600  0.3804 -0.4192
   10CHTO   O49 3963   4.415   6.905   6.105 -0.4364 -0.6701  0.1729
   10CHTO   C77 3964   4.452   6.806   6.014 -0.1517  0.4923 -0.1517
   10CHTO  H149 3965   4.550   6.770   6.045 -0.4268  0.2749  0.4743
   10CHTO   C88 3966   4.449   6.881   5.878  0.7315  0.3403  0.0384
   10CHTO   O58 3967   4.535   6.987   5.876  0.4218  0.4774  0.6763
   10CHTO  H136 3968   4.514   7.038   5.952  0.1944 -0.1760  1.0608
   10CHTO   O51 3969   4.375   6.988   6.315  0.1008 -0.0766 -0.2007
   10CHTO   C78 3970   4.502   7.073   6.374  0.2826  0.6907  0.4666
   10CHTO  H150 3971   4.595   7.065   6.314  0.1115  0.1144  0.2718
   10CHTO   C80 3972   4.521   7.046   6.523 -0.2940  0.3886  0.2695
   10CHTO  H152 3973   4.420   7.057   6.568 -1.3272  1.1039 -2.1709
   10CHTO   O55 3974   4.558   6.908   6.538  0.0867  0.3670  0.1399
   10CHTO  H134 3975   4.588   6.893   6.626 -1.9249 -1.0071  0.6190
   10CHTO   C84 3976   4.621   7.146   6.596 -0.2506  0.4885  0.0458
   10CHTO  H156 3977   4.713   7.144   6.537 -0.5709  2.7083 -0.5848
   10CHTO   N15 3978   4.644   7.115   6.743  0.2509 -0.0186  0.1168
   10CHTO  H143 3979   4.724   7.045   6.750  0.9386  0.5256 -1.8646
   10CHTO  H144 3980   4.655   7.199   6.809 -2.0175  0.2115  0.2332
   10CHTO   C87 3981   4.573   7.289   6.576 -0.1458 -0.0246  0.1312
   10CHTO  H159 3982   4.475   7.305   6.621  0.3968  3.3550  0.2220
   10CHTO   O53 3983   4.556   7.301   6.423 -0.5644 -0.2232  0.1121
   10CHTO   C82 3984   4.456   7.215   6.357  0.4785 -0.3149 -0.5443
   10CHTO  H154 3985   4.361   7.237   6.406 -0.3211 -1.8101 -1.3755
   10CHTO   C89 3986   4.433   7.262   6.207 -0.4414  0.8134 -0.0306
   10CHTO   O59 3987   4.388   7.399   6.203 -0.6536 -0.2644  0.2728
   10CHTO  H137 3988   4.295   7.397   6.215 -0.7227 -0.7404 -0.3388
   10CHTO   O45 3989   4.673   7.408   6.612 -0.3262  0.2489  0.2124
   10CHTO   C67 3990   4.627   7.541   6.587 -0.0748  0.1260  0.4275
   10CHTO  H124 3991   4.519   7.541   6.573 -0.2287  0.6908  1.5306
   10CHTO   C65 3992   4.663   7.621   6.709 -0.5527 -0.0763 -0.3715
   10CHTO  H122 3993   4.625   7.566   6.795 -0.6566  2.2106  1.0945
   10CHTO   O44 3994   4.603   7.751   6.717 -0.1548  0.3729  0.2171
   10CHTO  H102 3995   4.574   7.760   6.806  1.0532  1.0484  0.5529
   10CHTO   C63 3996   4.816   7.618   6.723  0.6996 -0.3130 -0.1022
   10CHTO  H120 3997   4.856   7.517   6.719  0.2441 -0.5005  0.0292
   10CHTO   N11 3998   4.865   7.666   6.860  0.5855 -0.5800  0.3593
   10CHTO  H108 3999   4.971   7.656   6.858  0.8630  2.0530 -1.5620
   10CHTO  H109 4000   4.822   7.612   6.942  1.7507  0.8309  1.9361
   10CHTO   C61 4001   4.888   7.695   6.609 -0.1435 -0.5062  0.2181
   10CHTO  H118 4002   4.995   7.671   6.611 -0.0500 -0.0075  1.7218
   10CHTO   O40 4003   4.833   7.640   6.482 -0.0239 -0.2587  0.0821
   10CHTO   C68 4004   4.693   7.597   6.461  0.4945 -0.9025 -0.8256
   10CHTO  H125 4005   4.699   7.510   6.393 -1.2316 -2.0576  0.4973
   10CHTO   C72 4006   4.618   7.713   6.395  0.7075  0.6184  0.1250
   10CHTO   O48 4007   4.477   7.706   6.368 -0.0705  0.5554 -0.7591
   10CHTO  H105 4008   4.455   7.665   6.286 -1.0950  1.7859 -1.1185
   10CHTO   O38 4009   4.878   7.840   6.601 -0.4385 -1.0585  0.4168
   10CHTO   C55 4010   4.997   7.916   6.547 -0.0771  0.1100  0.3735
   10CHTO  H112 4011   5.048   7.862   6.465  0.5784  0.9333  0.2331
   10CHTO   C56 4012   5.098   7.968   6.652  0.1993 -0.4200  0.4489
   10CHTO  H113 4013   5.042   8.021   6.730  0.3605  0.0993  0.2132
   10CHTO   O42 4014   5.157   7.847   6.699  0.0678  0.4203 -0.0560
   10CHTO  H100 4015   5.231   7.828   6.646  1.5846 -1.3781  2.5628
   10CHTO   C57 4016   5.202   8.069   6.588  0.0255  0.0163  0.5902
   10CHTO  H114 4017   5.244   8.001   6.514 -2.6667 -1.3178  0.2637
   10CHTO   N10 4018   5.313   8.099   6.682  0.3587  0.2362  0.1947
   10CHTO  H106 4019   5.283   8.185   6.740  0.3749  2.2058 -2.5886
   10CHTO  H107 4020   5.323   8.013   6.746  1.3145  0.3457  0.1876
   10CHTO   C58 4021   5.134   8.184   6.517 -0.5381  0.1382  0.4810
   10CHTO  H115 4022   5.064   8.232   6.589 -1.0052 -0.7662  0.6369
   10CHTO   O37 4023   5.062   8.120   6.410 -0.2204  0.5358  0.4594
   10CHTO   C59 4024   4.954   8.043   6.472  0.4234 -0.2357  0.4249
   10CHTO  H116 4025   4.894   8.109   6.536  0.6710 -0.0079  0.4228
   10CHTO   C70 4026   4.856   8.006   6.359  0.2051  0.4043  0.0855
   10CHTO   O46 4027   4.927   7.942   6.248  0.2193 -0.1080 -0.0995
   10CHTO  H103 4028   4.923   7.850   6.268 -3.0950 -0.1567 -0.6910
   10CHTO   O39 4029   5.232   8.283   6.439  0.2741  0.4451  0.0771
   10CHTO   C60 4030   5.194   8.423   6.434  0.0798  0.3120 -0.9942
   10CHTO  H117 4031   5.090   8.433   6.464  1.0254  1.9191  1.8987
   10CHTO   C62 4032   5.269   8.503   6.541 -0.6975 -0.0001 -0.3480
   10CHTO  H119 4033   5.251   8.462   6.643  1.4158  0.8598  0.4087
   10CHTO   O43 4034   5.413   8.493   6.519 -0.1646 -0.1924  0.4335
   10CHTO  H101 4035   5.469   8.545   6.574  1.0377  0.0408 -0.9880
   10CHTO   C66 4036   5.221   8.657   6.547  0.0665  0.1959 -0.3777
   10CHTO  H123 4037   5.112   8.663   6.553  0.0801  0.1877 -0.1293
   10CHTO   N12 4038   5.285   8.725   6.660  0.0467 -0.5691 -0.5136
   10CHTO  H110 4039   5.220   8.803   6.698  1.3627  0.1676  0.2535
   10CHTO  H111 4040   5.307   8.655   6.739  2.8979  0.4315 -0.3699
   10CHTO   C69 4041   5.252   8.723   6.415  0.3843  0.2563 -0.1589
   10CHTO  H126 4042   5.362   8.725   6.401  0.4197  1.8518  0.1718
   10CHTO   O41 4043   5.189   8.647   6.294 -0.3137 -0.3655 -0.5655
   10CHTO   C64 4044   5.214   8.486   6.284 -0.5737  0.4953 -0.4915
   10CHTO  H121 4045   5.313   8.460   6.240  0.2515 -0.7213  1.9445
   10CHTO   C71 4046   5.106   8.439   6.191  0.7108  0.2958  0.0519
   10CHTO   O47 4047   5.149   8.470   6.050 -1.0605 -0.1730 -0.3150
   10CHTO  H104 4048   5.152   8.564   6.045 -1.0686 -0.1851 -0.5579
   10CHTO   O34 4049   5.191   8.878   6.420 -0.4767  0.1490  0.4559
   10CHTO   C49 4050   5.065   8.983   6.393 -0.1802  1.2853  0.6665
   10CHTO   H91 4051   5.107   9.069   6.340  0.7065 -0.3365 -1.3692
   10CHTO   C47 4052   4.994   9.008   6.529  0.0556 -0.3426 -0.5766
   10CHTO   H89 4053   5.042   9.094   6.580  0.0090 -0.5256 -0.2198
   10CHTO   O33 4054   5.009   8.900   6.616  0.2080  0.2390  0.2690
   10CHTO   H70 4055   5.099   8.874   6.619  0.6848  1.8062 -0.0879
   10CHTO   C45 4056   4.831   9.043   6.505 -0.8006  0.8878  0.7469
   10CHTO   H87 4057   4.784   8.943   6.502  2.4189 -0.7955  2.7554
   10CHTO    N8 4058   4.789   9.116   6.624  0.2997 -0.0101  0.7438
   10CHTO   H75 4059   4.709   9.182   6.592  1.5551  1.4314  0.5043
   10CHTO   H76 4060   4.745   9.052   6.699  1.2332  0.8876  2.0849
   10CHTO   C43 4061   4.805   9.112   6.358 -0.0910  0.4887  1.0447
   10CHTO   H85 4062   4.697   9.126   6.359 -0.0801  0.5700  1.0796
   10CHTO   O29 4063   4.851   9.019   6.258 -0.4373  0.4900  0.3755
   10CHTO   C50 4064   4.965   8.929   6.282  0.8176 -0.4819 -1.3268
   10CHTO   H92 4065   4.928   8.832   6.319  0.6379 -0.1205 -0.5323
   10CHTO   C54 4066   5.035   8.906   6.144 -0.0436  0.2975 -0.3055
   10CHTO   O36 4067   4.936   8.855   6.054  0.5281 -0.2172  0.4238
   10CHTO   H72 4068   4.943   8.896   5.970 -0.2716 -0.0111  0.4576
   10CHTO   O27 4069   4.873   9.239   6.341 -0.7063  0.2656 -0.0187
   10CHTO   C37 4070   4.916   9.334   6.238  0.4411  0.2286 -0.2657
   10CHTO   H79 4071   5.013   9.297   6.199  1.2087  0.5897  1.2770
   10CHTO   C38 4072   4.824   9.355   6.119 -0.3158 -0.3065  0.4331
   10CHTO   H80 4073   4.725   9.380   6.160 -0.0420  1.5096  0.0189
   10CHTO   O31 4074   4.822   9.228   6.050  0.3023  0.0539 -0.2589
   10CHTO   H68 4075   4.912   9.214   6.031  0.5332 -0.0972  0.8757
   10CHTO   C39 4076   4.859   9.482   6.026 -0.0056 -0.3555 -0.1361
   10CHTO   H81 4077   4.938   9.434   5.968  1.7893 -0.7307  2.5330
   10CHTO    N7 4078   4.753   9.514   5.925 -0.1395  0.2364 -0.8788
   10CHTO   H73 4079   4.664   9.536   5.982  0.8859 -0.1784  0.9278
   10CHTO   H74 4080   4.739   9.436   5.852 -0.2830  1.3049 -1.9960
   10CHTO   C40 4081   4.906   9.597   6.112 -0.4044 -0.0405 -0.4846
   10CHTO   H82 4082   4.821   9.654   6.148  0.2914  0.3108  0.6156
   10CHTO   O26 4083   5.001   9.567   6.217 -0.5175  0.1080 -0.0197
   10CHTO   C41 4084   4.948   9.471   6.312 -0.1619  0.2887 -0.3198
   10CHTO   H83 4085   4.860   9.500   6.370  0.9329  0.3453  1.3694
   10CHTO   C52 4086   5.065   9.469   6.423 -0.9994  0.2676 -0.2478
   10CHTO   O35 4087   5.057   9.390   6.506 -0.2450 -0.5032  0.2950
   10CHTO   H71 4088   5.051   9.305   6.467 -0.6309  0.0252 -0.8282
   10CHTO   O28 4089   4.989   9.680   6.027  0.2620  0.1147  0.4850
   10CHTO   C42 4090   4.975   9.822   6.001  0.7348  0.4612 -0.4675
   10CHTO   H84 4091   4.879   9.844   6.048  0.4531  0.8274 -1.2069
   10CHTO   C44 4092   4.958   9.859   5.851 -0.0147 -0.3794  0.0710
   10CHTO   H86 4093   5.037   9.812   5.793 -0.0553 -1.0933  0.5782
   10CHTO   O32 4094   4.844   9.781   5.802  0.1579 -0.7950  0.3649
   10CHTO   H69 4095   4.830   9.809   5.713  1.2682 -0.5924  0.2431
   10CHTO   C48 4096   4.952  10.018   5.827 -0.0834 -0.2433  0.4116
   10CHTO   H90 4097   4.865  10.067   5.871 -0.7708  0.8155 -2.0855
   10CHTO    N9 4098   4.946  10.047   5.678  0.0162 -0.2554 -0.2666
   10CHTO   H77 4099   4.846  10.074   5.645  0.6849  0.8929 -1.3982
   10CHTO   H78 4100   4.995   9.973   5.617 -1.7536 -0.0800 -1.9533
   10CHTO   C51 4101   5.070  10.084   5.901 -0.3218 -0.5706  0.3359
   10CHTO   H93 4102   5.157  10.041   5.852 -0.9992  1.8194 -3.1555
   10CHTO   O30 4103   5.062  10.051   6.044  0.0692  0.0554 -0.6094
   10CHTO   C46 4104   5.082   9.910   6.073  0.0654 -0.3908 -0.3412
   10CHTO   H88 4105   5.182   9.890   6.032  0.0141  0.7182 -1.0603
   10CHTO   C53 4106   5.080   9.891   6.224  0.1547  0.4504  0.6555
   10CHTO   O72 4107   5.173   9.794   6.275 -0.6794 -0.2097  0.2347
   10CHTO  H199 4108   5.235   9.771   6.208 -0.9039  0.4125 -0.1985
   10CHTO   O22 4109   5.062  10.225   5.882 -0.1586  0.6179  0.1557
   10CHTO   C31 4110   5.182  10.310   5.854  0.0865  0.5771 -0.0389
   10CHTO   H59 4111   5.161  10.401   5.913 -1.6777  1.0703 -1.3566
   10CHTO   C29 4112   5.316  10.250   5.907  0.2457  0.1440 -0.0469
   10CHTO   H57 4113   5.339  10.151   5.865 -1.0105  0.2353 -0.9829
   10CHTO   O21 4114   5.290  10.220   6.050 -0.1874 -0.1616  0.2428
   10CHTO   H37 4115   5.317  10.133   6.074 -1.9270 -0.6811  0.3664
   10CHTO   C27 4116   5.434  10.358   5.877 -0.4433 -0.1996 -0.5128
   10CHTO   H55 4117   5.419  10.447   5.941  0.1076  0.5653 -1.4191
   10CHTO    N5 4118   5.565  10.296   5.919 -0.2199 -0.3683 -0.3777
   10CHTO   H43 4119   5.567  10.312   6.025  1.0374 -1.2708 -0.2501
   10CHTO   H44 4120   5.657  10.335   5.877 -0.5638  0.2999 -0.5065
   10CHTO   C25 4121   5.429  10.375   5.724  0.0160 -0.2632  0.7013
   10CHTO   H53 4122   5.420  10.275   5.681 -0.5700  0.8213 -1.8014
   10CHTO   O17 4123   5.302  10.446   5.690 -0.0693  0.2112 -0.5338
   10CHTO   C32 4124   5.188  10.359   5.706 -0.1456 -0.3806  0.5683
   10CHTO   H60 4125   5.184  10.269   5.644 -2.1494 -1.1418  1.7616
   10CHTO   C36 4126   5.064  10.443   5.652 -0.5659 -0.1049  0.0689
   10CHTO   O25 4127   5.030  10.558   5.730  0.3690 -0.8836  0.0710
   10CHTO   H40 4128   4.943  10.565   5.766  0.7171  2.1630  0.4920
   10CHTO   O15 4129   5.559  10.462   5.641  0.5393 -0.0667  0.7174
   10CHTO   C19 4130   5.628  10.591   5.668  0.8448  0.3841  0.7183
   10CHTO   H47 4131   5.647  10.627   5.566 -1.2671 -0.6234 -0.0727
   10CHTO   C20 4132   5.545  10.703   5.746 -0.3015  0.2588  0.2840
   10CHTO   H48 4133   5.523  10.675   5.850 -0.1677  0.5515  0.3944
   10CHTO   O19 4134   5.425  10.722   5.676 -0.0159  0.2948 -0.1640
   10CHTO   H35 4135   5.368  10.648   5.681 -1.1713  1.0690 -1.4368
   10CHTO   C21 4136   5.631  10.836   5.752 -0.6252 -0.0561 -0.2929
   10CHTO   H49 4137   5.643  10.874   5.651 -0.7733 -0.0412 -0.3048
   10CHTO    N4 4138   5.554  10.941   5.825 -0.4476  0.4833  0.0790
   10CHTO   H41 4139   5.605  11.014   5.886  0.5988  0.7503 -1.1011
   10CHTO   H42 4140   5.485  10.990   5.758  0.3046 -0.4992 -1.4254
   10CHTO   C22 4141   5.774  10.803   5.816 -0.1263 -0.1387 -0.5801
   10CHTO   H50 4142   5.769  10.783   5.923  0.5339  2.0137 -0.1298
   10CHTO   O14 4143   5.837  10.690   5.748  0.3898  0.2594 -0.1193
   10CHTO   C23 4144   5.763  10.568   5.739 -0.5057 -0.4141  0.1399
   10CHTO   H51 4145   5.749  10.520   5.838  2.3663 -2.4272 -0.3616
   10CHTO   C34 4146   5.854  10.466   5.665  0.2623 -0.1102  0.4313
   10CHTO   O23 4147   5.947  10.412   5.756 -0.6851 -0.7884  0.2222
   10CHTO   H38 4148   6.034  10.441   5.736 -1.3864  1.3941  0.1221
   10CHTO   O16 4149   5.872  10.905   5.796  0.1094 -0.2891  0.8161
   10CHTO   C24 4150   5.986  10.906   5.889  0.0443 -1.4433  0.7507
   10CHTO   H52 4151   6.003  10.809   5.936 -0.3784 -1.1528  1.5059
   10CHTO   C26 4152   5.970  11.013   6.000  0.1227  0.0295  0.1524
   10CHTO   H54 4153   5.944  11.110   5.953 -2.9292 -0.3103  1.0446
   10CHTO   O20 4154   5.855  10.974   6.081 -0.2749 -0.1411 -0.1258
   10CHTO   H36 4155   5.787  11.037   6.065 -0.3644 -0.7145 -2.1512
   10CHTO   C30 4156   6.108  11.036   6.072 -0.4739 -0.0156  0.4154
   10CHTO   H58 4157   6.145  10.953   6.134 -2.2650 -0.0544  1.4566
   10CHTO    N6 4158   6.096  11.144   6.174  0.2444 -0.1799  0.5339
   10CHTO   H45 4159   6.045  11.097   6.257  0.3097 -2.0092 -0.4205
   10CHTO   H46 4160   6.038  11.227   6.138  0.6041 -0.4314 -0.6457
   10CHTO   C33 4161   6.221  11.062   5.963  0.2301 -0.1180 -0.2994
   10CHTO   H61 4162   6.197  11.151   5.903  0.5131 -0.3773 -0.8059
   10CHTO   O18 4163   6.228  10.950   5.875  0.3165  0.0869 -0.1801
   10CHTO   C28 4164   6.110  10.939   5.797  0.0493 -0.4989  0.2845
   10CHTO   H56 4165   6.086  11.025   5.735 -0.3182 -1.3268 -0.7301
   10CHTO   C35 4166   6.128  10.832   5.690 -0.3108  0.1093  0.6062
   10CHTO   O24 4167   6.236  10.731   5.715  0.1885 -0.5880  0.0514
   10CHTO   H39 4168   6.203  10.649   5.681 -0.8246  0.1130 -0.6982
   10CHTO    O9 4169   6.350  11.090   6.019 -0.7791  0.2733 -0.2635
   10CHTO   C13 4170   6.394  11.262   6.006  0.3472 -0.5684 -0.4147
   10CHTO   H26 4171   6.314  11.329   6.044  0.0081 -1.6079  0.7334
   10CHTO   C11 4172   6.428  11.287   5.857  0.1103 -0.1268 -0.4031
   10CHTO   H24 4173   6.342  11.263   5.793  0.8070  1.0604 -1.8269
   10CHTO    O8 4174   6.535  11.194   5.821  0.0046 -0.3698 -0.0679
   10CHTO    H3 4175   6.501  11.129   5.763 -0.7930 -0.4978  0.5355
   10CHTO    C9 4176   6.467  11.438   5.833 -0.1014  0.2215  0.0328
   10CHTO   H22 4177   6.379  11.494   5.867  0.4698  1.0320  0.1855
   10CHTO    N2 4178   6.480  11.470   5.690  0.4196  0.5642 -0.2019
   10CHTO   H10 4179   6.397  11.443   5.625 -0.1575 -0.5272  0.9700
   10CHTO   H11 4180   6.522  11.568   5.677 -0.6064  0.8825 -1.2336
   10CHTO    C7 4181   6.581  11.484   5.935  0.1413 -0.2420  0.0555
   10CHTO   H20 4182   6.514  11.546   5.998 -0.6097  1.0131 -1.9307
   10CHTO    O4 4183   6.625  11.373   6.011 -0.3684  0.1305 -0.4424
   10CHTO   C14 4184   6.528  11.298   6.085 -0.0603 -0.3389 -0.3122
   10CHTO   H27 4185   6.502  11.365   6.170  1.3481 -0.8175  0.5200
   10CHTO   C18 4186   6.590  11.168   6.144  0.5582  0.2666  0.5998
   10CHTO   O13 4187   6.705  11.207   6.224 -0.1775  0.1127  0.3412
   10CHTO    H7 4188   6.698  11.282   6.281 -0.9923 -1.1597  1.9705
   10CHTO    O2 4189   6.692  11.568   5.885  0.3639  0.3626  0.2119
   10CHTO    C1 4190   6.691  11.703   5.927 -0.2408  0.2859 -0.1002
   10CHTO   H14 4191   6.651  11.710   6.030  0.9126 -1.9493  0.5426
   10CHTO    C2 4192   6.615  11.818   5.844 -0.2813 -0.2684 -0.3756
   10CHTO   H15 4193   6.632  11.801   5.737 -0.4484  0.5657 -0.5379
   10CHTO    O6 4194   6.477  11.793   5.860  0.4485  0.2508 -0.0312
   10CHTO    H1 4195   6.454  11.784   5.951  0.4062  0.1570 -0.0511
   10CHTO    C3 4196   6.656  11.966   5.887 -0.3440 -0.3051  0.5172
   10CHTO   H16 4197   6.612  11.995   5.984  0.2021  2.2327  0.0357
   10CHTO    N1 4198   6.603  12.061   5.781 -0.3153 -0.0278 -0.6160
   10CHTO    H8 4199   6.631  12.040   5.678  0.5026  0.4613 -0.4934
   10CHTO    H9 4200   6.646  12.157   5.805 -0.2205 -0.2564  0.1352
   10CHTO    C4 4201   6.811  11.974   5.906 -0.4909 -0.0312  0.1255
   10CHTO   H17 4202   6.857  11.957   5.809 -3.4460 -2.4894 -0.9466
   10CHTO    O1 4203   6.849  11.872   6.000  0.4323 -0.7050 -0.9018
   10CHTO    C5 4204   6.840  11.735   5.957  0.5975  0.5339 -0.5633
   10CHTO   H18 4205   6.893  11.707   5.866  1.3138 -0.7465  0.2308
   10CHTO   C16 4206   6.896  11.642   6.071 -0.4916 -0.3963 -0.5493
   10CHTO   O11 4207   7.037  11.644   6.081 -0.1004 -0.1552  0.2403
   10CHTO    H5 4208   7.069  11.646   6.169  0.4805  1.4517 -0.0030
   10CHTO    O3 4209   6.859  12.099   5.961  0.5601 -0.4863  0.4951
   10CHTO    C6 4210   6.956  12.172   5.882  0.1830 -0.3442 -0.0992
   10CHTO   H19 4211   6.967  12.140   5.778  1.0496 -0.4974  0.0359
   10CHTO    C8 4212   6.910  12.320   5.886 -0.5310 -0.3079  0.3429
   10CHTO   H21 4213   6.887  12.350   5.988  1.4047  2.4570  0.0579
   10CHTO    O7 4214   6.791  12.328   5.807 -0.2654 -0.1186 -0.1056
   10CHTO    H2 4215   6.803  12.306   5.717 -0.8290 -0.0759 -0.1901
   10CHTO   C12 4216   7.028  12.416   5.845  0.7490 -0.0404  0.1213
   10CHTO   H25 4217   7.057  12.393   5.740  0.2471 -0.3593  0.0510
   10CHTO    N3 4218   6.983  12.557   5.848 -0.2745 -0.5836 -0.3853
   10CHTO   H12 4219   7.049  12.605   5.777 -0.1785 -3.9338 -2.7345
   10CHTO   H13 4220   6.994  12.609   5.942 -1.8324 -0.2712 -0.3722
   10CHTO   C15 4221   7.152  12.393   5.938  0.0968  0.2350 -0.6340
   10CHTO   H28 4222   7.132  12.419   6.042  1.1657 -1.4399  0.0075
   10CHTO   O10 4223   7.282  12.469   5.905 -0.6279  0.3195 -0.2370
   10CHTO    H4 4224   7.339  12.479   5.978  1.0265 -1.8524 -1.2023
   10CHTO    O5 4225   7.193  12.257   5.929 -0.2939  0.5930 -0.0816
   10CHTO   C10 4226   7.093  12.157   5.952  0.0700  0.1227  0.3756
   10CHTO   H23 4227   7.081  12.164   6.060  3.4912  0.5991  0.7761
   10CHTO   C17 4228   7.166  12.020   5.931 -0.4035 -0.4583  0.2303
   10CHTO   O12 4229   7.205  12.018   5.793  0.0911  0.2015 -0.0380
   10CHTO    H6 4230   7.248  11.938   5.768  1.5514  1.4237 -1.5969
   11CHTO  H203 4231   7.353   5.261   0.816 -0.8868 -0.4260 -1.1317
   11CHTO   O82 4232   7.406   5.289   0.744  0.0713 -0.2606 -0.3786
   11CHTO  C123 4233   7.353   5.392   0.659  0.4515 -0.9764  0.5335
   11CHTO  H227 4234   7.433   5.427   0.593 -0.5376  1.6482  0.6308
   11CHTO   O77 4235   7.255   5.319   0.577  0.4922 -0.0308  0.5480
   11CHTO  C118 4236   7.166   5.396   0.499 -0.0829 -0.2159 -0.2924
   11CHTO  H222 4237   7.210   5.472   0.434 -1.8819 -0.6094 -2.0025
   11CHTO  C125 4238   7.080   5.292   0.411 -0.3818 -0.5341  0.2601
   11CHTO   O84 4239   7.147   5.254   0.288 -0.2790  0.6917  0.6397
   11CHTO  H205 4240   7.110   5.301   0.216  0.0886  0.0347  0.0204
   11CHTO  C114 4241   7.078   5.479   0.593  0.6243  0.4167 -0.8250
   11CHTO  H218 4242   7.028   5.412   0.663 -1.5255  0.5915 -2.1320
   11CHTO  C116 4243   7.161   5.581   0.666  0.0701  0.9634 -0.0547
   11CHTO  H220 4244   7.201   5.654   0.593  0.2759 -0.0299 -0.9461
   11CHTO   O79 4245   7.081   5.668   0.749  0.1801  0.4381 -0.6193
   11CHTO  H201 4246   7.012   5.715   0.706  1.0297  1.8003 -0.5295
   11CHTO  C120 4247   7.278   5.503   0.743 -0.1494 -0.0461 -0.2887
   11CHTO  H224 4248   7.233   5.458   0.834 -2.2804  0.0227 -1.2776
   11CHTO   N21 4249   7.374   5.607   0.792 -0.4461  0.3325  0.0349
   11CHTO  H211 4250   7.317   5.688   0.834 -1.6920 -0.0093 -0.9886
   11CHTO  H212 4251   7.441   5.641   0.714  1.3113 -0.6828  1.0425
   11CHTO   O75 4252   6.975   5.539   0.505 -0.0617 -0.3500  0.1463
   11CHTO  C112 4253   6.831   5.531   0.577 -0.7304  0.8180  0.5975
   11CHTO  H216 4254   6.845   5.543   0.686  3.1250 -0.2903  0.3073
   11CHTO   O73 4255   6.773   5.405   0.546 -0.0622 -0.8639 -0.1952
   11CHTO  C113 4256   6.638   5.372   0.581 -0.0433 -0.0615 -0.3899
   11CHTO  H217 4257   6.614   5.386   0.689 -0.0561 -0.1464 -0.3816
   11CHTO  C124 4258   6.599   5.230   0.529 -0.2692  0.0249  0.2289
   11CHTO   O83 4259   6.707   5.135   0.547 -0.2890  0.5738  0.4983
   11CHTO  H204 4260   6.785   5.171   0.583  0.5806  0.1248 -0.8852
   11CHTO  C109 4261   6.550   5.481   0.511  0.2505  0.1191  0.0272
   11CHTO  H213 4262   6.567   5.476   0.402  1.4656 -1.5223  0.2725
   11CHTO  C110 4263   6.589   5.618   0.574 -0.3508  0.4219  0.1705
   11CHTO  H214 4264   6.573   5.596   0.679 -0.6775 -1.9501 -0.3316
   11CHTO   O78 4265   6.505   5.722   0.530 -0.8375  0.5217 -0.3205
   11CHTO  H200 4266   6.523   5.761   0.446 -1.9271  1.3492 -0.1948
   11CHTO  C111 4267   6.736   5.650   0.528  0.0646 -0.7229  0.0257
   11CHTO  H215 4268   6.742   5.646   0.418 -0.9369  1.0962 -0.1204
   11CHTO   N19 4269   6.792   5.784   0.572 -0.9904 -0.4394  0.0255
   11CHTO  H207 4270   6.710   5.844   0.609 -0.2075  0.9555 -0.4326
   11CHTO  H208 4271   6.870   5.784   0.647  0.6344  1.1600 -1.5974
   11CHTO   O74 4272   6.413   5.447   0.547  0.0113 -0.0240  0.4054
   11CHTO  C115 4273   6.318   5.432   0.414 -0.0338 -0.1281 -0.7826
   11CHTO  H219 4274   6.375   5.445   0.322  0.2979  0.8283 -0.4462
   11CHTO   O76 4275   6.254   5.295   0.405 -0.4486 -0.0876  0.3975
   11CHTO  C122 4276   6.174   5.265   0.520  0.5856  0.1298 -0.0167
   11CHTO  H226 4277   6.237   5.208   0.588  0.0877  2.5664  2.5688
   11CHTO  C126 4278   6.065   5.164   0.467 -0.5681 -0.8810 -0.9635
   11CHTO   O85 4279   6.033   5.177   0.327 -0.1072 -0.3345 -0.0500
   11CHTO  H206 4280   6.036   5.269   0.309  0.4430 -0.2376  0.5291
   11CHTO  C121 4281   6.103   5.386   0.594 -0.9185 -0.8682 -0.4127
   11CHTO  H225 4282   6.007   5.344   0.631 -1.6879 -1.5787 -3.0712
   11CHTO   O81 4283   6.185   5.426   0.702 -0.1893 -0.7218  0.3180
   11CHTO  H202 4284   6.246   5.492   0.673 -0.5410 -0.3407  0.4432
   11CHTO  C119 4285   6.075   5.503   0.497  0.4267 -0.3523  0.2698
   11CHTO  H223 4286   6.010   5.457   0.422 -0.5266 -0.0161  0.8760
   11CHTO  C117 4287   6.210   5.552   0.428  0.3444  0.7366 -0.7148
   11CHTO  H221 4288   6.261   5.630   0.485 -2.2834  2.2432 -0.3425
   11CHTO   N20 4289   6.172   5.624   0.306  0.2122  0.6541 -0.5225
   11CHTO  H209 4290   6.175   5.562   0.217  0.8282 -0.6680  0.4075
   11CHTO  H210 4291   6.241   5.704   0.285  2.1564 -1.0794 -0.9135
   11CHTO   O80 4292   5.980   5.629   0.548  0.0862  0.0757  0.0500
   11CHTO  C103 4293   6.011   5.721   0.683  0.6593 -0.0070  0.1342
   11CHTO  H190 4294   6.004   5.664   0.776  0.4134 -0.6913 -0.3052
   11CHTO  C101 4295   6.151   5.796   0.690 -0.0581 -0.0708 -0.2231
   11CHTO  H188 4296   6.167   5.849   0.595 -0.4356 -0.0490 -0.2744
   11CHTO   O68 4297   6.265   5.692   0.713  0.3023 -0.4565 -0.4591
   11CHTO  H168 4298   6.332   5.688   0.648  0.3597  2.0097 -0.6157
   11CHTO   C99 4299   6.162   5.895   0.811 -0.0428  0.9980 -0.2039
   11CHTO  H186 4300   6.152   5.840   0.907  0.2049  0.9340 -0.2136
   11CHTO   N17 4301   6.293   5.970   0.834 -0.1004 -0.2760  0.0258
   11CHTO  H174 4302   6.383   5.910   0.827 -0.2133 -0.4273 -0.1334
   11CHTO  H175 4303   6.295   6.049   0.760  2.5872  0.7826  1.1821
   11CHTO   C97 4304   6.037   5.993   0.804 -0.2853  0.3770 -0.0722
   11CHTO  H184 4305   6.053   6.064   0.721 -0.8889  0.1972 -0.3421
   11CHTO   O64 4306   5.908   5.923   0.791 -0.1853 -0.1189  0.5688
   11CHTO  C104 4307   5.897   5.827   0.685  0.3270 -0.3787 -0.2579
   11CHTO  H191 4308   5.900   5.871   0.585  1.7701  0.5141  0.1590
   11CHTO  C108 4309   5.767   5.760   0.699 -0.5179  0.5372  0.4443
   11CHTO   O71 4310   5.739   5.678   0.814  0.8316 -0.4264  0.1723
   11CHTO  H171 4311   5.767   5.725   0.890 -1.0802  2.3141 -0.7414
   11CHTO   O62 4312   6.015   6.064   0.923 -0.2728  0.0247 -0.1507
   11CHTO   C91 4313   5.947   6.194   0.944  0.1738 -0.4325 -0.2381
   11CHTO  H178 4314   5.871   6.211   0.868 -0.8454  1.0459  1.0792
   11CHTO   C92 4315   6.049   6.304   0.924  0.2680  0.2768  0.3540
   11CHTO  H179 4316   6.138   6.276   0.983  0.0290  1.1405  1.1460
   11CHTO   O66 4317   6.095   6.310   0.787 -0.3277 -0.0881  0.7560
   11CHTO  H166 4318   6.169   6.253   0.771  0.3049  0.3481  2.0622
   11CHTO   C93 4319   5.995   6.443   0.981  0.6201 -0.6856 -0.5185
   11CHTO  H180 4320   5.910   6.467   0.917  0.1932  2.3388  1.0764
   11CHTO   N16 4321   6.095   6.556   0.966  0.1616  0.0292 -0.2709
   11CHTO  H172 4322   6.176   6.529   1.032 -2.1652  0.1240  2.7218
   11CHTO  H173 4323   6.136   6.558   0.866 -0.6484  2.8718 -0.5858
   11CHTO   C94 4324   5.953   6.423   1.130  0.3320  0.6404  0.0987
   11CHTO  H181 4325   6.029   6.378   1.194  0.4827  1.6409  0.6529
   11CHTO   O61 4326   5.843   6.333   1.123 -0.0475  0.2339  0.3094
   11CHTO   C95 4327   5.887   6.198   1.089  0.5686 -0.4382 -0.8329
   11CHTO  H182 4328   5.963   6.170   1.162 -2.0426 -1.6898  1.4910
   11CHTO  C106 4329   5.762   6.098   1.100  0.1629  0.1296  0.3404
   11CHTO   O69 4330   5.697   6.110   1.227  0.1180  0.2879 -0.2838
   11CHTO  H169 4331   5.750   6.142   1.297 -0.3517  0.8928 -0.1955
   11CHTO   O63 4332   5.895   6.550   1.208 -0.0191 -0.3978  0.2392
   11CHTO   C96 4333   5.920   6.537   1.384 -0.0356 -0.0078  0.4993
   11CHTO  H183 4334   5.901   6.431   1.405 -2.5300  0.5768  1.3966
   11CHTO   C98 4335   5.820   6.620   1.470 -0.0316 -0.8253 -0.0891
   11CHTO  H185 4336   5.714   6.617   1.438  0.3496 -1.1172 -1.3403
   11CHTO   O67 4337   5.817   6.557   1.599  0.2499 -0.2360 -0.1646
   11CHTO  H167 4338   5.794   6.613   1.671 -0.4412 -0.3000 -0.3377
   11CHTO  C102 4339   5.869   6.775   1.483 -0.3264  0.2115 -0.0976
   11CHTO  H189 4340   5.827   6.813   1.578  0.5779  0.5617  0.1652
   11CHTO   N18 4341   5.822   6.861   1.375 -0.3476 -0.0295 -0.0792
   11CHTO  H176 4342   5.841   6.816   1.279 -1.2390 -1.1034  0.2488
   11CHTO  H177 4343   5.856   6.964   1.384 -1.6106  0.5845 -2.0568
   11CHTO  C105 4344   6.023   6.787   1.498  0.1499  0.1544 -0.3065
   11CHTO  H192 4345   6.069   6.820   1.405  1.4591 -0.1502  0.2186
   11CHTO   O65 4346   6.083   6.661   1.529 -0.4044  0.4069 -0.4111
   11CHTO  C100 4347   6.069   6.574   1.416  0.3202  0.0826  0.5373
   11CHTO  H187 4348   6.117   6.616   1.327  0.3826 -1.0603  0.0177
   11CHTO  C107 4349   6.145   6.444   1.452  0.3252 -0.3936 -0.3195
   11CHTO   O70 4350   6.282   6.476   1.484 -0.1604  0.4484 -0.5269
   11CHTO  H170 4351   6.322   6.410   1.536 -2.4684 -1.0707 -0.6054
   11CHTO   O57 4352   6.042   6.877   1.620  0.3620 -0.5338  0.2665
   11CHTO   C85 4353   6.145   6.978   1.641  0.3215 -0.0909  0.5116
   11CHTO  H157 4354   6.135   6.998   1.750  4.1900  0.8483  0.7718
   11CHTO   C83 4355   6.114   7.115   1.578  0.0367  0.3435  0.2874
   11CHTO  H155 4356   6.024   7.147   1.631 -1.5366 -1.5463 -1.1722
   11CHTO   O56 4357   6.075   7.105   1.442 -0.0884 -0.0262  0.0973
   11CHTO  H135 4358   6.001   7.051   1.421  0.1764 -0.3392 -0.0299
   11CHTO   C81 4359   6.229   7.214   1.614 -0.0886 -0.7523  0.2042
   11CHTO  H153 4360   6.243   7.222   1.722 -0.3915 -0.0949  0.1951
   11CHTO   N14 4361   6.197   7.352   1.566  0.3210 -0.4438  0.0284
   11CHTO  H141 4362   6.286   7.381   1.514 -0.1016 -1.0015 -1.0202
   11CHTO  H142 4363   6.166   7.419   1.643 -0.7084 -1.2080  0.2841
   11CHTO   C79 4364   6.356   7.165   1.549 -0.8186 -0.0349 -0.2437
   11CHTO  H151 4365   6.435   7.238   1.571 -1.0748 -0.3633  1.8079
   11CHTO   O52 4366   6.400   7.031   1.605  0.8616 -0.2978 -0.2389
   11CHTO   C86 4367   6.291   6.934   1.595  0.9070  0.1142  0.1479
   11CHTO  H158 4368   6.285   6.901   1.489  0.1580 -2.4740  0.9535
   11CHTO   C90 4369   6.335   6.810   1.671  0.2421  0.1535 -0.5552
   11CHTO   O60 4370   6.362   6.839   1.810  0.1311  0.0229  0.8781
   11CHTO  H138 4371   6.447   6.808   1.834  0.3947  0.5594  0.6590
   11CHTO   O50 4372   6.357   7.161   1.406  0.1203  0.2069  0.0447
   11CHTO   C73 4373   6.417   7.166   1.271 -0.5387  0.1606  0.7568
   11CHTO  H145 4374   6.440   7.271   1.247 -0.9435 -0.0263 -0.4327
   11CHTO   C74 4375   6.316   7.113   1.168  0.3635 -0.1345  0.2436
   11CHTO  H146 4376   6.225   7.175   1.171 -0.7523 -1.7558  0.7373
   11CHTO   O54 4377   6.378   7.134   1.038 -0.2261 -0.1334 -0.4863
   11CHTO  H133 4378   6.326   7.109   0.964 -2.6408  1.5368  0.5953
   11CHTO   C75 4379   6.277   6.960   1.203  0.5823 -0.0596  0.0967
   11CHTO  H147 4380   6.242   6.959   1.307  0.5943 -0.0914  0.1008
   11CHTO   N13 4381   6.180   6.889   1.118  0.5299 -0.5383  0.5081
   11CHTO  H139 4382   6.087   6.860   1.166 -1.7226  0.1960 -3.2435
   11CHTO  H140 4383   6.144   6.960   1.045 -1.6321 -2.3438 -0.2642
   11CHTO   C76 4384   6.412   6.878   1.206 -0.4497 -0.0923 -0.2344
   11CHTO  H148 4385   6.454   6.869   1.105  1.9569 -3.3967  0.9772
   11CHTO   O49 4386   6.516   6.941   1.293  0.6634 -0.2531  0.2172
   11CHTO   C77 4387   6.545   7.080   1.266 -0.5595 -0.1978  0.0838
   11CHTO  H149 4388   6.580   7.091   1.163  0.0122  1.5227  0.4462
   11CHTO   C88 4389   6.653   7.141   1.360 -0.7924 -0.1871  1.0002
   11CHTO   O58 4390   6.764   7.095   1.325  0.5119 -0.5398  0.0044
   11CHTO  H136 4391   6.808   7.055   1.397  1.4964  1.8906  0.8238
   11CHTO   O51 4392   6.377   6.711   1.260 -0.7218 -0.0796  0.0145
   11CHTO   C78 4393   6.515   6.615   1.221 -0.2925 -0.7874  0.2616
   11CHTO  H150 4394   6.584   6.690   1.178 -0.1515 -0.5331  0.9272
   11CHTO   C80 4395   6.471   6.510   1.111 -0.3272 -0.4820  1.0621
   11CHTO  H152 4396   6.394   6.444   1.157  0.6138 -1.1397  1.7136
   11CHTO   O55 4397   6.408   6.587   1.004  0.2298  0.0308 -0.3449
   11CHTO  H134 4398   6.316   6.595   1.018  0.0916  0.6710 -1.5913
   11CHTO   C84 4399   6.598   6.429   1.063  0.3280  0.1127 -0.1377
   11CHTO  H156 4400   6.675   6.501   1.034 -1.0571  0.1400 -4.0114
   11CHTO   N15 4401   6.565   6.329   0.957 -0.5453  0.5741  0.4080
   11CHTO  H143 4402   6.623   6.329   0.867  0.7044 -0.9869  1.1826
   11CHTO  H144 4403   6.461   6.334   0.933 -0.6535 -0.0286  0.7591
   11CHTO   C87 4404   6.643   6.356   1.194  0.5543 -0.9574  0.6393
   11CHTO  H159 4405   6.565   6.289   1.230 -0.2617 -0.8412 -0.8507
   11CHTO   O53 4406   6.684   6.464   1.306 -0.1778 -0.1819 -0.3387
   11CHTO   C82 4407   6.577   6.551   1.345  0.0486 -0.7839 -0.3153
   11CHTO  H154 4408   6.507   6.494   1.406  1.9990 -1.2244  1.5475
   11CHTO   C89 4409   6.629   6.669   1.431  0.2531 -0.1913 -0.4552
   11CHTO   O59 4410   6.745   6.737   1.380  0.5814  0.0535 -0.1794
   11CHTO  H137 4411   6.726   6.808   1.322 -0.4012  0.3477  0.4985
   11CHTO   O45 4412   6.774   6.260   1.183  0.3972 -0.5304  0.0845
   11CHTO   C67 4413   6.887   6.317   1.115  0.1589  0.1016  0.8129
   11CHTO  H124 4414   6.864   6.345   1.012  0.1785 -1.0596  0.4895
   11CHTO   C65 4415   6.969   6.433   1.189  0.1698 -0.3691 -0.0059
   11CHTO  H122 4416   6.948   6.411   1.294  1.1687  1.0772  0.5216
   11CHTO   O44 4417   6.918   6.552   1.126  0.2210  0.1943 -0.4134
   11CHTO  H102 4418   6.828   6.537   1.106  0.7423 -1.0615 -1.9884
   11CHTO   C63 4419   7.128   6.432   1.172 -0.4675  0.3578  0.0826
   11CHTO  H120 4420   7.175   6.376   1.253  0.9372  1.1907 -0.1283
   11CHTO   N11 4421   7.208   6.561   1.198  0.3923  0.4788 -0.2056
   11CHTO  H108 4422   7.314   6.549   1.203  0.2772 -0.5282 -0.1592
   11CHTO  H109 4423   7.166   6.654   1.163  1.2463  0.5797 -0.9849
   11CHTO   C61 4424   7.166   6.365   1.031 -0.2980 -0.3636 -0.2183
   11CHTO  H118 4425   7.274   6.341   1.034  0.4491  2.9534  1.8058
   11CHTO   O40 4426   7.093   6.237   1.002  0.4880 -0.1558 -0.0662
   11CHTO   C68 4427   6.991   6.200   1.100  0.0710  0.6127 -0.1489
   11CHTO  H125 4428   7.052   6.177   1.190  3.2315  2.0455 -1.8154
   11CHTO   C72 4429   6.928   6.069   1.046  0.4751  0.0076  0.0116
   11CHTO   O48 4430   6.854   6.099   0.921  0.1250 -0.5653  0.3759
   11CHTO  H105 4431   6.822   6.017   0.890  0.4219 -0.4321 -0.2726
   11CHTO   O38 4432   7.134   6.455   0.919  0.0931  0.2387  0.4057
   11CHTO   C55 4433   7.182   6.407   0.792  0.1322  0.4177  0.2301
   11CHTO  H112 4434   7.188   6.298   0.790 -2.6104  0.1771  1.9342
   11CHTO   C56 4435   7.315   6.479   0.753  0.4295 -0.2503 -0.2391
   11CHTO  H113 4436   7.279   6.582   0.742 -0.1436 -0.4423 -0.2039
   11CHTO   O42 4437   7.421   6.474   0.853  0.0967 -0.0549 -0.0658
   11CHTO  H100 4438   7.486   6.540   0.841 -0.7172  0.7251 -0.2632
   11CHTO   C57 4439   7.368   6.424   0.612 -0.4390  0.3588  0.5862
   11CHTO  H114 4440   7.398   6.319   0.611  2.3960  1.1291 -0.9843
   11CHTO   N10 4441   7.494   6.479   0.570 -0.1146  0.3575  0.3042
   11CHTO  H106 4442   7.496   6.557   0.495  3.2585 -0.8110 -0.9280
   11CHTO  H107 4443   7.561   6.508   0.650  1.7120  1.7982 -1.6674
   11CHTO   C58 4444   7.251   6.452   0.510  0.2290  0.3864  0.1547
   11CHTO  H115 4445   7.242   6.562   0.501  0.0442  0.3093 -0.6435
   11CHTO   O37 4446   7.134   6.385   0.558 -0.3500  0.0118  0.0059
   11CHTO   C59 4447   7.081   6.436   0.684  0.2841  0.9558  0.6716
   11CHTO  H116 4448   7.052   6.541   0.679  2.1367  1.5726  2.2290
   11CHTO   C70 4449   6.954   6.356   0.713 -0.1065 -0.1099 -0.3871
   11CHTO   O46 4450   6.866   6.336   0.596  0.9770 -0.0093 -0.2878
   11CHTO  H103 4451   6.829   6.420   0.577  0.8544  0.4588  1.9176
   11CHTO   O39 4452   7.281   6.370   0.372  0.5771  0.1401  0.4440
   11CHTO   C60 4453   7.227   6.430   0.256 -0.1197  0.1584  0.5063
   11CHTO  H117 4454   7.132   6.471   0.293  0.3327  2.4130 -0.7195
   11CHTO   C62 4455   7.323   6.547   0.205 -0.7640 -0.3611 -0.5944
   11CHTO  H119 4456   7.332   6.619   0.288 -0.1471 -0.8650 -0.2214
   11CHTO   O43 4457   7.450   6.476   0.180  0.1350  0.3442 -0.0620
   11CHTO  H101 4458   7.518   6.539   0.166 -0.5968  1.6805  2.0905
   11CHTO   C66 4459   7.257   6.616   0.078  0.7370 -0.1946  0.1613
   11CHTO  H123 4460   7.164   6.668   0.101  0.2554 -0.0798 -1.9404
   11CHTO   N12 4461   7.342   6.730   0.037  0.7934 -0.2739  0.1458
   11CHTO  H110 4462   7.432   6.686  -0.004  0.7755  0.8491 -1.1435
   11CHTO  H111 4463   7.365   6.792   0.122  0.3522 -0.4641  0.4030
   11CHTO   C69 4464   7.238   6.508  -0.029 -0.0822  0.2934 -0.0449
   11CHTO  H126 4465   7.335   6.456  -0.043  0.0309  0.4352  0.2143
   11CHTO   O41 4466   7.141   6.391   0.030  0.4007 -0.4059  0.2286
   11CHTO   C64 4467   7.197   6.330   0.150 -0.5639  1.2544  0.2780
   11CHTO  H121 4468   7.291   6.279   0.120 -0.4916  0.4850  1.7551
   11CHTO   C71 4469   7.096   6.225   0.200 -0.2111 -0.2430 -0.2877
   11CHTO   O47 4470   6.976   6.289   0.251 -0.8126 -0.2921 -0.9556
   11CHTO  H104 4471   6.920   6.218   0.275 -0.2948 -0.5723 -0.5610
   11CHTO   O34 4472   7.180   6.576  -0.168  0.0233  0.3212 -0.1423
   11CHTO   C49 4473   7.160   6.519  -0.303  0.9949  0.9455  0.1019
   11CHTO   H91 4474   7.258   6.524  -0.352  1.8286  0.8914  1.7447
   11CHTO   C47 4475   7.067   6.613  -0.380  0.2779 -0.1143 -0.3428
   11CHTO   H89 4476   7.079   6.569  -0.482  0.4717  1.2787 -0.9314
   11CHTO   O33 4477   7.121   6.741  -0.387 -0.3105 -0.5492 -0.0178
   11CHTO   H70 4478   7.054   6.793  -0.426  1.3115  0.5342 -1.4451
   11CHTO   C45 4479   6.923   6.612  -0.315 -0.2092  0.0948 -0.0394
   11CHTO   H87 4480   6.911   6.695  -0.244  1.8917  1.4003 -1.1603
   11CHTO    N8 4481   6.828   6.639  -0.426 -0.0377  0.2509  0.0951
   11CHTO   H75 4482   6.851   6.592  -0.521 -0.6833 -0.1507  0.1379
   11CHTO   H76 4483   6.722   6.631  -0.406 -0.6337  1.7124 -2.3123
   11CHTO   C43 4484   6.890   6.473  -0.240 -0.1651  0.0733 -0.3076
   11CHTO   H85 4485   6.925   6.492  -0.138 -1.1159 -2.2543  0.4852
   11CHTO   O29 4486   6.958   6.356  -0.294 -0.6255 -0.2379  0.1617
   11CHTO   C50 4487   7.103   6.368  -0.308  0.0507 -0.5923  0.1072
   11CHTO   H92 4488   7.150   6.313  -0.226 -1.3015 -0.9395  0.6707
   11CHTO   C54 4489   7.143   6.279  -0.427  0.7710 -0.1408 -0.1632
   11CHTO   O36 4490   7.287   6.270  -0.436 -0.1908  0.0850  0.5853
   11CHTO   H72 4491   7.320   6.351  -0.472  3.7090 -2.7516 -2.7988
   11CHTO   O27 4492   6.748   6.451  -0.231  0.4362  0.3707  0.0636
   11CHTO   C37 4493   6.677   6.348  -0.161 -0.3642  0.0697  0.1623
   11CHTO   H79 4494   6.748   6.279  -0.114  0.3516  0.3452 -0.4964
   11CHTO   C38 4495   6.594   6.418  -0.053  0.8888  0.1165  0.6697
   11CHTO   H80 4496   6.540   6.502  -0.099 -1.1197 -0.8376  1.2199
   11CHTO   O31 4497   6.679   6.455   0.048  0.4361 -0.1401  0.0287
   11CHTO   H68 4498   6.722   6.535   0.021  0.7158  0.0500  1.0278
   11CHTO   C39 4499   6.482   6.327   0.022 -0.9430  0.0115  0.0676
   11CHTO   H81 4500   6.545   6.271   0.090  1.3215  0.2886 -1.7363
   11CHTO    N7 4501   6.382   6.400   0.113 -0.0206 -0.2855  0.4919
   11CHTO   H73 4502   6.365   6.499   0.073  0.3904  0.2190  1.5562
   11CHTO   H74 4503   6.430   6.419   0.208 -0.6792 -0.7923  0.9335
   11CHTO   C40 4504   6.414   6.229  -0.083  0.0500  0.1210 -0.1317
   11CHTO   H82 4505   6.330   6.267  -0.141  2.1725  2.2368 -1.9673
   11CHTO   O26 4506   6.508   6.164  -0.171 -0.2465  0.1159 -0.3997
   11CHTO   C41 4507   6.582   6.263  -0.255  0.2597  0.1678 -0.1402
   11CHTO   H83 4508   6.521   6.335  -0.311  0.4196 -0.7675 -1.5536
   11CHTO   C52 4509   6.653   6.169  -0.353 -0.4020 -0.1110  0.0008
   11CHTO   O35 4510   6.719   6.247  -0.458  0.3213  0.0875 -0.0816
   11CHTO   H71 4511   6.655   6.255  -0.526 -1.0485  2.5055  1.4228
   11CHTO   O28 4512   6.362   6.113  -0.010 -0.1758  0.1541  0.4735
   11CHTO   C42 4513   6.288   6.011  -0.082 -0.3294 -0.8362  0.2110
   11CHTO   H84 4514   6.319   6.027  -0.185 -2.8571  0.3597 -0.4008
   11CHTO   C44 4515   6.134   6.032  -0.077 -0.5588  0.0245 -0.5752
   11CHTO   H86 4516   6.103   6.039   0.027  2.6835  0.6761  0.4206
   11CHTO   O32 4517   6.108   6.159  -0.137 -0.1447 -0.5259  0.0349
   11CHTO   H69 4518   6.023   6.187  -0.109  0.6186  0.1500  1.7545
   11CHTO   C48 4519   6.049   5.916  -0.137 -0.6665 -0.2348  0.3121
   11CHTO   H90 4520   6.074   5.905  -0.243 -2.4151 -1.9690  0.0391
   11CHTO    N9 4521   5.903   5.933  -0.126  0.2417 -0.2034 -0.7676
   11CHTO   H77 4522   5.854   5.847  -0.168 -2.5917  0.6019  0.7589
   11CHTO   H78 4523   5.863   6.023  -0.169  2.7920  2.3627  1.9390
   11CHTO   C51 4524   6.105   5.785  -0.068  0.8188 -0.1670 -0.5211
   11CHTO   H93 4525   6.083   5.776   0.038  0.4053 -1.8836 -0.7336
   11CHTO   O30 4526   6.250   5.778  -0.096  0.5976  0.2139 -0.3620
   11CHTO   C46 4527   6.330   5.871  -0.034  0.7678  0.3408 -0.2599
   11CHTO   H88 4528   6.314   5.869   0.073 -0.5526 -1.2922 -0.4678
   11CHTO   C53 4529   6.475   5.838  -0.071 -0.0532  0.1405  0.0174
   11CHTO   O72 4530   6.522   5.728   0.005 -0.3049  0.2216 -0.0257
   11CHTO  H199 4531   6.481   5.645  -0.013 -0.8183  0.1818  1.2284
   11CHTO   O22 4532   6.048   5.673  -0.143  0.1164  0.1463 -0.0208
   11CHTO   C31 4533   6.020   5.555  -0.062 -0.2828  0.3682  0.3684
   11CHTO   H59 4534   6.090   5.562   0.024 -0.1692 -0.1677  0.3148
   11CHTO   C29 4535   5.875   5.541  -0.007  0.0469 -0.2133  0.2177
   11CHTO   H57 4536   5.814   5.541  -0.098  2.0290  0.0480 -1.1387
   11CHTO   O21 4537   5.848   5.658   0.078  0.7239 -0.6764  0.0234
   11CHTO   H37 4538   5.824   5.733   0.027  1.4911  0.2895  1.0693
   11CHTO   C27 4539   5.858   5.412   0.080  0.1817 -0.6208  0.1832
   11CHTO   H55 4540   5.928   5.426   0.163 -2.9567  1.2708  2.6177
   11CHTO    N5 4541   5.722   5.381   0.135  0.4967 -0.4928 -0.2597
   11CHTO   H43 4542   5.737   5.323   0.224 -2.1867  2.4168  2.2155
   11CHTO   H44 4543   5.688   5.475   0.176  4.1515  1.0712 -0.5709
   11CHTO   C25 4544   5.904   5.292  -0.008  0.3892 -0.0077  0.1101
   11CHTO   H53 4545   5.828   5.283  -0.087 -0.9081  2.2851  1.0527
   11CHTO   O17 4546   6.032   5.310  -0.070  0.1198  0.0175 -0.0690
   11CHTO   C32 4547   6.052   5.431  -0.143  0.1491  0.3498 -0.2990
   11CHTO   H60 4548   5.988   5.428  -0.232 -2.2403  1.1560  1.3286
   11CHTO   C36 4549   6.204   5.431  -0.188 -0.0158 -0.0721 -0.5897
   11CHTO   O25 4550   6.236   5.316  -0.264  0.0938  0.9001  0.1067
   11CHTO   H40 4551   6.294   5.338  -0.334 -1.1648  0.8048 -0.9982
   11CHTO   O15 4552   5.916   5.140   0.062 -0.4696  0.0225 -0.4251
   11CHTO   C19 4553   5.846   5.021   0.004  0.5101 -0.4478 -0.1589
   11CHTO   H47 4554   5.894   4.934   0.053  2.0303 -1.2243 -2.9370
   11CHTO   C20 4555   5.695   5.029   0.034  0.2034  0.1488  0.1986
   11CHTO   H48 4556   5.651   5.125   0.003 -1.2448 -0.3608  0.6152
   11CHTO   O19 4557   5.676   5.013   0.176  0.1635 -0.0656  0.0559
   11CHTO   H35 4558   5.601   4.961   0.199 -0.2875 -0.3827 -2.0169
   11CHTO   C21 4559   5.618   4.905  -0.035 -0.0212 -0.1094 -0.7937
   11CHTO   H49 4560   5.657   4.814   0.012  1.9649  1.1278  0.0598
   11CHTO    N4 4561   5.474   4.903  -0.006  0.4773 -0.4282  0.3652
   11CHTO   H41 4562   5.454   4.876   0.097  0.0115  0.2190  0.4471
   11CHTO   H42 4563   5.435   5.003  -0.019  2.2107  0.5590  2.4412
   11CHTO   C22 4564   5.646   4.892  -0.185  0.3688 -0.4110  0.2501
   11CHTO   H50 4565   5.616   4.986  -0.231 -2.1581  0.2697  3.1336
   11CHTO   O14 4566   5.788   4.883  -0.202 -0.1969  0.1072  0.0908
   11CHTO   C23 4567   5.856   5.003  -0.156  0.6659  0.3448 -0.3280
   11CHTO   H51 4568   5.828   5.095  -0.209 -2.2846  0.5286  1.4522
   11CHTO   C34 4569   6.004   4.983  -0.197  0.0365 -0.2228 -0.3456
   11CHTO   O23 4570   6.022   5.010  -0.338  0.0674 -0.1704 -0.0809
   11CHTO   H38 4571   6.018   5.097  -0.372  0.5842 -0.9990 -2.3829
   11CHTO   O16 4572   5.585   4.773  -0.249 -0.3024 -0.6016 -0.2135
   11CHTO   C24 4573   5.570   4.813  -0.417  0.4911 -0.4552 -0.4130
   11CHTO   H52 4574   5.621   4.906  -0.443 -1.9748  0.7942 -0.9019
   11CHTO   C26 4575   5.420   4.836  -0.444 -0.0499 -0.0331 -0.6581
   11CHTO   H54 4576   5.367   4.738  -0.438  1.7713 -0.9793  0.4573
   11CHTO   O20 4577   5.380   4.931  -0.342 -0.1545  0.2839 -0.0439
   11CHTO   H36 4578   5.316   4.990  -0.378 -1.8438 -1.3549  0.2479
   11CHTO   C30 4579   5.402   4.889  -0.588  0.0754 -0.5554  0.7759
   11CHTO   H58 4580   5.454   4.984  -0.608 -1.3926 -0.0398 -0.7598
   11CHTO    N6 4581   5.258   4.915  -0.616 -0.1745 -0.5785 -0.5954
   11CHTO   H45 4582   5.222   5.001  -0.670  0.2049  0.8833  1.4021
   11CHTO   H46 4583   5.200   4.826  -0.636 -0.3396 -0.7995  0.8231
   11CHTO   C33 4584   5.468   4.786  -0.686  0.1389  0.0078 -0.4016
   11CHTO   H61 4585   5.395   4.704  -0.681 -3.3924  2.9160 -1.4944
   11CHTO   O18 4586   5.595   4.735  -0.651 -0.1349 -0.6824 -0.0894
   11CHTO   C28 4587   5.620   4.698  -0.516  0.1349 -0.6151 -0.0486
   11CHTO   H56 4588   5.583   4.600  -0.484 -0.5668 -0.6060 -0.8131
   11CHTO   C35 4589   5.768   4.669  -0.491  0.6123 -0.1559 -0.5682
   11CHTO   O24 4590   5.850   4.786  -0.519 -0.0505  0.2401 -0.0017
   11CHTO   H39 4591   5.810   4.845  -0.579 -0.0235 -0.3214 -0.5710
   11CHTO    O9 4592   5.461   4.830  -0.816 -0.1918  0.3969  0.1769
   11CHTO   C13 4593   5.565   4.960  -0.838  0.0037 -0.2835  0.1712
   11CHTO   H26 4594   5.606   4.994  -0.741  0.9618 -0.0481 -0.3139
   11CHTO   C11 4595   5.487   5.079  -0.917  0.0775 -0.2160 -0.2248
   11CHTO   H24 4596   5.401   5.110  -0.856 -0.4884 -0.6933 -0.7650
   11CHTO    O8 4597   5.435   5.020  -1.037 -0.4949 -0.7138  0.5737
   11CHTO    H3 4598   5.343   5.004  -1.024 -0.3843 -0.7198  1.4083
   11CHTO    C9 4599   5.585   5.197  -0.931  0.3310  0.4305 -0.0867
   11CHTO   H22 4600   5.590   5.244  -0.832 -1.6546  1.4715 -0.4658
   11CHTO    N2 4601   5.534   5.311  -1.014 -0.3497  0.3205  0.1334
   11CHTO   H10 4602   5.621   5.349  -1.065 -0.3548 -0.6542 -0.6026
   11CHTO   H11 4603   5.460   5.273  -1.082 -0.4782 -0.6245  0.7913
   11CHTO    C7 4604   5.729   5.140  -0.977 -0.8159  0.3604  0.4175
   11CHTO   H20 4605   5.792   5.158  -0.887  2.4972  1.3750 -1.9677
   11CHTO    O4 4606   5.728   5.006  -1.015  0.1624 -0.0789 -0.1504
   11CHTO   C14 4607   5.696   4.912  -0.908 -0.5090 -0.4072 -0.1948
   11CHTO   H27 4608   5.784   4.906  -0.840 -0.5699 -2.4010 -0.2914
   11CHTO   C18 4609   5.684   4.769  -0.970  0.3796 -0.6459 -0.3876
   11CHTO   O13 4610   5.579   4.772  -1.073 -0.0454  0.4274 -0.0445
   11CHTO    H7 4611   5.580   4.841  -1.136  1.3801 -0.9519 -1.5959
   11CHTO    O2 4612   5.809   5.216  -1.099 -0.3451 -0.2347  0.1250
   11CHTO    C1 4613   5.929   5.285  -1.073 -0.4978 -0.1505  0.1697
   11CHTO   H14 4614   5.979   5.240  -0.985 -0.7168  1.1526  0.9767
   11CHTO    C2 4615   5.901   5.435  -1.049 -0.0077  0.2511 -0.1722
   11CHTO   H15 4616   5.820   5.456  -1.120 -1.7621 -2.5707  0.9126
   11CHTO    O6 4617   5.856   5.459  -0.912 -0.1923 -0.1543  0.1855
   11CHTO    H1 4618   5.925   5.443  -0.851 -1.2886 -0.2455  1.4299
   11CHTO    C3 4619   6.025   5.533  -1.071  0.5051 -0.4823  0.1077
   11CHTO   H16 4620   6.090   5.528  -0.982 -0.3383  0.3805  0.7902
   11CHTO    N1 4621   5.979   5.680  -1.083 -0.4447  0.3137 -0.4927
   11CHTO    H8 4622   6.068   5.738  -1.105 -0.1372  0.1383  0.2940
   11CHTO    H9 4623   5.898   5.691  -1.154 -1.4329 -0.1086  0.5697
   11CHTO    C4 4624   6.110   5.492  -1.195 -0.3605 -0.1417  0.0360
   11CHTO   H17 4625   6.067   5.525  -1.289  1.6044 -0.9312 -1.1537
   11CHTO    O1 4626   6.129   5.347  -1.196 -0.2710  0.1779  0.0263
   11CHTO    C5 4627   6.018   5.261  -1.201  0.4393  0.0309 -0.6292
   11CHTO   H18 4628   5.953   5.281  -1.286 -0.0659 -2.2864 -0.8181
   11CHTO   C16 4629   6.066   5.107  -1.204  0.3149  0.2484 -0.8738
   11CHTO   O11 4630   6.120   5.071  -1.083  0.0575  0.7202  0.3618
   11CHTO    H5 4631   6.200   5.115  -1.064  0.5540 -0.0546  0.0792
   11CHTO    O3 4632   6.243   5.542  -1.183  0.0887  0.0556  0.2661
   11CHTO    C6 4633   6.319   5.550  -1.308 -0.7412 -0.1258  0.6675
   11CHTO   H19 4634   6.265   5.489  -1.381 -1.1441  4.2596 -2.9547
   11CHTO    C8 4635   6.311   5.697  -1.365 -0.4892 -0.2247  0.3628
   11CHTO   H21 4636   6.359   5.763  -1.292 -2.5606  0.0123  1.5346
   11CHTO    O7 4637   6.169   5.729  -1.378 -0.1881  0.3145  0.4316
   11CHTO    H2 4638   6.163   5.823  -1.379 -0.6087  0.2927 -1.0570
   11CHTO   C12 4639   6.395   5.703  -1.498 -0.5029  0.9597  0.3368
   11CHTO   H25 4640   6.341   5.636  -1.569  0.6587  0.0624  0.2822
   11CHTO    N3 4641   6.391   5.836  -1.562  0.8282  0.0297  0.4152
   11CHTO   H12 4642   6.486   5.878  -1.591  1.4771 -1.0638  0.9279
   11CHTO   H13 4643   6.309   5.833  -1.632  0.5157  0.3680  0.7618
   11CHTO   C15 4644   6.544   5.658  -1.474 -0.2283 -0.6756 -0.9376
   11CHTO   H28 4645   6.584   5.722  -1.396 -2.6395  0.7622 -0.8236
   11CHTO   O10 4646   6.653   5.627  -1.602 -0.1920  0.2218 -0.1373
   11CHTO    H4 4647   6.600   5.569  -1.654  0.1190 -1.9885  1.9282
   11CHTO    O5 4648   6.536   5.523  -1.423 -0.5674 -0.2801  0.1446
   11CHTO   C10 4649   6.464   5.503  -1.301  0.7841  0.6263 -0.6371
   11CHTO   H23 4650   6.514   5.564  -1.225  0.0166 -1.2131  1.4045
   11CHTO   C17 4651   6.484   5.359  -1.250 -0.1272  0.3074 -0.4723
   11CHTO   O12 4652   6.613   5.326  -1.206  0.1043 -0.2012 -0.0428
   11CHTO    H6 4653   6.686   5.324  -1.265  0.8044  1.6098  0.7255
   12CHTO  H203 4654   5.033   2.371   4.901  0.5747  0.6208  3.3098
   12CHTO   O82 4655   5.121   2.400   4.888  0.3087  0.0692 -0.2285
   12CHTO  C123 4656   5.216   2.297   4.915 -0.4393 -0.0260 -0.6172
   12CHTO  H227 4657   5.166   2.200   4.897 -0.1956 -0.7501  2.3008
   12CHTO   O77 4658   5.323   2.296   4.816  0.3201 -0.6566  0.1258
   12CHTO  C118 4659   5.403   2.182   4.817 -0.4196 -0.6304  0.0456
   12CHTO  H222 4660   5.346   2.088   4.821 -3.3355  0.9933 -0.9639
   12CHTO  C125 4661   5.502   2.179   4.689  0.4055  0.5481  0.5864
   12CHTO   O84 4662   5.432   2.159   4.573  0.5413 -0.1673  0.0307
   12CHTO  H205 4663   5.366   2.225   4.565 -1.0127 -1.7187 -0.3929
   12CHTO  C114 4664   5.485   2.194   4.944 -0.3269  0.0889  0.0539
   12CHTO  H218 4665   5.537   2.289   4.938 -0.4677  0.0639 -1.5747
   12CHTO  C116 4666   5.397   2.203   5.068  0.4878 -0.1543 -0.2389
   12CHTO  H220 4667   5.340   2.107   5.070 -0.5088  0.4353 -0.2194
   12CHTO   O79 4668   5.475   2.221   5.188 -0.1367 -0.1720  0.3022
   12CHTO  H201 4669   5.417   2.199   5.258  1.0800 -3.7138  0.2442
   12CHTO  C120 4670   5.283   2.310   5.057 -0.0254 -0.4245  0.0510
   12CHTO  H224 4671   5.334   2.407   5.071  2.2470 -1.2580 -2.0107
   12CHTO   N21 4672   5.182   2.297   5.162 -0.4064 -0.1283 -0.6725
   12CHTO  H211 4673   5.093   2.247   5.126 -1.1477  0.0538  0.9010
   12CHTO  H212 4674   5.172   2.392   5.211 -2.5039 -1.0770  0.8110
   12CHTO   O75 4675   5.576   2.080   4.941 -0.0970  0.7718  0.0479
   12CHTO  C112 4676   5.518   1.929   4.982  0.4072  0.8406  0.3605
   12CHTO  H216 4677   5.417   1.927   4.938  1.7874  1.3484 -2.9881
   12CHTO   O73 4678   5.518   1.919   5.121 -0.0884 -0.2073 -0.6215
   12CHTO  C113 4679   5.470   1.793   5.168  0.5094  0.6597  0.7131
   12CHTO  H217 4680   5.367   1.785   5.127  0.5495  1.2891  0.4732
   12CHTO  C124 4681   5.458   1.797   5.318 -0.8054  0.4263 -0.1330
   12CHTO   O83 4682   5.392   1.914   5.367 -0.3649 -0.1115  0.0558
   12CHTO  H204 4683   5.449   1.988   5.362 -0.0751 -0.4225 -1.8524
   12CHTO  C109 4684   5.559   1.676   5.118 -0.4664 -0.2247  0.5433
   12CHTO  H213 4685   5.660   1.700   5.156 -1.1208 -0.7789  2.6479
   12CHTO  C110 4686   5.551   1.669   4.960  0.4832 -0.2275 -0.0297
   12CHTO  H214 4687   5.446   1.652   4.940  0.4607 -1.0901  0.7789
   12CHTO   O78 4688   5.641   1.560   4.911 -0.3421  0.0251 -0.4368
   12CHTO  H200 4689   5.628   1.555   4.819 -2.2678  0.8387 -0.2232
   12CHTO  C111 4690   5.596   1.807   4.908  0.1134  0.5198  0.2799
   12CHTO  H215 4691   5.702   1.831   4.926  0.2392 -0.8119  1.3647
   12CHTO   N19 4692   5.566   1.812   4.760  0.4185 -0.2415 -0.4103
   12CHTO  H207 4693   5.615   1.734   4.705 -1.7861 -2.8187  1.1656
   12CHTO  H208 4694   5.464   1.786   4.737  0.0438 -0.4149  1.3555
   12CHTO   O74 4695   5.515   1.555   5.181 -0.4825 -0.1687 -0.2400
   12CHTO  C115 4696   5.621   1.465   5.265  0.3392 -0.6271 -0.0130
   12CHTO  H219 4697   5.721   1.507   5.267 -0.1203  0.4924 -0.3140
   12CHTO   O76 4698   5.580   1.458   5.416 -0.2150  0.1892 -0.7166
   12CHTO  C122 4699   5.447   1.407   5.449  0.3044 -0.5362 -0.2840
   12CHTO  H226 4700   5.372   1.486   5.441  0.7795  0.0588  0.9607
   12CHTO  C126 4701   5.445   1.365   5.603  0.4539  0.7296 -0.4574
   12CHTO   O85 4702   5.434   1.460   5.705  0.3606 -0.0742 -0.1653
   12CHTO  H206 4703   5.483   1.446   5.784 -0.6214  0.4094  0.5383
   12CHTO  C121 4704   5.408   1.285   5.358  0.0852 -0.2317  0.4466
   12CHTO  H225 4705   5.366   1.221   5.439 -2.1620 -0.6712 -1.0073
   12CHTO   O81 4706   5.306   1.321   5.268  0.2040  0.3868 -0.2634
   12CHTO  H202 4707   5.262   1.243   5.239  0.4645 -0.0743  0.5734
   12CHTO  C119 4708   5.537   1.217   5.295  0.4552  0.5960  0.3769
   12CHTO  H223 4709   5.590   1.183   5.384 -0.2919  0.8264  0.9184
   12CHTO  C117 4710   5.625   1.314   5.207  0.2667 -0.6888  0.1675
   12CHTO  H221 4711   5.589   1.324   5.105 -2.9844  0.2574  1.3426
   12CHTO   N20 4712   5.762   1.264   5.201 -0.1404 -0.6355  0.6159
   12CHTO  H209 4713   5.785   1.217   5.295  0.7644 -0.7094  0.3611
   12CHTO  H210 4714   5.748   1.184   5.130 -3.1148 -1.0988  1.6737
   12CHTO   O80 4715   5.511   1.072   5.225  0.1409 -0.2974 -0.0994
   12CHTO  C103 4716   5.457   0.950   5.320  0.2868 -0.1900 -0.2628
   12CHTO  H190 4717   5.476   0.969   5.426 -0.7355 -0.8055  0.0313
   12CHTO  C101 4718   5.310   0.918   5.305 -0.4777 -0.7071  0.1203
   12CHTO  H188 4719   5.290   0.919   5.198  2.5417  2.8851 -0.5438
   12CHTO   O68 4720   5.230   1.035   5.356  0.1060  0.2056 -0.3276
   12CHTO  H168 4721   5.279   1.090   5.414  1.8915 -1.1530 -0.5504
   12CHTO   C99 4722   5.270   0.779   5.370 -0.5199  0.7687  0.3374
   12CHTO  H186 4723   5.294   0.792   5.478  2.9549 -1.0792 -0.1249
   12CHTO   N17 4724   5.129   0.739   5.352  0.8927 -0.3644  0.7031
   12CHTO  H174 4725   5.074   0.802   5.420  0.0923  1.0191 -1.1870
   12CHTO  H175 4726   5.115   0.633   5.370 -2.3240 -0.3526 -1.2299
   12CHTO   C97 4727   5.370   0.673   5.318  0.3733 -0.5647  0.4476
   12CHTO  H184 4728   5.360   0.656   5.210 -2.5271 -2.7576  0.9863
   12CHTO   O64 4729   5.502   0.723   5.354 -0.1560  0.6953 -0.0044
   12CHTO  C104 4730   5.547   0.832   5.274 -0.5392  0.8026 -0.3630
   12CHTO  H191 4731   5.542   0.818   5.166  0.7428 -0.3753 -0.2909
   12CHTO  C108 4732   5.701   0.850   5.307  0.3089  0.5341  0.3779
   12CHTO   O71 4733   5.788   0.746   5.262  0.2580 -0.7319 -0.6865
   12CHTO  H171 4734   5.821   0.770   5.178  0.3474 -0.4431 -0.5681
   12CHTO   O62 4735   5.352   0.546   5.384  0.1787 -0.4773 -1.1592
   12CHTO   C91 4736   5.361   0.435   5.298  0.6537  0.0099 -0.5386
   12CHTO  H178 4737   5.342   0.474   5.198 -1.0853 -0.8275 -0.5545
   12CHTO   C92 4738   5.238   0.337   5.320  0.5400  0.0192 -1.0463
   12CHTO  H179 4739   5.234   0.308   5.426  0.7356  1.4086 -0.6489
   12CHTO   O66 4740   5.120   0.414   5.294 -0.1156  0.0284 -0.1180
   12CHTO  H166 4741   5.124   0.494   5.343  2.6794 -0.6274  0.7879
   12CHTO   C93 4742   5.245   0.209   5.223  0.1782 -0.3777 -0.6167
   12CHTO  H180 4743   5.220   0.246   5.122  0.2406  1.0010 -0.1429
   12CHTO   N16 4744   5.145   0.105   5.266  0.2877 -0.2945 -0.1313
   12CHTO  H172 4745   5.198   0.025   5.315 -2.6928 -2.3155 -0.0682
   12CHTO  H173 4746   5.091   0.066   5.181  0.2250  1.4807 -0.9218
   12CHTO   C94 4747   5.391   0.150   5.222 -0.2930 -0.4331 -0.0457
   12CHTO  H181 4748   5.419   0.105   5.317  1.5307  0.1666 -0.2705
   12CHTO   O61 4749   5.488   0.254   5.200 -0.4375 -0.1457  0.3212
   12CHTO   C95 4750   5.484   0.351   5.314 -0.9504 -0.0348  0.1237
   12CHTO  H182 4751   5.486   0.296   5.408  0.5039 -1.6471 -0.8142
   12CHTO  C106 4752   5.626   0.433   5.312 -0.1146  0.1274 -0.1619
   12CHTO   O69 4753   5.640   0.492   5.178 -0.1565 -0.3214 -0.7135
   12CHTO  H169 4754   5.642   0.420   5.118 -1.9363 -0.9703 -0.0362
   12CHTO   O63 4755   5.401   0.041   5.108 -0.1369 -0.2207 -0.4046
   12CHTO   C96 4756   5.497  -0.080   5.163  0.2276  0.3448 -0.0947
   12CHTO  H183 4757   5.487  -0.080   5.271 -1.6444 -1.7493 -0.2382
   12CHTO   C98 4758   5.646  -0.055   5.111  0.4779 -0.1369  0.2536
   12CHTO  H185 4759   5.646  -0.044   5.002  1.7619  1.0764  0.3525
   12CHTO   O67 4760   5.691   0.069   5.158  0.1218  0.0602  0.4893
   12CHTO  H167 4761   5.768   0.096   5.113 -0.7703 -1.8051 -2.2762
   12CHTO  C102 4762   5.752  -0.176   5.148 -0.5026  0.0940 -0.1256
   12CHTO  H189 4763   5.767  -0.173   5.257 -0.3004 -1.7493 -0.0821
   12CHTO   N18 4764   5.887  -0.166   5.089 -0.2353 -0.1467  0.5207
   12CHTO  H176 4765   5.918  -0.077   5.038 -3.1888  0.8821  0.3987
   12CHTO  H177 4766   5.962  -0.196   5.160 -0.9473 -2.7930  0.2134
   12CHTO  C105 4767   5.679  -0.310   5.115  0.2420 -0.5323 -0.1611
   12CHTO  H192 4768   5.697  -0.342   5.012 -0.2099  1.3937 -0.8530
   12CHTO   O65 4769   5.541  -0.325   5.145  0.3143  0.3563 -0.0958
   12CHTO  C100 4770   5.458  -0.219   5.100 -0.2856  0.1000  0.8144
   12CHTO  H187 4771   5.473  -0.211   4.991 -0.5122 -0.2444  0.7564
   12CHTO  C107 4772   5.313  -0.249   5.132  0.2651  0.4969  0.3227
   12CHTO   O70 4773   5.222  -0.157   5.076 -0.1746 -0.3555  0.3016
   12CHTO  H170 4774   5.141  -0.172   5.122 -1.0802  2.3126 -0.3241
   12CHTO   O57 4775   5.744  -0.408   5.229 -0.0259  0.4299 -0.1424
   12CHTO   C85 4776   5.704  -0.542   5.252 -0.6791 -0.1407  0.0338
   12CHTO  H157 4777   5.675  -0.576   5.150 -1.7123  2.0654 -0.4351
   12CHTO   C83 4778   5.575  -0.543   5.342  0.0404  0.2705 -0.8493
   12CHTO  H155 4779   5.490  -0.494   5.294  0.5722 -0.0607 -2.1352
   12CHTO   O56 4780   5.598  -0.455   5.456  0.4029  0.6760  0.3879
   12CHTO  H135 4781   5.545  -0.479   5.530 -0.2661  2.2272  0.4381
   12CHTO   C81 4782   5.534  -0.690   5.374  0.2121 -0.0065 -0.9434
   12CHTO  H153 4783   5.513  -0.746   5.283 -0.7438 -2.0541  0.4807
   12CHTO   N14 4784   5.406  -0.714   5.452  0.0092  0.8875 -0.4597
   12CHTO  H141 4785   5.425  -0.746   5.552  1.2221 -2.5197 -1.7437
   12CHTO  H142 4786   5.358  -0.618   5.452 -1.1874  0.3022 -0.5761
   12CHTO   C79 4787   5.658  -0.764   5.445  0.9143 -0.3650  0.2657
   12CHTO  H151 4788   5.629  -0.869   5.452  1.8792 -0.4767  3.5877
   12CHTO   O52 4789   5.770  -0.758   5.352  0.4875  0.2873 -1.0148
   12CHTO   C86 4790   5.819  -0.627   5.317 -0.2970  0.1162  0.6352
   12CHTO  H158 4791   5.856  -0.586   5.413  1.3384 -0.3094  0.1866
   12CHTO   C90 4792   5.936  -0.628   5.220 -0.2764  0.0361  0.8928
   12CHTO   O60 4793   5.915  -0.685   5.086  0.1427 -0.1857 -0.3655
   12CHTO  H138 4794   5.874  -0.620   5.033  0.8734  0.2166 -0.4356
   12CHTO   O50 4795   5.694  -0.737   5.582 -0.0175  0.1117 -0.5957
   12CHTO   C73 4796   5.716  -0.783   5.714 -0.7814  0.0059 -0.5361
   12CHTO  H145 4797   5.632  -0.845   5.748 -0.7524  0.7654  0.9934
   12CHTO   C74 4798   5.720  -0.666   5.817 -0.7015  0.6173 -0.0081
   12CHTO  H146 4799   5.627  -0.610   5.801 -1.1860 -0.3130 -0.4297
   12CHTO   O54 4800   5.718  -0.706   5.954 -0.5084 -0.0577  0.2245
   12CHTO  H133 4801   5.691  -0.637   6.011 -1.3724 -0.4848  0.3466
   12CHTO   C75 4802   5.851  -0.577   5.791  0.6406 -0.1593 -0.2493
   12CHTO  H147 4803   5.843  -0.531   5.692  0.2795  0.5301  0.0947
   12CHTO   N13 4804   5.883  -0.470   5.890 -0.0344  0.3086 -0.5477
   12CHTO  H139 4805   5.916  -0.380   5.839 -3.1542  0.1892 -2.9143
   12CHTO  H140 4806   5.796  -0.445   5.948 -2.4710  0.1230 -3.9994
   12CHTO   C76 4807   5.983  -0.669   5.782  0.7530  0.0786 -0.9899
   12CHTO  H148 4808   5.996  -0.718   5.878  0.1187  1.0509 -0.3964
   12CHTO   O49 4809   5.958  -0.776   5.688 -0.3032  0.3260  0.2496
   12CHTO   C77 4810   5.852  -0.864   5.726  0.8504 -0.1835  0.0030
   12CHTO  H149 4811   5.865  -0.892   5.830  1.2694 -0.1686 -0.0438
   12CHTO   C88 4812   5.868  -0.989   5.645 -0.4468 -0.6353 -0.0077
   12CHTO   O58 4813   5.988  -1.075   5.685 -0.1225  0.6290 -1.1846
   12CHTO  H136 4814   5.954  -1.149   5.732 -0.9601  1.4318 -0.4999
   12CHTO   O51 4815   6.121  -0.574   5.742  0.6541  0.5999  0.0817
   12CHTO   C78 4816   6.251  -0.657   5.785 -0.5209 -0.0188  0.1555
   12CHTO  H150 4817   6.236  -0.765   5.768  0.9778 -0.5065  1.7145
   12CHTO   C80 4818   6.286  -0.639   5.932  0.2715  0.4985  0.3556
   12CHTO  H152 4819   6.263  -0.534   5.961 -0.2944  0.4617  0.0401
   12CHTO   O55 4820   6.187  -0.723   6.004  0.2829 -0.4270 -0.1568
   12CHTO  H134 4821   6.098  -0.696   6.005 -0.6901 -3.3027 -3.0518
   12CHTO   C84 4822   6.436  -0.680   5.972  0.0629  0.0543 -0.0955
   12CHTO  H156 4823   6.441  -0.788   5.961 -1.6851  0.0768 -1.3422
   12CHTO   N15 4824   6.466  -0.653   6.120 -0.0125  0.3121  0.1043
   12CHTO  H143 4825   6.379  -0.630   6.177  1.2799  1.8321  1.5114
   12CHTO  H144 4826   6.538  -0.573   6.124  0.7242 -0.3576  0.3745
   12CHTO   C87 4827   6.535  -0.613   5.871  0.1333  0.3546  0.3786
   12CHTO  H159 4828   6.519  -0.505   5.869  1.7188  0.5964 -2.3427
   12CHTO   O53 4829   6.491  -0.666   5.730 -0.3308 -0.4937 -0.6392
   12CHTO   C82 4830   6.367  -0.610   5.696  0.3126 -0.0124 -0.3248
   12CHTO  H154 4831   6.367  -0.502   5.684 -1.6482  0.1133  0.5951
   12CHTO   C89 4832   6.346  -0.677   5.554  0.0167  0.0526  0.8044
   12CHTO   O59 4833   6.235  -0.612   5.479 -0.0075  0.0016 -0.3035
   12CHTO  H137 4834   6.255  -0.625   5.388  0.7811  2.1835 -0.4676
   12CHTO   O45 4835   6.709  -0.672   5.902  0.7298 -0.9752 -0.0903
   12CHTO   C67 4836   6.738  -0.796   5.842  0.2806 -0.6241  0.1990
   12CHTO  H124 4837   6.649  -0.859   5.841 -0.9121  1.0148  1.0235
   12CHTO   C65 4838   6.777  -0.772   5.693 -0.7675  0.6228 -0.4155
   12CHTO  H122 4839   6.728  -0.683   5.653 -1.9431  1.2932  2.4360
   12CHTO   O44 4840   6.732  -0.885   5.612 -0.0544  0.6917 -0.1041
   12CHTO  H102 4841   6.752  -0.963   5.660 -0.0111  1.5151  1.2421
   12CHTO   C63 4842   6.929  -0.740   5.687  0.2683  0.0486  0.3459
   12CHTO  H120 4843   6.955  -0.658   5.754  1.8608  0.1595 -0.3886
   12CHTO   N11 4844   6.992  -0.685   5.561  0.3949 -0.4232  0.4790
   12CHTO  H108 4845   7.098  -0.700   5.560  0.4034 -0.4078 -0.8399
   12CHTO  H109 4846   6.939  -0.695   5.468  0.1932  2.5212  0.2404
   12CHTO   C61 4847   7.002  -0.875   5.723 -0.3008 -0.6465  0.3042
   12CHTO  H118 4848   7.103  -0.848   5.759 -0.7259 -0.0029  1.0308
   12CHTO   O40 4849   6.944  -0.945   5.825  0.0432 -0.1068  0.3404
   12CHTO   C68 4850   6.852  -0.879   5.920  0.2159  0.2387  1.0331
   12CHTO  H125 4851   6.912  -0.805   5.977  0.3690 -0.1800  1.4188
   12CHTO   C72 4852   6.796  -0.985   6.021 -0.4023  0.3114 -0.8670
   12CHTO   O48 4853   6.727  -0.919   6.123 -0.1663  0.0350  0.8665
   12CHTO  H105 4854   6.753  -0.948   6.209  0.1620 -0.7353  0.5051
   12CHTO   O38 4855   7.014  -0.970   5.609  0.4974 -0.0019  0.3274
   12CHTO   C55 4856   7.122  -1.068   5.616 -0.3112 -0.1961 -0.1662
   12CHTO  H112 4857   7.160  -1.084   5.718 -0.2915  2.3243  0.2532
   12CHTO   C56 4858   7.238  -1.021   5.519 -0.1939 -0.7474  0.3913
   12CHTO  H113 4859   7.174  -0.992   5.434  1.7803 -0.7007 -1.1178
   12CHTO   O42 4860   7.297  -0.904   5.571  0.9312 -0.2600  0.1305
   12CHTO  H100 4861   7.262  -0.821   5.546 -1.4170 -0.7441  1.5910
   12CHTO   C57 4862   7.342  -1.132   5.495 -0.5434 -0.3883  0.9047
   12CHTO  H114 4863   7.395  -1.152   5.588 -0.6767  3.3586  1.8646
   12CHTO   N10 4864   7.458  -1.101   5.404  0.1684  0.1092 -0.3602
   12CHTO  H106 4865   7.528  -1.027   5.440  0.3680 -0.3583  0.2209
   12CHTO  H107 4866   7.516  -1.188   5.379 -0.5289 -0.6670  0.7105
   12CHTO   C58 4867   7.270  -1.262   5.453 -0.0709 -0.3816  0.8818
   12CHTO  H115 4868   7.233  -1.252   5.348 -1.1921 -3.2006  0.9641
   12CHTO   O37 4869   7.167  -1.306   5.543 -0.6009  0.1290 -0.7244
   12CHTO   C59 4870   7.071  -1.204   5.561  0.2303 -0.0651 -1.0440
   12CHTO  H116 4871   7.021  -1.193   5.464 -3.3575 -2.3839  0.4522
   12CHTO   C70 4872   6.974  -1.274   5.650  0.2730  0.0723 -0.4651
   12CHTO   O46 4873   6.872  -1.194   5.711 -0.1688 -0.2427  0.4215
   12CHTO  H103 4874   6.826  -1.238   5.780  1.3553 -3.3839 -0.4668
   12CHTO   O39 4875   7.368  -1.382   5.447  0.1814 -0.6169 -0.7235
   12CHTO   C60 4876   7.368  -1.465   5.330 -0.5065 -0.7360  0.1733
   12CHTO  H117 4877   7.262  -1.488   5.315 -0.5565 -1.9595  2.1322
   12CHTO   C62 4878   7.426  -1.401   5.202  0.0868  0.4967 -0.2306
   12CHTO  H119 4879   7.372  -1.305   5.190  1.8321  1.8938  2.5139
   12CHTO   O43 4880   7.562  -1.359   5.226 -0.8705  0.3081  0.6204
   12CHTO  H101 4881   7.607  -1.436   5.256 -2.1201  0.1893  2.2576
   12CHTO   C66 4882   7.405  -1.498   5.077  0.4883 -0.0055 -0.0703
   12CHTO  H123 4883   7.298  -1.517   5.076 -0.2273  3.6072 -0.1151
   12CHTO   N12 4884   7.429  -1.430   4.950 -0.7280 -0.0354  0.3676
   12CHTO  H110 4885   7.334  -1.408   4.903 -1.6450 -0.9077  1.7995
   12CHTO  H111 4886   7.495  -1.345   4.956 -1.2432  0.2422  2.1868
   12CHTO   C69 4887   7.480  -1.631   5.105  0.1026  0.5431  0.4153
   12CHTO  H126 4888   7.590  -1.616   5.093  0.0689  1.5664  1.2871
   12CHTO   O41 4889   7.447  -1.696   5.238 -0.2392 -0.0940  0.2477
   12CHTO   C64 4890   7.440  -1.597   5.364  0.0542 -0.4899  1.1338
   12CHTO  H121 4891   7.539  -1.569   5.404  0.1531  1.5725 -0.4885
   12CHTO   C71 4892   7.360  -1.683   5.469 -0.2986 -0.1247  1.0776
   12CHTO   O47 4893   7.386  -1.633   5.598  0.1819  0.1340  0.1062
   12CHTO  H104 4894   7.356  -1.545   5.599 -0.0902  0.0300  1.6653
   12CHTO   O34 4895   7.448  -1.730   4.988  0.8289 -0.1098 -0.3433
   12CHTO   C49 4896   7.533  -1.843   4.911  0.8175 -0.1264 -0.0110
   12CHTO   H91 4897   7.626  -1.789   4.891  2.0163 -2.0275  0.2195
   12CHTO   C47 4898   7.447  -1.871   4.785  0.0401  0.0479 -0.7508
   12CHTO   H89 4899   7.515  -1.925   4.717 -0.1904 -0.9117 -0.2251
   12CHTO   O33 4900   7.403  -1.747   4.726 -0.1112  0.7029 -0.2836
   12CHTO   H70 4901   7.481  -1.696   4.716  1.0496 -1.0825 -0.5641
   12CHTO   C45 4902   7.316  -1.956   4.824  0.2963 -0.0812 -0.4511
   12CHTO   H87 4903   7.233  -1.885   4.831 -1.6689 -2.1639 -1.7876
   12CHTO    N8 4904   7.280  -2.056   4.725  0.2919 -0.3398  0.1304
   12CHTO   H75 4905   7.350  -2.138   4.726 -1.7997 -2.1704  0.9530
   12CHTO   H76 4906   7.175  -2.080   4.730 -0.0056  0.8419 -0.1524
   12CHTO   C43 4907   7.334  -2.015   4.974  0.2650  0.5904 -0.3209
   12CHTO   H85 4908   7.326  -1.922   5.030  1.3667 -0.6378  1.9119
   12CHTO   O29 4909   7.461  -2.078   4.986  0.0141 -0.3736  0.4760
   12CHTO   C50 4910   7.566  -1.987   4.983 -0.4222 -0.4911  0.1844
   12CHTO   H92 4911   7.576  -1.979   5.092 -2.4817  0.6707  0.3079
   12CHTO   C54 4912   7.701  -2.048   4.937 -0.0696  0.2561  0.3465
   12CHTO   O36 4913   7.720  -2.191   4.964  0.4287 -0.0496 -0.1303
   12CHTO   H72 4914   7.647  -2.232   4.922  1.1251 -2.5333  0.9932
   12CHTO   O27 4915   7.226  -2.100   5.020  0.2497 -0.6528  0.5651
   12CHTO   C37 4916   7.167  -2.115   5.152 -0.0532 -0.4037  0.1003
   12CHTO   H79 4917   7.126  -2.217   5.158 -0.1934 -0.3282  0.4186
   12CHTO   C38 4918   7.276  -2.116   5.267  0.5697  0.1197  0.1344
   12CHTO   H80 4919   7.333  -2.022   5.266  0.1544  0.4164  2.0061
   12CHTO   O31 4920   7.359  -2.233   5.242  0.2262  0.4849  0.0533
   12CHTO   H68 4921   7.441  -2.224   5.286  0.1359  1.3042  0.0508
   12CHTO   C39 4922   7.217  -2.128   5.409  0.2237 -0.1974  0.4989
   12CHTO   H81 4923   7.178  -2.229   5.424 -2.3765  0.9411  1.6409
   12CHTO    N7 4924   7.321  -2.109   5.518 -0.0807  0.3099  0.7811
   12CHTO   H73 4925   7.278  -2.145   5.610 -1.2067 -0.9251 -0.2021
   12CHTO   H74 4926   7.336  -2.003   5.526 -0.7712  0.4508  0.2818
   12CHTO   C40 4927   7.093  -2.031   5.420  0.2381 -0.2334  0.8057
   12CHTO   H82 4928   7.133  -1.930   5.428 -1.3138  0.4198  0.6507
   12CHTO   O26 4929   6.998  -2.039   5.309 -0.2344 -0.0193  0.1698
   12CHTO   C41 4930   7.061  -2.012   5.183 -0.1862  0.2501 -0.1392
   12CHTO   H83 4931   7.111  -1.915   5.188 -1.4655  0.8979  0.4914
   12CHTO   C52 4932   6.950  -2.010   5.070  0.1677 -0.0621  0.6849
   12CHTO   O35 4933   6.854  -1.898   5.100  0.3127 -0.2202 -0.1292
   12CHTO   H71 4934   6.896  -1.815   5.088 -1.1749  0.4288 -1.0488
   12CHTO   O28 4935   7.023  -2.048   5.543 -0.4392  0.3352  0.2131
   12CHTO   C42 4936   6.897  -1.972   5.571 -0.5103 -0.5766  0.1998
   12CHTO   H84 4937   6.877  -1.997   5.675 -0.6267  0.6445  0.4822
   12CHTO   C44 4938   6.763  -2.017   5.501 -0.0486  0.0401  0.2421
   12CHTO   H86 4939   6.769  -1.997   5.394 -1.4146  0.4361  0.2336
   12CHTO   O32 4940   6.750  -2.155   5.522 -0.2206 -0.1732 -0.1477
   12CHTO   H69 4941   6.792  -2.208   5.457 -3.3449 -0.6361 -1.8546
   12CHTO   C48 4942   6.637  -1.930   5.558 -0.3148  0.5938 -0.1925
   12CHTO   H90 4943   6.626  -1.967   5.660  0.6465  1.7503  0.3324
   12CHTO    N9 4944   6.510  -1.960   5.486  0.0857  0.1856 -0.4045
   12CHTO   H77 4945   6.438  -2.010   5.549  1.5996 -2.3520 -0.6299
   12CHTO   H78 4946   6.525  -2.000   5.387 -1.6098  0.9247 -0.9788
   12CHTO   C51 4947   6.665  -1.774   5.561  0.1757 -0.0615  0.4435
   12CHTO   H93 4948   6.667  -1.736   5.459 -0.9399  0.9813  0.7986
   12CHTO   O30 4949   6.788  -1.748   5.634  0.1845 -0.5436 -0.1269
   12CHTO   C46 4950   6.907  -1.810   5.563  0.2218 -0.3556 -0.0215
   12CHTO   H88 4951   6.899  -1.781   5.458 -1.6622 -0.1322  0.1669
   12CHTO   C53 4952   7.032  -1.749   5.633 -0.1628  0.0554 -0.6601
   12CHTO   O72 4953   7.039  -1.766   5.781 -0.3642 -0.2388 -0.3933
   12CHTO  H199 4954   7.046  -1.857   5.803 -0.5430 -0.3739 -0.8787
   12CHTO   O22 4955   6.556  -1.707   5.625  0.4204 -0.1767 -0.0854
   12CHTO   C31 4956   6.542  -1.558   5.638 -0.3487 -0.2914 -0.1368
   12CHTO   H59 4957   6.438  -1.530   5.611 -0.6207 -0.7181  0.4622
   12CHTO   C29 4958   6.564  -1.507   5.785  0.4973 -0.6725 -0.1665
   12CHTO   H57 4959   6.669  -1.527   5.808 -0.2173 -3.2805  0.9977
   12CHTO   O21 4960   6.489  -1.586   5.874 -0.1076  0.2810  0.3405
   12CHTO   H37 4961   6.400  -1.607   5.852 -0.1498 -1.4015  2.0851
   12CHTO   C27 4962   6.529  -1.355   5.807  0.8039 -0.3041  0.4116
   12CHTO   H55 4963   6.421  -1.347   5.826  0.6723 -0.9155 -0.0931
   12CHTO    N5 4964   6.605  -1.296   5.917 -0.0930 -0.5204  0.1687
   12CHTO   H43 4965   6.584  -1.342   6.012  1.3566  1.2054  1.3606
   12CHTO   H44 4966   6.568  -1.200   5.946  1.6912  0.0104  0.7964
   12CHTO   C25 4967   6.532  -1.273   5.673 -0.1432  0.5308  0.4020
   12CHTO   H53 4968   6.548  -1.167   5.696  2.1019  0.3234 -0.1218
   12CHTO   O17 4969   6.632  -1.328   5.581 -0.0134  0.5114 -0.1301
   12CHTO   C32 4970   6.634  -1.471   5.546  0.6159 -0.6953  1.1186
   12CHTO   H60 4971   6.733  -1.516   5.549  0.5829 -0.9856 -1.0765
   12CHTO   C36 4972   6.594  -1.491   5.392 -0.2421  0.1749 -0.1061
   12CHTO   O25 4973   6.459  -1.452   5.355 -0.3582 -0.6485  0.2570
   12CHTO   H40 4974   6.452  -1.361   5.373 -0.4888 -0.2363 -1.7300
   12CHTO   O15 4975   6.384  -1.278   5.597 -0.0364  0.1458  0.0199
   12CHTO   C19 4976   6.269  -1.202   5.543  0.3410  0.3411  0.8124
   12CHTO   H47 4977   6.236  -1.132   5.621 -1.8081 -0.2525  0.4522
   12CHTO   C20 4978   6.302  -1.111   5.422  0.2545  0.2429  0.6532
   12CHTO   H48 4979   6.336  -1.168   5.333  1.8415  0.3327  1.1871
   12CHTO   O19 4980   6.405  -1.027   5.476  0.4156  0.1807  0.4370
   12CHTO   H35 4981   6.461  -0.995   5.408  1.8361  2.2884  2.5169
   12CHTO   C21 4982   6.173  -1.026   5.385 -0.5445 -0.5981  0.1669
   12CHTO   H49 4983   6.138  -0.967   5.469 -0.4199  0.9638 -0.8531
   12CHTO    N4 4984   6.207  -0.926   5.280 -0.0695  0.4309 -0.2585
   12CHTO   H41 4985   6.123  -0.860   5.261 -0.1998  0.0212 -1.1273
   12CHTO   H42 4986   6.242  -0.968   5.187  1.9489 -2.1689  1.6146
   12CHTO   C22 4987   6.069  -1.133   5.345  1.5202 -0.0363 -0.3069
   12CHTO   H50 4988   6.115  -1.186   5.262  0.7083 -1.2753  0.0123
   12CHTO   O14 4989   6.046  -1.221   5.460  0.4580 -0.0688  0.5711
   12CHTO   C23 4990   6.153  -1.299   5.502 -0.1769 -0.3774 -0.0493
   12CHTO   H51 4991   6.177  -1.362   5.415  0.1225 -0.7082  0.2686
   12CHTO   C34 4992   6.104  -1.389   5.622  0.5405  0.5117 -0.7667
   12CHTO   O23 4993   6.169  -1.515   5.618 -0.3480 -0.1102  0.1991
   12CHTO   H38 4994   6.118  -1.583   5.659  1.0133 -0.4976  1.2538
   12CHTO   O16 4995   5.942  -1.070   5.305 -0.2399 -0.3507 -0.3156
   12CHTO   C24 4996   5.849  -1.158   5.208 -0.3280  0.5285 -0.2611
   12CHTO   H52 4997   5.878  -1.263   5.205 -1.7008 -0.0258  3.4632
   12CHTO   C26 4998   5.863  -1.110   5.066  0.1725 -0.4246 -0.2472
   12CHTO   H54 4999   5.839  -1.001   5.064  3.2091  0.2931  0.3896
   12CHTO   O20 5000   6.003  -1.126   5.027  0.3714  0.1789 -0.5653
   12CHTO   H36 5001   6.052  -1.182   5.084 -1.1134 -1.8403 -1.2437
   12CHTO   C30 5002   5.765  -1.177   4.969 -0.2518 -0.1500  0.0547
   12CHTO   H58 5003   5.789  -1.284   4.961  0.0258 -0.1752  1.0927
   12CHTO    N6 5004   5.776  -1.115   4.836  0.1001 -0.3609 -0.5393
   12CHTO   H45 5005   5.881  -1.092   4.822  0.1026 -0.2942 -0.4100
   12CHTO   H46 5006   5.718  -1.024   4.832  1.3590  0.5095  0.4109
   12CHTO   C33 5007   5.620  -1.184   5.025  0.5540  0.0887 -0.2146
   12CHTO   H61 5008   5.587  -1.080   5.023 -1.3875 -0.5386 -2.3393
   12CHTO   O18 5009   5.617  -1.236   5.161 -0.0995  0.0753  0.1553
   12CHTO   C28 5010   5.702  -1.153   5.249  0.1115 -0.4951  0.0787
   12CHTO   H56 5011   5.674  -1.047   5.252  0.1024 -0.5274  2.4412
   12CHTO   C35 5012   5.683  -1.198   5.394 -0.5150  0.7291  0.7071
   12CHTO   O24 5013   5.550  -1.235   5.434 -0.4245 -0.0165 -0.7638
   12CHTO   H39 5014   5.549  -1.273   5.519  1.2672  0.4397 -0.5206
   12CHTO    O9 5015   5.532  -1.250   4.938 -0.3557 -0.9079 -0.6474
   12CHTO   C13 5016   5.550  -1.406   4.938  0.0105  0.6062  0.3020
   12CHTO   H26 5017   5.628  -1.434   5.012 -0.3096 -1.8163 -0.2516
   12CHTO   C11 5018   5.587  -1.456   4.790 -0.0535 -0.2606  0.8313
   12CHTO   H24 5019   5.685  -1.416   4.760  0.7936 -3.6706 -1.1114
   12CHTO    O8 5020   5.484  -1.415   4.697 -0.2544  0.3226 -0.0435
   12CHTO    H3 5021   5.505  -1.326   4.678  0.6795  0.0859 -0.1335
   12CHTO    C9 5022   5.578  -1.613   4.790  0.0258  0.4462 -0.4435
   12CHTO   H22 5023   5.652  -1.648   4.864 -1.0230 -0.1933  0.3281
   12CHTO    N2 5024   5.638  -1.677   4.672 -0.2952 -0.0184  0.3761
   12CHTO   H10 5025   5.636  -1.610   4.587  0.7457 -1.3491 -0.7028
   12CHTO   H11 5026   5.734  -1.717   4.699 -0.5657 -0.8599  0.0788
   12CHTO    C7 5027   5.439  -1.671   4.833 -0.5586 -0.3402 -0.6319
   12CHTO   H20 5028   5.470  -1.754   4.901  2.7346  0.8078 -0.6647
   12CHTO    O4 5029   5.361  -1.569   4.900  0.4944  0.1394 -0.0130
   12CHTO   C14 5030   5.423  -1.482   4.997  0.1125 -0.0556 -0.0547
   12CHTO   H27 5031   5.450  -1.557   5.074 -3.9008 -1.1180  0.4627
   12CHTO   C18 5032   5.308  -1.400   5.050  0.3551  0.1905 -0.0353
   12CHTO   O13 5033   5.344  -1.317   5.156 -0.3609 -0.3847 -0.2122
   12CHTO    H7 5034   5.275  -1.287   5.212  0.6163 -0.8827  1.2926
   12CHTO    O2 5035   5.346  -1.741   4.698  0.5466  0.6110  0.1269
   12CHTO    C1 5036   5.313  -1.878   4.710 -0.2606 -0.4327  0.0930
   12CHTO   H14 5037   5.272  -1.893   4.813 -0.5941  0.8723  0.1560
   12CHTO    C2 5038   5.420  -1.983   4.682  0.1592 -0.6070 -0.3096
   12CHTO   H15 5039   5.473  -1.947   4.593 -1.8204  3.0921 -0.0683
   12CHTO    O6 5040   5.504  -1.989   4.796  0.1394  0.2343  0.3319
   12CHTO    H1 5041   5.539  -1.906   4.823  0.5535 -0.1957  1.1398
   12CHTO    C3 5042   5.363  -2.130   4.653  0.8378 -0.7346 -0.0666
   12CHTO   H16 5043   5.327  -2.167   4.750 -2.0271  0.1794 -0.7335
   12CHTO    N1 5044   5.473  -2.212   4.599 -0.2651  0.0040 -0.2559
   12CHTO    H8 5045   5.516  -2.276   4.674 -2.0141  0.3123  1.0480
   12CHTO    H9 5046   5.441  -2.267   4.512 -2.1972  2.2075 -0.9994
   12CHTO    C4 5047   5.231  -2.120   4.569  0.5490  0.1448 -0.1480
   12CHTO   H17 5048   5.256  -2.089   4.467 -0.2581  1.5093  0.0547
   12CHTO    O1 5049   5.137  -2.037   4.630 -0.0656 -0.2522 -0.0225
   12CHTO    C5 5050   5.186  -1.898   4.626  0.2345  0.1954  0.3944
   12CHTO   H18 5051   5.216  -1.881   4.523 -0.1311  1.0246  0.4187
   12CHTO   C16 5052   5.071  -1.793   4.666  0.3537  0.3302  0.2864
   12CHTO   O11 5053   4.965  -1.819   4.578 -0.5784  0.1678  0.0713
   12CHTO    H5 5054   4.933  -1.906   4.589 -2.1924  0.5080 -1.7778
   12CHTO    O3 5055   5.159  -2.246   4.579  0.3333  0.4574  0.2549
   12CHTO    C6 5056   5.071  -2.271   4.466 -0.0101  0.0059 -0.2485
   12CHTO   H19 5057   5.066  -2.192   4.391  2.8509 -1.3485 -1.9626
   12CHTO    C8 5058   5.130  -2.384   4.383  0.2620 -0.7116 -0.7489
   12CHTO   H21 5059   5.153  -2.464   4.454 -0.3774 -0.5321 -0.3294
   12CHTO    O7 5060   5.250  -2.335   4.321 -0.1346  0.3841 -0.0720
   12CHTO    H2 5061   5.304  -2.408   4.297 -0.0735  0.4483 -0.1308
   12CHTO   C12 5062   5.027  -2.435   4.275  0.4794  0.2771 -0.0142
   12CHTO   H25 5063   5.010  -2.363   4.193  2.5909 -1.3427 -1.9316
   12CHTO    N3 5064   5.080  -2.557   4.207  0.8881 -0.2571 -0.4251
   12CHTO   H12 5065   5.136  -2.526   4.120  2.6990 -0.4636  0.6329
   12CHTO   H13 5066   4.998  -2.621   4.179  1.8904 -1.4906 -0.5668
   12CHTO   C15 5067   4.887  -2.466   4.344  0.5860  0.1641 -0.0261
   12CHTO   H28 5068   4.899  -2.538   4.425 -0.5329  2.6750  2.4247
   12CHTO   O10 5069   4.785  -2.511   4.234 -0.3419  0.1183  0.1043
   12CHTO    H4 5070   4.714  -2.559   4.269 -1.5620  1.2745 -0.7075
   12CHTO    O5 5071   4.838  -2.346   4.408  0.3825 -0.2030 -0.5228
   12CHTO   C10 5072   4.930  -2.310   4.517 -0.0909  0.4452 -0.3935
   12CHTO   H23 5073   4.936  -2.395   4.584  0.5249  0.6977 -0.1252
   12CHTO   C17 5074   4.877  -2.195   4.590  0.0394  0.0803 -0.0678
   12CHTO   O12 5075   4.762  -2.221   4.664  0.3016  0.1311  0.0482
   12CHTO    H6 5076   4.708  -2.144   4.668  0.4369  0.2291 -0.0352
   13CHTO  H203 5077   7.537   4.494   2.143  1.9870 -2.8190  1.4269
   13CHTO   O82 5078   7.598   4.501   2.071 -0.1200 -0.5866 -0.2466
   13CHTO  C123 5079   7.606   4.646   2.035  0.1847 -0.6615 -0.5535
   13CHTO  H227 5080   7.670   4.659   1.947  3.2759 -2.2489  1.3909
   13CHTO   O77 5081   7.472   4.668   2.001  0.4178  0.5469 -1.0915
   13CHTO  C118 5082   7.439   4.804   1.954  0.6276  0.2843 -0.3539
   13CHTO  H222 5083   7.518   4.839   1.886 -0.5468  0.0024 -1.8823
   13CHTO  C125 5084   7.304   4.805   1.881  0.4054  0.0012 -0.8032
   13CHTO   O84 5085   7.303   4.720   1.767  0.0905 -0.6658 -0.3959
   13CHTO  H205 5086   7.312   4.631   1.796  0.4693 -0.3808  0.3831
   13CHTO  C114 5087   7.441   4.892   2.075 -0.0209 -0.1726 -0.8943
   13CHTO  H218 5088   7.373   4.853   2.151  0.4160  1.6577  0.4806
   13CHTO  C116 5089   7.591   4.898   2.137  0.5973 -0.3312  0.2145
   13CHTO  H220 5090   7.653   4.950   2.060 -0.9675  1.6205  0.2470
   13CHTO   O79 5091   7.593   4.971   2.257  0.0751  0.1152  0.6881
   13CHTO  H201 5092   7.554   5.052   2.229 -1.0215 -1.2581 -1.9814
   13CHTO  C120 5093   7.639   4.748   2.156  0.5875 -0.0128 -0.0329
   13CHTO  H224 5094   7.584   4.729   2.250 -1.7178  0.4283 -1.2463
   13CHTO   N21 5095   7.787   4.743   2.189  0.1150 -0.4220 -0.7631
   13CHTO  H211 5096   7.831   4.651   2.155 -0.5950 -1.5208  1.1964
   13CHTO  H212 5097   7.838   4.829   2.148  0.6299 -0.2876  0.1453
   13CHTO   O75 5098   7.401   5.019   2.033 -0.2578 -0.8557 -0.0747
   13CHTO  C112 5099   7.312   5.100   2.140 -0.6132  0.5099  0.2797
   13CHTO  H216 5100   7.359   5.094   2.240  0.9269  1.2800 -0.3803
   13CHTO   O73 5101   7.189   5.032   2.140 -0.0223  0.6893  0.6736
   13CHTO  C113 5102   7.094   5.078   2.240  0.0562 -0.1940 -0.2012
   13CHTO  H217 5103   7.143   5.074   2.339 -0.0980  1.0055 -0.0727
   13CHTO  C124 5104   6.966   4.989   2.252 -0.6367  1.0205 -0.0646
   13CHTO   O83 5105   6.978   4.853   2.288  0.7054  0.1854  0.7311
   13CHTO  H204 5106   6.983   4.794   2.216  2.3320  1.5851 -0.3371
   13CHTO  C109 5107   7.054   5.225   2.222 -0.5565  0.2058 -0.1213
   13CHTO  H213 5108   7.004   5.234   2.124  0.6879  1.6806 -0.6459
   13CHTO  C110 5109   7.188   5.308   2.211 -0.1614  0.8186  0.4306
   13CHTO  H214 5110   7.235   5.314   2.309  0.9102  0.3777 -0.0539
   13CHTO   O78 5111   7.153   5.444   2.181 -0.1383 -0.6119  0.4414
   13CHTO  H200 5112   7.103   5.447   2.102 -1.4245  0.9442  1.2956
   13CHTO  C111 5113   7.277   5.244   2.101 -0.1101 -0.1859 -0.5834
   13CHTO  H215 5114   7.217   5.240   2.009 -0.1100 -1.2517 -0.5426
   13CHTO   N19 5115   7.403   5.321   2.069 -0.1199  0.7640 -0.2417
   13CHTO  H207 5116   7.481   5.268   2.016 -0.3408 -2.0236  2.1282
   13CHTO  H208 5117   7.378   5.402   2.002 -0.0553  0.7100 -0.3316
   13CHTO   O74 5118   6.956   5.273   2.325  0.1485  0.4912 -0.0081
   13CHTO  C115 5119   6.814   5.339   2.270 -0.1946  0.6214  0.3537
   13CHTO  H219 5120   6.821   5.377   2.168  1.0874  0.4383  0.3723
   13CHTO   O76 5121   6.693   5.225   2.271 -0.6211 -0.2732  0.5431
   13CHTO  C122 5122   6.637   5.207   2.401  0.2724 -0.3609 -0.6442
   13CHTO  H226 5123   6.721   5.181   2.465 -0.2650 -1.8168 -0.5003
   13CHTO  C126 5124   6.541   5.080   2.399  0.1264 -0.4534  0.1428
   13CHTO   O85 5125   6.630   4.961   2.381 -0.3364  0.2795 -0.4581
   13CHTO  H206 5126   6.650   4.920   2.463  2.6101 -4.1875 -3.1383
   13CHTO  C121 5127   6.562   5.335   2.460 -0.0606  0.1491  0.2111
   13CHTO  H225 5128   6.451   5.329   2.448  0.0362 -0.7145 -0.2913
   13CHTO   O81 5129   6.565   5.329   2.603 -0.6497 -0.3102  0.0288
   13CHTO  H202 5130   6.533   5.398   2.659  1.0452 -0.2395  0.9437
   13CHTO  C119 5131   6.619   5.464   2.390  0.2269 -0.5828  0.4141
   13CHTO  H223 5132   6.585   5.458   2.286 -1.0925 -0.3995  0.8281
   13CHTO  C117 5133   6.776   5.455   2.376 -0.4157  0.1183  0.1740
   13CHTO  H221 5134   6.823   5.424   2.470  0.7856 -0.9406 -0.7469
   13CHTO   N20 5135   6.834   5.589   2.345 -0.2341 -0.8571 -0.0636
   13CHTO  H209 5136   6.808   5.678   2.400  2.5509  0.9320 -1.5240
   13CHTO  H210 5137   6.934   5.591   2.304  0.1593  1.1229  0.9724
   13CHTO   O80 5138   6.554   5.594   2.441  0.2572 -0.0963  0.4921
   13CHTO  C103 5139   6.390   5.620   2.402 -0.0108  0.4689  0.3405
   13CHTO  H190 5140   6.380   5.729   2.398 -0.4518  0.3709 -2.3452
   13CHTO  C101 5141   6.333   5.558   2.268 -0.1418  0.3838 -0.8482
   13CHTO  H188 5142   6.343   5.450   2.266 -1.2250  0.2804 -1.1873
   13CHTO   O68 5143   6.414   5.620   2.162 -0.5252  0.2678 -0.7977
   13CHTO  H168 5144   6.495   5.575   2.172 -2.5616 -3.5132 -0.4474
   13CHTO   C99 5145   6.176   5.578   2.253  1.1956 -0.0014  0.3318
   13CHTO  H186 5146   6.152   5.686   2.246 -2.5327 -0.8450 -1.0182
   13CHTO   N17 5147   6.112   5.529   2.125  0.3752  0.1145 -0.1372
   13CHTO  H174 5148   6.115   5.423   2.105 -2.3286  0.3258 -1.8894
   13CHTO  H175 5149   6.146   5.579   2.035 -0.1527 -0.3458 -0.5940
   13CHTO   C97 5150   6.093   5.534   2.381 -0.7622 -0.5180 -0.2934
   13CHTO  H184 5151   6.084   5.425   2.398  1.0132 -0.2317  2.7029
   13CHTO   O64 5152   6.161   5.601   2.488 -0.0990 -0.3151  0.2651
   13CHTO  C104 5153   6.302   5.571   2.519  0.7385  0.6239  1.0606
   13CHTO  H191 5154   6.314   5.463   2.531  2.9488  0.7986  0.6464
   13CHTO  C108 5155   6.344   5.622   2.660  0.7559 -0.2047  0.6466
   13CHTO   O71 5156   6.484   5.607   2.702  0.1436  0.8192 -0.6979
   13CHTO  H171 5157   6.544   5.595   2.630  0.1422  0.7691 -0.6895
   13CHTO   O62 5158   5.956   5.592   2.393  0.2300  0.2520 -0.7378
   13CHTO   C91 5159   5.841   5.509   2.434 -0.8412  0.6309 -0.1428
   13CHTO  H178 5160   5.867   5.405   2.447 -4.0958 -0.3441 -0.8276
   13CHTO   C92 5161   5.740   5.511   2.312  0.0145 -0.4065 -0.3895
   13CHTO  H179 5162   5.722   5.611   2.269 -0.7668 -1.3351 -2.3042
   13CHTO   O66 5163   5.799   5.453   2.198  0.0062 -0.3785  0.1570
   13CHTO  H166 5164   5.783   5.362   2.186 -0.6642 -0.1323 -0.9500
   13CHTO   C93 5165   5.600   5.442   2.351  0.4444  0.7126  0.0795
   13CHTO  H180 5166   5.619   5.336   2.332 -0.3862  0.8415 -1.6206
   13CHTO   N16 5167   5.491   5.486   2.265  0.0764  0.0281  0.3712
   13CHTO  H172 5168   5.514   5.459   2.163  1.4909 -0.6667  0.8506
   13CHTO  H173 5169   5.397   5.448   2.303 -1.5695 -1.2292 -4.5971
   13CHTO   C94 5170   5.551   5.456   2.500  0.7412 -0.0175 -1.0036
   13CHTO  H181 5171   5.499   5.550   2.515 -1.0992 -0.8576 -2.0010
   13CHTO   O61 5172   5.663   5.469   2.588  0.2798  0.6547 -0.1557
   13CHTO   C95 5173   5.760   5.562   2.554 -0.4435  0.0882 -0.5547
   13CHTO  H182 5174   5.713   5.657   2.528 -0.4577 -0.3719 -2.2660
   13CHTO  C106 5175   5.847   5.584   2.679  0.4282 -0.0406  0.3643
   13CHTO   O69 5176   5.767   5.630   2.787 -0.2986 -0.2743 -0.5253
   13CHTO  H169 5177   5.818   5.641   2.865  0.1889  0.8239 -0.9919
   13CHTO   O63 5178   5.473   5.332   2.557 -0.6778  0.2011  0.3235
   13CHTO   C96 5179   5.341   5.381   2.627 -0.6486  0.4017  0.6226
   13CHTO  H183 5180   5.296   5.463   2.571  2.2930  0.0587 -2.3801
   13CHTO   C98 5181   5.369   5.427   2.779  0.2324  0.4922  0.1911
   13CHTO  H185 5182   5.450   5.500   2.791 -0.9481  1.6196  1.4492
   13CHTO   O67 5183   5.257   5.495   2.838 -0.1192 -0.1205  0.0282
   13CHTO  H167 5184   5.179   5.450   2.812  1.7533 -2.4719 -1.5986
   13CHTO  C102 5185   5.405   5.292   2.871  0.6066  0.0768 -0.2243
   13CHTO  H189 5186   5.404   5.324   2.976  0.6156  0.0303 -0.2097
   13CHTO   N18 5187   5.538   5.243   2.853  0.5355  0.2886  0.4269
   13CHTO  H176 5188   5.550   5.139   2.876 -2.0326 -0.2889 -0.7048
   13CHTO  H177 5189   5.551   5.252   2.746  0.5984 -0.1801  0.3979
   13CHTO  C105 5190   5.292   5.185   2.850  0.1421  0.3873 -0.4155
   13CHTO  H192 5191   5.340   5.096   2.809 -1.1234 -0.0189 -1.0384
   13CHTO   O65 5192   5.189   5.215   2.750  0.2708 -0.1616 -0.9049
   13CHTO  C100 5193   5.236   5.258   2.624 -0.1351 -0.0479 -0.6091
   13CHTO  H187 5194   5.289   5.172   2.583 -2.0182 -0.9455 -1.2482
   13CHTO  C107 5195   5.098   5.289   2.545  0.2819  0.6621 -0.6136
   13CHTO   O70 5196   5.129   5.327   2.411  0.0619 -0.3797  0.2998
   13CHTO  H170 5197   5.048   5.334   2.363 -0.1152 -1.0934  0.4768
   13CHTO   O57 5198   5.237   5.163   3.018  0.2639  0.5092  0.1912
   13CHTO   C85 5199   5.134   5.066   3.046 -0.0972  0.0064  0.1321
   13CHTO  H157 5200   5.156   4.978   2.982 -1.1761  0.1006 -0.3902
   13CHTO   C83 5201   4.989   5.134   3.015 -0.0675  0.5182 -0.0369
   13CHTO  H155 5202   4.987   5.166   2.911  1.3504  0.5368 -0.0633
   13CHTO   O56 5203   4.973   5.259   3.083  0.5041 -0.2130 -0.2313
   13CHTO  H135 5204   4.908   5.313   3.042  2.6190  1.0886 -1.9434
   13CHTO   C81 5205   4.879   5.020   3.047  0.0181 -0.9843 -0.8146
   13CHTO  H153 5206   4.909   4.927   3.000 -2.2614 -1.7629 -0.8152
   13CHTO   N14 5207   4.751   5.070   2.990  0.2753 -0.0714 -0.1869
   13CHTO  H141 5208   4.683   4.988   2.983  0.1613 -0.0240  0.3507
   13CHTO  H142 5209   4.753   5.130   2.901  0.0525  3.0082  1.8186
   13CHTO   C79 5210   4.884   4.995   3.203  0.7206 -0.1745  0.0638
   13CHTO  H151 5211   4.806   4.922   3.225 -1.0699  0.4549 -3.8161
   13CHTO   O52 5212   5.009   4.941   3.233 -0.1333  0.3796  0.2341
   13CHTO   C86 5213   5.121   5.026   3.203 -0.0703 -0.5482 -0.3250
   13CHTO  H158 5214   5.113   5.121   3.260 -0.3798 -1.4501  1.1878
   13CHTO   C90 5215   5.253   4.963   3.257  0.6723  1.0461  0.8028
   13CHTO   O60 5216   5.262   4.942   3.397  0.0861  0.5019 -0.6528
   13CHTO  H138 5217   5.235   5.021   3.439  1.3052  0.0062  1.0860
   13CHTO   O50 5218   4.857   5.110   3.279  0.5496  0.4556  0.2338
   13CHTO   C73 5219   4.772   5.186   3.357 -0.0910  0.3040 -0.1320
   13CHTO  H145 5220   4.668   5.161   3.330 -0.3433 -1.0544  1.9438
   13CHTO   C74 5221   4.799   5.335   3.327 -0.4546 -0.2055  0.5643
   13CHTO  H146 5222   4.789   5.339   3.218 -0.5545  1.1275  0.6194
   13CHTO   O54 5223   4.688   5.408   3.383  0.1218  0.8006 -0.3642
   13CHTO  H133 5224   4.695   5.497   3.353  1.2081  1.0175  0.4973
   13CHTO   C75 5225   4.945   5.382   3.374 -0.5235 -0.2289 -0.0701
   13CHTO  H147 5226   5.021   5.314   3.331 -1.6446 -1.7875  0.3468
   13CHTO   N13 5227   4.984   5.525   3.345 -0.3901  0.7151  0.0707
   13CHTO  H139 5228   4.910   5.599   3.373 -0.2273  0.2899  1.6653
   13CHTO  H140 5229   5.068   5.540   3.411 -0.2233  2.5868 -0.5544
   13CHTO   C76 5230   4.960   5.348   3.530 -0.5236 -0.3053  0.2673
   13CHTO  H148 5231   4.898   5.415   3.590  0.2044 -0.2189  0.9335
   13CHTO   O49 5232   4.923   5.215   3.556 -0.1109 -0.0691 -0.0889
   13CHTO   C77 5233   4.796   5.167   3.513  0.3213  0.2979 -0.3293
   13CHTO  H149 5234   4.716   5.212   3.572  2.6473  3.5726  0.5004
   13CHTO   C88 5235   4.805   5.017   3.551  0.3705  0.3537  0.1779
   13CHTO   O58 5236   4.672   4.944   3.542 -0.5790  0.2015 -0.6786
   13CHTO  H136 5237   4.615   4.996   3.595 -1.2201  0.2901 -1.4435
   13CHTO   O51 5238   5.119   5.371   3.573  0.9661  0.5907  0.1012
   13CHTO   C78 5239   5.150   5.392   3.717 -0.6582  0.1486 -0.8405
   13CHTO  H150 5240   5.068   5.350   3.779 -0.8777  0.4112 -0.9535
   13CHTO   C80 5241   5.161   5.545   3.746 -0.2572 -0.5269  0.3058
   13CHTO  H152 5242   5.232   5.587   3.671 -1.5291 -0.2195 -0.7305
   13CHTO   O55 5243   5.027   5.602   3.727 -0.2322 -0.0321 -0.2660
   13CHTO  H134 5244   4.990   5.617   3.812  0.1728  0.1523 -0.1216
   13CHTO   C84 5245   5.226   5.570   3.887  0.7976  0.2704  0.0842
   13CHTO  H156 5246   5.151   5.537   3.958  0.3068  1.5067  0.1590
   13CHTO   N15 5247   5.240   5.712   3.924  0.4072 -0.1920 -0.5474
   13CHTO  H143 5248   5.249   5.791   3.852  1.3904  0.5312  0.3564
   13CHTO  H144 5249   5.164   5.744   3.992  3.2068  3.2544  1.0781
   13CHTO   C87 5250   5.356   5.487   3.903  0.0690  0.4217  0.1440
   13CHTO  H159 5251   5.424   5.521   3.825 -0.6559  1.0948 -0.2080
   13CHTO   O53 5252   5.313   5.332   3.886 -0.5285  0.1239  0.1455
   13CHTO   C82 5253   5.282   5.317   3.750  0.3922 -0.4752 -0.2251
   13CHTO  H154 5254   5.366   5.357   3.693 -0.9949  2.9278 -0.0240
   13CHTO   C89 5255   5.273   5.167   3.722 -0.3270  0.4747 -0.2401
   13CHTO   O59 5256   5.143   5.113   3.765  0.2319 -0.4991  0.3288
   13CHTO  H137 5257   5.104   5.062   3.696 -1.9142  2.1229 -0.4681
   13CHTO   O45 5258   5.418   5.487   4.057 -0.3151  0.3450  0.1686
   13CHTO   C67 5259   5.561   5.495   4.067 -1.2215  0.5841  0.1524
   13CHTO  H124 5260   5.603   5.435   3.986  0.9946  3.6849 -1.1046
   13CHTO   C65 5261   5.611   5.644   4.047  0.2718  0.5023 -0.5441
   13CHTO  H122 5262   5.540   5.718   4.083  0.7498 -0.5592  2.8112
   13CHTO   O44 5263   5.622   5.655   3.904 -0.4431 -0.4819  0.2858
   13CHTO  H102 5264   5.569   5.726   3.872  1.1982  0.1122 -1.2223
   13CHTO   C63 5265   5.743   5.675   4.136  0.5954  0.3921 -0.6870
   13CHTO  H120 5266   5.711   5.705   4.236 -0.1609  1.3400 -1.2027
   13CHTO   N11 5267   5.825   5.791   4.094 -0.3023 -0.2428  0.3237
   13CHTO  H108 5268   5.841   5.793   3.988  0.5130  0.5321  0.4552
   13CHTO  H109 5269   5.779   5.886   4.107 -0.8130 -0.4891  0.3085
   13CHTO   C61 5270   5.830   5.542   4.145 -0.9390  0.2824  0.2464
   13CHTO  H118 5271   5.921   5.562   4.205 -1.8561  2.6370  0.9221
   13CHTO   O40 5272   5.759   5.441   4.217 -0.0124 -0.0835 -0.2036
   13CHTO   C68 5273   5.616   5.433   4.209 -0.4600  0.1407  0.0061
   13CHTO  H125 5274   5.570   5.485   4.296  0.8627 -1.6893  1.8408
   13CHTO   C72 5275   5.572   5.288   4.219 -0.1018 -0.4993 -0.4556
   13CHTO   O48 5276   5.433   5.261   4.231 -0.0217 -0.6819 -0.5165
   13CHTO  H105 5277   5.397   5.309   4.303 -0.6254 -1.8805 -0.0017
   13CHTO   O38 5278   5.867   5.493   4.013  0.4244  0.2803  0.3957
   13CHTO   C55 5279   5.986   5.424   3.968 -0.5292 -0.0156  0.7471
   13CHTO  H112 5280   5.965   5.381   3.869 -0.1359  0.9342  0.2430
   13CHTO   C56 5281   6.032   5.314   4.068 -1.0789  0.1085  0.2567
   13CHTO  H113 5282   6.052   5.361   4.165 -0.1444  2.8253 -1.1944
   13CHTO   O42 5283   5.934   5.213   4.108 -0.1649 -0.1181 -0.0703
   13CHTO  H100 5284   5.883   5.182   4.036  1.3020 -1.2531 -0.6409
   13CHTO   C57 5285   6.167   5.248   4.020 -0.0918  0.3545  0.0368
   13CHTO  H114 5286   6.142   5.190   3.932  1.7702 -1.5674  0.7170
   13CHTO   N10 5287   6.230   5.144   4.105  0.2292  0.9021 -0.5577
   13CHTO  H106 5288   6.267   5.183   4.198  2.8371 -1.4812 -0.5577
   13CHTO  H107 5289   6.173   5.056   4.132  0.6125  1.0666  0.8345
   13CHTO   C58 5290   6.273   5.356   3.990 -0.9198 -0.3485 -0.0258
   13CHTO  H115 5291   6.308   5.397   4.087 -2.1469  1.5009 -0.3393
   13CHTO   O37 5292   6.222   5.466   3.909  0.0868  0.2921 -0.4321
   13CHTO   C59 5293   6.101   5.532   3.941 -0.2862  0.4469 -0.5519
   13CHTO  H116 5294   6.114   5.600   4.025 -1.7858 -2.1561  1.8848
   13CHTO   C70 5295   6.066   5.627   3.832  0.4173  0.3108  0.6669
   13CHTO   O46 5296   6.042   5.557   3.705  0.2361 -0.6710 -0.1185
   13CHTO  H103 5297   6.006   5.621   3.648  1.1899  1.2082  1.3410
   13CHTO   O39 5298   6.395   5.284   3.906  0.2830 -0.5058  0.5785
   13CHTO   C60 5299   6.525   5.343   3.899  0.1746  0.3044 -0.6128
   13CHTO  H117 5300   6.532   5.424   3.972  1.0997  0.7028 -1.1262
   13CHTO   C62 5301   6.634   5.238   3.930 -0.2681 -0.0538 -0.3798
   13CHTO  H119 5302   6.606   5.195   4.028  1.6120  0.7906  0.5470
   13CHTO   O43 5303   6.633   5.130   3.839 -0.1921 -0.1413  0.0861
   13CHTO  H101 5304   6.597   5.159   3.757  3.2880 -1.3499 -1.9730
   13CHTO   C66 5305   6.772   5.324   3.942 -0.2489 -0.3068 -0.5326
   13CHTO  H123 5306   6.764   5.401   4.018 -0.0559 -1.5095  0.7195
   13CHTO   N12 5307   6.882   5.242   3.996 -0.3561 -0.0824 -0.3612
   13CHTO  H110 5308   6.930   5.187   3.917 -0.8616  0.3918 -1.0105
   13CHTO  H111 5309   6.957   5.313   4.027 -1.6435  0.8114  0.7860
   13CHTO   C69 5310   6.801   5.386   3.797 -0.6054 -0.4987 -0.3308
   13CHTO  H126 5311   6.810   5.299   3.729  2.9790 -0.1658 -0.4065
   13CHTO   O41 5312   6.679   5.473   3.748 -0.8285  0.3741  0.1307
   13CHTO   C64 5313   6.555   5.405   3.760 -0.1621 -0.9699 -0.1555
   13CHTO  H121 5314   6.545   5.319   3.690  0.4075 -0.9305 -0.2890
   13CHTO   C71 5315   6.451   5.515   3.714  0.1815 -0.2195  0.1821
   13CHTO   O47 5316   6.457   5.632   3.799  0.4990  0.6772  0.2332
   13CHTO  H104 5317   6.479   5.701   3.739 -1.3636  0.2953 -0.9373
   13CHTO   O34 5318   6.926   5.476   3.794 -0.1043  0.6319  0.0342
   13CHTO   C49 5319   7.010   5.563   3.695  0.0308 -0.9612 -0.3418
   13CHTO   H91 5320   7.060   5.500   3.622 -1.9460 -3.8071  0.6907
   13CHTO   C47 5321   7.114   5.646   3.776 -0.7168  0.0798 -0.3143
   13CHTO   H89 5322   7.178   5.700   3.703 -0.9678  0.6461 -0.1195
   13CHTO   O33 5323   7.204   5.551   3.842  0.2843 -0.0780  0.2089
   13CHTO   H70 5324   7.169   5.531   3.926 -0.6875  0.0279 -0.1653
   13CHTO   C45 5325   7.037   5.748   3.878 -0.1293  0.3934  0.0281
   13CHTO   H87 5326   7.018   5.686   3.967  2.6899 -2.8684 -1.5296
   13CHTO    N8 5327   7.132   5.852   3.911 -0.5689 -0.0406  0.7556
   13CHTO   H75 5328   7.233   5.829   3.941 -0.6245  1.2191  1.9311
   13CHTO   H76 5329   7.136   5.924   3.831 -1.6207  1.4893  2.0388
   13CHTO   C43 5330   6.892   5.793   3.816  0.3284 -0.8920  0.4621
   13CHTO   H85 5331   6.823   5.715   3.847 -2.3121 -0.2999 -3.6269
   13CHTO   O29 5332   6.899   5.802   3.674 -0.1055 -0.0149  0.3211
   13CHTO   C50 5333   6.919   5.671   3.614  0.5150  0.0690 -0.2956
   13CHTO   H92 5334   6.816   5.635   3.599  0.6758  0.1296 -1.6013
   13CHTO   C54 5335   6.973   5.674   3.467  0.2416 -0.1024 -0.3655
   13CHTO   O36 5336   6.922   5.788   3.395 -0.4894 -0.0862 -0.2482
   13CHTO   H72 5337   6.838   5.771   3.358 -0.6831  2.1528 -0.8597
   13CHTO   O27 5338   6.841   5.923   3.854  0.7044 -0.0056 -0.4330
   13CHTO   C37 5339   6.744   5.968   3.947  0.1795  0.1394  0.2215
   13CHTO   H79 5340   6.665   5.892   3.950  3.6784 -3.7090 -0.1271
   13CHTO   C38 5341   6.809   5.974   4.084  0.4093  0.5038  0.5189
   13CHTO   H80 5342   6.904   6.027   4.074 -0.1727  1.3095 -0.7782
   13CHTO   O31 5343   6.825   5.837   4.130 -0.6580  0.3065 -0.6057
   13CHTO   H68 5344   6.907   5.808   4.095 -0.3470 -0.3106  0.5840
   13CHTO   C39 5345   6.711   6.048   4.178  0.3922  0.3107 -0.1499
   13CHTO   H81 5346   6.631   5.978   4.203 -0.3326  1.1070 -0.2256
   13CHTO    N7 5347   6.784   6.081   4.305 -0.5168  0.7756 -0.1159
   13CHTO   H73 5348   6.844   6.169   4.293 -0.2727  0.4481 -1.3410
   13CHTO   H74 5349   6.824   5.991   4.350 -1.4797 -0.3842 -1.5148
   13CHTO   C40 5350   6.645   6.175   4.120 -0.0429  0.6927  0.3928
   13CHTO   H82 5351   6.724   6.249   4.110 -0.3595  1.2376  1.8528
   13CHTO   O26 5352   6.581   6.143   3.997  0.1897 -0.3791  0.2909
   13CHTO   C41 5353   6.678   6.097   3.902  0.8318 -0.4382  0.3776
   13CHTO   H83 5354   6.756   6.172   3.886 -0.1035  0.1661 -1.5476
   13CHTO   C52 5355   6.592   6.088   3.770  1.3060 -0.3119  0.1884
   13CHTO   O35 5356   6.555   6.226   3.733 -0.3676 -0.1450  0.0268
   13CHTO   H71 5357   6.487   6.215   3.669 -2.5223 -1.5243  2.4447
   13CHTO   O28 5358   6.544   6.232   4.210  0.3319 -0.1283  0.6808
   13CHTO   C42 5359   6.510   6.377   4.191  0.1790 -0.3416 -0.2274
   13CHTO   H84 5360   6.547   6.400   4.091  1.5818  1.9266  0.7672
   13CHTO   C44 5361   6.573   6.485   4.281  0.0351  0.6547 -0.0740
   13CHTO   H86 5362   6.548   6.457   4.383  0.3412 -0.2462 -0.2381
   13CHTO   O32 5363   6.715   6.471   4.257 -0.1394  0.5089 -0.2107
   13CHTO   H69 5364   6.768   6.477   4.334  0.4145 -0.0904 -0.5465
   13CHTO   C48 5365   6.512   6.625   4.249  0.8720  0.1739 -0.1989
   13CHTO   H90 5366   6.529   6.654   4.145 -3.1586  0.0315 -0.9795
   13CHTO    N9 5367   6.574   6.732   4.348  0.2035 -0.4820 -0.1605
   13CHTO   H77 5368   6.646   6.696   4.420  2.1697  2.8501 -0.3518
   13CHTO   H78 5369   6.619   6.809   4.288  0.4347 -0.6004 -0.1401
   13CHTO   C51 5370   6.350   6.616   4.268 -0.4859 -0.6022  0.3917
   13CHTO   H93 5371   6.339   6.579   4.370 -0.2494 -1.0363  0.2619
   13CHTO   O30 5372   6.304   6.528   4.168  0.0363 -0.3128 -0.0063
   13CHTO   C46 5373   6.360   6.384   4.184 -0.1856  0.0327  0.4516
   13CHTO   H88 5374   6.318   6.353   4.280 -0.4656  1.8546  0.9506
   13CHTO   C53 5375   6.297   6.300   4.070 -0.6661  0.0873 -0.7281
   13CHTO   O72 5376   6.154   6.312   4.067  0.0844 -0.2520 -0.0870
   13CHTO  H199 5377   6.123   6.391   4.025 -0.1086 -0.7829 -0.9478
   13CHTO   O22 5378   6.284   6.743   4.242  0.0157 -0.2146  0.3922
   13CHTO   C31 5379   6.165   6.787   4.310 -0.2779  0.0955  1.1055
   13CHTO   H59 5380   6.114   6.697   4.350 -1.4282  0.1528 -0.1695
   13CHTO   C29 5381   6.173   6.886   4.423 -0.1167  0.1530 -0.3984
   13CHTO   H57 5382   6.212   6.973   4.368  0.8105  0.7205  1.1224
   13CHTO   O21 5383   6.270   6.841   4.519 -0.3616 -0.2860 -0.6716
   13CHTO   H37 5384   6.287   6.910   4.579  0.0316 -0.1284 -0.9573
   13CHTO   C27 5385   6.037   6.921   4.489 -0.2481  0.4826  0.7967
   13CHTO   H55 5386   6.002   6.843   4.557  2.4767  0.1516  1.8859
   13CHTO    N5 5387   6.050   7.047   4.570  1.0706 -0.0348 -0.2058
   13CHTO   H43 5388   6.100   7.026   4.663 -1.1534 -3.8893  0.2081
   13CHTO   H44 5389   5.953   7.070   4.612  0.9609 -1.3135  0.2602
   13CHTO   C25 5390   5.933   6.959   4.381 -0.1357 -0.0343  0.3599
   13CHTO   H53 5391   5.962   7.054   4.334  0.2007 -1.3260 -2.1307
   13CHTO   O17 5392   5.944   6.861   4.280  0.8626 -0.2143 -0.6473
   13CHTO   C32 5393   6.065   6.848   4.207  0.5778 -0.7955 -0.3725
   13CHTO   H60 5394   6.103   6.947   4.183  1.5252 -1.2348 -0.7133
   13CHTO   C36 5395   6.039   6.775   4.080  0.5980 -0.6676  0.4680
   13CHTO   O25 5396   5.979   6.649   4.103  0.3998 -0.2036  0.1118
   13CHTO   H40 5397   5.930   6.621   4.028 -0.1672 -1.8982  1.0791
   13CHTO   O15 5398   5.785   6.960   4.437 -0.0246  0.4491  0.1225
   13CHTO   C19 5399   5.671   6.993   4.528  0.0056 -0.2026  0.4960
   13CHTO   H47 5400   5.711   6.971   4.628 -1.7517  1.5560  1.6128
   13CHTO   C20 5401   5.623   7.145   4.511 -0.1320  0.1011 -0.0367
   13CHTO   H48 5402   5.595   7.168   4.407  2.3158  1.2670 -0.4706
   13CHTO   O19 5403   5.739   7.230   4.531 -0.0878 -0.5242 -0.1375
   13CHTO   H35 5404   5.812   7.190   4.573 -1.8362 -2.0921  1.4843
   13CHTO   C21 5405   5.498   7.184   4.604  0.0956  0.0775  0.1272
   13CHTO   H49 5406   5.538   7.199   4.704 -0.8309  3.0169  0.0915
   13CHTO    N4 5407   5.455   7.322   4.567  0.1732  0.1861 -0.1515
   13CHTO   H41 5408   5.430   7.334   4.462 -3.0895  1.0595  0.6889
   13CHTO   H42 5409   5.378   7.362   4.630  0.8815  0.6600  0.4152
   13CHTO   C22 5410   5.393   7.079   4.615 -0.8429  0.6002  0.4838
   13CHTO   H50 5411   5.332   7.089   4.525  2.4818  2.2665 -1.6673
   13CHTO   O14 5412   5.450   6.947   4.622  0.7790 -0.1127 -0.0415
   13CHTO   C23 5413   5.538   6.905   4.518 -0.5972  0.4115  0.3599
   13CHTO   H51 5414   5.481   6.913   4.424 -0.3622 -2.0232 -0.0263
   13CHTO   C34 5415   5.567   6.752   4.520  0.3917  0.0301 -0.4679
   13CHTO   O23 5416   5.618   6.687   4.406 -0.8230 -0.2711  0.6110
   13CHTO   H38 5417   5.646   6.599   4.424  2.0292  0.4841  0.1133
   13CHTO   O16 5418   5.309   7.096   4.732 -0.3708  0.4307  0.4868
   13CHTO   C24 5419   5.151   7.048   4.705  0.2536 -0.1921 -0.5548
   13CHTO   H52 5420   5.138   6.980   4.621 -0.2031 -1.3405  0.4265
   13CHTO   C26 5421   5.072   7.170   4.688 -0.9097  0.2080 -0.1217
   13CHTO   H54 5422   5.087   7.232   4.779 -1.8136 -0.6087  0.6060
   13CHTO   O20 5423   5.124   7.237   4.575  0.1407  0.0816  0.2157
   13CHTO   H36 5424   5.093   7.203   4.494  0.0919 -0.6876  0.5477
   13CHTO   C30 5425   4.919   7.137   4.679  0.4288 -0.4953  0.3256
   13CHTO   H58 5426   4.900   7.081   4.586  0.0356  1.5170 -0.8150
   13CHTO    N6 5427   4.846   7.265   4.679  0.3554 -0.1597 -0.1481
   13CHTO   H45 5428   4.868   7.320   4.588  1.6802 -1.6949 -0.7727
   13CHTO   H46 5429   4.740   7.263   4.698  0.5777 -2.1515  0.9867
   13CHTO   C33 5430   4.877   7.050   4.802  0.0688 -0.1010  0.1319
   13CHTO   H61 5431   4.889   7.107   4.895  0.5468 -0.7110  0.4465
   13CHTO   O18 5432   4.960   6.936   4.816  0.0892  0.4381  0.1221
   13CHTO   C28 5433   5.101   6.973   4.830  0.9573  0.0423  0.0221
   13CHTO   H56 5434   5.125   7.031   4.920  1.5691  0.2020 -0.2429
   13CHTO   C35 5435   5.192   6.843   4.837 -0.3161 -0.5324  0.0608
   13CHTO   O24 5436   5.194   6.770   4.960 -0.1501 -0.0751 -0.2964
   13CHTO   H39 5437   5.183   6.826   5.034 -1.7406 -1.4588  0.5509
   13CHTO    O9 5438   4.737   7.013   4.788 -0.3852  0.1830 -0.0829
   13CHTO   C13 5439   4.667   6.960   4.921  0.1650 -0.0719  0.1540
   13CHTO   H26 5440   4.688   7.037   4.998  0.0721 -0.3612  0.4648
   13CHTO   C11 5441   4.718   6.818   4.969  0.1121  0.2641 -0.7126
   13CHTO   H24 5442   4.819   6.831   5.010  1.3152 -0.7151 -3.2671
   13CHTO    O8 5443   4.734   6.723   4.855  0.1679 -0.4486  0.1032
   13CHTO    H3 5444   4.783   6.765   4.787 -0.1311 -1.4252 -0.7305
   13CHTO    C9 5445   4.623   6.758   5.086  0.1184  0.3009  0.2623
   13CHTO   H22 5446   4.615   6.842   5.156 -0.0845  1.8528 -1.5834
   13CHTO    N2 5447   4.691   6.648   5.164  0.5626  0.4567 -0.4145
   13CHTO   H10 5448   4.798   6.664   5.158  0.8877 -0.6829  1.8655
   13CHTO   H11 5449   4.667   6.664   5.268 -1.1543  0.5873 -0.8214
   13CHTO    C7 5450   4.476   6.737   5.033 -0.5288  0.2278 -0.7242
   13CHTO   H20 5451   4.414   6.754   5.123  0.6749 -1.0773  0.3744
   13CHTO    O4 5452   4.443   6.832   4.927  0.3076  0.5637 -0.5547
   13CHTO   C14 5453   4.508   6.957   4.916  0.4695 -0.1429  0.6309
   13CHTO   H27 5454   4.481   7.017   5.006  2.1782  1.1945  0.2683
   13CHTO   C18 5455   4.445   7.027   4.794 -0.3215 -0.5337  0.5924
   13CHTO   O13 5456   4.310   7.051   4.818 -0.3153 -0.0159 -0.3842
   13CHTO    H7 5457   4.264   6.975   4.849 -1.1325  1.3575  1.8822
   13CHTO    O2 5458   4.440   6.590   4.984 -0.0693 -0.5863 -0.1983
   13CHTO    C1 5459   4.313   6.557   4.918 -0.3785  0.0024 -0.9216
   13CHTO   H14 5460   4.270   6.656   4.896 -1.3804  0.2886  2.0747
   13CHTO    C2 5461   4.215   6.477   5.005 -0.0782 -0.0465  0.0587
   13CHTO   H15 5462   4.279   6.394   5.040  2.3056  2.2594  1.4248
   13CHTO    O6 5463   4.164   6.564   5.111  0.0756  0.5020  1.1480
   13CHTO    H1 5464   4.219   6.561   5.187 -0.3464 -1.0181  1.4177
   13CHTO    C3 5465   4.087   6.426   4.917 -0.5420  0.2606  0.0488
   13CHTO   H16 5466   4.019   6.510   4.898 -0.7684 -0.1196 -0.8412
   13CHTO    N1 5467   4.016   6.321   5.000 -0.0364 -0.0625  0.3436
   13CHTO    H8 5468   3.914   6.352   5.018 -0.9595 -3.7618  1.8534
   13CHTO    H9 5469   4.075   6.300   5.088  0.1128 -1.1833 -0.0215
   13CHTO    C4 5470   4.126   6.367   4.775  0.3902 -0.4623  0.5061
   13CHTO   H17 5471   4.177   6.273   4.795  1.5634 -0.0731 -0.5895
   13CHTO    O1 5472   4.215   6.458   4.705  0.3930 -0.2194 -0.0383
   13CHTO    C5 5473   4.338   6.485   4.784  0.2277  0.1761 -0.9453
   13CHTO   H18 5474   4.389   6.391   4.802 -0.5637  0.3412  2.3937
   13CHTO   C16 5475   4.426   6.577   4.696  0.4166  0.1349  0.2624
   13CHTO   O11 5476   4.462   6.507   4.579  0.2160 -0.2907  0.3232
   13CHTO    H5 5477   4.469   6.569   4.509  2.0767 -0.3696  0.4200
   13CHTO    O3 5478   4.005   6.356   4.695 -0.1343 -0.5485  0.2722
   13CHTO    C6 5479   3.995   6.257   4.599 -0.3591 -0.0595  0.2425
   13CHTO   H19 5480   4.090   6.204   4.591  0.0202  0.7562 -0.6506
   13CHTO    C8 5481   3.883   6.160   4.644  0.6058  0.3988  1.0893
   13CHTO   H21 5482   3.785   6.208   4.650  0.5297  0.7078 -1.8767
   13CHTO    O7 5483   3.927   6.104   4.769  0.0376  0.4977 -0.2745
   13CHTO    H2 5484   3.984   6.031   4.751 -1.4993 -0.4142 -1.5404
   13CHTO   C12 5485   3.862   6.055   4.532 -0.8434  0.0495  0.4064
   13CHTO   H25 5486   3.947   5.983   4.541  0.1430  1.2243  0.5756
   13CHTO    N3 5487   3.750   5.968   4.560 -0.0281  0.5413 -0.1020
   13CHTO   H12 5488   3.768   5.872   4.514 -2.9412 -0.1345  0.0181
   13CHTO   H13 5489   3.658   6.016   4.528 -0.7385  0.1771  1.3525
   13CHTO   C15 5490   3.852   6.116   4.382  0.3241  0.1790 -0.2291
   13CHTO   H28 5491   3.754   6.160   4.359  0.3060 -0.2240 -0.9133
   13CHTO   O10 5492   3.902   6.019   4.274  0.0603  0.2427  0.1669
   13CHTO    H4 5493   3.824   5.978   4.241  0.4569 -1.4582  1.2818
   13CHTO    O5 5494   3.949   6.223   4.361  0.0975 -0.4616  0.2876
   13CHTO   C10 5495   3.961   6.319   4.465 -0.0537  0.0648  0.2104
   13CHTO   H23 5496   3.865   6.368   4.476 -1.0919 -1.3837 -1.9543
   13CHTO   C17 5497   4.064   6.432   4.426 -0.3399  0.2731 -0.3190
   13CHTO   O12 5498   4.013   6.508   4.317  0.0111  0.0280  0.0277
   13CHTO    H6 5499   3.934   6.548   4.347  1.7008  1.5936  2.5754
   14CHTO  H203 5500   5.596   5.405   3.698  0.0650 -3.2720 -0.3708
   14CHTO   O82 5501   5.676   5.396   3.745  0.3757 -0.0724 -0.1621
   14CHTO  C123 5502   5.726   5.264   3.727 -0.3547  0.6124 -0.1225
   14CHTO  H227 5503   5.836   5.265   3.731 -0.3976  0.7720  1.2549
   14CHTO   O77 5504   5.669   5.192   3.838  1.0720  0.1206  0.0360
   14CHTO  C118 5505   5.713   5.061   3.858 -0.2922  0.4603  0.2549
   14CHTO  H222 5506   5.823   5.068   3.848 -0.3126  1.7994  0.8922
   14CHTO  C125 5507   5.678   5.006   4.002  0.5563  0.4688  0.4256
   14CHTO   O84 5508   5.779   4.904   4.035 -0.0401  0.3405 -0.7134
   14CHTO  H205 5509   5.779   4.834   3.972 -0.0239 -0.6803  0.3937
   14CHTO  C114 5510   5.666   4.964   3.742 -0.1433  0.1568 -0.4730
   14CHTO  H218 5511   5.558   4.959   3.748 -0.0618 -2.4633 -0.5873
   14CHTO  C116 5512   5.685   5.029   3.596  0.0282 -0.3771 -0.4415
   14CHTO  H220 5513   5.788   4.997   3.569 -0.6827 -2.6973 -0.5315
   14CHTO   O79 5514   5.591   4.969   3.503 -0.2673  0.4270  0.0727
   14CHTO  H201 5515   5.636   4.898   3.463 -0.7725  0.2269 -0.1399
   14CHTO  C120 5516   5.673   5.190   3.600  0.1053  0.1727  0.7074
   14CHTO  H224 5517   5.563   5.203   3.594  0.4750  2.6174 -3.3672
   14CHTO   N21 5518   5.729   5.238   3.472 -0.4399  0.1956 -0.2799
   14CHTO  H211 5519   5.794   5.171   3.418 -1.0963  0.7185 -1.7645
   14CHTO  H212 5520   5.644   5.265   3.411 -0.5678  1.4487  0.4278
   14CHTO   O75 5521   5.740   4.837   3.760  0.0121 -0.2871  0.2798
   14CHTO  C112 5522   5.684   4.695   3.695 -0.1797  0.0005  0.6641
   14CHTO  H216 5523   5.747   4.607   3.712 -2.5023 -1.0546  4.2550
   14CHTO   O73 5524   5.667   4.721   3.556  0.0196  0.5952  0.0274
   14CHTO  C113 5525   5.609   4.608   3.476  0.0051  0.1410 -0.0363
   14CHTO  H217 5526   5.683   4.526   3.483  1.0909  0.9324 -1.8503
   14CHTO  C124 5527   5.604   4.653   3.326 -0.1354 -0.0744  0.5482
   14CHTO   O83 5528   5.726   4.669   3.256 -0.0159  0.3076  0.1182
   14CHTO  H204 5529   5.778   4.739   3.290  0.3875 -0.1978  0.5388
   14CHTO  C109 5530   5.473   4.574   3.536  0.1073  0.9026 -0.3802
   14CHTO  H213 5531   5.405   4.655   3.507 -1.2149 -0.0726 -0.0223
   14CHTO  C110 5532   5.469   4.556   3.692 -0.0746 -0.0872 -0.3079
   14CHTO  H214 5533   5.507   4.457   3.716  2.1613  1.1250  1.3236
   14CHTO   O78 5534   5.336   4.549   3.740  0.0400  0.1568 -0.1351
   14CHTO  H200 5535   5.321   4.529   3.830 -0.4843  2.6224  0.3398
   14CHTO  C111 5536   5.548   4.667   3.761 -0.2750  0.8649  0.1680
   14CHTO  H215 5537   5.483   4.756   3.755 -0.0689  0.9551 -0.8093
   14CHTO   N19 5538   5.571   4.639   3.905  0.4809 -0.0735  0.2933
   14CHTO  H207 5539   5.675   4.632   3.933  1.0489 -0.0002 -1.7482
   14CHTO  H208 5540   5.518   4.714   3.962 -3.5992 -1.2339 -1.7673
   14CHTO   O74 5541   5.424   4.454   3.475 -0.0895 -0.3563  0.2632
   14CHTO  C115 5542   5.309   4.488   3.347  0.7766  0.4059 -0.2282
   14CHTO  H219 5543   5.306   4.593   3.316 -2.6055  0.8846  1.6087
   14CHTO   O76 5544   5.347   4.408   3.215 -0.3766  0.4231 -0.8087
   14CHTO  C122 5545   5.256   4.427   3.106 -0.0395 -0.3811 -0.2050
   14CHTO  H226 5546   5.284   4.351   3.032  1.4160 -1.6563  1.6114
   14CHTO  C126 5547   5.274   4.570   3.033  0.1552  0.3999  0.1146
   14CHTO   O85 5548   5.193   4.591   2.913  0.3002 -0.5568  0.6509
   14CHTO  H206 5549   5.105   4.569   2.936 -0.5814  1.8662 -0.2316
   14CHTO  C121 5550   5.109   4.402   3.152  0.2144 -0.4369  0.3242
   14CHTO  H225 5551   5.044   4.410   3.063 -2.3933 -0.3796  2.1942
   14CHTO   O81 5552   5.085   4.262   3.184  0.1327 -0.8430 -0.9343
   14CHTO  H202 5553   5.158   4.251   3.243  0.6333  1.4055 -1.0764
   14CHTO  C119 5554   5.066   4.492   3.270 -0.2243 -0.4216  0.4650
   14CHTO  H223 5555   5.080   4.596   3.241  2.5797 -1.5116 -2.3945
   14CHTO  C117 5556   5.161   4.458   3.392 -0.6812  0.0890  0.2849
   14CHTO  H221 5557   5.163   4.355   3.427  0.0000  0.5044  1.4683
   14CHTO   N20 5558   5.129   4.533   3.514  0.0388 -0.1323 -0.1602
   14CHTO  H209 5559   5.115   4.467   3.598  0.5222  0.1949  0.1795
   14CHTO  H210 5560   5.033   4.577   3.494 -0.7747 -1.5592  0.5475
   14CHTO   O80 5561   4.902   4.492   3.305  0.9446  0.2318 -0.4695
   14CHTO  C103 5562   4.810   4.619   3.263  0.7370 -0.1269 -0.8826
   14CHTO  H190 5563   4.854   4.718   3.271  1.5989 -0.4510 -1.4550
   14CHTO  C101 5564   4.752   4.607   3.117  0.3810 -0.5630  0.6100
   14CHTO  H188 5565   4.710   4.506   3.113 -1.4910  0.2478 -1.3658
   14CHTO   O68 5566   4.867   4.620   3.011  0.1111  0.0033 -0.0804
   14CHTO  H168 5567   4.916   4.697   3.033 -1.0013  0.6803  0.0996
   14CHTO   C99 5568   4.633   4.712   3.095  0.6363 -0.0440  0.9740
   14CHTO  H186 5569   4.677   4.812   3.080  0.0645  0.2139  0.9807
   14CHTO   N17 5570   4.551   4.682   2.970 -0.1217 -0.3676 -0.4024
   14CHTO  H174 5571   4.446   4.679   2.995  0.2250 -2.3333  0.9802
   14CHTO  H175 5572   4.572   4.756   2.895 -1.8394 -0.0547 -0.5916
   14CHTO   C97 5573   4.541   4.731   3.217  0.4192  0.1612 -0.6866
   14CHTO  H184 5574   4.466   4.651   3.218 -0.8606  1.3767  0.1820
   14CHTO   O64 5575   4.619   4.729   3.335 -0.1026  0.2147 -0.5863
   14CHTO  C104 5576   4.692   4.611   3.356 -0.2442 -0.4832  0.6718
   14CHTO  H191 5577   4.633   4.524   3.327 -0.2003 -1.1753  2.5904
   14CHTO  C108 5578   4.732   4.598   3.506  0.2264 -0.1562 -0.3740
   14CHTO   O71 5579   4.619   4.610   3.593  0.2244  0.0956 -0.3427
   14CHTO  H171 5580   4.601   4.701   3.599  1.1446  0.3377 -1.0391
   14CHTO   O62 5581   4.473   4.859   3.207  0.0488 -0.5926  0.3471
   14CHTO   C91 5582   4.365   4.885   3.296  0.5028 -0.2275  0.3824
   14CHTO  H178 5583   4.354   4.807   3.371 -1.3092 -3.4406 -3.0568
   14CHTO   C92 5584   4.226   4.864   3.209  0.8633 -0.7016 -0.0705
   14CHTO  H179 5585   4.226   4.761   3.171  2.9083 -0.8614  0.2935
   14CHTO   O66 5586   4.110   4.874   3.302 -0.4053  0.1130  0.7449
   14CHTO  H166 5587   4.092   4.963   3.326  0.2086  0.8090 -1.2761
   14CHTO   C93 5588   4.212   4.974   3.089 -0.0557  0.2094  0.2204
   14CHTO  H180 5589   4.103   4.991   3.081 -0.1510 -0.7361 -0.7072
   14CHTO   N16 5590   4.248   4.917   2.958 -0.1342  0.0648  0.6427
   14CHTO  H172 5591   4.222   4.813   2.965  1.4090 -0.3520  0.3317
   14CHTO  H173 5592   4.347   4.930   2.917 -0.3877 -2.0006 -0.6691
   14CHTO   C94 5593   4.288   5.104   3.128  0.4409  0.1929 -0.5472
   14CHTO  H181 5594   4.395   5.098   3.106  0.2633 -1.3968 -1.0492
   14CHTO   O61 5595   4.279   5.119   3.270  0.2795 -0.1777 -0.0414
   14CHTO   C95 5596   4.369   5.035   3.340  0.2433  0.2711 -0.3258
   14CHTO  H182 5597   4.471   5.071   3.329  0.7450 -1.1072 -0.3312
   14CHTO  C106 5598   4.328   5.050   3.497 -0.4587 -0.1424  0.2594
   14CHTO   O69 5599   4.334   5.185   3.539 -1.0776 -0.1758 -0.1070
   14CHTO  H169 5600   4.425   5.203   3.553 -0.7399  0.0569 -2.5501
   14CHTO   O63 5601   4.218   5.221   3.057  0.1327 -0.2011  0.4049
   14CHTO   C96 5602   4.321   5.339   3.010  0.0347  0.9115 -0.7028
   14CHTO  H183 5603   4.261   5.418   2.965  0.5738  1.0843 -1.1181
   14CHTO   C98 5604   4.418   5.286   2.898  0.1955  0.1427 -0.3079
   14CHTO  H185 5605   4.472   5.197   2.933  0.8414  1.6396  2.7554
   14CHTO   O67 5606   4.323   5.247   2.793  0.1652 -0.2415 -0.0384
   14CHTO  H167 5607   4.330   5.154   2.786  1.2109 -0.1930  0.1704
   14CHTO  C102 5608   4.520   5.394   2.855  0.6434  0.2521  1.0092
   14CHTO  H189 5609   4.456   5.479   2.825  1.1659  0.6319  0.9625
   14CHTO   N18 5610   4.609   5.364   2.748 -0.1146  0.5530  0.3334
   14CHTO  H176 5611   4.699   5.424   2.750  0.7870 -0.7771  0.6428
   14CHTO  H177 5612   4.625   5.257   2.754  0.2610  0.6125  0.3751
   14CHTO  C105 5613   4.586   5.444   2.985 -0.0184  0.1191  0.2308
   14CHTO  H192 5614   4.658   5.369   3.016 -0.6189  0.0251  1.4170
   14CHTO   O65 5615   4.498   5.497   3.085 -0.0770  0.4154  0.0610
   14CHTO  C100 5616   4.403   5.403   3.133  0.2939  0.7357  0.0102
   14CHTO  H187 5617   4.450   5.324   3.194 -1.5483  1.2922  2.2118
   14CHTO  C107 5618   4.308   5.480   3.223  0.3104 -0.2212  0.0935
   14CHTO   O70 5619   4.215   5.400   3.294 -0.2504  0.1820 -0.0404
   14CHTO  H170 5620   4.243   5.395   3.383 -0.3736  0.2190  0.0016
   14CHTO   O57 5621   4.679   5.588   2.935 -0.0823  0.0082  0.7297
   14CHTO   C85 5622   4.764   5.650   3.028  0.1014  0.0208 -0.3327
   14CHTO  H157 5623   4.768   5.573   3.108  1.9239 -1.3446 -1.7141
   14CHTO   C83 5624   4.694   5.777   3.085 -0.1422  0.7597 -0.1714
   14CHTO  H155 5625   4.610   5.734   3.140  0.6897  0.1472  0.6354
   14CHTO   O56 5626   4.660   5.861   2.975 -0.2453  0.4744  0.3254
   14CHTO  H135 5627   4.621   5.939   3.010  2.0077  2.6659 -1.8783
   14CHTO   C81 5628   4.786   5.850   3.194 -0.7975  0.0352  0.7565
   14CHTO  H153 5629   4.802   5.786   3.281  0.3120  0.3794  0.8120
   14CHTO   N14 5630   4.738   5.980   3.256  0.0760 -0.4650  0.6956
   14CHTO  H141 5631   4.643   6.000   3.211  0.9307 -1.1962 -1.5068
   14CHTO  H142 5632   4.800   6.066   3.243 -0.0758 -0.2137  1.6033
   14CHTO   C79 5633   4.933   5.879   3.129  0.0548 -0.5859 -0.5327
   14CHTO  H151 5634   4.997   5.910   3.212  0.0258  1.2692 -1.1786
   14CHTO   O52 5635   4.976   5.751   3.085 -0.0359  0.2666  0.1808
   14CHTO   C86 5636   4.907   5.686   2.985 -0.3832 -0.0426 -0.2937
   14CHTO  H158 5637   4.906   5.756   2.900  0.9191  0.5927  0.2085
   14CHTO   C90 5638   4.987   5.563   2.945  0.0090 -0.0309 -0.1462
   14CHTO   O60 5639   4.939   5.486   2.832 -0.1844 -0.1196 -0.5235
   14CHTO  H138 5640   4.848   5.472   2.853 -0.1537  0.6293  0.1563
   14CHTO   O50 5641   4.953   5.978   3.027 -0.6950 -0.2762  0.5423
   14CHTO   C73 5642   4.974   6.103   2.965  0.6092 -0.1707 -0.1177
   14CHTO  H145 5643   4.938   6.185   3.029 -0.9919 -1.0439  0.1307
   14CHTO   C74 5644   4.904   6.115   2.822 -0.0588  0.0643 -0.8915
   14CHTO  H146 5645   4.799   6.092   2.846 -0.5113  2.5017 -0.4040
   14CHTO   O54 5646   4.901   6.252   2.783  0.2801  0.5489  0.0353
   14CHTO  H133 5647   4.977   6.284   2.739  0.0366 -0.6021 -1.2966
   14CHTO   C75 5648   4.968   6.015   2.716 -0.8534  0.2739 -0.7480
   14CHTO  H147 5649   4.973   5.913   2.758  0.8786  0.7587  0.2309
   14CHTO   N13 5650   4.891   6.016   2.590 -0.2142 -0.1431 -0.7942
   14CHTO  H139 5651   4.817   5.937   2.587 -1.4547  0.9494  0.1530
   14CHTO  H140 5652   4.954   6.007   2.503  3.2570 -0.8109  1.7097
   14CHTO   C76 5653   5.124   6.051   2.709  0.2530 -0.6956 -0.0473
   14CHTO  H148 5654   5.125   6.155   2.678  0.3647 -0.1003  1.9012
   14CHTO   O49 5655   5.184   6.037   2.844 -0.0376  0.2521 -0.1111
   14CHTO   C77 5656   5.126   6.127   2.938 -0.3037 -0.1562 -0.3058
   14CHTO  H149 5657   5.138   6.221   2.884 -0.6144  0.2664  0.3569
   14CHTO   C88 5658   5.205   6.125   3.071  0.3100  0.3931  0.5747
   14CHTO   O58 5659   5.337   6.155   3.053 -0.2207 -0.1678 -0.4749
   14CHTO  H136 5660   5.346   6.241   3.016 -0.0263  0.2327  0.4698
   14CHTO   O51 5661   5.201   5.954   2.605 -0.0700  0.1386 -0.4125
   14CHTO   C78 5662   5.350   6.023   2.568  0.6107 -0.3771 -0.1332
   14CHTO  H150 5663   5.392   6.096   2.641 -0.1619  1.2165 -1.2599
   14CHTO   C80 5664   5.338   6.100   2.431  0.2165  0.0744 -0.3715
   14CHTO  H152 5665   5.290   6.033   2.356 -0.5547  0.6109 -0.3667
   14CHTO   O55 5666   5.245   6.207   2.462 -0.0075 -0.3278 -0.0853
   14CHTO  H134 5667   5.235   6.274   2.396 -1.8888  0.8748  1.3685
   14CHTO   C84 5668   5.475   6.150   2.377  0.4511 -0.4241  0.0435
   14CHTO  H156 5669   5.520   6.222   2.446  0.9349 -0.2945 -0.4012
   14CHTO   N15 5670   5.458   6.228   2.246 -0.0947  0.7551 -0.2507
   14CHTO  H143 5671   5.412   6.324   2.258  1.9010  1.6459  0.4582
   14CHTO  H144 5672   5.555   6.240   2.203 -0.3262 -1.0197 -1.2898
   14CHTO   C87 5673   5.571   6.029   2.380 -0.3476  0.7828  0.4273
   14CHTO  H159 5674   5.529   5.965   2.301 -2.8708  0.8758  1.6542
   14CHTO   O53 5675   5.581   5.969   2.524  0.2755 -0.2570  0.0085
   14CHTO   C82 5676   5.458   5.914   2.570 -0.2287  0.0662  0.3708
   14CHTO  H154 5677   5.421   5.831   2.510 -0.3260 -1.0708  1.9679
   14CHTO   C89 5678   5.473   5.865   2.715  0.7336  0.5688  0.1816
   14CHTO   O59 5679   5.366   5.769   2.743 -0.0727 -0.3650  0.2736
   14CHTO  H137 5680   5.282   5.804   2.722 -0.3584 -0.8600  0.5820
   14CHTO   O45 5681   5.709   6.064   2.348  0.2945  0.2154  0.7123
   14CHTO   C67 5682   5.814   5.971   2.309  0.3905 -0.4265  0.1465
   14CHTO  H124 5683   5.802   5.876   2.361 -1.6204 -0.8100 -0.9456
   14CHTO   C65 5684   5.815   5.939   2.150  0.0600 -0.0423 -0.3508
   14CHTO  H122 5685   5.711   5.936   2.117 -0.4947  1.4313  1.1849
   14CHTO   O44 5686   5.874   5.810   2.121 -0.0257 -0.2592  0.3137
   14CHTO  H102 5687   5.967   5.818   2.130  0.2029  4.2227 -3.7624
   14CHTO   C63 5688   5.864   6.068   2.080 -0.3728  0.3049  0.1406
   14CHTO  H120 5689   5.806   6.154   2.116  1.9894  1.6853  0.7264
   14CHTO   N11 5690   5.839   6.068   1.936  0.7612  0.6076 -0.5931
   14CHTO  H108 5691   5.923   6.121   1.897  1.2366 -0.3399 -0.8629
   14CHTO  H109 5692   5.743   6.109   1.910 -0.5091 -0.5422  2.0001
   14CHTO   C61 5693   6.026   6.080   2.119  0.4639  0.3716  0.1401
   14CHTO  H118 5694   6.068   6.170   2.072 -0.0915  0.6610  0.1936
   14CHTO   O40 5695   6.042   6.100   2.257  0.3537  0.1486 -0.1071
   14CHTO   C68 5696   5.957   6.031   2.358 -0.3486  0.6954  0.0764
   14CHTO  H125 5697   5.940   6.103   2.441 -0.7811  0.6343  0.0386
   14CHTO   C72 5698   6.038   5.913   2.412 -0.7367 -0.4005 -0.5467
   14CHTO   O48 5699   6.167   5.941   2.469 -0.5225 -0.5633  0.2424
   14CHTO  H105 5700   6.207   5.865   2.506 -0.4025 -0.9329 -0.6486
   14CHTO   O38 5701   6.103   5.961   2.077 -0.3260 -0.7111 -0.2900
   14CHTO   C55 5702   6.215   5.960   1.984  0.3009  0.2368 -0.2829
   14CHTO  H112 5703   6.231   6.055   1.932 -0.3181  1.4656  1.7244
   14CHTO   C56 5704   6.189   5.842   1.884 -0.1590 -0.0215  0.3084
   14CHTO  H113 5705   6.165   5.749   1.938 -0.1365 -1.2192 -1.6925
   14CHTO   O42 5706   6.081   5.872   1.796 -1.1226 -0.2235  0.5040
   14CHTO  H100 5707   6.094   5.847   1.707  0.4591  2.2016 -0.0084
   14CHTO   C57 5708   6.324   5.825   1.806  0.0749 -0.3512  0.1048
   14CHTO  H114 5709   6.327   5.913   1.741 -0.5999 -0.8342 -0.5843
   14CHTO   N10 5710   6.319   5.712   1.721  0.1920 -0.2709  0.4575
   14CHTO  H106 5711   6.264   5.628   1.761 -0.2834  0.0724  0.5243
   14CHTO  H107 5712   6.268   5.744   1.631  0.0332 -3.3585 -0.6137
   14CHTO   C58 5713   6.450   5.828   1.902 -0.5980  0.5916 -0.9079
   14CHTO  H115 5714   6.451   5.735   1.962  0.7658  0.9603 -0.3385
   14CHTO   O37 5715   6.456   5.944   1.987 -0.5414  0.1238  0.1136
   14CHTO   C59 5716   6.343   5.940   2.074 -0.6094 -1.0879  0.4129
   14CHTO  H116 5717   6.338   5.846   2.129  0.3742 -0.7167  1.1592
   14CHTO   C70 5718   6.362   6.055   2.176 -0.0486 -0.1069  0.5766
   14CHTO   O46 5719   6.481   6.046   2.253 -0.4999 -0.1886  0.1337
   14CHTO  H103 5720   6.553   6.015   2.202 -0.0949  0.9950 -0.0112
   14CHTO   O39 5721   6.585   5.839   1.813  0.2983  0.2323  0.6038
   14CHTO   C60 5722   6.707   5.792   1.864  0.3012  0.0683  0.0249
   14CHTO  H117 5723   6.779   5.793   1.782  0.1187  1.5268 -0.1351
   14CHTO   C62 5724   6.776   5.891   1.966 -1.0979  0.5068  0.3926
   14CHTO  H119 5725   6.752   5.995   1.935  0.4295  0.6277 -0.4069
   14CHTO   O43 5726   6.724   5.881   2.093 -1.0602  0.2705 -0.6543
   14CHTO  H101 5727   6.630   5.881   2.087 -1.0177  1.9640 -1.5674
   14CHTO   C66 5728   6.932   5.871   1.952 -0.1193  0.0039 -0.0664
   14CHTO  H123 5729   6.962   5.894   1.850 -1.6636  1.1912 -0.2559
   14CHTO   N12 5730   7.013   5.962   2.037 -0.3142  0.0931  0.0080
   14CHTO  H110 5731   7.118   5.937   2.044  0.3500  1.8090 -2.8453
   14CHTO  H111 5732   7.001   6.061   1.995  1.2059 -0.6893 -2.3455
   14CHTO   C69 5733   6.970   5.724   1.989  0.3547  0.6865 -0.8895
   14CHTO  H126 5734   6.990   5.705   2.097 -0.9337 -0.6775 -0.8714
   14CHTO   O41 5735   6.859   5.610   1.946  0.0639  0.2478 -0.5940
   14CHTO   C64 5736   6.709   5.642   1.922  0.2584  0.0508  0.5680
   14CHTO  H121 5737   6.649   5.638   2.015 -1.8435 -1.9419 -0.8150
   14CHTO   C71 5738   6.639   5.531   1.834  0.2971 -0.4560  0.3284
   14CHTO   O47 5739   6.688   5.533   1.701 -0.3112 -0.2046  0.3798
   14CHTO  H104 5740   6.634   5.576   1.638  1.6860  0.4553 -0.9451
   14CHTO   O34 5741   7.106   5.692   1.909 -0.3480 -0.1599  0.0518
   14CHTO   C49 5742   7.147   5.554   1.811  0.5733 -0.0715 -0.0228
   14CHTO   H91 5743   7.139   5.470   1.880 -1.3694  0.4839  0.4503
   14CHTO   C47 5744   7.287   5.564   1.744  0.0557 -0.2557 -0.4908
   14CHTO   H89 5745   7.308   5.464   1.700 -2.0815 -1.6203  1.4233
   14CHTO   O33 5746   7.386   5.585   1.848 -0.2151 -0.0662 -0.6994
   14CHTO   H70 5747   7.466   5.621   1.816 -0.0402  0.8919  0.7276
   14CHTO   C45 5748   7.282   5.685   1.633  0.1572  0.1248 -0.2824
   14CHTO   H87 5749   7.306   5.784   1.675  0.3735 -0.1932  0.3451
   14CHTO    N8 5750   7.384   5.658   1.528  0.2626 -0.1650 -0.3080
   14CHTO   H75 5751   7.352   5.566   1.482 -0.5166  0.9489 -2.0541
   14CHTO   H76 5752   7.486   5.658   1.563  0.1079  1.0251  0.1800
   14CHTO   C43 5753   7.134   5.721   1.591  0.0904  0.2203 -0.4045
   14CHTO   H85 5754   7.093   5.786   1.668  2.2040 -0.9665  1.7796
   14CHTO   O29 5755   7.057   5.602   1.576  0.3762 -0.3770 -0.2755
   14CHTO   C50 5756   7.048   5.517   1.693 -0.0975  0.5958  0.3027
   14CHTO   H92 5757   6.945   5.531   1.729  0.2902 -0.9409  2.1319
   14CHTO   C54 5758   7.049   5.368   1.649  0.2144  0.0449  0.3753
   14CHTO   O36 5759   6.916   5.328   1.605  0.0585 -0.2601 -0.2677
   14CHTO   H72 5760   6.923   5.234   1.600 -0.5393 -0.2197 -2.0466
   14CHTO   O27 5761   7.117   5.804   1.477  0.1725  0.2215  0.0474
   14CHTO   C37 5762   7.006   5.890   1.439 -0.0649  0.1198 -0.4028
   14CHTO   H79 5763   6.994   5.894   1.330 -0.4775  1.3103 -0.3212
   14CHTO   C38 5764   6.871   5.823   1.473  0.4646  0.0107 -0.1945
   14CHTO   H80 5765   6.869   5.791   1.578  2.6830 -0.7911 -0.3782
   14CHTO   O31 5766   6.858   5.708   1.387  0.1703  0.6463 -0.1413
   14CHTO   H68 5767   6.935   5.671   1.347 -0.1186 -1.6529  1.3322
   14CHTO   C39 5768   6.741   5.909   1.441 -0.0989  0.2739 -0.8332
   14CHTO   H81 5769   6.740   5.916   1.332  2.2168  2.5013 -0.7529
   14CHTO    N7 5770   6.616   5.841   1.495  0.2439  0.6242  0.5348
   14CHTO   H73 5771   6.554   5.792   1.421  0.7674 -1.9311  1.7350
   14CHTO   H74 5772   6.559   5.893   1.570 -0.1034  0.7520  0.1819
   14CHTO   C40 5773   6.769   6.049   1.501  0.3832  0.1014 -0.2792
   14CHTO   H82 5774   6.774   6.030   1.608  0.5461  0.1124 -0.2853
   14CHTO   O26 5775   6.892   6.106   1.452 -0.3830  0.4919  0.4091
   14CHTO   C41 5776   7.009   6.029   1.495 -0.0044  0.1883 -0.1793
   14CHTO   H83 5777   7.010   6.020   1.605 -2.7218 -2.6955 -0.3256
   14CHTO   C52 5778   7.132   6.110   1.463 -0.3394 -0.0782 -0.4517
   14CHTO   O35 5779   7.148   6.231   1.517 -0.6490  0.2941 -0.5766
   14CHTO   H71 5780   7.068   6.279   1.510 -1.4125 -1.0928 -1.6457
   14CHTO   O28 5781   6.669   6.137   1.460  0.5233  0.7255  0.1926
   14CHTO   C42 5782   6.599   6.231   1.554  0.6277  0.3046  0.0272
   14CHTO   H84 5783   6.569   6.309   1.483  2.1592  0.3038 -0.6357
   14CHTO   C44 5784   6.682   6.301   1.671 -0.8104  0.2956  0.3546
   14CHTO   H86 5785   6.718   6.227   1.742 -4.2731  2.2801  4.4300
   14CHTO   O32 5786   6.791   6.369   1.611 -0.0924  0.5875 -0.5055
   14CHTO   H69 5787   6.824   6.311   1.545 -2.9638  1.4185 -2.7609
   14CHTO   C48 5788   6.602   6.407   1.759  0.0540  0.1056  0.1346
   14CHTO   H90 5789   6.574   6.492   1.696  0.1358 -0.0060 -0.0519
   14CHTO    N9 5790   6.673   6.472   1.877  0.5487  0.6923 -0.2976
   14CHTO   H77 5791   6.596   6.519   1.937  1.2981  0.6415  0.7090
   14CHTO   H78 5792   6.741   6.546   1.838  2.7981 -2.1452 -1.9223
   14CHTO   C51 5793   6.473   6.334   1.817 -0.5340 -0.3379 -0.0527
   14CHTO   H93 5794   6.499   6.248   1.878  0.6898 -0.0646 -0.1627
   14CHTO   O30 5795   6.405   6.296   1.700 -0.0110  0.0133  0.0252
   14CHTO   C46 5796   6.470   6.176   1.621 -0.0164  0.1096 -0.2026
   14CHTO   H88 5797   6.511   6.100   1.688  0.7964  1.7291  1.1623
   14CHTO   C53 5798   6.378   6.108   1.515  0.0453 -0.0111 -0.0811
   14CHTO   O72 5799   6.251   6.068   1.570  0.0553  0.4122  0.1508
   14CHTO  H199 5800   6.188   6.135   1.588  1.4162  1.9967 -0.8176
   14CHTO   O22 5801   6.382   6.428   1.877 -0.0088 -0.0002  0.6397
   14CHTO   C31 5802   6.303   6.409   1.999  0.0039  0.4280 -0.7708
   14CHTO   H59 5803   6.263   6.306   1.997  0.7455  0.1094  0.4293
   14CHTO   C29 5804   6.390   6.428   2.123  0.1485  0.9092 -0.1252
   14CHTO   H57 5805   6.439   6.527   2.113  0.3255  0.9880  1.4710
   14CHTO   O21 5806   6.498   6.344   2.116 -0.0035 -0.3054 -0.0428
   14CHTO   H37 5807   6.491   6.286   2.042  0.8388  1.5225 -1.5984
   14CHTO   C27 5808   6.313   6.414   2.259  0.2221  0.0295 -0.3038
   14CHTO   H55 5809   6.295   6.306   2.271  0.2280 -0.1156 -1.5391
   14CHTO    N5 5810   6.391   6.458   2.373  0.3280 -0.2071  0.3406
   14CHTO   H43 5811   6.343   6.487   2.465 -0.8176 -2.7278  0.5758
   14CHTO   H44 5812   6.470   6.389   2.401  0.5061  0.4013  1.3711
   14CHTO   C25 5813   6.170   6.479   2.264 -0.1586 -0.6653  0.0027
   14CHTO   H53 5814   6.180   6.587   2.277  2.7305 -0.4415 -3.2622
   14CHTO   O17 5815   6.101   6.476   2.135 -0.5313 -0.4917 -0.5191
   14CHTO   C32 5816   6.177   6.505   2.017 -0.4196  0.3659  0.3810
   14CHTO   H60 5817   6.212   6.608   2.019 -0.2154  0.2972  0.4100
   14CHTO   C36 5818   6.083   6.500   1.901  0.6070 -0.2457  0.8279
   14CHTO   O25 5819   5.998   6.613   1.917  0.0506  0.1302  0.0288
   14CHTO   H40 5820   5.925   6.606   1.859 -0.9329  0.0159  1.2841
   14CHTO   O15 5821   6.063   6.397   2.384 -0.2841 -0.5427 -0.9507
   14CHTO   C19 5822   5.995   6.419   2.513  0.0288 -0.6432 -0.5488
   14CHTO   H47 5823   5.968   6.320   2.554 -1.2034 -0.3313 -0.5880
   14CHTO   C20 5824   6.074   6.486   2.627 -0.6355  0.0266  0.0712
   14CHTO   H48 5825   6.111   6.585   2.600 -1.3182  0.5668  1.0864
   14CHTO   O19 5826   6.191   6.406   2.653  0.1725 -0.0269 -0.1647
   14CHTO   H35 5827   6.248   6.419   2.579  1.0752  1.8138  0.8106
   14CHTO   C21 5828   5.986   6.501   2.763 -0.0242  0.2982 -0.4903
   14CHTO   H49 5829   5.976   6.402   2.806 -1.7448  0.5084 -0.3790
   14CHTO    N4 5830   6.052   6.579   2.869 -0.2369  0.7752  0.6059
   14CHTO   H41 5831   6.147   6.532   2.891 -0.4375  1.2832  2.7461
   14CHTO   H42 5832   6.077   6.682   2.848  0.9837 -0.2514 -3.2835
   14CHTO   C22 5833   5.841   6.556   2.735  0.0998 -0.0583 -0.3636
   14CHTO   H50 5834   5.842   6.664   2.720  1.3893  0.0931  0.6765
   14CHTO   O14 5835   5.788   6.484   2.622 -0.4010 -0.2002 -0.1643
   14CHTO   C23 5836   5.861   6.493   2.500  0.0415 -0.0944  0.4153
   14CHTO   H51 5837   5.878   6.598   2.473  1.0554 -0.4073 -0.1750
   14CHTO   C34 5838   5.775   6.421   2.393 -0.2179  0.7202 -0.4755
   14CHTO   O23 5839   5.671   6.505   2.352 -0.5295  0.4940  0.4820
   14CHTO   H38 5840   5.696   6.563   2.283  2.1369 -0.6894  0.3604
   14CHTO   O16 5841   5.752   6.523   2.842  0.3308 -0.2249 -0.3462
   14CHTO   C24 5842   5.635   6.628   2.859 -0.3536  0.2592  0.2537
   14CHTO   H52 5843   5.609   6.675   2.764 -2.4165 -3.1810 -0.9642
   14CHTO   C26 5844   5.671   6.738   2.962  0.3392 -0.0589 -0.1019
   14CHTO   H54 5845   5.686   6.686   3.059  0.3365  1.2779  0.6295
   14CHTO   O20 5846   5.800   6.787   2.921 -0.3099 -0.4900 -0.2887
   14CHTO   H36 5847   5.811   6.878   2.941 -0.3868 -0.2804 -1.2161
   14CHTO   C30 5848   5.558   6.844   2.960 -0.0832 -0.7019 -0.0982
   14CHTO   H58 5849   5.535   6.871   2.856 -0.9395  2.9764  0.9674
   14CHTO    N6 5850   5.597   6.973   3.025  0.0391  0.4958 -0.3447
   14CHTO   H45 5851   5.504   7.029   3.028 -1.2281 -1.3967 -2.6434
   14CHTO   H46 5852   5.643   6.957   3.121 -1.9714 -0.0466  0.5656
   14CHTO   C33 5853   5.426   6.774   3.013  0.9381  0.9482 -0.1931
   14CHTO   H61 5854   5.446   6.754   3.119 -0.9412  1.8057  0.3367
   14CHTO   O18 5855   5.401   6.653   2.944  0.0953 -0.0119  0.1085
   14CHTO   C28 5856   5.504   6.555   2.908  0.1161 -0.2286 -0.4138
   14CHTO   H56 5857   5.530   6.493   2.993 -2.8217  1.8746  2.1199
   14CHTO   C35 5858   5.455   6.458   2.795  0.3571  0.0866 -0.6187
   14CHTO   O24 5859   5.330   6.394   2.829  0.0646  0.0239  0.2119
   14CHTO   H39 5860   5.267   6.448   2.874 -0.5157 -2.6683  2.8582
   14CHTO    O9 5861   5.309   6.858   3.015  0.4597 -0.1495 -0.0409
   14CHTO   C13 5862   5.188   6.779   3.110  0.5502  0.1363 -0.9336
   14CHTO   H26 5863   5.200   6.669   3.103 -1.3438 -0.0418 -1.6055
   14CHTO   C11 5864   5.043   6.830   3.056  0.1456 -0.0830  0.1965
   14CHTO   H24 5865   5.039   6.812   2.947 -1.3243 -0.4589  0.2994
   14CHTO    O8 5866   5.033   6.975   3.075 -0.0875  0.1880  0.1936
   14CHTO    H3 5867   5.025   6.994   3.167 -3.9019 -1.1304  0.2264
   14CHTO    C9 5868   4.941   6.746   3.132 -0.1742  0.0384  0.9711
   14CHTO   H22 5869   4.970   6.641   3.115  2.3147  1.0948 -1.6958
   14CHTO    N2 5870   4.804   6.750   3.075  0.0461  0.8726  0.0808
   14CHTO   H10 5871   4.780   6.750   2.969  0.2796  1.9863  0.0225
   14CHTO   H11 5872   4.731   6.685   3.121  1.3923 -0.9681 -0.3773
   14CHTO    C7 5873   4.954   6.777   3.287  0.1378  0.0376  0.0949
   14CHTO   H20 5874   4.890   6.696   3.327  1.0842 -0.7169  0.1085
   14CHTO    O4 5875   5.095   6.760   3.330  0.0201  0.8732  0.0560
   14CHTO   C14 5876   5.213   6.796   3.258  0.0923  0.3920 -0.1862
   14CHTO   H27 5877   5.300   6.731   3.281  0.6173  1.9071  2.3949
   14CHTO   C18 5878   5.259   6.947   3.291 -0.5305  0.3224  0.2780
   14CHTO   O13 5879   5.365   6.947   3.385  0.2317  0.0215  0.0645
   14CHTO    H7 5880   5.427   7.015   3.367 -0.5458  0.9177  0.6934
   14CHTO    O2 5881   4.898   6.925   3.335 -0.1185 -0.2385  0.2470
   14CHTO    C1 5882   4.837   6.905   3.467  0.3167 -0.4379  0.2128
   14CHTO   H14 5883   4.883   6.813   3.507  1.8550  0.7453  1.2217
   14CHTO    C2 5884   4.677   6.889   3.465 -0.5354  0.3325 -0.1680
   14CHTO   H15 5885   4.641   6.984   3.422  0.8379  0.4741 -1.0299
   14CHTO    O6 5886   4.647   6.765   3.398 -0.0438 -0.3550  0.1479
   14CHTO    H1 5887   4.559   6.771   3.367  0.1639  0.8931 -0.2655
   14CHTO    C3 5888   4.626   6.884   3.614  0.1259 -0.3538  0.0558
   14CHTO   H16 5889   4.667   6.790   3.653  0.1149 -0.7845 -0.9708
   14CHTO    N1 5890   4.476   6.877   3.623  0.4297  0.0242 -0.4604
   14CHTO    H8 5891   4.414   6.945   3.679 -0.9422 -1.0718 -0.6257
   14CHTO    H9 5892   4.454   6.777   3.656  0.5942  1.5143  4.5710
   14CHTO    C4 5893   4.688   6.996   3.710  0.2706  0.1922  0.2087
   14CHTO   H17 5894   4.624   7.084   3.704 -1.2854 -1.0102 -1.6682
   14CHTO    O1 5895   4.827   7.022   3.680 -0.0607 -0.0155  0.2041
   14CHTO    C5 5896   4.872   7.032   3.550  0.5774  0.3980 -0.4095
   14CHTO   H18 5897   4.828   7.112   3.490 -0.1399 -1.3234 -2.2466
   14CHTO   C16 5898   5.022   7.050   3.550  0.2532  0.5152 -0.9667
   14CHTO   O11 5899   5.085   6.955   3.633 -0.3268  0.1036 -0.9747
   14CHTO    H5 5900   5.156   6.909   3.591 -0.1545 -1.3848  0.8945
   14CHTO    O3 5901   4.685   6.941   3.845  0.2139  0.0936  0.3908
   14CHTO    C6 5902   4.713   7.035   3.961 -0.0454 -0.3475  0.1920
   14CHTO   H19 5903   4.755   7.125   3.917 -3.0875  1.1819  0.3574
   14CHTO    C8 5904   4.588   7.079   4.046 -0.6142 -0.2297 -0.5173
   14CHTO   H21 5905   4.539   6.988   4.081 -0.8490 -0.5841 -1.7178
   14CHTO    O7 5906   4.504   7.153   3.955  0.0738 -0.3917 -0.2327
   14CHTO    H2 5907   4.541   7.239   3.948  2.1395 -1.3621 -1.5873
   14CHTO   C12 5908   4.637   7.175   4.169  0.4719  0.1115  1.2032
   14CHTO   H25 5909   4.662   7.273   4.124 -0.0420 -0.3599 -0.1363
   14CHTO    N3 5910   4.532   7.182   4.273 -0.0092 -0.1393 -0.0398
   14CHTO   H12 5911   4.569   7.145   4.367  1.4222  0.7358 -0.2487
   14CHTO   H13 5912   4.475   7.274   4.275 -0.4682 -0.4301  0.7217
   14CHTO   C15 5913   4.766   7.116   4.237 -0.0971 -0.3376 -0.6037
   14CHTO   H28 5914   4.742   7.026   4.294  2.2502  0.7291  2.1177
   14CHTO   O10 5915   4.841   7.215   4.340  0.1540 -0.3006 -0.2603
   14CHTO    H4 5916   4.854   7.298   4.298  1.8249 -1.6587 -2.5396
   14CHTO    O5 5917   4.870   7.092   4.141  0.1580  0.1324 -0.1422
   14CHTO   C10 5918   4.828   6.981   4.057  0.4566  0.0830 -0.6203
   14CHTO   H23 5919   4.783   6.897   4.110  1.6122  0.7476  1.4606
   14CHTO   C17 5920   4.947   6.938   3.971  0.4256  0.3027 -0.3009
   14CHTO   O12 5921   5.012   7.037   3.910  0.3908  0.3340  0.2579
   14CHTO    H6 5922   4.976   7.118   3.942 -0.8438 -0.1621  0.1626
   15CHTO  H203 5923   5.929   5.290   2.900 -1.7518  0.4844  1.9873
   15CHTO   O82 5924   5.871   5.296   2.827  0.2249 -0.1163  0.3188
   15CHTO  C123 5925   5.904   5.184   2.738 -0.3161 -0.4385  0.5582
   15CHTO  H227 5926   5.933   5.096   2.798 -0.9634  0.0044  1.5381
   15CHTO   O77 5927   5.787   5.153   2.663  0.1660  0.3125 -0.1974
   15CHTO  C118 5928   5.796   5.039   2.578 -0.6326  0.0432  0.0532
   15CHTO  H222 5929   5.824   4.944   2.625  0.2781 -0.6225 -1.7777
   15CHTO  C125 5930   5.653   5.024   2.513 -0.5937  0.4314  0.6072
   15CHTO   O84 5931   5.543   4.993   2.601 -0.2609 -0.1770 -0.1258
   15CHTO  H205 5932   5.474   4.941   2.563 -0.6954 -0.4169  0.9575
   15CHTO  C114 5933   5.906   5.065   2.473  0.0759  0.3150  0.2676
   15CHTO  H218 5934   5.878   5.153   2.416 -1.6576  0.2480  1.0085
   15CHTO  C116 5935   6.038   5.108   2.535  0.3816 -0.0482 -0.1292
   15CHTO  H220 5936   6.079   5.019   2.588 -2.5835 -1.1533  0.3724
   15CHTO   O79 5937   6.117   5.150   2.424 -0.5123 -0.0550 -0.2297
   15CHTO  H201 5938   6.202   5.175   2.453 -0.6202  0.1633 -0.0929
   15CHTO  C120 5939   6.018   5.227   2.639 -0.5699  0.4020  0.1144
   15CHTO  H224 5940   5.985   5.314   2.579 -2.1251  0.0021  0.3791
   15CHTO   N21 5941   6.152   5.252   2.704 -0.4499 -1.2249  0.7758
   15CHTO  H211 5942   6.216   5.166   2.718  0.3839 -0.7728 -0.2627
   15CHTO  H212 5943   6.202   5.329   2.648 -0.8370 -2.1583 -0.8864
   15CHTO   O75 5944   5.902   4.955   2.383  0.3519 -0.1509 -0.2116
   15CHTO  C112 5945   5.997   4.832   2.388 -0.6078 -0.5732  0.1151
   15CHTO  H216 5946   6.024   4.804   2.491 -1.4891  0.8290  0.7519
   15CHTO   O73 5947   6.109   4.855   2.308  0.4973 -0.0089 -0.0682
   15CHTO  C113 5948   6.205   4.750   2.299  0.0579  0.2293 -0.4781
   15CHTO  H217 5949   6.256   4.726   2.395  0.2052 -3.4442 -1.4030
   15CHTO  C124 5950   6.321   4.787   2.205 -0.4273 -0.1288  0.8370
   15CHTO   O83 5951   6.303   4.910   2.132 -0.2012 -0.0531 -0.2285
   15CHTO  H204 5952   6.382   4.959   2.126  1.3601 -2.7060 -1.9308
   15CHTO  C109 5953   6.135   4.615   2.253 -0.5564 -0.2038  0.1219
   15CHTO  H213 5954   6.103   4.630   2.149 -1.5452  2.1985  0.7513
   15CHTO  C110 5955   6.012   4.580   2.337 -0.3725  0.4019  0.5536
   15CHTO  H214 5956   6.042   4.562   2.440  1.6864 -0.6825 -0.1988
   15CHTO   O78 5957   5.946   4.461   2.295 -0.0355 -0.5574 -0.8029
   15CHTO  H200 5958   5.961   4.388   2.351  0.1762 -0.9635 -1.3819
   15CHTO  C111 5959   5.914   4.704   2.342  0.0845 -0.4012 -0.1496
   15CHTO  H215 5960   5.871   4.724   2.243  0.4588 -1.0717 -0.4521
   15CHTO   N19 5961   5.792   4.685   2.434 -0.2936 -0.1469 -0.8064
   15CHTO  H207 5962   5.790   4.601   2.503  0.5207  0.2211 -0.3261
   15CHTO  H208 5963   5.697   4.693   2.383 -0.7803  0.1640  0.1329
   15CHTO   O74 5964   6.236   4.509   2.262 -0.1744 -0.2660 -0.4045
   15CHTO  C115 5965   6.223   4.389   2.162  0.2271 -0.3161 -0.0930
   15CHTO  H219 5966   6.120   4.359   2.147  0.6019 -0.4085 -2.6661
   15CHTO   O76 5967   6.275   4.430   2.011  0.1648  0.1765 -0.0601
   15CHTO  C122 5968   6.402   4.363   1.979 -0.0571 -0.4535 -0.5225
   15CHTO  H226 5969   6.478   4.408   2.043  0.3528 -0.6315 -0.8803
   15CHTO  C126 5970   6.450   4.403   1.832 -0.7652 -0.7318  0.1022
   15CHTO   O85 5971   6.579   4.355   1.804 -0.6445 -0.3804  0.0853
   15CHTO  H206 5972   6.601   4.276   1.849  2.7274 -0.3704 -1.3582
   15CHTO  C121 5973   6.391   4.208   1.987 -0.1138  0.3163  0.0499
   15CHTO  H225 5974   6.354   4.153   1.898  0.3352  0.8148 -0.4390
   15CHTO   O81 5975   6.522   4.144   2.010  0.0049 -0.0636  0.1462
   15CHTO  H202 5976   6.556   4.181   2.089  2.4886 -0.8021 -0.5294
   15CHTO  C119 5977   6.301   4.160   2.104 -0.0403  0.4607 -0.1053
   15CHTO  H223 5978   6.206   4.157   2.050 -0.6585  1.5843  0.9080
   15CHTO  C117 5979   6.296   4.264   2.216  0.1421 -0.3244  0.4241
   15CHTO  H221 5980   6.394   4.302   2.244  0.9023 -0.6424 -1.7285
   15CHTO   N20 5981   6.229   4.205   2.339 -0.2772  0.4347  0.3374
   15CHTO  H209 5982   6.256   4.101   2.350 -0.3603  0.1638 -1.7911
   15CHTO  H210 5983   6.121   4.202   2.341 -0.2777  0.4150  0.2716
   15CHTO   O80 5984   6.321   4.016   2.135  0.5228  0.6087  0.6393
   15CHTO  C103 5985   6.205   3.905   2.105 -0.7880  0.9501 -0.3163
   15CHTO  H190 5986   6.204   3.829   2.183  0.2778  1.0037 -0.2424
   15CHTO  C101 5987   6.057   3.947   2.087  0.1874 -0.3263  0.1844
   15CHTO  H188 5988   6.048   4.027   2.013  0.7426 -1.8118 -1.5219
   15CHTO   O68 5989   5.990   3.989   2.225  0.2084  0.8809  0.2554
   15CHTO  H168 5990   6.029   4.069   2.254  0.3793  0.7254  0.4540
   15CHTO   C99 5991   5.975   3.814   2.034 -0.6150  0.2340  0.1011
   15CHTO  H186 5992   5.972   3.733   2.109 -0.2595  0.1246 -0.0034
   15CHTO   N17 5993   5.825   3.843   2.010 -0.0768  0.4260 -0.9047
   15CHTO  H174 5994   5.758   3.759   2.005  0.0945  0.1791  0.6365
   15CHTO  H175 5995   5.820   3.913   1.928 -1.5253  1.8792  0.3916
   15CHTO   C97 5996   6.041   3.757   1.908  0.2115  0.0742  0.5200
   15CHTO  H184 5997   6.033   3.822   1.820  0.1692 -1.0514 -0.3250
   15CHTO   O64 5998   6.183   3.727   1.933 -0.2335  0.2873  0.0505
   15CHTO  C104 5999   6.256   3.838   1.970 -0.0233  0.1174 -0.4835
   15CHTO  H191 6000   6.258   3.914   1.892 -2.3499  0.6016 -0.1204
   15CHTO  C108 6001   6.396   3.783   1.983  0.1813  0.0952  0.8038
   15CHTO   O71 6002   6.450   3.760   1.853  0.1532 -0.4819 -0.2972
   15CHTO  H171 6003   6.413   3.679   1.825  0.3314 -1.8906  3.2525
   15CHTO   O62 6004   5.978   3.631   1.867 -0.1154  1.0262 -0.7621
   15CHTO   C91 6005   5.889   3.635   1.754  0.4439  0.2147  0.1429
   15CHTO  H178 6006   5.847   3.734   1.741 -1.3547 -0.5105  0.1699
   15CHTO   C92 6007   5.749   3.561   1.795 -0.0558  0.4673  0.7537
   15CHTO  H179 6008   5.709   3.602   1.889 -2.3228 -0.2818  0.1387
   15CHTO   O66 6009   5.647   3.587   1.694 -0.1100 -0.2136  0.0797
   15CHTO  H166 6010   5.623   3.677   1.689 -2.7237 -0.8212  0.8951
   15CHTO   C93 6011   5.772   3.396   1.812  0.7095 -0.4697 -0.4747
   15CHTO  H180 6012   5.672   3.353   1.797  0.7181 -0.5665 -0.2454
   15CHTO   N16 6013   5.819   3.351   1.943  0.1594  0.4248  0.3285
   15CHTO  H172 6014   5.737   3.325   2.008  0.7640  0.7333  1.2388
   15CHTO  H173 6015   5.911   3.386   1.988 -0.1003 -0.2568  1.4268
   15CHTO   C94 6016   5.867   3.347   1.705 -0.0631 -0.4926 -0.2386
   15CHTO  H181 6017   5.968   3.332   1.744 -1.1737 -2.5157  1.9873
   15CHTO   O61 6018   5.880   3.441   1.595  0.6805 -0.1201 -0.0163
   15CHTO   C95 6019   5.954   3.554   1.630 -0.6589 -0.2110  0.5315
   15CHTO  H182 6020   6.059   3.526   1.639  0.1327  2.4878  0.0187
   15CHTO  C106 6021   5.973   3.648   1.500 -0.3373 -0.3974 -0.1513
   15CHTO   O69 6022   5.848   3.671   1.424 -0.1478 -0.4787  0.4773
   15CHTO  H169 6023   5.786   3.719   1.475  0.0156  0.6865 -0.4011
   15CHTO   O63 6024   5.798   3.207   1.642  0.5015 -0.6240 -0.4096
   15CHTO   C96 6025   5.864   3.118   1.558 -0.8143  0.3355  0.0117
   15CHTO  H183 6026   5.971   3.131   1.575 -0.6997 -1.8190  1.1652
   15CHTO   C98 6027   5.840   3.146   1.403  0.2563  0.2068 -0.4500
   15CHTO  H185 6028   5.734   3.170   1.389  0.0792 -0.6791 -0.6409
   15CHTO   O67 6029   5.905   3.263   1.362  0.0186 -0.0779 -0.5647
   15CHTO  H167 6030   5.994   3.266   1.391  0.7104  2.1200 -2.7278
   15CHTO  C102 6031   5.889   3.034   1.303 -0.4659  0.1670 -0.8934
   15CHTO  H189 6032   5.996   3.056   1.289  0.5889 -1.2385  3.9643
   15CHTO   N18 6033   5.821   3.035   1.173  0.0649 -0.1316  0.3399
   15CHTO  H176 6034   5.865   2.965   1.102  1.2600 -0.2563  1.1853
   15CHTO  H177 6035   5.718   3.005   1.178 -0.0598  0.0309 -0.9302
   15CHTO  C105 6036   5.874   2.891   1.367  0.2691  0.0590  0.5400
   15CHTO  H192 6037   5.778   2.845   1.343 -0.1235  1.6914 -1.1127
   15CHTO   O65 6038   5.905   2.879   1.503 -0.3073 -0.6088  0.1483
   15CHTO  C100 6039   5.826   2.964   1.593  0.5019 -0.5112  0.3564
   15CHTO  H187 6040   5.722   2.935   1.570  0.8721 -2.3392  0.8747
   15CHTO  C107 6041   5.864   2.919   1.729  0.0583 -0.3529 -0.6331
   15CHTO   O70 6042   5.834   2.784   1.753 -0.6182 -0.7783  0.3607
   15CHTO  H170 6043   5.883   2.750   1.825  0.5040 -2.5377 -1.1667
   15CHTO   O57 6044   5.976   2.800   1.290 -0.2916 -0.6186 -0.5519
   15CHTO   C85 6045   5.984   2.656   1.319 -0.0864 -0.9101  0.0705
   15CHTO  H157 6046   5.939   2.629   1.416 -0.4547 -0.9861 -0.1185
   15CHTO   C83 6047   6.139   2.624   1.342  0.3940 -0.8992  0.3438
   15CHTO  H155 6048   6.173   2.678   1.430 -2.5405 -1.9363  2.1916
   15CHTO   O56 6049   6.210   2.657   1.223 -0.0523 -0.1779  0.2905
   15CHTO  H135 6050   6.204   2.750   1.208  1.7107  0.2113  1.7755
   15CHTO   C81 6051   6.154   2.472   1.375 -0.0961  0.2032  0.1399
   15CHTO  H153 6052   6.078   2.455   1.452 -1.4310 -1.0333 -1.4274
   15CHTO   N14 6053   6.278   2.431   1.448 -0.1133 -0.3735 -0.4450
   15CHTO  H141 6054   6.263   2.426   1.554  1.7018 -0.0713 -0.1420
   15CHTO  H142 6055   6.315   2.339   1.407  2.3411  0.8752 -1.1384
   15CHTO   C79 6056   6.110   2.382   1.256  0.5436  0.4928 -0.3546
   15CHTO  H151 6057   6.121   2.279   1.290  0.1126  0.4105 -0.4613
   15CHTO   O52 6058   5.969   2.419   1.229  0.5334  0.6184 -0.1233
   15CHTO   C86 6059   5.936   2.560   1.202  0.0829  0.1748  0.1339
   15CHTO  H158 6060   5.988   2.572   1.105  1.5470  0.2370  0.9060
   15CHTO   C90 6061   5.786   2.575   1.170 -0.1069 -0.6981  0.0029
   15CHTO   O60 6062   5.739   2.509   1.046 -0.7178 -0.1860 -0.7779
   15CHTO  H138 6063   5.798   2.505   0.974  2.1315  1.2798  1.3500
   15CHTO   O50 6064   6.187   2.401   1.137  0.6277  0.0186  0.3471
   15CHTO   C73 6065   6.217   2.312   1.025 -0.7388  0.1387  0.7876
   15CHTO  H145 6066   6.124   2.265   0.991 -0.2521  0.4343 -1.0259
   15CHTO   C74 6067   6.329   2.214   1.081 -0.1115  0.4826  0.4823
   15CHTO  H146 6068   6.283   2.166   1.169  0.3923 -2.6092 -0.8959
   15CHTO   O54 6069   6.339   2.109   0.987  0.5204 -0.4503 -0.3619
   15CHTO  H133 6070   6.387   2.035   1.018  2.4937  0.4811 -1.0828
   15CHTO   C75 6071   6.462   2.287   1.117 -0.2027 -0.1273  0.4314
   15CHTO  H147 6072   6.444   2.363   1.194 -1.0102 -0.6542  0.7711
   15CHTO   N13 6073   6.570   2.200   1.169  0.2795  0.2826 -0.3450
   15CHTO  H139 6074   6.652   2.268   1.180  0.1166  0.2689  1.1056
   15CHTO  H140 6075   6.597   2.112   1.113 -1.4423 -0.8224  0.4978
   15CHTO   C76 6076   6.507   2.359   0.993  0.0503 -0.0897  0.1352
   15CHTO  H148 6077   6.536   2.284   0.920 -2.1160  0.4747 -1.3605
   15CHTO   O49 6078   6.404   2.437   0.932 -0.0479  0.6014 -0.6721
   15CHTO   C77 6079   6.282   2.378   0.898  0.6067  0.2536 -1.5645
   15CHTO  H149 6080   6.306   2.297   0.829  0.3108 -1.2988  0.1016
   15CHTO   C88 6081   6.201   2.480   0.816 -0.1961 -0.8797 -0.2910
   15CHTO   O58 6082   6.062   2.417   0.784 -0.0092  0.3165  0.3456
   15CHTO  H136 6083   6.023   2.423   0.869 -0.4594 -0.7998  0.2243
   15CHTO   O51 6084   6.624   2.472   1.019 -0.0943  0.2914  0.0275
   15CHTO   C78 6085   6.730   2.475   0.881  0.7776 -0.2232 -0.4301
   15CHTO  H150 6086   6.692   2.410   0.799 -1.3498  1.0860 -0.5329
   15CHTO   C80 6087   6.871   2.425   0.922  0.0949 -0.0828 -0.0700
   15CHTO  H152 6088   6.909   2.489   1.005 -0.7672  1.1320 -0.5877
   15CHTO   O55 6089   6.854   2.296   0.978  0.4680  0.5562  0.2412
   15CHTO  H134 6090   6.932   2.245   0.980  0.9407  1.2799  2.9853
   15CHTO   C84 6091   6.983   2.437   0.809 -0.0527  0.4273  0.2459
   15CHTO  H156 6092   6.957   2.371   0.726  0.1330 -1.3391  1.5699
   15CHTO   N15 6093   7.128   2.399   0.857  0.8477  0.2846  0.3001
   15CHTO  H143 6094   7.122   2.302   0.901  0.1179  1.1417  2.1517
   15CHTO  H144 6095   7.197   2.390   0.776  0.7391 -1.0361  0.3405
   15CHTO   C87 6096   6.984   2.580   0.753  0.0563  0.4885 -0.0448
   15CHTO  H159 6097   7.015   2.637   0.841 -1.2205 -1.9649  2.0342
   15CHTO   O53 6098   6.822   2.626   0.708  0.0690  0.0694 -0.1578
   15CHTO   C82 6099   6.741   2.618   0.825 -0.1870  0.2359  0.3245
   15CHTO  H154 6100   6.785   2.684   0.900 -0.4931 -0.6340  1.2712
   15CHTO   C89 6101   6.597   2.669   0.801 -0.2007 -0.0209  0.3926
   15CHTO   O59 6102   6.595   2.810   0.801  0.0508 -0.6019  0.2872
   15CHTO  H137 6103   6.520   2.834   0.749  0.0029 -1.0045  0.1695
   15CHTO   O45 6104   7.073   2.607   0.618 -0.4358  0.5221  0.0402
   15CHTO   C67 6105   7.141   2.736   0.639  0.1528  0.3071 -0.6773
   15CHTO  H124 6106   7.096   2.781   0.728 -1.4263 -1.0933 -0.7388
   15CHTO   C65 6107   7.296   2.722   0.662 -0.1981  0.1411  0.3778
   15CHTO  H122 6108   7.329   2.654   0.583 -2.3335  0.2826 -0.6837
   15CHTO   O44 6109   7.313   2.664   0.792  0.0709 -0.1825 -0.3711
   15CHTO  H102 6110   7.321   2.571   0.798  0.0733 -0.0823  1.7597
   15CHTO   C63 6111   7.383   2.853   0.633 -0.0727 -0.1295 -0.0195
   15CHTO  H120 6112   7.405   2.855   0.526 -2.4517 -0.8445 -0.5640
   15CHTO   N11 6113   7.518   2.855   0.693 -0.1876 -0.0329 -0.2198
   15CHTO  H108 6114   7.565   2.944   0.657  0.0862 -0.1885 -0.2435
   15CHTO  H109 6115   7.516   2.859   0.800  2.3550 -1.4164 -0.0994
   15CHTO   C61 6116   7.290   2.975   0.654 -0.3099 -0.5806 -0.3749
   15CHTO  H118 6117   7.345   3.062   0.615  0.5942 -1.4703 -1.0989
   15CHTO   O40 6118   7.168   2.964   0.576  0.6507  0.2900 -0.2163
   15CHTO   C68 6119   7.117   2.833   0.526 -0.2987 -0.1509  0.6583
   15CHTO  H125 6120   7.188   2.808   0.445 -0.8600  1.2671 -0.3022
   15CHTO   C72 6121   6.976   2.833   0.462  0.4611  0.3380 -0.4781
   15CHTO   O48 6122   6.862   2.875   0.544  0.6954 -0.5116  0.4213
   15CHTO  H105 6123   6.841   2.804   0.601 -2.4996  0.7653  0.9542
   15CHTO   O38 6124   7.249   2.984   0.797  0.4949  0.6460  0.0536
   15CHTO   C55 6125   7.189   3.102   0.856 -0.7170  0.0435  0.2338
   15CHTO  H112 6126   7.130   3.152   0.777 -1.7585 -2.4364 -0.5916
   15CHTO   C56 6127   7.295   3.203   0.927  0.0493  0.8632 -1.0489
   15CHTO  H113 6128   7.354   3.153   1.004 -0.3105  1.7805 -0.1602
   15CHTO   O42 6129   7.387   3.243   0.825 -0.8612  0.3712  0.0685
   15CHTO  H100 6130   7.459   3.299   0.850 -1.3744  2.8848 -3.5736
   15CHTO   C57 6131   7.218   3.325   0.991 -0.0173 -0.1567  0.2824
   15CHTO  H114 6132   7.175   3.369   0.901 -1.1728  1.5396  1.6300
   15CHTO   N10 6133   7.307   3.407   1.081 -0.1719  0.4237 -0.7744
   15CHTO  H106 6134   7.258   3.490   1.128  2.7872  2.4557 -1.0817
   15CHTO  H107 6135   7.335   3.337   1.158 -0.6964  0.4170 -0.5924
   15CHTO   C58 6136   7.098   3.273   1.076 -0.4893  0.8941 -0.1621
   15CHTO  H115 6137   7.136   3.212   1.161 -3.1234  0.0718  0.4667
   15CHTO   O37 6138   7.019   3.174   1.003 -0.0461 -0.3636 -0.3580
   15CHTO   C59 6139   7.081   3.057   0.958  0.4007  0.3085 -0.1202
   15CHTO  H116 6140   7.119   3.002   1.044  0.6708  2.5435  1.2271
   15CHTO   C70 6141   6.964   2.981   0.896  0.1341 -0.3492  0.0234
   15CHTO   O46 6142   6.858   2.930   0.974 -0.3233 -0.0143 -0.1616
   15CHTO  H103 6143   6.887   2.849   1.010 -0.0814  0.4011  0.5982
   15CHTO   O39 6144   6.997   3.385   1.139  0.5126 -0.3358 -0.9255
   15CHTO   C60 6145   6.922   3.338   1.250 -0.5228 -0.2605  0.4141
   15CHTO  H117 6146   6.906   3.231   1.251 -1.0473 -0.1983 -1.2944
   15CHTO   C62 6147   6.980   3.371   1.388  0.0796 -0.8175  0.0879
   15CHTO  H119 6148   7.058   3.293   1.403  0.3084 -0.5948  0.0730
   15CHTO   O43 6149   7.030   3.504   1.383 -0.5220  0.0485  0.5776
   15CHTO  H101 6150   7.120   3.505   1.358 -0.0081 -1.9665  2.1569
   15CHTO   C66 6151   6.874   3.342   1.505 -0.8749  0.0917  0.5108
   15CHTO  H123 6152   6.840   3.239   1.503  0.4912 -0.3866  1.1604
   15CHTO   N12 6153   6.940   3.361   1.640  0.9031  0.1936 -0.7714
   15CHTO  H110 6154   6.877   3.328   1.721  0.6310 -1.3742 -1.6191
   15CHTO  H111 6155   6.980   3.462   1.641 -1.1863  1.0340 -0.8678
   15CHTO   C69 6156   6.750   3.434   1.474  0.0237  0.5639 -0.8218
   15CHTO  H126 6157   6.769   3.543   1.477  1.0449  0.4182 -1.4565
   15CHTO   O41 6158   6.692   3.411   1.344 -0.1821  0.2920 -0.3130
   15CHTO   C64 6159   6.785   3.400   1.225 -0.5280  0.5267  0.0036
   15CHTO  H121 6160   6.800   3.499   1.176  1.0557  0.1119 -0.3889
   15CHTO   C71 6161   6.707   3.306   1.127  0.6156  0.0038 -0.2370
   15CHTO   O47 6162   6.577   3.364   1.113 -0.1732  0.7778  1.0613
   15CHTO  H104 6163   6.577   3.456   1.094 -2.0573  1.1423  2.6723
   15CHTO   O34 6164   6.650   3.400   1.568 -0.4394  0.4272  0.1200
   15CHTO   C49 6165   6.520   3.484   1.616 -0.9127  0.0831 -0.8193
   15CHTO   H91 6166   6.562   3.558   1.684  2.0329 -2.7221  0.5352
   15CHTO   C47 6167   6.418   3.391   1.688  0.1463 -0.1669  0.5610
   15CHTO   H89 6168   6.340   3.463   1.718 -0.4498 -0.3718 -0.4873
   15CHTO   O33 6169   6.468   3.336   1.812 -0.0420 -0.0599  0.0535
   15CHTO   H70 6170   6.471   3.405   1.875  0.7071  0.5375 -0.6310
   15CHTO   C45 6171   6.370   3.273   1.590  0.4523  0.3972  0.1093
   15CHTO   H87 6172   6.444   3.192   1.593 -1.8295 -1.7299  0.6940
   15CHTO    N8 6173   6.242   3.220   1.646  0.1994 -0.2514 -0.3072
   15CHTO   H75 6174   6.156   3.279   1.621 -0.8247 -0.5702  2.3192
   15CHTO   H76 6175   6.243   3.204   1.753  1.8960 -0.8012 -0.3813
   15CHTO   C43 6176   6.374   3.320   1.432  0.6973  0.3576 -0.0222
   15CHTO   H85 6177   6.476   3.293   1.405 -0.2186 -3.3221 -0.0385
   15CHTO   O29 6178   6.344   3.463   1.424  0.2413  0.1891 -0.0340
   15CHTO   C50 6179   6.442   3.547   1.494 -0.4380 -0.2564  0.7660
   15CHTO   H92 6180   6.512   3.581   1.417 -2.6355  0.0600 -1.1514
   15CHTO   C54 6181   6.378   3.679   1.534  0.2419 -0.0418 -0.1650
   15CHTO   O36 6182   6.264   3.667   1.616 -0.1626 -0.3776  0.4786
   15CHTO   H72 6183   6.187   3.668   1.562 -0.3805 -1.1053  0.7664
   15CHTO   O27 6184   6.276   3.250   1.353 -0.3989  0.0444  0.1712
   15CHTO   C37 6185   6.284   3.209   1.211  0.2997 -0.2958 -0.0341
   15CHTO   H79 6186   6.386   3.228   1.174  0.6960 -1.2478  0.5398
   15CHTO   C38 6187   6.271   3.058   1.182  0.6723  0.2965  0.3818
   15CHTO   H80 6188   6.176   3.027   1.229  1.0079  0.0217  0.8968
   15CHTO   O31 6189   6.382   2.990   1.244 -0.0691  0.0871  0.3077
   15CHTO   H68 6190   6.363   2.978   1.335 -1.3813 -0.7408 -0.0679
   15CHTO   C39 6191   6.276   3.015   1.030  0.4314 -0.4082 -0.5830
   15CHTO   H81 6192   6.372   3.040   0.985 -0.4704  3.5979 -0.5168
   15CHTO    N7 6193   6.250   2.870   0.994  0.7319 -0.4065  1.1170
   15CHTO   H73 6194   6.275   2.847   0.892  1.0955 -1.3541  1.4159
   15CHTO   H74 6195   6.149   2.855   1.031  0.9458 -0.4025  1.7093
   15CHTO   C40 6196   6.180   3.115   0.953  0.1756 -0.3370  0.0309
   15CHTO   H82 6197   6.078   3.083   0.977 -0.0094  1.3415  1.5368
   15CHTO   O26 6198   6.201   3.256   0.987  0.1213  0.2681 -0.1469
   15CHTO   C41 6199   6.183   3.284   1.122  0.2832 -0.5699  1.1481
   15CHTO   H83 6200   6.082   3.248   1.150 -0.9660  2.3278  0.5245
   15CHTO   C52 6201   6.192   3.442   1.127  0.3885 -0.3963 -0.1246
   15CHTO   O35 6202   6.084   3.501   1.034  0.0982 -0.5877  0.0341
   15CHTO   H71 6203   6.088   3.457   0.951  1.6687 -2.1795  0.9303
   15CHTO   O28 6204   6.180   3.097   0.809 -0.2283  0.5461 -0.0098
   15CHTO   C42 6205   6.264   3.170   0.718  0.5141  0.1316  0.2681
   15CHTO   H84 6206   6.262   3.101   0.634 -0.1563  0.0529  0.3458
   15CHTO   C44 6207   6.420   3.197   0.745  0.6951  0.6163  0.2247
   15CHTO   H86 6208   6.423   3.245   0.843 -1.7103  4.1899 -1.3814
   15CHTO   O32 6209   6.486   3.070   0.753 -0.3826 -0.0718  0.0054
   15CHTO   H69 6210   6.579   3.080   0.748 -0.4431  0.8519  0.6710
   15CHTO   C48 6211   6.492   3.287   0.629  0.3157 -0.0337  0.0961
   15CHTO   H90 6212   6.498   3.234   0.534  4.6311 -2.7089  1.7197
   15CHTO    N9 6213   6.632   3.323   0.654  0.4312 -0.2247 -0.0481
   15CHTO   H77 6214   6.648   3.366   0.752  2.5756 -1.1935  0.0533
   15CHTO   H78 6215   6.684   3.229   0.650  0.4010 -0.3698  2.3195
   15CHTO   C51 6216   6.400   3.418   0.612 -0.7018  0.8872  0.1588
   15CHTO   H93 6217   6.395   3.469   0.708 -1.7102  0.6501  0.2438
   15CHTO   O30 6218   6.277   3.363   0.568  0.5480  0.3166  0.5510
   15CHTO   C46 6219   6.192   3.302   0.663  0.5089 -0.4291  0.8801
   15CHTO   H88 6220   6.182   3.369   0.748 -0.0996 -0.5170  0.8826
   15CHTO   C53 6221   6.065   3.256   0.590 -0.9270  0.7038  0.1768
   15CHTO   O72 6222   5.977   3.365   0.558 -0.0725 -0.5996 -0.4152
   15CHTO  H199 6223   6.018   3.414   0.490 -0.2564 -0.0739 -0.1439
   15CHTO   O22 6224   6.435   3.515   0.512 -0.0621  0.0079 -0.0893
   15CHTO   C31 6225   6.401   3.658   0.545  0.3775 -0.2472  0.7082
   15CHTO   H59 6226   6.427   3.712   0.451 -2.4145 -1.1539 -0.6447
   15CHTO   C29 6227   6.249   3.681   0.573 -1.0660 -0.2345 -0.3373
   15CHTO   H57 6228   6.214   3.636   0.667 -1.7177  0.7995 -0.0777
   15CHTO   O21 6229   6.168   3.622   0.470 -0.1022  0.0161  0.1005
   15CHTO   H37 6230   6.204   3.539   0.446  0.5192  0.4771 -0.5655
   15CHTO   C27 6231   6.218   3.833   0.587 -0.2757  0.1116  0.2918
   15CHTO   H55 6232   6.231   3.886   0.492 -1.0273 -0.4229 -0.1185
   15CHTO    N5 6233   6.080   3.864   0.638 -0.5676  0.5945 -0.2181
   15CHTO   H43 6234   6.062   3.790   0.715  2.6303 -2.4792 -2.2905
   15CHTO   H44 6235   5.999   3.847   0.568 -0.7341 -1.2543  0.3944
   15CHTO   C25 6236   6.319   3.901   0.682 -0.3880 -0.0137  0.2380
   15CHTO   H53 6237   6.307   3.862   0.784  0.4792 -0.4215  0.1806
   15CHTO   O17 6238   6.456   3.856   0.652  0.4959 -0.3246  0.3697
   15CHTO   C32 6239   6.492   3.717   0.658 -0.4463 -0.3936  0.4805
   15CHTO   H60 6240   6.466   3.672   0.753  0.4836 -0.7902  0.5542
   15CHTO   C36 6241   6.641   3.699   0.630 -0.4560 -0.0231 -0.0462
   15CHTO   O25 6242   6.729   3.718   0.743 -0.1355  0.1744  0.2329
   15CHTO   H40 6243   6.803   3.762   0.706 -0.7294  0.6742 -0.3865
   15CHTO   O15 6244   6.305   4.063   0.682  0.3032 -0.0288 -0.5358
   15CHTO   C19 6245   6.332   4.182   0.760  0.2697 -0.7559 -0.2438
   15CHTO   H47 6246   6.349   4.260   0.685  0.8739  0.6757  1.3375
   15CHTO   C20 6247   6.205   4.231   0.836  0.0171 -0.4035 -0.2902
   15CHTO   H48 6248   6.165   4.155   0.906 -0.2489  0.0255  0.0274
   15CHTO   O19 6249   6.104   4.264   0.730  0.4668 -0.5472  0.0421
   15CHTO   H35 6250   6.021   4.223   0.745 -1.4262  1.9827 -2.8929
   15CHTO   C21 6251   6.236   4.352   0.927 -0.3337  0.7544  0.5057
   15CHTO   H49 6252   6.259   4.437   0.863  1.1225 -0.0412 -0.0434
   15CHTO    N4 6253   6.128   4.374   1.027 -0.0500 -0.2237  0.0416
   15CHTO   H41 6254   6.030   4.374   0.981 -0.4090  1.1101  0.7905
   15CHTO   H42 6255   6.128   4.299   1.105  1.0156 -0.8385 -0.5440
   15CHTO   C22 6256   6.370   4.350   1.001 -0.3169 -0.2181 -0.3896
   15CHTO   H50 6257   6.363   4.278   1.083  1.1621  1.0586  0.8921
   15CHTO   O14 6258   6.473   4.310   0.915 -0.3527  0.5000  0.2792
   15CHTO   C23 6259   6.456   4.187   0.845  0.0431  0.0133 -0.6620
   15CHTO   H51 6260   6.452   4.109   0.922  1.1139  0.4800 -0.1212
   15CHTO   C34 6261   6.585   4.165   0.768  0.3131  0.0067 -0.4094
   15CHTO   O23 6262   6.704   4.153   0.843 -0.7333  0.1885  0.1515
   15CHTO   H38 6263   6.699   4.076   0.897 -1.1364 -0.7980 -1.2580
   15CHTO   O16 6264   6.412   4.479   1.050  0.4832  0.2968  0.2496
   15CHTO   C24 6265   6.470   4.465   1.203 -0.2782  0.7792 -0.2924
   15CHTO   H52 6266   6.453   4.365   1.243  1.6260  0.1265 -1.0303
   15CHTO   C26 6267   6.411   4.573   1.300 -0.4685 -0.7774 -0.3128
   15CHTO   H54 6268   6.417   4.673   1.253  0.6767  0.1368  1.6942
   15CHTO   O20 6269   6.276   4.549   1.319 -0.6597 -0.0668  0.2849
   15CHTO   H36 6270   6.230   4.616   1.366 -0.6266  1.7856 -2.1926
   15CHTO   C30 6271   6.476   4.580   1.439  0.1327 -0.2157  0.6063
   15CHTO   H58 6272   6.449   4.492   1.500  1.3556  0.6888  2.4907
   15CHTO    N6 6273   6.426   4.697   1.516  0.0602  0.3392 -1.0032
   15CHTO   H45 6274   6.418   4.790   1.462  0.0073  0.9945  0.1114
   15CHTO   H46 6275   6.488   4.713   1.603 -0.5095  1.9378 -0.8737
   15CHTO   C33 6276   6.631   4.578   1.430  0.2810 -0.0250 -0.1698
   15CHTO   H61 6277   6.668   4.679   1.408 -5.0276  2.2409  0.6703
   15CHTO   O18 6278   6.676   4.482   1.337 -0.6693 -0.0256  0.6779
   15CHTO   C28 6279   6.626   4.489   1.207  0.6981 -0.3323 -0.2659
   15CHTO   H56 6280   6.645   4.590   1.170 -0.1865  0.0051  0.1867
   15CHTO   C35 6281   6.705   4.394   1.113  0.3645 -0.6437  0.3243
   15CHTO   O24 6282   6.717   4.257   1.165  0.6593 -0.0068  0.3510
   15CHTO   H39 6283   6.642   4.208   1.137  0.8938 -0.2728  0.1821
   15CHTO    O9 6284   6.687   4.551   1.561 -0.3465 -0.1743  0.0705
   15CHTO   C13 6285   6.858   4.527   1.554  0.3107  0.3793 -0.0956
   15CHTO   H26 6286   6.891   4.572   1.458  2.2506 -0.9473 -0.0803
   15CHTO   C11 6287   6.893   4.369   1.553  0.2821  0.5969 -0.6142
   15CHTO   H24 6288   6.841   4.321   1.469  0.5289 -0.3319 -0.2372
   15CHTO    O8 6289   6.838   4.298   1.669  0.3420 -0.0137 -0.2508
   15CHTO    H3 6290   6.866   4.337   1.750 -1.8759  0.5187  0.2975
   15CHTO    C9 6291   7.044   4.358   1.537  0.8154 -0.4942 -0.1775
   15CHTO   H22 6292   7.069   4.427   1.455  1.0344 -2.6455 -1.9651
   15CHTO    N2 6293   7.103   4.222   1.503  0.1621  0.3208 -0.0419
   15CHTO   H10 6294   7.209   4.224   1.483  0.2672 -0.4222  0.4468
   15CHTO   H11 6295   7.085   4.154   1.585 -2.0947 -1.2232 -1.7409
   15CHTO    C7 6296   7.110   4.417   1.667  0.3965 -0.2972 -0.1035
   15CHTO   H20 6297   7.219   4.421   1.650  0.1535 -1.9302 -2.3324
   15CHTO    O4 6298   7.075   4.553   1.690  0.1042 -0.2832  0.0951
   15CHTO   C14 6299   6.938   4.604   1.670 -0.1751 -0.2851 -0.1618
   15CHTO   H27 6300   6.954   4.712   1.655 -0.2738 -0.0216  1.5609
   15CHTO   C18 6301   6.864   4.591   1.804  0.2491  0.9051  0.1607
   15CHTO   O13 6302   6.729   4.646   1.800  0.1585  0.2345 -0.0570
   15CHTO    H7 6303   6.675   4.571   1.817  0.3918  0.2853  0.9459
   15CHTO    O2 6304   7.078   4.332   1.813 -0.1765  0.2167  0.1501
   15CHTO    C1 6305   7.199   4.321   1.886 -0.2460  0.5797 -0.0475
   15CHTO   H14 6306   7.260   4.411   1.863 -0.5407  0.3309 -1.8863
   15CHTO    C2 6307   7.278   4.189   1.836  0.0061 -0.2431  0.0371
   15CHTO   H15 6308   7.208   4.105   1.842  1.1845 -1.1262  1.8197
   15CHTO    O6 6309   7.330   4.216   1.702 -0.3300  0.1596  0.7517
   15CHTO    H1 6310   7.263   4.258   1.652 -0.5965  1.0375  1.8022
   15CHTO    C3 6311   7.400   4.157   1.934 -0.6342  0.0004 -0.5421
   15CHTO   H16 6312   7.472   4.239   1.915  0.8440 -1.0039  0.5694
   15CHTO    N1 6313   7.471   4.026   1.900 -0.0708  0.0162  0.2511
   15CHTO    H8 6314   7.568   4.009   1.944  0.5707  1.3567 -0.5855
   15CHTO    H9 6315   7.397   3.950   1.919 -1.3428  0.6407 -1.9523
   15CHTO    C4 6316   7.364   4.172   2.083 -0.1133  0.0979 -0.2662
   15CHTO   H17 6317   7.305   4.087   2.115 -1.7108  1.2272 -0.1356
   15CHTO    O1 6318   7.287   4.292   2.112  0.7091  0.7143 -0.3537
   15CHTO    C5 6319   7.163   4.319   2.036  0.1241  0.2429 -0.4101
   15CHTO   H18 6320   7.084   4.247   2.053  0.1806  0.6053  1.5097
   15CHTO   C16 6321   7.108   4.455   2.084  0.3516  0.6399 -0.8153
   15CHTO   O11 6322   7.198   4.567   2.081 -0.5560  0.1646 -0.0976
   15CHTO    H5 6323   7.265   4.559   2.145 -0.0814  1.0251 -0.4704
   15CHTO    O3 6324   7.487   4.178   2.166 -0.6682  0.1457 -0.0202
   15CHTO    C6 6325   7.482   4.108   2.294 -0.9036  0.2305 -0.0056
   15CHTO   H19 6326   7.379   4.110   2.329 -0.6863 -0.0575  0.6387
   15CHTO    C8 6327   7.531   3.957   2.286  0.2878  0.2197 -0.0857
   15CHTO   H21 6328   7.623   3.954   2.228 -2.1853  0.4022 -4.1980
   15CHTO    O7 6329   7.433   3.897   2.198 -0.2718  0.3350  0.3755
   15CHTO    H2 6330   7.448   3.931   2.112  2.0875 -0.5154  0.3889
   15CHTO   C12 6331   7.533   3.891   2.429 -0.1435  0.0406 -0.3630
   15CHTO   H25 6332   7.434   3.885   2.478 -0.7046  1.2570 -1.3263
   15CHTO    N3 6333   7.584   3.745   2.423  0.0389 -0.1884 -0.5186
   15CHTO   H12 6334   7.609   3.718   2.322  0.7442  2.6226 -1.1523
   15CHTO   H13 6335   7.520   3.666   2.460 -1.4707 -0.0048 -2.6346
   15CHTO   C15 6336   7.620   3.988   2.520  0.6633  0.4757 -0.1287
   15CHTO   H28 6337   7.725   3.988   2.491  0.1905  0.2006 -1.9342
   15CHTO   O10 6338   7.632   3.948   2.665  0.3546  0.0773 -0.2013
   15CHTO    H4 6339   7.606   4.015   2.726  0.1602  0.8419 -1.1160
   15CHTO    O5 6340   7.565   4.120   2.529  0.4113 -0.4363 -0.1263
   15CHTO   C10 6341   7.575   4.182   2.400  0.1930 -0.4066  0.9536
   15CHTO   H23 6342   7.680   4.180   2.371 -0.3695  0.2438 -1.2705
   15CHTO   C17 6343   7.533   4.326   2.410 -0.2487 -0.0716  0.6702
   15CHTO   O12 6344   7.401   4.367   2.463 -0.3679  0.3710 -0.0017
   15CHTO    H6 6345   7.410   4.456   2.489  0.7912  0.1906  0.2139
   16CHTO  H203 6346   5.270   4.186   1.094  1.0517  0.4476 -0.8527
   16CHTO   O82 6347   5.315   4.106   1.113  0.1917  0.1570 -0.0338
   16CHTO  C123 6348   5.431   4.150   1.182 -0.0993  0.1291 -1.4160
   16CHTO  H227 6349   5.399   4.219   1.262 -0.0990 -1.4682 -0.0113
   16CHTO   O77 6350   5.499   4.031   1.235  0.2533 -0.1221  0.0766
   16CHTO  C118 6351   5.599   4.061   1.336 -0.0352  0.9416  0.8510
   16CHTO  H222 6352   5.553   4.134   1.405 -0.8562  1.1679  0.0640
   16CHTO  C125 6353   5.620   3.934   1.419  0.1474  0.0130  0.1907
   16CHTO   O84 6354   5.716   3.948   1.525  0.0829 -0.3141  0.1025
   16CHTO  H205 6355   5.681   3.895   1.594 -0.4761 -0.9077 -0.6244
   16CHTO  C114 6356   5.721   4.131   1.265  0.0990 -0.0091  0.3219
   16CHTO  H218 6357   5.760   4.055   1.197 -0.1840 -1.1796  1.4454
   16CHTO  C116 6358   5.671   4.255   1.186  0.0353 -0.3671  0.6426
   16CHTO  H220 6359   5.643   4.328   1.265 -0.7747 -0.8615  0.8196
   16CHTO   O79 6360   5.784   4.306   1.119 -0.6094  0.2052  0.2386
   16CHTO  H201 6361   5.754   4.360   1.047 -2.8172 -1.5553 -0.2328
   16CHTO  C120 6362   5.546   4.220   1.096  0.3304  0.0855  0.4609
   16CHTO  H224 6363   5.586   4.147   1.023  0.3250  2.2606 -1.7873
   16CHTO   N21 6364   5.500   4.334   1.016  0.7439  0.0496 -0.4415
   16CHTO  H211 6365   5.580   4.402   0.990 -0.8764  2.1614 -0.0692
   16CHTO  H212 6366   5.460   4.298   0.923  0.9879 -0.5833 -0.3006
   16CHTO   O75 6367   5.820   4.158   1.372  0.1837 -0.2431 -0.6522
   16CHTO  C112 6368   5.981   4.177   1.320 -1.0038 -0.1855  0.2675
   16CHTO  H216 6369   5.979   4.241   1.231 -3.6062  0.0563  0.4490
   16CHTO   O73 6370   6.038   4.050   1.291  0.2021  0.3608 -0.1883
   16CHTO  C113 6371   6.163   4.049   1.216 -0.6643  0.1664  0.7526
   16CHTO  H217 6372   6.153   4.121   1.133  0.6616  0.1872  0.5939
   16CHTO  C124 6373   6.194   3.918   1.152  0.1346  0.3385 -0.0666
   16CHTO   O83 6374   6.199   3.803   1.240 -0.9285  0.2824  0.1088
   16CHTO  H204 6375   6.278   3.787   1.289 -0.7344 -0.1597 -0.3454
   16CHTO  C109 6376   6.272   4.099   1.314 -0.1883  0.5377 -0.1933
   16CHTO  H213 6377   6.279   4.016   1.385 -2.4620 -1.0904 -1.8055
   16CHTO  C110 6378   6.227   4.231   1.386  0.9786 -0.7023  0.2146
   16CHTO  H214 6379   6.242   4.313   1.317  2.0359 -1.3878 -0.3872
   16CHTO   O78 6380   6.313   4.251   1.496 -0.2735  0.3958 -0.2457
   16CHTO  H200 6381   6.400   4.219   1.480 -0.0421  0.2182  1.2962
   16CHTO  C111 6382   6.078   4.234   1.432  0.3495 -0.1119 -0.1521
   16CHTO  H215 6383   6.069   4.164   1.516  2.7113  0.3745  0.5396
   16CHTO   N19 6384   6.033   4.363   1.487 -0.2268 -0.3286  0.3388
   16CHTO  H207 6385   6.095   4.403   1.566 -1.7407  0.2841  1.2449
   16CHTO  H208 6386   6.018   4.438   1.411 -0.6912 -2.0005 -1.2551
   16CHTO   O74 6387   6.407   4.117   1.252 -0.3648  0.0131 -0.0602
   16CHTO  C115 6388   6.510   3.989   1.270 -0.2852 -0.1411 -0.0445
   16CHTO  H219 6389   6.460   3.901   1.312  2.2702 -0.5871  2.2814
   16CHTO   O76 6390   6.575   3.951   1.146 -0.0806 -0.1585 -0.1952
   16CHTO  C122 6391   6.666   3.846   1.145 -0.0506 -0.3440  0.6763
   16CHTO  H226 6392   6.713   3.856   1.047 -0.5401  2.1117  0.6360
   16CHTO  C126 6393   6.586   3.710   1.154  0.2698  0.1147  0.8412
   16CHTO   O85 6394   6.522   3.681   1.031  0.3401  0.5842  0.4002
   16CHTO  H206 6395   6.455   3.740   1.004  1.1913  1.2556 -0.2853
   16CHTO  C121 6396   6.783   3.871   1.246 -0.2075 -0.4293 -0.0779
   16CHTO  H225 6397   6.839   3.775   1.250 -0.0441 -0.4306 -2.0039
   16CHTO   O81 6398   6.871   3.977   1.191  0.2149 -0.6038 -0.1927
   16CHTO  H202 6399   6.958   3.953   1.163  0.8732  1.1912  0.2761
   16CHTO  C119 6400   6.730   3.913   1.387  0.2145  0.0183 -0.3068
   16CHTO  H223 6401   6.692   3.823   1.437  0.1174 -0.8664 -1.9531
   16CHTO  C117 6402   6.626   4.024   1.384  0.5686 -0.9275  0.4106
   16CHTO  H221 6403   6.661   4.125   1.363 -0.3636 -0.3620  1.4803
   16CHTO   N20 6404   6.560   4.041   1.515 -0.5170  0.6306 -0.9306
   16CHTO  H209 6405   6.481   3.968   1.525 -0.2886  0.2943 -1.5283
   16CHTO  H210 6406   6.639   4.017   1.585 -1.1367  1.8850  0.1902
   16CHTO   O80 6407   6.854   3.942   1.476 -0.1655  0.4939  0.6146
   16CHTO  C103 6408   6.950   3.812   1.532  0.1409  0.0577  0.3156
   16CHTO  H190 6409   6.911   3.717   1.495  1.2238  0.5439 -2.1392
   16CHTO  C101 6410   7.100   3.825   1.507 -0.4928 -0.0530 -0.1325
   16CHTO  H188 6411   7.129   3.921   1.550  3.8436 -1.3085 -0.0059
   16CHTO   O68 6412   7.139   3.836   1.368 -0.4239  0.1522 -0.5702
   16CHTO  H168 6413   7.179   3.754   1.346 -0.1596 -0.0095  0.4621
   16CHTO   C99 6414   7.183   3.706   1.590 -0.3475  0.2577  0.4142
   16CHTO  H186 6415   7.146   3.606   1.561  2.2022 -0.6293  0.0468
   16CHTO   N17 6416   7.332   3.705   1.584  0.6409  0.0699 -1.1077
   16CHTO  H174 6417   7.384   3.626   1.636 -0.2843  0.8018  0.9874
   16CHTO  H175 6418   7.376   3.757   1.500  2.4423  3.4080  1.7814
   16CHTO   C97 6419   7.136   3.716   1.739  0.7516  0.1629  0.4484
   16CHTO  H184 6420   7.163   3.817   1.771  0.3085  0.0279  1.2940
   16CHTO   O64 6421   6.993   3.695   1.745 -0.2100 -0.4302 -0.0799
   16CHTO  C104 6422   6.926   3.810   1.692  0.1759  0.1049 -0.4620
   16CHTO  H191 6423   6.958   3.904   1.738 -1.2767 -0.4612  1.7980
   16CHTO  C108 6424   6.778   3.804   1.723  0.0454 -0.3118  0.1754
   16CHTO   O71 6425   6.757   3.787   1.859  0.2978 -0.0760 -0.0328
   16CHTO  H171 6426   6.782   3.866   1.902  0.8488 -0.9201  1.2142
   16CHTO   O62 6427   7.182   3.606   1.824 -0.1761  0.3765  0.1216
   16CHTO   C91 6428   7.200   3.637   1.962 -0.3000 -0.1361  0.1213
   16CHTO  H178 6429   7.286   3.704   1.961 -0.0652 -0.4066  1.3599
   16CHTO   C92 6430   7.247   3.506   2.033  0.6408  0.0148  0.0475
   16CHTO  H179 6431   7.314   3.450   1.966 -0.6851 -2.7851  0.9708
   16CHTO   O66 6432   7.333   3.543   2.142 -0.3184 -0.1301 -0.2846
   16CHTO  H166 6433   7.396   3.476   2.161 -1.7629 -0.9701  1.6983
   16CHTO   C93 6434   7.133   3.405   2.078 -0.4774  0.0337  0.3458
   16CHTO  H180 6435   7.178   3.351   2.161  1.2181  2.1817  0.8709
   16CHTO   N16 6436   7.089   3.308   1.973  0.4369 -0.1641  0.6751
   16CHTO  H172 6437   7.053   3.361   1.886  0.5092 -4.2754 -1.9542
   16CHTO  H173 6438   7.172   3.245   1.944 -0.0179 -0.5776  0.2652
   16CHTO   C94 6439   7.006   3.489   2.132  0.3832 -0.3381  0.6200
   16CHTO  H181 6440   6.922   3.482   2.063  1.9988 -0.6130 -1.3693
   16CHTO   O61 6441   7.032   3.626   2.154  0.0365  0.0990 -0.1235
   16CHTO   C95 6442   7.075   3.701   2.039 -0.1695 -0.2260 -0.0269
   16CHTO  H182 6443   6.984   3.718   1.981 -2.5657 -1.5772  3.1891
   16CHTO  C106 6444   7.107   3.841   2.092  0.0276 -0.2033 -0.9803
   16CHTO   O69 6445   7.123   3.938   1.988  0.4980 -0.1357  0.0994
   16CHTO  H169 6446   7.038   3.938   1.947 -0.9962  1.1407  3.0228
   16CHTO   O63 6447   6.958   3.431   2.270 -0.0075  0.1420 -0.4146
   16CHTO   C96 6448   6.849   3.305   2.267  0.6448 -0.3720  0.0906
   16CHTO  H183 6449   6.908   3.214   2.261 -0.7657 -1.1564 -2.7706
   16CHTO   C98 6450   6.737   3.299   2.158  0.3493 -0.1774  0.4037
   16CHTO  H185 6451   6.785   3.305   2.059 -3.3857  1.4417 -1.3975
   16CHTO   O67 6452   6.678   3.170   2.164 -0.1097 -0.3151 -0.0251
   16CHTO  H167 6453   6.668   3.134   2.250 -2.1796 -2.0266 -0.9273
   16CHTO  C102 6454   6.613   3.399   2.176 -0.6455 -0.0630 -0.7867
   16CHTO  H189 6455   6.523   3.352   2.134 -0.2366 -1.6358  0.0765
   16CHTO   N18 6456   6.637   3.526   2.103  0.7021 -0.5548 -0.2085
   16CHTO  H176 6457   6.651   3.502   1.999  1.0417  0.9828 -0.5335
   16CHTO  H177 6458   6.732   3.562   2.139  1.1339 -2.4018  0.5470
   16CHTO  C105 6459   6.581   3.423   2.326  0.1712  0.1177 -0.5196
   16CHTO  H192 6460   6.632   3.514   2.360  2.1062 -1.1800  0.1967
   16CHTO   O65 6461   6.634   3.319   2.406  0.0959  0.3679  0.0200
   16CHTO  C100 6462   6.778   3.303   2.412 -0.2892  0.0909 -0.1581
   16CHTO  H187 6463   6.812   3.393   2.466 -1.0991 -0.0559  0.5949
   16CHTO  C107 6464   6.811   3.183   2.505  0.1241 -0.5568  0.2900
   16CHTO   O70 6465   6.758   3.192   2.637 -0.0915 -0.2166  0.0995
   16CHTO  H170 6466   6.815   3.248   2.687  0.2187 -0.9335  0.5417
   16CHTO   O57 6467   6.418   3.458   2.346  0.4936 -0.2847  0.6475
   16CHTO   C85 6468   6.366   3.597   2.345 -0.5555 -0.0333 -0.7787
   16CHTO  H157 6469   6.405   3.650   2.256 -1.4569 -0.4288 -1.4148
   16CHTO   C83 6470   6.417   3.667   2.478  0.0463 -0.5743 -0.2981
   16CHTO  H155 6471   6.525   3.681   2.476  0.2551 -2.1400 -0.0293
   16CHTO   O56 6472   6.397   3.579   2.590 -0.3877  0.2357  0.1461
   16CHTO  H135 6473   6.308   3.590   2.619 -0.1759  1.7706  0.2376
   16CHTO   C81 6474   6.353   3.809   2.491 -0.1105 -0.2492  0.5428
   16CHTO  H153 6475   6.371   3.864   2.399 -0.7956 -1.6225 -0.4369
   16CHTO   N14 6476   6.405   3.882   2.605  0.7058  0.7069  0.2571
   16CHTO  H141 6477   6.390   3.820   2.691 -1.9378  0.3436 -0.4207
   16CHTO  H142 6478   6.339   3.966   2.618 -0.0175  0.5127 -2.0378
   16CHTO   C79 6479   6.200   3.792   2.498  0.0825 -0.1763 -0.4405
   16CHTO  H151 6480   6.155   3.891   2.507 -0.6754 -0.8477  4.4000
   16CHTO   O52 6481   6.146   3.731   2.375  0.3437 -0.3644  0.3627
   16CHTO   C86 6482   6.207   3.604   2.350 -1.3001 -0.2614  0.1778
   16CHTO  H158 6483   6.183   3.536   2.435 -0.6637 -2.7862 -1.6013
   16CHTO   C90 6484   6.139   3.536   2.221 -0.2103 -0.3007  0.4929
   16CHTO   O60 6485   6.003   3.501   2.252 -0.6360 -0.4364  0.0011
   16CHTO  H138 6486   5.955   3.492   2.171  0.0242  0.1721 -0.4625
   16CHTO   O50 6487   6.151   3.717   2.613  0.2249  0.0902  0.4118
   16CHTO   C73 6488   6.042   3.660   2.684  0.3801 -0.4497  0.5136
   16CHTO  H145 6489   6.089   3.593   2.757 -0.0940  0.7755  1.9850
   16CHTO   C74 6490   5.933   3.594   2.596 -0.1306  0.4283  0.3622
   16CHTO  H146 6491   5.985   3.517   2.538  0.8296  1.0028  0.4486
   16CHTO   O54 6492   5.843   3.525   2.689 -0.1741  0.7533 -0.2660
   16CHTO  H133 6493   5.774   3.488   2.639  0.0278  0.1431 -0.0945
   16CHTO   C75 6494   5.851   3.697   2.509  0.5084 -0.2039  0.7086
   16CHTO  H147 6495   5.920   3.737   2.433  0.5401  2.1564  1.9528
   16CHTO   N13 6496   5.755   3.631   2.422  0.2306  0.3667  0.0950
   16CHTO  H139 6497   5.771   3.525   2.411 -2.7503 -0.4266  2.5925
   16CHTO  H140 6498   5.757   3.683   2.328  0.8564  2.3672  1.1864
   16CHTO   C76 6499   5.786   3.812   2.599  0.2102 -0.8451 -0.8940
   16CHTO  H148 6500   5.720   3.775   2.678  2.2868  4.1086  3.4199
   16CHTO   O49 6501   5.904   3.868   2.666 -0.0031  0.5453 -0.2181
   16CHTO   C77 6502   5.970   3.780   2.760  0.1148  0.0812  0.2599
   16CHTO  H149 6503   5.898   3.734   2.829  0.9411 -0.7671  0.5765
   16CHTO   C88 6504   6.059   3.856   2.854 -0.6292 -0.5211 -0.1320
   16CHTO   O58 6505   6.137   3.756   2.955 -0.0082  0.3496 -0.1643
   16CHTO  H136 6506   6.167   3.792   3.037 -2.8493 -1.4131  1.7488
   16CHTO   O51 6507   5.716   3.916   2.521 -0.2130 -0.2570 -0.1699
   16CHTO   C78 6508   5.648   4.037   2.612 -0.0484  0.4226 -0.1872
   16CHTO  H150 6509   5.707   4.042   2.706 -1.1203  1.8151  0.4088
   16CHTO   C80 6510   5.500   4.012   2.647  0.0301 -0.5672 -0.3388
   16CHTO  H152 6511   5.440   4.012   2.553 -1.3881 -0.0877  0.5375
   16CHTO   O55 6512   5.491   3.879   2.710  0.4098 -0.6725  0.3084
   16CHTO  H134 6513   5.402   3.860   2.732  0.6116  0.2879  1.9884
   16CHTO   C84 6514   5.454   4.134   2.739 -0.9742  0.3269 -0.0511
   16CHTO  H156 6515   5.504   4.117   2.834 -0.0971  0.3081 -0.5027
   16CHTO   N15 6516   5.308   4.134   2.779 -0.6817  0.3807  0.1585
   16CHTO  H143 6517   5.256   4.074   2.708  2.8767 -1.2485 -1.2270
   16CHTO  H144 6518   5.270   4.234   2.769  0.0137  0.5509 -0.9568
   16CHTO   C87 6519   5.496   4.269   2.681 -0.0734 -0.7449 -0.8029
   16CHTO  H159 6520   5.422   4.311   2.612 -0.7723  0.3915  0.6099
   16CHTO   O53 6521   5.629   4.278   2.618 -0.6353 -0.1510  0.3545
   16CHTO   C82 6522   5.665   4.170   2.536  0.3763 -0.1607 -0.5986
   16CHTO  H154 6523   5.609   4.166   2.442  2.8402 -0.2264 -2.1143
   16CHTO   C89 6524   5.810   4.200   2.503 -0.1199  0.2835  0.6230
   16CHTO   O59 6525   5.895   4.242   2.606  0.2864 -0.8762  1.0809
   16CHTO  H137 6526   5.979   4.278   2.584  1.1078 -2.9227  0.7205
   16CHTO   O45 6527   5.516   4.379   2.812  0.5243 -0.0133  0.0711
   16CHTO   C67 6528   5.639   4.448   2.839  1.0774 -0.1997 -0.1774
   16CHTO  H124 6529   5.718   4.423   2.767  0.5163  0.1453 -0.9141
   16CHTO   C65 6530   5.609   4.595   2.840  0.0330  0.0032  0.2288
   16CHTO  H122 6531   5.505   4.615   2.867  0.0041  0.5741 -0.2882
   16CHTO   O44 6532   5.610   4.638   2.699  0.2506 -0.5901  0.0547
   16CHTO  H102 6533   5.566   4.577   2.643 -0.5143 -0.4394  0.4936
   16CHTO   C63 6534   5.694   4.678   2.941  0.0395 -0.4295  0.5717
   16CHTO  H120 6535   5.640   4.674   3.036  0.0554  2.1127  0.7373
   16CHTO   N11 6536   5.687   4.828   2.917  0.0335  0.2691  0.2342
   16CHTO  H108 6537   5.780   4.870   2.952  0.2457 -2.3933  3.0312
   16CHTO  H109 6538   5.615   4.874   2.982  1.0526  1.2730  0.6934
   16CHTO   C61 6539   5.836   4.610   2.967 -0.0596 -0.8960  0.5133
   16CHTO  H118 6540   5.885   4.670   3.046 -2.3676  1.6519  0.0664
   16CHTO   O40 6541   5.823   4.469   3.014 -0.0863 -0.7697  0.1023
   16CHTO   C68 6542   5.695   4.408   2.980  0.0388  0.2282  0.1180
   16CHTO  H125 6543   5.619   4.433   3.056 -1.4409 -0.8012 -0.9854
   16CHTO   C72 6544   5.712   4.247   2.979  0.2782  0.0319  0.1495
   16CHTO   O48 6545   5.819   4.199   2.894 -0.0175 -0.4085  0.1849
   16CHTO  H105 6546   5.897   4.177   2.942  0.7416 -1.4494 -1.4299
   16CHTO   O38 6547   5.919   4.604   2.847 -0.1636  0.4182  0.1172
   16CHTO   C55 6548   6.058   4.619   2.839 -0.1903 -0.3658 -0.0305
   16CHTO  H112 6549   6.092   4.610   2.944 -1.8043 -1.2297  0.4249
   16CHTO   C56 6550   6.099   4.755   2.778  0.0245 -0.0608  0.1462
   16CHTO  H113 6551   6.036   4.767   2.688 -2.0771 -2.4003  1.2644
   16CHTO   O42 6552   6.043   4.860   2.860  0.6200 -0.1065 -0.1372
   16CHTO  H100 6553   6.079   4.945   2.846  3.6892 -1.1246  1.1774
   16CHTO   C57 6554   6.258   4.766   2.756 -0.0324  0.2424  0.7253
   16CHTO  H114 6555   6.299   4.769   2.857 -2.0940 -1.2643  1.6478
   16CHTO   N10 6556   6.298   4.882   2.670 -0.3437 -0.1082  0.2714
   16CHTO  H106 6557   6.396   4.916   2.700 -0.3838  0.0776  0.1909
   16CHTO  H107 6558   6.228   4.961   2.692  0.4367 -0.4509  4.4588
   16CHTO   C58 6559   6.298   4.631   2.691  1.0633 -0.3466  0.2705
   16CHTO  H115 6560   6.252   4.624   2.590 -0.3386  0.0227  0.8587
   16CHTO   O37 6561   6.265   4.516   2.763  0.1269 -0.1748 -0.3820
   16CHTO   C59 6562   6.122   4.496   2.765  0.3838  0.1013 -0.3850
   16CHTO  H116 6563   6.087   4.487   2.663  1.4295  0.2476 -0.7660
   16CHTO   C70 6564   6.096   4.374   2.846  0.2297  0.1798 -0.0715
   16CHTO   O46 6565   6.154   4.260   2.783  0.1500 -0.2332 -0.0924
   16CHTO  H103 6566   6.112   4.236   2.703 -0.2263 -0.0189  0.0402
   16CHTO   O39 6567   6.449   4.607   2.681 -0.6617  0.3172  0.3080
   16CHTO   C60 6568   6.494   4.523   2.575 -0.2517  0.7085 -0.4133
   16CHTO  H117 6569   6.409   4.481   2.522  2.0994 -0.4428 -3.4292
   16CHTO   C62 6570   6.571   4.603   2.465  0.0470 -0.3588 -0.7514
   16CHTO  H119 6571   6.495   4.671   2.421 -1.5684 -0.7171  1.4076
   16CHTO   O43 6572   6.663   4.689   2.537 -0.3231 -0.0458 -0.1214
   16CHTO  H101 6573   6.664   4.775   2.500 -0.7957 -0.0147 -0.0607
   16CHTO   C66 6574   6.630   4.515   2.349 -0.5428 -1.1494 -1.1793
   16CHTO  H123 6575   6.546   4.464   2.300 -1.8993  0.2215 -0.3342
   16CHTO   N12 6576   6.701   4.587   2.236  0.5306 -0.0183  0.0014
   16CHTO  H110 6577   6.801   4.611   2.270  0.7760 -1.1712  0.1285
   16CHTO  H111 6578   6.637   4.670   2.209 -1.4456 -0.6448  2.5614
   16CHTO   C69 6579   6.718   4.404   2.417 -0.8138  0.0565 -0.6699
   16CHTO  H126 6580   6.804   4.452   2.468 -1.6759  0.9995 -0.0896
   16CHTO   O41 6581   6.635   4.317   2.499 -0.9126 -0.2020  0.1413
   16CHTO   C64 6582   6.579   4.403   2.619  0.5632  0.4410  0.1280
   16CHTO  H121 6583   6.661   4.440   2.684  1.1276  3.0879 -2.0075
   16CHTO   C71 6584   6.496   4.306   2.703  0.0424 -0.2042 -0.3677
   16CHTO   O47 6585   6.567   4.188   2.743  0.1538  0.2281  0.0765
   16CHTO  H104 6586   6.615   4.157   2.668 -0.2897 -1.9560  0.6459
   16CHTO   O34 6587   6.793   4.305   2.310 -0.3473  0.0406  0.0300
   16CHTO   C49 6588   6.907   4.215   2.313  0.1785 -1.6335 -0.4150
   16CHTO   H91 6589   6.993   4.257   2.262 -1.2063  2.9797  0.8023
   16CHTO   C47 6590   6.870   4.085   2.238 -0.1542 -0.0291 -0.0553
   16CHTO   H89 6591   6.966   4.028   2.238  1.1083  2.0145 -0.8235
   16CHTO   O33 6592   6.841   4.127   2.106 -0.2456 -0.4790  0.8370
   16CHTO   H70 6593   6.868   4.066   2.040 -0.5445  1.2372 -0.9224
   16CHTO   C45 6594   6.757   4.001   2.316  0.7168 -0.6598  0.0118
   16CHTO   H87 6595   6.674   4.073   2.323  0.6455 -0.3347 -3.5728
   16CHTO    N8 6596   6.712   3.887   2.243 -0.6273  0.2587  0.0062
   16CHTO   H75 6597   6.630   3.834   2.290 -1.5754  1.0702 -0.6914
   16CHTO   H76 6598   6.797   3.820   2.237 -2.8271 -2.6986  0.6241
   16CHTO   C43 6599   6.808   3.975   2.465 -0.4680 -0.0776 -0.6463
   16CHTO   H85 6600   6.723   3.930   2.518  0.8268 -0.7032  0.9471
   16CHTO   O29 6601   6.850   4.099   2.525 -0.3811  0.0164  0.3549
   16CHTO   C50 6602   6.947   4.182   2.462  1.1587 -0.1108  0.1492
   16CHTO   H92 6603   6.950   4.274   2.522 -2.4302 -0.5530  1.0984
   16CHTO   C54 6604   7.093   4.131   2.461  0.5847 -0.1350  0.4428
   16CHTO   O36 6605   7.167   4.180   2.568 -0.0797  0.6797  0.2115
   16CHTO   H72 6606   7.244   4.127   2.584  0.6976  1.8635  0.5051
   16CHTO   O27 6607   6.905   3.875   2.469  0.4257  0.5512 -0.1788
   16CHTO   C37 6608   6.936   3.781   2.579 -0.6923 -0.7879  0.5072
   16CHTO   H79 6609   6.985   3.831   2.664 -1.3713  0.2952  0.2728
   16CHTO   C38 6610   6.820   3.703   2.634  0.4408 -0.4001  0.2843
   16CHTO   H80 6611   6.762   3.657   2.553 -0.8844  0.5022  0.7141
   16CHTO   O31 6612   6.730   3.794   2.708  0.2078  0.1914  0.5762
   16CHTO   H68 6613   6.644   3.759   2.695  1.4300 -2.0579 -2.0658
   16CHTO   C39 6614   6.877   3.590   2.737  0.3244  0.6586 -0.1553
   16CHTO   H81 6615   6.918   3.639   2.826  1.9603 -2.9632  1.1744
   16CHTO    N7 6616   6.769   3.503   2.784  0.1752 -0.0579  0.8171
   16CHTO   H73 6617   6.679   3.560   2.800  1.0371  2.1342 -1.6817
   16CHTO   H74 6618   6.749   3.416   2.724 -0.9183  2.0387 -1.9847
   16CHTO   C40 6619   7.008   3.508   2.690  0.1802 -0.3829  0.4625
   16CHTO   H82 6620   6.981   3.418   2.634 -0.1184  1.4301 -2.3804
   16CHTO   O26 6621   7.096   3.592   2.614  0.3569 -0.2953  0.0027
   16CHTO   C41 6622   7.044   3.683   2.513 -0.2254  0.0915 -0.3350
   16CHTO   H83 6623   6.995   3.628   2.431 -1.8924  0.8621  0.1326
   16CHTO   C52 6624   7.175   3.755   2.456  0.0057 -0.3907  0.2769
   16CHTO   O35 6625   7.274   3.657   2.379  0.2394 -0.5632  0.4188
   16CHTO   H71 6626   7.358   3.696   2.369  0.1486 -0.4077  0.2694
   16CHTO   O28 6627   7.091   3.455   2.798 -0.1361  0.1663  0.1841
   16CHTO   C42 6628   7.124   3.308   2.822 -0.4563  0.2488 -0.0349
   16CHTO   H84 6629   7.225   3.312   2.864 -0.2886 -2.2822 -0.0845
   16CHTO   C44 6630   7.139   3.228   2.691 -0.3025  0.6613  0.5204
   16CHTO   H86 6631   7.039   3.211   2.650  0.2464 -0.6665 -0.3227
   16CHTO   O32 6632   7.222   3.315   2.605 -1.0248 -0.0707 -0.0048
   16CHTO   H69 6633   7.178   3.386   2.563 -1.7764 -0.9028 -0.6384
   16CHTO   C48 6634   7.204   3.082   2.721  0.4641 -0.3249  0.3754
   16CHTO   H90 6635   7.298   3.089   2.776 -0.1232  0.1580  1.3368
   16CHTO    N9 6636   7.232   3.004   2.593  0.0132  0.5599 -0.2914
   16CHTO   H77 6637   7.340   3.002   2.583  0.1685  3.3625  0.2553
   16CHTO   H78 6638   7.189   3.047   2.504 -0.1001 -0.9897 -1.0008
   16CHTO   C51 6639   7.109   3.019   2.833 -0.3768  0.0683  0.1587
   16CHTO   H93 6640   7.010   3.010   2.788  0.2012  0.2484 -1.1588
   16CHTO   O30 6641   7.109   3.098   2.950 -0.2853 -0.1193  0.8946
   16CHTO   C46 6642   7.042   3.244   2.928  0.1787 -0.2948  0.0451
   16CHTO   H88 6643   6.945   3.226   2.883 -0.4038  2.3812  0.1513
   16CHTO   C53 6644   7.047   3.309   3.074  0.5619  0.3831  0.3701
   16CHTO   O72 6645   7.181   3.314   3.121 -0.1897  0.1753 -0.2790
   16CHTO  H199 6646   7.182   3.355   3.206 -1.3100 -1.2350  0.4483
   16CHTO   O22 6647   7.150   2.893   2.878  0.0980 -1.0109  0.3492
   16CHTO   C31 6648   7.064   2.802   2.955  0.8460  0.2452  0.5224
   16CHTO   H59 6649   7.124   2.711   2.979 -1.8125 -1.7590 -0.1342
   16CHTO   C29 6650   7.009   2.850   3.084  0.0535 -0.5533 -0.5540
   16CHTO   H57 6651   6.966   2.949   3.060  1.6001  0.2002 -0.2845
   16CHTO   O21 6652   7.114   2.877   3.178 -0.2643  0.1119  0.2272
   16CHTO   H37 6653   7.157   2.801   3.210 -0.0051  0.7897  1.5443
   16CHTO   C27 6654   6.889   2.772   3.145 -0.3166  0.5012  0.2512
   16CHTO   H55 6655   6.926   2.674   3.181 -1.3468 -0.1027 -0.2917
   16CHTO    N5 6656   6.825   2.845   3.260 -0.0426 -0.0339  0.1173
   16CHTO   H43 6657   6.811   2.781   3.345  0.7022  1.8447  1.7100
   16CHTO   H44 6658   6.737   2.893   3.219  0.3576 -0.9250 -1.8703
   16CHTO   C25 6659   6.780   2.738   3.036  1.1116 -0.9055  0.5920
   16CHTO   H53 6660   6.757   2.838   2.996 -2.1561 -1.0048  2.0794
   16CHTO   O17 6661   6.849   2.666   2.931 -0.3317  0.5379 -0.8329
   16CHTO   C32 6662   6.948   2.748   2.862  0.0956 -0.0576  0.1706
   16CHTO   H60 6663   6.895   2.828   2.810 -0.0266  1.2363  2.2470
   16CHTO   C36 6664   7.011   2.654   2.754 -0.4101  0.5966  0.0290
   16CHTO   O25 6665   7.090   2.728   2.665  0.1504 -0.1253  0.1126
   16CHTO   H40 6666   7.089   2.672   2.590  1.0468  1.5614 -1.2007
   16CHTO   O15 6667   6.662   2.649   3.089 -0.2045 -0.1431  0.3479
   16CHTO   C19 6668   6.528   2.623   3.127 -0.2941 -0.5569 -0.2116
   16CHTO   H47 6669   6.491   2.720   3.164  0.2485 -0.6475  0.5693
   16CHTO   C20 6670   6.434   2.587   3.012  0.8297  0.2062  0.3571
   16CHTO   H48 6671   6.461   2.494   2.962  0.2818  0.8259 -1.1298
   16CHTO   O19 6672   6.442   2.688   2.913  0.4464  0.0997 -0.1768
   16CHTO   H35 6673   6.409   2.770   2.944  1.1055  0.3590 -0.1594
   16CHTO   C21 6674   6.279   2.569   3.051 -0.1205 -0.1346 -0.0869
   16CHTO   H49 6675   6.238   2.668   3.072 -0.1215 -0.1702  0.0722
   16CHTO    N4 6676   6.196   2.509   2.944 -0.9489 -0.4091  0.9387
   16CHTO   H41 6677   6.096   2.548   2.946 -2.0330 -3.0051 -0.2484
   16CHTO   H42 6678   6.196   2.402   2.962 -1.2220 -0.5845 -0.0737
   16CHTO   C22 6679   6.278   2.476   3.175 -0.3090  0.1464  0.6889
   16CHTO   H50 6680   6.308   2.375   3.151 -1.3846 -0.4146  1.6097
   16CHTO   O14 6681   6.364   2.540   3.279 -0.1043  0.1575 -0.5608
   16CHTO   C23 6682   6.505   2.522   3.240  0.4470  0.8966 -0.3899
   16CHTO   H51 6683   6.525   2.419   3.206 -0.8553  0.1736  0.9528
   16CHTO   C34 6684   6.583   2.565   3.366 -0.2869  0.0039  0.3250
   16CHTO   O23 6685   6.536   2.693   3.420 -0.2235 -0.3618 -0.2100
   16CHTO   H38 6686   6.568   2.714   3.506 -0.1125 -0.1396 -0.3062
   16CHTO   O16 6687   6.153   2.462   3.238 -0.3264  0.3042  0.2941
   16CHTO   C24 6688   6.158   2.384   3.384 -0.0385  0.5571  0.1680
   16CHTO   H52 6689   6.261   2.368   3.418  0.7761 -0.1665 -2.5307
   16CHTO   C26 6690   6.083   2.254   3.362 -0.0577  0.5288 -0.0351
   16CHTO   H54 6691   5.985   2.271   3.312 -0.9839 -0.6752  1.3404
   16CHTO   O20 6692   6.159   2.181   3.269  0.2897 -0.2612  0.4206
   16CHTO   H36 6693   6.132   2.091   3.261  2.5694 -0.8780 -0.6052
   16CHTO   C30 6694   6.067   2.181   3.500  0.0496 -0.2101 -0.0316
   16CHTO   H58 6695   6.168   2.145   3.523  0.4136  0.5171 -0.4674
   16CHTO    N6 6696   5.967   2.071   3.492 -0.1020  0.3361  0.3145
   16CHTO   H45 6697   5.967   2.043   3.388  1.0876 -2.5042  1.0377
   16CHTO   H46 6698   6.004   1.991   3.555  0.3601  0.6529  0.4533
   16CHTO   C33 6699   6.017   2.269   3.620  0.4223 -0.3995 -0.4895
   16CHTO   H61 6700   5.910   2.295   3.611 -0.2148 -1.6917  2.7612
   16CHTO   O18 6701   6.082   2.394   3.614  0.1207  0.2039 -0.2019
   16CHTO   C28 6702   6.088   2.469   3.493  0.1349 -0.2576 -0.5594
   16CHTO   H56 6703   5.992   2.503   3.456 -0.1119 -0.8608 -0.4697
   16CHTO   C35 6704   6.168   2.593   3.525  0.2106  0.3093 -0.0481
   16CHTO   O24 6705   6.096   2.666   3.625 -0.5702 -0.3418 -0.5079
   16CHTO   H39 6706   6.041   2.604   3.668  0.4621 -0.1719  1.1040
   16CHTO    O9 6707   6.032   2.207   3.748 -0.1899  0.2334  0.5426
   16CHTO   C13 6708   5.971   2.267   3.880  0.2030 -0.2359 -0.3223
   16CHTO   H26 6709   5.925   2.366   3.859 -2.5123 -1.0886  1.3811
   16CHTO   C11 6710   6.091   2.286   3.981 -0.1693  0.3899  0.0957
   16CHTO   H24 6711   6.159   2.363   3.940  0.4700  1.3092  2.7806
   16CHTO    O8 6712   6.161   2.165   3.999 -0.5156 -0.2400  0.4638
   16CHTO    H3 6713   6.157   2.143   4.090 -0.7302 -0.3867  0.4193
   16CHTO    C9 6714   6.033   2.336   4.113 -0.1037 -0.0535 -0.5673
   16CHTO   H22 6715   5.962   2.418   4.089 -0.6851 -0.0601  1.0918
   16CHTO    N2 6716   6.130   2.400   4.207 -0.2760 -0.4846 -0.1202
   16CHTO   H10 6717   6.160   2.489   4.154 -1.4423 -0.7147 -1.2196
   16CHTO   H11 6718   6.220   2.342   4.216 -0.2188 -0.3921 -0.1066
   16CHTO    C7 6719   5.941   2.217   4.174 -0.4377  0.9133  0.7537
   16CHTO   H20 6720   5.870   2.280   4.232 -1.2627 -0.4912  1.3228
   16CHTO    O4 6721   5.885   2.125   4.075 -0.2357  0.0675  0.2094
   16CHTO   C14 6722   5.854   2.176   3.944  0.0484 -0.5720 -0.1714
   16CHTO   H27 6723   5.757   2.229   3.957  0.9385  0.8246  0.9516
   16CHTO   C18 6724   5.824   2.051   3.868 -0.2329 -0.2446 -0.5058
   16CHTO   O13 6725   5.751   2.078   3.747 -0.5829 -0.5891 -0.6776
   16CHTO    H7 6726   5.707   1.999   3.723 -2.5634 -0.1197  1.2362
   16CHTO    O2 6727   6.026   2.134   4.281  0.7591 -0.3425 -0.0437
   16CHTO    C1 6728   5.951   2.045   4.364 -0.5066  0.8631 -0.2783
   16CHTO   H14 6729   5.846   2.042   4.329  0.1178 -1.8043 -2.0973
   16CHTO    C2 6730   5.958   2.087   4.514 -0.1729  0.1068  0.5133
   16CHTO   H15 6731   6.062   2.097   4.546  0.6610  1.8069 -2.5023
   16CHTO    O6 6732   5.879   2.209   4.533 -0.1657 -0.0396  0.4872
   16CHTO    H1 6733   5.942   2.272   4.563  2.2897 -1.7506 -0.9127
   16CHTO    C3 6734   5.899   1.967   4.602 -0.1279  0.0113  0.7381
   16CHTO   H16 6735   5.790   1.961   4.604 -0.0919 -0.5699  1.3201
   16CHTO    N1 6736   5.939   2.001   4.744  0.3031 -0.0248  0.5094
   16CHTO    H8 6737   5.877   2.085   4.772 -0.9462  0.1587 -2.6207
   16CHTO    H9 6738   5.914   1.919   4.809 -1.4763 -0.5473 -0.7881
   16CHTO    C4 6739   5.962   1.820   4.571 -0.2184 -0.6448  0.3251
   16CHTO   H17 6740   6.069   1.819   4.594 -0.0364 -0.8480 -0.5202
   16CHTO    O1 6741   5.956   1.798   4.426 -0.8147 -0.2709 -0.1087
   16CHTO    C5 6742   6.017   1.897   4.341 -0.6357  0.3486  0.3237
   16CHTO   H18 6743   6.123   1.904   4.368 -0.6749  1.5216  0.1983
   16CHTO   C16 6744   6.001   1.851   4.195 -0.3337 -0.1168  0.4919
   16CHTO   O11 6745   6.069   1.728   4.183 -0.5438  0.1960 -0.9396
   16CHTO    H5 6746   6.102   1.703   4.099  2.3733 -1.6544  0.6649
   16CHTO    O3 6747   5.895   1.709   4.632 -0.0128 -0.3528 -0.1287
   16CHTO    C6 6748   5.965   1.601   4.685  0.3997  0.5297  0.1012
   16CHTO   H19 6749   6.062   1.589   4.637 -0.5554 -1.6674 -1.3763
   16CHTO    C8 6750   5.990   1.614   4.833 -0.9539  0.8513  0.0591
   16CHTO   H21 6751   5.895   1.635   4.881 -0.6523 -0.4147  1.2571
   16CHTO    O7 6752   6.087   1.724   4.849  0.1287  0.1551  0.0560
   16CHTO    H2 6753   6.043   1.805   4.867 -0.9239 -1.0029  3.0905
   16CHTO   C12 6754   6.040   1.476   4.894 -0.7217  0.8577 -0.2355
   16CHTO   H25 6755   6.139   1.455   4.849 -1.3096 -1.0878 -0.6389
   16CHTO    N3 6756   6.063   1.492   5.041  0.4725 -0.0778 -0.0408
   16CHTO   H12 6757   6.151   1.440   5.077  0.5950  0.8298  0.9705
   16CHTO   H13 6758   5.978   1.474   5.104  0.4557 -0.5507 -0.1909
   16CHTO   C15 6759   5.946   1.354   4.858 -0.3888 -0.4899 -0.6438
   16CHTO   H28 6760   5.846   1.375   4.895 -0.2104 -0.6513 -0.0687
   16CHTO   O10 6761   5.996   1.204   4.887  0.4560 -0.6595 -0.3038
   16CHTO    H4 6762   6.071   1.175   4.838  0.2166 -0.7070 -0.6443
   16CHTO    O5 6763   5.943   1.357   4.710 -0.5566  0.3946  0.4964
   16CHTO   C10 6764   5.883   1.470   4.652  0.2852 -0.6396 -0.1226
   16CHTO   H23 6765   5.784   1.484   4.695  1.0069 -0.4800  1.4937
   16CHTO   C17 6766   5.862   1.451   4.502  0.0421 -0.2349  0.1121
   16CHTO   O12 6767   5.770   1.545   4.441 -0.0361  0.3540 -0.1284
   16CHTO    H6 6768   5.801   1.632   4.456  1.3883 -0.5410  2.3870
   17CHTO  H203 6769   6.178   4.375   5.025  1.4690  0.1249  0.0297
   17CHTO   O82 6770   6.192   4.442   4.961  0.4528  0.1964 -0.1229
   17CHTO  C123 6771   6.142   4.570   4.990  0.1526  0.1696 -0.4910
   17CHTO  H227 6772   6.062   4.561   5.064  0.6988  0.8175  0.1819
   17CHTO   O77 6773   6.252   4.636   5.056 -0.3692  0.2734 -0.2205
   17CHTO  C118 6774   6.218   4.769   5.098  0.5311 -0.1808 -0.6610
   17CHTO  H222 6775   6.128   4.769   5.162  0.9403  0.1474 -0.0800
   17CHTO  C125 6776   6.334   4.816   5.183 -0.3332  0.0390 -0.3423
   17CHTO   O84 6777   6.339   4.734   5.303  0.3638 -0.0505  0.2046
   17CHTO  H205 6778   6.252   4.735   5.339 -0.1219  2.0845 -0.9285
   17CHTO  C114 6779   6.191   4.863   4.981  0.2610 -0.3932 -0.1255
   17CHTO  H218 6780   6.284   4.875   4.927 -0.2391 -0.3493 -0.9824
   17CHTO  C116 6781   6.078   4.798   4.891  0.8397  0.1324 -0.4713
   17CHTO  H220 6782   5.975   4.811   4.930  0.5255 -0.7233 -1.0069
   17CHTO   O79 6783   6.068   4.868   4.767  0.4867 -0.4435  0.4436
   17CHTO  H201 6784   6.020   4.947   4.785  0.9420 -0.3564  1.2798
   17CHTO  C120 6785   6.097   4.643   4.858  0.1707 -0.3196 -0.3420
   17CHTO  H224 6786   6.179   4.629   4.784  0.1224  0.8487 -0.6303
   17CHTO   N21 6787   5.980   4.575   4.795 -0.1161  0.1529  0.2453
   17CHTO  H211 6788   5.883   4.619   4.809  0.3311  1.4885 -0.6740
   17CHTO  H212 6789   5.999   4.569   4.689  0.5558  3.3155  0.1192
   17CHTO   O75 6790   6.155   4.983   5.039  0.4155  0.2359  0.3652
   17CHTO  C112 6791   6.141   5.120   4.937  0.0979 -0.4210  0.1962
   17CHTO  H216 6792   6.083   5.100   4.846  0.7916 -1.7880  0.0445
   17CHTO   O73 6793   6.272   5.160   4.904 -0.2031 -0.2787  0.2151
   17CHTO  C113 6794   6.298   5.289   4.845  0.8773  0.4607  0.4390
   17CHTO  H217 6795   6.250   5.280   4.746  2.1103  0.9757 -0.2227
   17CHTO  C124 6796   6.447   5.305   4.825 -0.3853 -0.4029  0.8118
   17CHTO   O83 6797   6.499   5.218   4.722  0.0316 -0.7218  0.2904
   17CHTO  H204 6798   6.488   5.127   4.741  0.1895 -1.0358 -1.0958
   17CHTO  C109 6799   6.248   5.404   4.929  0.1120 -0.1200 -0.4105
   17CHTO  H213 6800   6.309   5.404   5.021  1.8051 -0.7533 -1.5138
   17CHTO  C110 6801   6.092   5.381   4.954 -0.0176 -0.3799 -0.6589
   17CHTO  H214 6802   6.046   5.384   4.856  2.5335 -1.2124 -1.9231
   17CHTO   O78 6803   6.053   5.482   5.048 -0.4497 -0.6080  0.0832
   17CHTO  H200 6804   6.042   5.566   5.008  1.2582 -0.4541 -0.1105
   17CHTO  C111 6805   6.068   5.241   5.018 -0.7722 -0.2891 -0.4834
   17CHTO  H215 6806   6.112   5.247   5.118  2.8668 -1.0554 -1.9457
   17CHTO   N19 6807   5.919   5.213   5.033  0.1210 -0.4386 -0.5377
   17CHTO  H207 6808   5.877   5.193   4.935 -0.7017  3.6291 -1.1147
   17CHTO  H208 6809   5.901   5.124   5.090 -0.2177 -0.4154 -0.6087
   17CHTO   O74 6810   6.267   5.536   4.865  0.0612 -0.1694  0.0645
   17CHTO  C115 6811   6.365   5.639   4.931 -0.2631 -0.9599  0.4757
   17CHTO  H219 6812   6.425   5.595   5.009 -0.6164 -0.4360  1.0525
   17CHTO   O76 6813   6.463   5.681   4.845 -0.1094 -0.1462 -0.3161
   17CHTO  C122 6814   6.427   5.744   4.727 -0.1741 -0.1105 -0.1455
   17CHTO  H226 6815   6.366   5.669   4.676  2.5562 -1.0053 -2.2077
   17CHTO  C126 6816   6.547   5.770   4.634  0.1605  0.1764 -0.8320
   17CHTO   O85 6817   6.514   5.846   4.523  0.1067  0.0146  0.4946
   17CHTO  H206 6818   6.560   5.926   4.541  0.5014  0.1052 -0.8651
   17CHTO  C121 6819   6.347   5.880   4.763 -0.2382 -0.8991  0.3885
   17CHTO  H225 6820   6.398   5.969   4.720  1.5336 -2.1342 -0.1064
   17CHTO   O81 6821   6.210   5.877   4.712 -0.5886  0.1405 -0.3471
   17CHTO  H202 6822   6.193   5.938   4.643 -4.2894  0.9562  1.1299
   17CHTO  C119 6823   6.331   5.892   4.917 -0.4153 -0.5387  0.1125
   17CHTO  H223 6824   6.432   5.919   4.951  0.0168 -1.7105 -0.1960
   17CHTO  C117 6825   6.278   5.757   4.984  0.0534  0.2377  1.1357
   17CHTO  H221 6826   6.175   5.734   4.957  0.5878 -1.3828  0.3842
   17CHTO   N20 6827   6.279   5.767   5.135  0.2485 -0.2186  0.2649
   17CHTO  H209 6828   6.193   5.765   5.201 -0.6184 -0.8154 -0.8586
   17CHTO  H210 6829   6.357   5.835   5.164  0.5435 -1.1526  1.7177
   17CHTO   O80 6830   6.241   6.027   4.966  0.1440 -0.0559 -0.0949
   17CHTO  C103 6831   6.301   6.134   5.049 -0.6001  0.3682 -0.0225
   17CHTO  H190 6832   6.367   6.095   5.127 -1.2566 -1.9431 -0.5675
   17CHTO  C101 6833   6.374   6.254   4.963 -0.6374  0.2267  0.3292
   17CHTO  H188 6834   6.306   6.301   4.893  0.4429 -1.5390 -1.9498
   17CHTO   O68 6835   6.479   6.186   4.864 -0.0178  0.3145 -0.4004
   17CHTO  H168 6836   6.516   6.255   4.813 -0.8848  1.1884  0.1263
   17CHTO   C99 6837   6.415   6.379   5.070 -0.2582  0.1925  0.1787
   17CHTO  H186 6838   6.489   6.348   5.146  0.8161 -0.2347 -1.0285
   17CHTO   N17 6839   6.481   6.492   4.997 -0.1338 -0.5054  0.5249
   17CHTO  H174 6840   6.581   6.464   4.968  0.0702  2.2211 -1.6344
   17CHTO  H175 6841   6.480   6.585   5.052 -0.2830  0.8728 -1.7497
   17CHTO   C97 6842   6.285   6.411   5.149  0.0619 -0.9926  0.7759
   17CHTO  H184 6843   6.213   6.457   5.080  1.5770  0.5323  0.1897
   17CHTO   O64 6844   6.233   6.296   5.217  0.5610  0.0524 -0.2525
   17CHTO  C104 6845   6.182   6.207   5.124 -0.2835  0.1217  0.6477
   17CHTO  H191 6846   6.113   6.254   5.053  0.6757 -1.0307 -1.0779
   17CHTO  C108 6847   6.098   6.097   5.189  0.5081 -0.1016 -0.0918
   17CHTO   O71 6848   5.977   6.140   5.254 -0.2896  0.4987  0.9770
   17CHTO  H171 6849   5.996   6.194   5.328  0.1325  0.1172  1.1544
   17CHTO   O62 6850   6.307   6.507   5.262  0.3442 -0.7683  0.1898
   17CHTO   C91 6851   6.193   6.574   5.325  0.2693  0.2070  0.1532
   17CHTO  H178 6852   6.104   6.520   5.292 -0.4978  0.3706  1.8966
   17CHTO   C92 6853   6.199   6.722   5.267  0.1425  0.0415  0.0084
   17CHTO  H179 6854   6.200   6.715   5.157 -2.4328  0.0117 -0.0645
   17CHTO   O66 6855   6.070   6.778   5.306 -0.0568 -0.1584  0.8168
   17CHTO  H166 6856   6.037   6.824   5.231  1.0569 -0.8849 -0.1383
   17CHTO   C93 6857   6.308   6.823   5.329  0.0058  0.9501  0.1694
   17CHTO  H180 6858   6.264   6.922   5.349  0.3782  0.8454  1.5445
   17CHTO   N16 6859   6.417   6.838   5.227 -0.3177  0.1550  0.3476
   17CHTO  H172 6860   6.463   6.744   5.199 -1.4729 -0.1541 -0.5384
   17CHTO  H173 6861   6.490   6.911   5.260 -0.0085 -0.0345  0.0951
   17CHTO   C94 6862   6.354   6.758   5.466  0.0229 -0.0126  0.3672
   17CHTO  H181 6863   6.431   6.682   5.452  1.1113  1.4151 -1.4623
   17CHTO   O61 6864   6.241   6.695   5.529 -0.0746  0.4474 -0.0397
   17CHTO   C95 6865   6.200   6.565   5.480 -0.2854 -0.5522  0.0018
   17CHTO  H182 6866   6.270   6.489   5.513 -0.9446 -1.1539  0.0263
   17CHTO  C106 6867   6.062   6.519   5.552 -0.1355  0.2450 -0.1865
   17CHTO   O69 6868   6.089   6.490   5.690  0.8328  0.1621 -0.2715
   17CHTO  H169 6869   6.138   6.560   5.728  0.7112 -0.1382  0.4464
   17CHTO   O63 6870   6.414   6.871   5.557  0.7901  0.4120 -0.5710
   17CHTO   C96 6871   6.315   6.950   5.644 -0.0038 -0.6560  0.2884
   17CHTO  H183 6872   6.218   6.900   5.643  0.2015 -1.0308 -0.7778
   17CHTO   C98 6873   6.298   7.102   5.609 -0.3146 -0.6717 -0.2907
   17CHTO  H185 6874   6.397   7.150   5.605 -0.6606 -0.1139 -2.5589
   17CHTO   O67 6875   6.248   7.116   5.475  0.0072  0.1206 -0.5675
   17CHTO  H167 6876   6.247   7.035   5.428  0.0959 -0.3673  0.2571
   17CHTO  C102 6877   6.210   7.175   5.723  0.0228 -0.8799 -1.0581
   17CHTO  H189 6878   6.106   7.144   5.705  0.2650 -0.8938 -2.5400
   17CHTO   N18 6879   6.215   7.322   5.703  0.5424 -0.7398 -0.4340
   17CHTO  H176 6880   6.318   7.355   5.703  0.3990 -0.2667  1.1458
   17CHTO  H177 6881   6.144   7.364   5.633  0.1470  1.7861  1.4057
   17CHTO  C105 6882   6.252   7.134   5.869  0.1047 -0.0905 -0.4795
   17CHTO  H192 6883   6.331   7.201   5.902  0.9940 -1.0699 -0.5747
   17CHTO   O65 6884   6.285   6.999   5.892  0.4930  0.4512  0.6031
   17CHTO  C100 6885   6.364   6.932   5.797 -0.2638  0.4843 -0.3136
   17CHTO  H187 6886   6.465   6.976   5.800 -0.4683  0.9730 -0.5509
   17CHTO  C107 6887   6.379   6.786   5.848 -0.6255 -0.7915  0.4611
   17CHTO   O70 6888   6.483   6.710   5.778 -0.0243 -0.2974 -0.0508
   17CHTO  H170 6889   6.473   6.699   5.685 -1.2541 -0.8778  0.1394
   17CHTO   O57 6890   6.127   7.154   5.958  0.2230  0.6192  0.0528
   17CHTO   C85 6891   6.130   7.257   6.056  0.2867 -0.8475 -0.2215
   17CHTO  H157 6892   6.209   7.329   6.028 -0.3017 -0.5009 -1.0429
   17CHTO   C83 6893   6.164   7.197   6.194 -0.1387 -0.3958 -0.3249
   17CHTO  H155 6894   6.258   7.144   6.179  0.1245  0.5862 -2.3405
   17CHTO   O56 6895   6.068   7.096   6.227 -0.1904  0.2279  0.2261
   17CHTO  H135 6896   6.007   7.088   6.156  0.2333 -1.0107 -0.0022
   17CHTO   C81 6897   6.170   7.303   6.306 -1.3102  0.3552 -0.3962
   17CHTO  H153 6898   6.246   7.374   6.274  0.9040 -0.8820  1.9164
   17CHTO   N14 6899   6.224   7.253   6.437 -0.7685  0.4037 -0.2194
   17CHTO  H141 6900   6.315   7.305   6.459 -1.1194  0.3839  1.4086
   17CHTO  H142 6901   6.248   7.149   6.432  1.5709  0.8264  1.4611
   17CHTO   C79 6902   6.030   7.376   6.315  0.6755  0.1894 -0.3408
   17CHTO  H151 6903   6.037   7.455   6.389 -0.2447 -1.2441  1.2949
   17CHTO   O52 6904   6.001   7.438   6.181 -0.1620  0.1583  0.5920
   17CHTO   C86 6905   5.991   7.329   6.078  0.1887  0.0066 -0.0141
   17CHTO  H158 6906   5.911   7.257   6.106  0.2120  0.1626  0.4600
   17CHTO   C90 6907   5.945   7.379   5.940 -0.1156  0.5582  0.2977
   17CHTO   O60 6908   5.805   7.407   5.943  0.2541  0.0516 -0.2544
   17CHTO  H138 6909   5.760   7.331   5.911 -0.4677  0.1847  0.4335
   17CHTO   O50 6910   5.924   7.296   6.367 -0.3233  0.4796  0.1827
   17CHTO   C73 6911   5.809   7.360   6.433  0.5477  0.0331 -0.3510
   17CHTO  H145 6912   5.799   7.461   6.390  2.6235 -0.6673 -2.6418
   17CHTO   C74 6913   5.833   7.369   6.587 -0.3507  0.0407  0.2627
   17CHTO  H146 6914   5.924   7.430   6.605 -0.1708  0.6707 -2.5717
   17CHTO   O54 6915   5.719   7.442   6.641 -0.1978  0.3930 -0.0952
   17CHTO  H133 6916   5.641   7.390   6.642 -0.7865  1.2713 -0.1775
   17CHTO   C75 6917   5.853   7.224   6.644 -0.2985 -0.4621  0.4889
   17CHTO  H147 6918   5.952   7.192   6.610 -1.0166 -0.9854 -1.1696
   17CHTO   N13 6919   5.882   7.211   6.786  0.2068  0.2881 -0.2287
   17CHTO  H139 6920   5.953   7.274   6.838  0.7922 -1.0912  0.6776
   17CHTO  H140 6921   5.879   7.114   6.832 -1.7012  0.5408  0.1881
   17CHTO   C76 6922   5.741   7.125   6.594  0.1538  0.5678 -0.0306
   17CHTO  H148 6923   5.648   7.132   6.650  1.1104 -0.0801  1.6624
   17CHTO   O49 6924   5.707   7.146   6.447 -0.0292 -0.0717  0.0685
   17CHTO   C77 6925   5.685   7.280   6.412  0.5466 -0.3446 -0.0440
   17CHTO  H149 6926   5.599   7.324   6.464  0.3665 -1.7211  0.8629
   17CHTO   C88 6927   5.631   7.282   6.264  0.1875  0.4482  0.2127
   17CHTO   O58 6928   5.641   7.409   6.210 -1.0492 -0.0443  0.0289
   17CHTO  H136 6929   5.709   7.457   6.253 -1.0261  0.9642 -1.1057
   17CHTO   O51 6930   5.806   6.970   6.598 -0.2488 -0.0669 -0.1774
   17CHTO   C78 6931   5.696   6.875   6.548  0.1246  0.4027 -0.2324
   17CHTO  H150 6932   5.601   6.920   6.511 -1.2070 -1.1214  1.2241
   17CHTO   C80 6933   5.663   6.800   6.682  0.4706  0.6984  0.6184
   17CHTO  H152 6934   5.756   6.779   6.739 -0.1908 -1.9668  0.7500
   17CHTO   O55 6935   5.592   6.893   6.767  0.4206 -0.1203 -0.4081
   17CHTO  H134 6936   5.649   6.944   6.822  1.5054 -3.0476  1.3109
   17CHTO   C84 6937   5.575   6.669   6.661  0.0074  0.7613 -0.2064
   17CHTO  H156 6938   5.477   6.708   6.633 -0.1277  1.2686  0.9174
   17CHTO   N15 6939   5.559   6.590   6.788  0.4445 -0.1560  0.8062
   17CHTO  H143 6940   5.657   6.567   6.827  1.1053 -1.1056 -1.3344
   17CHTO  H144 6941   5.504   6.499   6.772 -0.3717  0.4874 -0.0719
   17CHTO   C87 6942   5.628   6.584   6.540 -0.3242  0.9879 -0.2024
   17CHTO  H159 6943   5.709   6.526   6.585 -2.1581 -0.4949  1.2966
   17CHTO   O53 6944   5.657   6.681   6.410 -0.2399  0.2182 -0.5434
   17CHTO   C82 6945   5.755   6.780   6.439 -0.5379 -0.2300  0.2163
   17CHTO  H154 6946   5.849   6.730   6.465  0.4115  1.1745 -0.4979
   17CHTO   C89 6947   5.786   6.867   6.314  1.4060  0.8361  0.1146
   17CHTO   O59 6948   5.682   6.930   6.244 -0.4953  0.3627  0.0273
   17CHTO  H137 6949   5.711   6.960   6.160  2.2097  0.1404  0.8477
   17CHTO   O45 6950   5.515   6.470   6.491  0.4414 -0.1138 -0.3152
   17CHTO   C67 6951   5.574   6.359   6.421 -0.5351  0.1881 -0.0781
   17CHTO  H124 6952   5.671   6.325   6.458  0.1305  0.2157 -1.7582
   17CHTO   C65 6953   5.478   6.239   6.427  0.2674 -0.0159 -0.1331
   17CHTO  H122 6954   5.440   6.231   6.529 -0.0143 -0.2312 -0.2531
   17CHTO   O44 6955   5.547   6.123   6.381 -0.2266  0.1187 -0.0434
   17CHTO  H102 6956   5.482   6.056   6.377  0.4482 -0.5354 -0.0895
   17CHTO   C63 6957   5.340   6.260   6.359 -0.0737 -0.1324  0.2052
   17CHTO  H120 6958   5.283   6.338   6.408  2.2067  1.7965 -0.1044
   17CHTO   N11 6959   5.235   6.156   6.377  0.5595  0.0680  0.1618
   17CHTO  H108 6960   5.151   6.150   6.311 -1.6831  0.4127  2.8574
   17CHTO  H109 6961   5.214   6.118   6.475  1.1249 -0.1512  0.2005
   17CHTO   C61 6962   5.364   6.304   6.209 -0.5806  0.1741  0.6216
   17CHTO  H118 6963   5.270   6.340   6.165  0.0738  1.2643  0.0873
   17CHTO   O40 6964   5.460   6.411   6.192 -0.0319 -0.2035  0.3087
   17CHTO   C68 6965   5.591   6.399   6.261  0.8383 -0.1457 -0.4140
   17CHTO  H125 6966   5.632   6.501   6.244  2.4529 -0.7550 -0.2511
   17CHTO   C72 6967   5.681   6.304   6.183 -0.2498  0.3939 -0.2520
   17CHTO   O48 6968   5.778   6.239   6.257  0.0230  0.2845  0.2515
   17CHTO  H105 6969   5.856   6.265   6.212 -0.0194 -0.6939 -0.4181
   17CHTO   O38 6970   5.410   6.189   6.138  0.7730 -0.0967 -0.8905
   17CHTO   C55 6971   5.382   6.173   5.996  0.2655  0.2622  0.1285
   17CHTO  H112 6972   5.456   6.101   5.956  1.8959  2.3340 -0.6870
   17CHTO   C56 6973   5.385   6.310   5.912 -0.7733  0.1954  0.2235
   17CHTO  H113 6974   5.323   6.382   5.967  1.1855  3.0289 -1.1632
   17CHTO   O42 6975   5.521   6.354   5.907 -0.3374 -0.0030  0.4368
   17CHTO  H100 6976   5.532   6.412   5.980  0.2676 -0.7844  0.9873
   17CHTO   C57 6977   5.337   6.291   5.758  0.1220  0.3634  0.3957
   17CHTO  H114 6978   5.411   6.230   5.707 -0.6278 -0.8230  0.7098
   17CHTO   N10 6979   5.320   6.408   5.679  0.1063 -0.3135  0.5980
   17CHTO  H106 6980   5.240   6.469   5.718  1.0580  0.0462  2.0383
   17CHTO  H107 6981   5.299   6.382   5.577 -0.6472  0.6582  0.5042
   17CHTO   C58 6982   5.204   6.212   5.764  0.0533  0.7384  0.1150
   17CHTO  H115 6983   5.123   6.275   5.807 -0.6483  0.0020 -0.1085
   17CHTO   O37 6984   5.219   6.086   5.839  0.4514  0.2067 -0.0338
   17CHTO   C59 6985   5.244   6.098   5.979  0.5215  0.3995 -0.2928
   17CHTO  H116 6986   5.167   6.163   6.023  0.4613  0.9200 -1.1576
   17CHTO   C70 6987   5.241   5.954   6.030  0.0599 -0.1319  0.7496
   17CHTO   O46 6988   5.242   5.937   6.167  0.4776  0.3954  0.8371
   17CHTO  H103 6989   5.325   5.923   6.207  0.2940 -2.4457  0.3209
   17CHTO   O39 6990   5.162   6.156   5.615  0.0599 -0.1236 -0.1335
   17CHTO   C60 6991   5.028   6.186   5.572 -0.0962  0.0064  0.1494
   17CHTO  H117 6992   4.988   6.256   5.645  1.8035 -1.3518  2.5512
   17CHTO   C62 6993   5.026   6.260   5.435 -0.1895  0.0848  1.1523
   17CHTO  H119 6994   5.070   6.361   5.445 -0.2858  0.3978 -1.2679
   17CHTO   O43 6995   5.111   6.184   5.344  0.5127  0.4865  0.4336
   17CHTO  H101 6996   5.061   6.119   5.299 -0.3116  0.2736  1.6096
   17CHTO   C66 6997   4.879   6.280   5.387 -0.1259 -0.3059  0.3000
   17CHTO  H123 6998   4.834   6.345   5.461  1.3235 -1.1048  1.9465
   17CHTO   N12 6999   4.859   6.342   5.258 -0.5302  0.2439  0.4025
   17CHTO  H110 7000   4.891   6.445   5.266 -1.7793  0.5012  2.6097
   17CHTO  H111 7001   4.752   6.335   5.243 -0.2876 -0.2840 -1.1661
   17CHTO   C69 7002   4.806   6.145   5.382 -0.4327 -0.0331 -0.2254
   17CHTO  H126 7003   4.841   6.077   5.302 -1.3099 -0.8860  0.0948
   17CHTO   O41 7004   4.818   6.072   5.523  0.2998  0.1611  0.2222
   17CHTO   C64 7005   4.943   6.055   5.578  0.3483  0.5032  0.5082
   17CHTO  H121 7006   5.000   5.974   5.529 -0.0838 -0.6148  1.8434
   17CHTO   C71 7007   4.930   6.002   5.725  0.1310 -0.1739 -0.4202
   17CHTO   O47 7008   4.872   5.872   5.722  0.7517 -0.0125 -0.4184
   17CHTO  H104 7009   4.942   5.812   5.706  1.5965  0.4903  1.3487
   17CHTO   O34 7010   4.643   6.158   5.362 -0.2904  0.1046  0.2799
   17CHTO   C49 7011   4.506   6.258   5.445  0.2882  0.9595 -0.2762
   17CHTO   H91 7012   4.494   6.351   5.389 -0.3008  0.2660 -1.3115
   17CHTO   C47 7013   4.537   6.288   5.593  0.8025  0.1614  0.3874
   17CHTO   H89 7014   4.455   6.359   5.613 -1.4204 -2.4863  0.9628
   17CHTO   O33 7015   4.663   6.353   5.608 -0.3402 -0.0906  0.8158
   17CHTO   H70 7016   4.727   6.322   5.546 -0.9014 -0.5523  0.4589
   17CHTO   C45 7017   4.536   6.155   5.682  0.5043  0.1651 -0.0234
   17CHTO   H87 7018   4.639   6.126   5.709 -0.5037 -2.6655  0.9836
   17CHTO    N8 7019   4.463   6.188   5.811  0.1507 -0.1918 -0.2836
   17CHTO   H75 7020   4.447   6.295   5.806  0.8616 -0.1046 -0.7134
   17CHTO   H76 7021   4.529   6.165   5.893 -2.1345  1.7196  2.1787
   17CHTO   C43 7022   4.476   6.030   5.603 -0.6511 -0.5687 -0.1556
   17CHTO   H85 7023   4.556   6.011   5.531 -0.1492 -0.9815  0.4995
   17CHTO   O29 7024   4.356   6.066   5.543 -0.3199 -0.2076  0.2483
   17CHTO   C50 7025   4.367   6.175   5.437 -0.0550 -0.1349  0.1169
   17CHTO   H92 7026   4.366   6.119   5.343 -2.2112 -1.0475  0.6622
   17CHTO   C54 7027   4.253   6.272   5.437  0.0771 -0.1114  0.3732
   17CHTO   O36 7028   4.124   6.210   5.453 -0.3600 -0.5126  0.4072
   17CHTO   H72 7029   4.059   6.275   5.474  0.7960  1.5923 -2.0863
   17CHTO   O27 7030   4.456   5.909   5.682 -0.2409  0.1311  0.0993
   17CHTO   C37 7031   4.536   5.793   5.721 -0.4703 -0.1827 -0.7161
   17CHTO   H79 7032   4.637   5.830   5.745  0.0536 -1.9197 -0.1606
   17CHTO   C38 7033   4.476   5.714   5.842  0.4564  0.3442 -0.6923
   17CHTO   H80 7034   4.373   5.685   5.817  1.1794 -2.4588 -0.6797
   17CHTO   O31 7035   4.465   5.815   5.954 -0.1790  0.5413  0.5315
   17CHTO   H68 7036   4.546   5.810   6.001  0.0618  0.8261  0.1527
   17CHTO   C39 7037   4.568   5.590   5.887 -0.8134  0.6761 -0.4583
   17CHTO   H81 7038   4.661   5.631   5.926 -1.2682  0.5205  0.8389
   17CHTO    N7 7039   4.524   5.519   6.012  0.0277 -0.2375  0.5669
   17CHTO   H73 7040   4.606   5.490   6.076 -1.3275 -1.7256  1.6444
   17CHTO   H74 7041   4.451   5.575   6.068  0.8379  1.6933 -0.2316
   17CHTO   C40 7042   4.589   5.493   5.756 -0.0088 -0.0266  0.4163
   17CHTO   H82 7043   4.498   5.436   5.737  0.3994 -0.4484 -0.2821
   17CHTO   O26 7044   4.624   5.575   5.645 -0.2826 -0.0785  0.3536
   17CHTO   C41 7045   4.539   5.688   5.605 -0.6149 -0.2554  0.7321
   17CHTO   H83 7046   4.433   5.660   5.593 -0.8641  0.5862  0.9132
   17CHTO   C52 7047   4.607   5.731   5.483  0.0936  0.5438  0.2985
   17CHTO   O35 7048   4.753   5.758   5.501 -0.2249 -0.3109  0.2032
   17CHTO   H71 7049   4.792   5.679   5.469  0.4486  0.1083 -0.0322
   17CHTO   O28 7050   4.691   5.393   5.781  0.2148  0.0842 -0.0719
   17CHTO   C42 7051   4.836   5.401   5.747  0.4662 -0.3778 -0.7636
   17CHTO   H84 7052   4.871   5.308   5.792  0.7884  1.2321  2.4588
   17CHTO   C44 7053   4.915   5.515   5.823  0.5719 -0.2379  0.0578
   17CHTO   H86 7054   4.868   5.608   5.793 -0.0523 -0.8633 -0.9036
   17CHTO   O32 7055   4.896   5.483   5.962  0.1858  0.1088  0.9263
   17CHTO   H69 7056   4.942   5.404   5.981  1.9715  1.0401  0.6135
   17CHTO   C48 7057   5.070   5.538   5.797  1.3043  0.3975 -0.4627
   17CHTO   H90 7058   5.116   5.445   5.829 -2.3708 -1.4925 -0.4551
   17CHTO    N9 7059   5.131   5.649   5.875  0.1368 -0.9844  0.2119
   17CHTO   H77 7060   5.083   5.745   5.856  2.7471  0.5833  1.2946
   17CHTO   H78 7061   5.235   5.657   5.848 -0.4024  2.1068 -1.3021
   17CHTO   C51 7062   5.093   5.548   5.641 -0.4833 -0.1201  0.3832
   17CHTO   H93 7063   5.050   5.639   5.598 -3.1127 -2.3588 -1.8711
   17CHTO   O30 7064   5.035   5.431   5.580  0.2719 -0.0394  0.3451
   17CHTO   C46 7065   4.872   5.407   5.596  0.1211 -0.5392 -0.2346
   17CHTO   H88 7066   4.822   5.491   5.548 -1.4570 -0.6965  1.0757
   17CHTO   C53 7067   4.828   5.278   5.524 -0.3850  0.2770 -0.3114
   17CHTO   O72 7068   4.804   5.304   5.383  0.2471 -0.3384  0.0014
   17CHTO  H199 7069   4.723   5.343   5.355  0.1436 -2.1806 -2.4060
   17CHTO   O22 7070   5.232   5.549   5.605  0.0250 -0.3661 -0.0809
   17CHTO   C31 7071   5.288   5.625   5.491 -0.4413  0.2970 -0.0335
   17CHTO   H59 7072   5.369   5.561   5.450 -1.1944 -0.3308 -0.5495
   17CHTO   C29 7073   5.193   5.657   5.372  0.2161 -0.0048  0.0575
   17CHTO   H57 7074   5.113   5.721   5.412 -0.4333 -1.4585  1.1307
   17CHTO   O21 7075   5.134   5.533   5.339 -0.2623  0.5708 -0.1942
   17CHTO   H37 7076   5.198   5.476   5.302 -0.9458 -0.4560  0.1578
   17CHTO   C27 7077   5.267   5.736   5.255 -0.0209  0.1294  0.0854
   17CHTO   H55 7078   5.351   5.673   5.223  0.2318  0.8338 -0.6632
   17CHTO    N5 7079   5.192   5.763   5.132 -0.3853 -0.3171  0.4394
   17CHTO   H43 7080   5.124   5.686   5.096 -2.7047  1.8896 -0.0601
   17CHTO   H44 7081   5.140   5.857   5.141  1.9661  1.0094  0.2789
   17CHTO   C25 7082   5.347   5.852   5.315 -0.2107 -0.9483 -0.5562
   17CHTO   H53 7083   5.261   5.916   5.341 -0.0494 -0.4080 -1.3261
   17CHTO   O17 7084   5.433   5.817   5.427 -0.0916 -0.0963  0.2703
   17CHTO   C32 7085   5.361   5.758   5.540  0.4046 -0.3893 -0.6357
   17CHTO   H60 7086   5.280   5.825   5.568  1.5253  0.1482  1.3693
   17CHTO   C36 7087   5.474   5.723   5.649 -0.2180 -0.3758 -0.0610
   17CHTO   O25 7088   5.527   5.837   5.722  0.6090  0.1232 -0.4315
   17CHTO   H40 7089   5.565   5.804   5.801  2.0811  2.3273 -0.1869
   17CHTO   O15 7090   5.431   5.937   5.205 -0.3226  0.1049  0.3375
   17CHTO   C19 7091   5.466   6.072   5.168 -0.2575 -0.5142  0.4519
   17CHTO   H47 7092   5.561   6.068   5.112 -1.4021 -1.2654 -1.4846
   17CHTO   C20 7093   5.359   6.130   5.072 -0.5247  0.0396 -0.2740
   17CHTO   H48 7094   5.257   6.107   5.108 -0.3109 -0.3822  0.0612
   17CHTO   O19 7095   5.366   6.063   4.945 -0.4229 -0.1319 -0.1940
   17CHTO   H35 7096   5.336   5.975   4.942 -0.9947  0.1098 -2.6359
   17CHTO   C21 7097   5.378   6.288   5.054 -0.5978 -0.0386 -0.3297
   17CHTO   H49 7098   5.450   6.309   4.976 -0.3091  1.8053  0.4169
   17CHTO    N4 7099   5.255   6.360   4.999 -0.1942  0.0932  0.4127
   17CHTO   H41 7100   5.221   6.313   4.908 -0.7216 -0.6106  0.9623
   17CHTO   H42 7101   5.181   6.352   5.078 -0.8955 -1.3763 -0.3775
   17CHTO   C22 7102   5.441   6.358   5.180 -0.1431  0.6632  0.3633
   17CHTO   H50 7103   5.365   6.380   5.254  0.2887  1.6707  0.5073
   17CHTO   O14 7104   5.550   6.291   5.241  0.6409  0.2170 -0.3309
   17CHTO   C23 7105   5.494   6.167   5.293  0.1437  0.1370  0.5182
   17CHTO   H51 7106   5.401   6.196   5.344 -1.0426  3.4594 -3.3017
   17CHTO   C34 7107   5.612   6.118   5.384  0.7718 -0.0088 -0.4335
   17CHTO   O23 7108   5.648   6.206   5.496  0.6738  0.3256  0.2827
   17CHTO   H38 7109   5.623   6.155   5.571 -1.7719  1.3169  0.2050
   17CHTO   O16 7110   5.490   6.490   5.140 -0.2678 -0.0325 -0.1331
   17CHTO   C24 7111   5.522   6.573   5.270  0.0062  0.0682  0.3055
   17CHTO   H52 7112   5.505   6.516   5.361 -1.8572 -0.8711 -0.6101
   17CHTO   C26 7113   5.434   6.701   5.268 -0.8154  0.2621 -0.1086
   17CHTO   H54 7114   5.436   6.753   5.169 -1.6328  4.1665  1.8363
   17CHTO   O20 7115   5.298   6.659   5.290 -0.0107 -0.0079  0.9098
   17CHTO   H36 7116   5.258   6.622   5.214  0.7457  0.6417  0.1740
   17CHTO   C30 7117   5.474   6.814   5.368  0.7597 -0.5512  0.1345
   17CHTO   H58 7118   5.444   6.783   5.469 -0.4873  0.1236 -0.0238
   17CHTO    N6 7119   5.394   6.939   5.338 -0.4367  0.3838 -0.3350
   17CHTO   H45 7120   5.442   7.031   5.309  2.8096 -0.9020  0.7914
   17CHTO   H46 7121   5.310   6.917   5.273  0.8315 -0.0259 -1.8519
   17CHTO   C33 7122   5.629   6.830   5.372 -0.3203 -0.5376  0.2462
   17CHTO   H61 7123   5.668   6.876   5.281  3.5417 -1.3797  1.3796
   17CHTO   O18 7124   5.692   6.705   5.379  0.3579  0.3853  0.6510
   17CHTO   C28 7125   5.667   6.616   5.270  0.6149 -0.0217 -0.5156
   17CHTO   H56 7126   5.690   6.669   5.177  1.0534 -1.1854 -1.0761
   17CHTO   C35 7127   5.771   6.507   5.296  0.3430  0.2126  0.4125
   17CHTO   O24 7128   5.786   6.417   5.183 -0.0488  0.1691 -0.1768
   17CHTO   H39 7129   5.713   6.358   5.179  0.8349 -0.9474 -0.1051
   17CHTO    O9 7130   5.663   6.916   5.481 -0.5778 -0.8320  0.4636
   17CHTO   C13 7131   5.826   6.920   5.511  0.1713 -0.0010 -0.3550
   17CHTO   H26 7132   5.885   6.888   5.423  0.2374 -0.1817 -0.2446
   17CHTO   C11 7133   5.873   6.836   5.644  0.3588  0.5965 -0.1953
   17CHTO   H24 7134   5.969   6.790   5.615  0.3237  0.2365  0.2521
   17CHTO    O8 7135   5.763   6.735   5.669  0.0717 -0.0695  0.1896
   17CHTO    H3 7136   5.763   6.663   5.610  0.9522 -1.8378  2.2731
   17CHTO    C9 7137   5.904   6.926   5.765 -0.0652  0.0139 -0.1055
   17CHTO   H22 7138   6.000   6.975   5.747  0.7301 -1.5924 -0.2995
   17CHTO    N2 7139   5.936   6.840   5.882  0.0429  0.7440 -1.1370
   17CHTO   H10 7140   5.849   6.793   5.927  2.0112 -2.3756 -0.4563
   17CHTO   H11 7141   6.012   6.766   5.862 -0.5869 -0.0234 -0.7471
   17CHTO    C7 7142   5.793   7.040   5.769  0.2611  0.3668  0.1500
   17CHTO   H20 7143   5.820   7.105   5.855 -3.2914 -0.4014  1.9196
   17CHTO    O4 7144   5.807   7.123   5.655 -0.2818 -0.1746  0.2732
   17CHTO   C14 7145   5.871   7.073   5.537 -0.0003  0.0453 -0.1747
   17CHTO   H27 7146   5.982   7.065   5.542 -0.0925 -1.6719 -0.5562
   17CHTO   C18 7147   5.840   7.178   5.423  0.1324  0.6763 -0.3584
   17CHTO   O13 7148   5.902   7.303   5.456  0.5647  0.1548  1.0742
   17CHTO    H7 7149   5.857   7.379   5.425 -0.7152 -0.1682  2.0700
   17CHTO    O2 7150   5.627   6.983   5.763 -0.1676 -0.1979  0.1770
   17CHTO    C1 7151   5.568   6.969   5.891 -0.5714 -0.1742 -0.3768
   17CHTO   H14 7152   5.651   6.990   5.961  0.3034 -0.8193 -1.2013
   17CHTO    C2 7153   5.505   6.824   5.927  0.0065  0.1573  0.3041
   17CHTO   H15 7154   5.451   6.783   5.840 -0.4253  1.7045 -0.1771
   17CHTO    O6 7155   5.613   6.744   5.961  0.0938 -0.5241  0.4786
   17CHTO    H1 7156   5.580   6.663   5.994 -0.8369  0.2051  1.3596
   17CHTO    C3 7157   5.402   6.820   6.050  0.3406 -0.3045 -0.2947
   17CHTO   H16 7158   5.451   6.791   6.144 -1.2008 -1.4263  0.1845
   17CHTO    N1 7159   5.304   6.703   6.032  0.0993  0.0640  0.5339
   17CHTO    H8 7160   5.341   6.607   5.998 -1.5886  0.3182 -2.1109
   17CHTO    H9 7161   5.231   6.728   5.957  1.7127  1.3808 -0.6233
   17CHTO    C4 7162   5.325   6.958   6.073  0.6687  0.3475  0.5578
   17CHTO   H17 7163   5.235   6.965   6.012  1.4053  1.4270 -0.4107
   17CHTO    O1 7164   5.413   7.065   6.043  0.5596 -0.0619  0.2321
   17CHTO    C5 7165   5.465   7.077   5.909  0.3833 -0.7005 -0.0344
   17CHTO   H18 7166   5.381   7.058   5.842 -0.1994 -1.6664  0.9555
   17CHTO   C16 7167   5.524   7.216   5.900  0.2960  0.0494 -0.1645
   17CHTO   O11 7168   5.424   7.317   5.912  0.3339  0.5499 -0.3108
   17CHTO    H5 7169   5.375   7.310   5.992 -1.9115  1.2967 -1.6036
   17CHTO    O3 7170   5.284   6.973   6.215  0.2007  0.0287  0.3523
   17CHTO    C6 7171   5.233   7.109   6.256 -0.1276  0.0043  1.0516
   17CHTO   H19 7172   5.300   7.186   6.217 -0.6875  0.0723  0.2138
   17CHTO    C8 7173   5.087   7.141   6.209 -0.1063  0.1297  0.2596
   17CHTO   H21 7174   5.021   7.062   6.246  1.1523 -1.4874 -0.8651
   17CHTO    O7 7175   5.090   7.136   6.064 -0.3848  0.1137 -0.0290
   17CHTO    H2 7176   5.109   7.046   6.042  1.6653  0.9088 -1.6715
   17CHTO   C12 7177   5.054   7.283   6.267  0.3957  0.4567  0.4699
   17CHTO   H25 7178   5.125   7.354   6.220  1.2320 -0.0559  0.9440
   17CHTO    N3 7179   4.914   7.325   6.225 -0.0032 -0.4331  0.2800
   17CHTO   H12 7180   4.919   7.361   6.123 -0.4114  0.3146  0.5208
   17CHTO   H13 7181   4.843   7.244   6.231 -0.0716 -0.7116 -2.9177
   17CHTO   C15 7182   5.071   7.298   6.427 -0.0770  0.1972 -0.5652
   17CHTO   H28 7183   4.999   7.252   6.495  0.2550  0.4107 -0.0580
   17CHTO   O10 7184   5.097   7.426   6.484  0.5559  0.2850 -0.1950
   17CHTO    H4 7185   5.028   7.470   6.531 -0.5459  0.4786 -1.9605
   17CHTO    O5 7186   5.196   7.240   6.456  0.3102 -0.2414  0.0280
   17CHTO   C10 7187   5.235   7.114   6.404  0.3389 -0.1495 -1.3282
   17CHTO   H23 7188   5.173   7.030   6.435  0.4712 -0.0185 -0.6986
   17CHTO   C17 7189   5.375   7.078   6.464 -0.2814  0.3115 -0.0626
   17CHTO   O12 7190   5.363   7.084   6.612 -0.0804  0.5151 -0.3892
   17CHTO    H6 7191   5.451   7.085   6.644 -0.8168 -3.1520  2.0975
   18CHTO  H203 7192   6.217   7.844   1.234  0.2605 -0.2370 -0.7624
   18CHTO   O82 7193   6.310   7.851   1.245  0.1784  0.0816 -0.2362
   18CHTO  C123 7194   6.360   7.716   1.263  0.3268 -0.4430  0.3702
   18CHTO  H227 7195   6.280   7.657   1.310 -0.8637 -0.4086 -1.5234
   18CHTO   O77 7196   6.369   7.656   1.130 -0.0564  0.0244  0.5927
   18CHTO  C118 7197   6.434   7.535   1.116  0.2273  0.4669  0.0908
   18CHTO  H222 7198   6.377   7.463   1.177  2.1033 -0.7717  0.4337
   18CHTO  C125 7199   6.417   7.502   0.969  0.4085  0.0590 -0.1312
   18CHTO   O84 7200   6.476   7.585   0.871  0.2312 -0.0064 -0.0063
   18CHTO  H205 7201   6.425   7.580   0.793 -0.7837 -1.1615  0.7043
   18CHTO  C114 7202   6.578   7.545   1.151  0.0541 -0.4433 -0.0771
   18CHTO  H218 7203   6.615   7.630   1.094  1.6942 -1.0190  0.0885
   18CHTO  C116 7204   6.586   7.579   1.306  0.0254 -0.3018 -0.6331
   18CHTO  H220 7205   6.536   7.492   1.354  0.1558 -0.1131 -0.1535
   18CHTO   O79 7206   6.718   7.599   1.356 -0.3852 -0.0417 -0.3385
   18CHTO  H201 7207   6.772   7.612   1.280  3.3396  1.9763  2.5130
   18CHTO  C120 7208   6.508   7.714   1.330 -0.1332 -0.1745  0.0844
   18CHTO  H224 7209   6.571   7.786   1.275  0.7780 -0.6818  0.4630
   18CHTO   N21 7210   6.494   7.753   1.472 -0.2762 -0.4733 -0.1227
   18CHTO  H211 7211   6.487   7.670   1.541  0.1922 -0.9243 -0.6149
   18CHTO  H212 7212   6.575   7.821   1.495 -2.6325  2.4804 -0.2605
   18CHTO   O75 7213   6.643   7.419   1.119 -0.3324  0.1432  0.1659
   18CHTO  C112 7214   6.771   7.431   0.983 -0.1717  0.8402 -0.2638
   18CHTO  H216 7215   6.869   7.445   1.031 -0.5263 -0.3832  0.8618
   18CHTO   O73 7216   6.743   7.537   0.894  0.0375 -0.1686  0.4557
   18CHTO  C113 7217   6.851   7.561   0.798 -0.1233 -0.2715  0.2749
   18CHTO  H217 7218   6.952   7.573   0.843 -0.3402  1.2230  0.3818
   18CHTO  C124 7219   6.822   7.693   0.715 -0.7090 -0.5471  0.1207
   18CHTO   O83 7220   6.936   7.756   0.644 -0.4036 -0.0029 -0.8326
   18CHTO  H204 7221   6.902   7.790   0.564 -2.6056 -0.7739 -0.2633
   18CHTO  C109 7222   6.864   7.433   0.704 -0.2759 -0.5715  0.0968
   18CHTO  H213 7223   6.764   7.419   0.661 -0.0281 -0.7909 -0.4074
   18CHTO  C110 7224   6.901   7.319   0.793 -0.3491 -0.3679 -0.1253
   18CHTO  H214 7225   6.993   7.347   0.845 -0.2457  0.1943 -0.6122
   18CHTO   O78 7226   6.939   7.193   0.725 -0.1040  0.2162 -0.1265
   18CHTO  H200 7227   6.971   7.133   0.789 -1.6333  1.1668  1.5890
   18CHTO  C111 7228   6.787   7.296   0.896 -0.6231 -0.2643  0.4596
   18CHTO  H215 7229   6.693   7.278   0.841 -0.1393  1.7886 -1.1228
   18CHTO   N19 7230   6.809   7.173   0.983  0.4896 -0.5546  0.1686
   18CHTO  H207 7231   6.903   7.177   1.036 -0.2713  1.1483  1.4297
   18CHTO  H208 7232   6.730   7.162   1.056  0.6007 -2.1797  0.0740
   18CHTO   O74 7233   6.961   7.455   0.594  0.1836 -0.5705 -0.3154
   18CHTO  C115 7234   6.927   7.391   0.455 -0.4694  0.2477  0.2719
   18CHTO  H219 7235   6.852   7.313   0.468  0.1776 -0.2103  1.2452
   18CHTO   O76 7236   6.875   7.499   0.357 -0.0513  0.0820 -0.0763
   18CHTO  C122 7237   6.968   7.606   0.339 -0.3131  0.2380  0.5612
   18CHTO  H226 7238   6.998   7.657   0.430  0.1432  1.0654 -0.0455
   18CHTO  C126 7239   6.904   7.712   0.257  0.4629  0.5004  0.3585
   18CHTO   O85 7240   6.977   7.832   0.222  0.0060  0.1934 -0.2016
   18CHTO  H206 7241   7.029   7.820   0.145  0.7025 -2.8388  0.6752
   18CHTO  C121 7242   7.108   7.552   0.270  0.6158 -0.5293 -0.2050
   18CHTO  H225 7243   7.118   7.593   0.168 -2.0265 -1.3221 -0.8234
   18CHTO   O81 7244   7.219   7.611   0.336 -0.0093  0.2845  0.5220
   18CHTO  H202 7245   7.206   7.641   0.424 -1.3128  2.7738 -0.5050
   18CHTO  C119 7246   7.123   7.398   0.273 -0.3116  0.2780 -0.1905
   18CHTO  H223 7247   7.059   7.361   0.192 -1.7185  0.2137  0.9373
   18CHTO  C117 7248   7.075   7.329   0.406 -0.1620 -0.2178 -0.6135
   18CHTO  H221 7249   7.142   7.347   0.490 -1.8777  1.6167  0.4167
   18CHTO   N20 7250   7.071   7.178   0.384 -0.4866 -0.2973  0.1270
   18CHTO  H209 7251   6.993   7.141   0.319 -1.3942 -2.2030  2.2130
   18CHTO  H210 7252   7.173   7.147   0.364 -0.9642 -2.0695  0.3821
   18CHTO   O80 7253   7.272   7.346   0.205  0.1423  0.3646 -0.2868
   18CHTO  C103 7254   7.277   7.285   0.039 -0.3875  0.0729 -0.4620
   18CHTO  H190 7255   7.378   7.267   0.004 -1.2810  1.3072 -3.8910
   18CHTO  C101 7256   7.192   7.161   0.018  0.2052 -0.4560 -0.3203
   18CHTO  H188 7257   7.094   7.168   0.065  0.9017 -0.8028  1.2325
   18CHTO   O68 7258   7.251   7.054   0.108  0.0150  0.0509  0.1920
   18CHTO  H168 7259   7.214   7.055   0.194 -0.1105  1.1633  0.1303
   18CHTO   C99 7260   7.204   7.124  -0.135 -0.4874  0.0361  0.0584
   18CHTO  H186 7261   7.309   7.103  -0.166 -1.4643 -1.4826 -2.3603
   18CHTO   N17 7262   7.126   7.000  -0.174 -0.3545  0.2151 -0.4860
   18CHTO  H174 7263   7.021   7.020  -0.160 -0.7090 -1.3348 -0.8721
   18CHTO  H175 7264   7.160   6.919  -0.111  0.6986  0.1507 -1.1288
   18CHTO   C97 7265   7.157   7.237  -0.231  0.1966  0.7496 -0.0065
   18CHTO  H184 7266   7.048   7.248  -0.220  0.0989  2.3699 -2.3004
   18CHTO   O64 7267   7.221   7.359  -0.195 -0.5620 -0.2240  0.0738
   18CHTO  C104 7268   7.220   7.401  -0.055  0.4836 -0.4217 -0.6458
   18CHTO  H191 7269   7.117   7.419  -0.024  1.6578  1.8366  2.0886
   18CHTO  C108 7270   7.283   7.543  -0.048  0.1606 -0.2188 -0.0288
   18CHTO   O71 7271   7.408   7.548  -0.118 -0.0156 -0.2766 -0.0478
   18CHTO  H171 7272   7.482   7.546  -0.060 -0.2807  1.4397  0.3651
   18CHTO   O62 7273   7.180   7.224  -0.372 -0.1422  0.6138  0.4562
   18CHTO   C91 7274   7.082   7.289  -0.464  0.4102 -0.0664  0.4634
   18CHTO  H178 7275   6.988   7.239  -0.443  1.7054 -2.7700  0.0658
   18CHTO   C92 7276   7.122   7.253  -0.606  0.3684  0.4990 -0.4812
   18CHTO  H179 7277   7.222   7.295  -0.626 -0.1670  1.7850 -0.4797
   18CHTO   O66 7278   7.143   7.108  -0.613 -0.0179 -0.1557 -0.2373
   18CHTO  H166 7279   7.181   7.088  -0.696 -0.5896 -0.8046 -0.3496
   18CHTO   C93 7280   7.027   7.308  -0.714 -0.3436 -1.2512 -0.1115
   18CHTO  H180 7281   6.932   7.252  -0.716 -0.5605 -0.9525  1.4370
   18CHTO   N16 7282   7.087   7.282  -0.854  0.0900 -0.7013  0.3413
   18CHTO  H172 7283   7.177   7.340  -0.861 -0.4771  0.0470 -1.0674
   18CHTO  H173 7284   7.012   7.317  -0.924  0.0709  1.3900  1.3684
   18CHTO   C94 7285   6.991   7.457  -0.696  0.2160  0.3580 -0.5893
   18CHTO  H181 7286   7.011   7.518  -0.784  0.2337 -0.2373 -1.0012
   18CHTO   O61 7287   7.071   7.511  -0.585 -0.0443 -0.6657  0.1414
   18CHTO   C95 7288   7.071   7.445  -0.452  0.0881 -0.1196 -0.4787
   18CHTO  H182 7289   7.160   7.474  -0.397 -1.0780  2.2168  0.2337
   18CHTO  C106 7290   6.949   7.494  -0.366 -0.1138 -0.1798  0.1450
   18CHTO   O69 7291   6.976   7.637  -0.338  0.2245  0.6843 -0.0823
   18CHTO  H169 7292   6.906   7.667  -0.282 -0.4632 -1.4891  0.2892
   18CHTO   O63 7293   6.829   7.470  -0.668 -0.4305  0.3206 -0.2001
   18CHTO   C96 7294   6.748   7.581  -0.737  0.1251  0.1111  0.0502
   18CHTO  H183 7295   6.647   7.540  -0.729  0.3284 -0.1273  1.5024
   18CHTO   C98 7296   6.776   7.595  -0.894  0.3039 -0.1352 -0.0213
   18CHTO  H185 7297   6.884   7.605  -0.912  0.4522 -1.7276 -0.0751
   18CHTO   O67 7298   6.727   7.478  -0.963  0.1581 -0.3131  0.1106
   18CHTO  H167 7299   6.762   7.397  -0.932  0.3269  0.8580  3.2450
   18CHTO  C102 7300   6.697   7.725  -0.953  0.5815  0.2935  0.0713
   18CHTO  H189 7301   6.593   7.691  -0.964  0.9889 -1.2106  0.6303
   18CHTO   N18 7302   6.742   7.766  -1.092  0.1561 -0.5882  0.3137
   18CHTO  H176 7303   6.664   7.827  -1.137 -0.2560 -1.1942  0.1906
   18CHTO  H177 7304   6.837   7.817  -1.090 -0.6655  0.9376  1.1329
   18CHTO  C105 7305   6.695   7.842  -0.850  0.1361 -1.0757  0.1015
   18CHTO  H192 7306   6.796   7.881  -0.833 -0.5964  0.5684  0.7686
   18CHTO   O65 7307   6.651   7.797  -0.719 -0.2728  0.1701  0.6339
   18CHTO  C100 7308   6.744   7.712  -0.653  0.4704  0.3547  0.6517
   18CHTO  H187 7309   6.847   7.750  -0.646  0.2790  0.8942  0.5308
   18CHTO  C107 7310   6.693   7.706  -0.510  0.8460 -0.0190 -0.1654
   18CHTO   O70 7311   6.692   7.830  -0.444  0.3089 -0.1274 -0.4859
   18CHTO  H170 7312   6.768   7.878  -0.471  0.4826 -0.6119 -0.8610
   18CHTO   O57 7313   6.578   7.963  -0.932 -0.4230  0.1403 -0.2527
   18CHTO   C85 7314   6.612   8.096  -0.909  0.1281 -0.1821  0.3482
   18CHTO  H157 7315   6.722   8.105  -0.892  0.0998  2.5772 -0.6716
   18CHTO   C83 7316   6.554   8.136  -0.772  0.1071  0.4554  0.1988
   18CHTO  H155 7317   6.597   8.073  -0.694  2.8764  2.1412  0.1115
   18CHTO   O56 7318   6.408   8.119  -0.777 -0.1360 -0.1534 -0.0883
   18CHTO  H135 7319   6.359   8.183  -0.825 -0.2500  0.2851  0.5968
   18CHTO   C81 7320   6.596   8.287  -0.743 -0.7721  0.3506 -0.0731
   18CHTO  H153 7321   6.705   8.290  -0.742 -0.7503 -0.3772  0.6500
   18CHTO   N14 7322   6.550   8.336  -0.608  0.2427 -0.3979 -0.3096
   18CHTO  H141 7323   6.583   8.280  -0.523  1.7221  1.7694  0.5607
   18CHTO  H142 7324   6.575   8.439  -0.599 -1.8311  0.3205 -2.2872
   18CHTO   C79 7325   6.549   8.382  -0.857  0.3237  0.2230  0.6022
   18CHTO  H151 7326   6.594   8.480  -0.840  0.5989 -0.1382  2.0460
   18CHTO   O52 7327   6.605   8.335  -0.984 -0.2821 -0.2700  0.1937
   18CHTO   C86 7328   6.568   8.200  -1.020  0.1227  0.2121 -0.0350
   18CHTO  H158 7329   6.457   8.200  -1.026  0.1281  1.1741 -0.1881
   18CHTO   C90 7330   6.621   8.165  -1.163  0.2965 -0.3870 -0.2418
   18CHTO   O60 7331   6.753   8.217  -1.191 -0.0760 -0.1782 -0.0209
   18CHTO  H138 7332   6.799   8.241  -1.113 -0.0938 -1.8032  0.5187
   18CHTO   O50 7333   6.404   8.395  -0.868 -0.1758 -0.0948  0.0147
   18CHTO   C73 7334   6.311   8.488  -0.917  0.6150 -0.6188  0.1829
   18CHTO  H145 7335   6.316   8.496  -1.026  0.5144 -2.5649  0.0144
   18CHTO   C74 7336   6.336   8.631  -0.859  0.4407  0.2806 -0.0770
   18CHTO  H146 7337   6.441   8.656  -0.879  0.1576  1.2423 -0.3799
   18CHTO   O54 7338   6.251   8.728  -0.927  0.4062  0.0719 -0.6709
   18CHTO  H133 7339   6.252   8.817  -0.897 -0.9608 -0.2035  0.2198
   18CHTO   C75 7340   6.310   8.633  -0.705  0.2591 -1.2700  0.0199
   18CHTO  H147 7341   6.394   8.579  -0.657  0.6566 -0.4974  0.1951
   18CHTO   N13 7342   6.325   8.764  -0.633  0.6163  0.8001 -0.7962
   18CHTO  H139 7343   6.396   8.760  -0.551 -2.6091  0.8712  2.0733
   18CHTO  H140 7344   6.346   8.841  -0.705 -0.1161  1.6374 -0.1230
   18CHTO   C76 7345   6.172   8.558  -0.664  0.4834 -0.3095 -0.9177
   18CHTO  H148 7346   6.087   8.619  -0.695  1.0754  0.7503 -0.4685
   18CHTO   O49 7347   6.173   8.425  -0.730  0.3481 -0.2543 -0.2302
   18CHTO   C77 7348   6.173   8.438  -0.874  0.6353  0.3949 -0.9806
   18CHTO  H149 7349   6.099   8.513  -0.903  0.8417  1.5569  1.3856
   18CHTO   C88 7350   6.145   8.302  -0.940 -0.8421  0.3702  0.3871
   18CHTO   O58 7351   6.108   8.301  -1.056  0.7606 -0.5587  0.0008
   18CHTO  H136 7352   6.181   8.331  -1.107  2.7184 -3.0696  1.2441
   18CHTO   O51 7353   6.167   8.521  -0.506 -0.1993  0.3857 -0.6961
   18CHTO   C78 7354   6.041   8.401  -0.458 -0.8713 -0.0037 -1.2478
   18CHTO  H150 7355   6.040   8.326  -0.540  2.0218 -0.6180 -0.7800
   18CHTO   C80 7356   5.902   8.460  -0.437  0.2401  0.0784 -0.6265
   18CHTO  H152 7357   5.903   8.545  -0.365 -1.4812 -0.0015 -0.4908
   18CHTO   O55 7358   5.854   8.507  -0.558  0.3029 -0.0030 -0.2364
   18CHTO  H134 7359   5.779   8.564  -0.557  1.5605  1.6950 -0.1788
   18CHTO   C84 7360   5.802   8.355  -0.380 -0.7379 -0.8203  0.3040
   18CHTO  H156 7361   5.794   8.273  -0.452  0.9723  0.0945 -0.9701
   18CHTO   N15 7362   5.662   8.409  -0.357  0.3444 -0.1984 -0.7466
   18CHTO  H143 7363   5.593   8.375  -0.432 -0.1741  0.4330 -0.5648
   18CHTO  H144 7364   5.659   8.515  -0.344 -1.9140 -0.5113  1.8139
   18CHTO   C87 7365   5.861   8.298  -0.250  0.5146 -0.5270 -0.2348
   18CHTO  H159 7366   5.860   8.373  -0.171  0.8126 -1.3249  0.5425
   18CHTO   O53 7367   6.011   8.243  -0.266 -0.2189  0.7866 -0.4462
   18CHTO   C82 7368   6.104   8.334  -0.328  0.3593 -0.3924 -0.2376
   18CHTO  H154 7369   6.126   8.415  -0.258  0.8204  2.0529 -3.0805
   18CHTO   C89 7370   6.241   8.267  -0.358 -0.3360  0.5576  0.2222
   18CHTO   O59 7371   6.247   8.200  -0.483  0.7005 -0.2703 -0.5871
   18CHTO  H137 7372   6.277   8.111  -0.481  1.2509 -0.1664 -3.1980
   18CHTO   O45 7373   5.777   8.169  -0.187 -0.0279 -0.0425 -0.2755
   18CHTO   C67 7374   5.822   8.150  -0.054 -0.5686  0.6348  0.4909
   18CHTO  H124 7375   5.900   8.222  -0.026  1.3784 -1.2980  0.1436
   18CHTO   C65 7376   5.707   8.165   0.043  0.6717 -0.0525  0.0310
   18CHTO  H122 7377   5.617   8.127  -0.006  0.2515  1.0295 -0.0750
   18CHTO   O44 7378   5.694   8.308   0.055 -0.2463 -0.4383  0.5143
   18CHTO  H102 7379   5.769   8.345   0.096 -1.2896  0.1323  1.9629
   18CHTO   C63 7380   5.722   8.078   0.175  0.0224  0.3529 -0.1072
   18CHTO  H120 7381   5.688   7.978   0.149 -2.7129  0.0406  4.2480
   18CHTO   N11 7382   5.629   8.109   0.294  0.3729  0.3373 -1.2012
   18CHTO  H108 7383   5.570   8.028   0.334  1.3784  0.4901  0.6490
   18CHTO  H109 7384   5.571   8.199   0.290 -0.7261 -0.1210  2.4903
   18CHTO   C61 7385   5.871   8.052   0.206 -1.1455 -0.3111  0.0615
   18CHTO  H118 7386   5.874   7.985   0.293  2.0059  0.4293  0.5822
   18CHTO   O40 7387   5.939   7.982   0.103  0.0372  0.0077 -0.3443
   18CHTO   C68 7388   5.889   8.008  -0.036 -1.0078 -0.2208 -0.5268
   18CHTO  H125 7389   5.809   7.932  -0.049 -0.5449 -1.1962  2.0854
   18CHTO   C72 7390   5.999   7.970  -0.125 -0.7651 -0.6311  0.5223
   18CHTO   O48 7391   6.125   8.034  -0.107 -0.6626 -0.2946 -0.6990
   18CHTO  H105 7392   6.142   8.093  -0.178  1.5764 -0.2697 -0.1771
   18CHTO   O38 7393   5.937   8.178   0.236 -0.2552 -0.0129  0.5490
   18CHTO   C55 7394   6.044   8.174   0.333 -0.4788  0.5927  0.1172
   18CHTO  H112 7395   6.087   8.072   0.334  2.1925  1.6800 -0.6465
   18CHTO   C56 7396   5.997   8.217   0.483  0.3340  0.2977 -0.9126
   18CHTO  H113 7397   5.945   8.311   0.461 -1.4567 -0.5300 -0.2431
   18CHTO   O42 7398   5.888   8.140   0.526  0.3941  0.7556 -0.4104
   18CHTO  H100 7399   5.830   8.190   0.580  1.6791  4.1340 -2.0197
   18CHTO   C57 7400   6.113   8.227   0.591  0.0988  0.1419 -0.0117
   18CHTO  H114 7401   6.138   8.126   0.623 -2.4382  0.0881  1.9944
   18CHTO   N10 7402   6.080   8.295   0.713  0.2798 -0.5720  0.0430
   18CHTO  H106 7403   5.975   8.281   0.737  0.0635 -0.1151 -0.6388
   18CHTO  H107 7404   6.100   8.400   0.705  1.3575 -0.8913 -1.7497
   18CHTO   C58 7405   6.241   8.295   0.531  0.3102  0.0216 -0.1287
   18CHTO  H115 7406   6.233   8.406   0.536  2.1724  0.1490  0.3382
   18CHTO   O37 7407   6.266   8.253   0.395 -0.0989  0.3061 -0.3477
   18CHTO   C59 7408   6.166   8.265   0.293 -0.1507  0.5852  0.1458
   18CHTO  H116 7409   6.132   8.368   0.286  2.2934  1.3615 -1.1288
   18CHTO   C70 7410   6.220   8.223   0.158  0.3959 -0.1924 -0.1786
   18CHTO   O46 7411   6.287   8.099   0.156 -0.1975 -0.9575 -0.1413
   18CHTO  H103 7412   6.305   8.070   0.069  0.6542  0.2834 -0.3962
   18CHTO   O39 7413   6.359   8.243   0.620 -0.1654 -0.5942  0.0856
   18CHTO   C60 7414   6.439   8.132   0.570 -0.2452  0.2435  0.1066
   18CHTO  H117 7415   6.377   8.056   0.522 -2.4017  1.8344  0.3019
   18CHTO   C62 7416   6.547   8.184   0.471  0.2605 -0.1140  0.1429
   18CHTO  H119 7417   6.490   8.246   0.398  1.6172 -0.9713 -1.7025
   18CHTO   O43 7418   6.658   8.263   0.524 -0.3987 -0.9995 -0.2655
   18CHTO  H101 7419   6.649   8.354   0.501  2.3742 -1.1757 -2.1944
   18CHTO   C66 7420   6.592   8.052   0.392 -0.1482 -0.4157 -0.6535
   18CHTO  H123 7421   6.503   8.005   0.351 -0.9088  1.5960 -1.3983
   18CHTO   N12 7422   6.693   8.078   0.286  0.3560 -0.3136  0.0211
   18CHTO  H110 7423   6.639   8.063   0.193  0.2189 -4.5736  0.7067
   18CHTO  H111 7424   6.745   8.172   0.298  1.1883 -0.7803  0.0885
   18CHTO   C69 7425   6.646   7.936   0.482 -0.1015 -1.1349  1.1622
   18CHTO  H126 7426   6.756   7.936   0.490 -0.1497 -0.0468  1.9224
   18CHTO   O41 7427   6.596   7.941   0.636  0.3959 -0.4082 -0.0114
   18CHTO   C64 7428   6.514   8.063   0.687  0.0392 -0.2952  0.2399
   18CHTO  H121 7429   6.592   8.127   0.733 -1.4066  2.0368 -0.4558
   18CHTO   C71 7430   6.418   8.010   0.799 -0.0288 -0.4376  0.6220
   18CHTO   O47 7431   6.488   7.998   0.925 -0.6567  0.1063  0.6041
   18CHTO  H104 7432   6.481   8.077   0.975  1.3878 -0.3846  1.7229
   18CHTO   O34 7433   6.610   7.804   0.415  0.0922 -0.0377  0.0832
   18CHTO   C49 7434   6.547   7.673   0.342  0.0731  0.5687 -0.9158
   18CHTO   H91 7435   6.628   7.614   0.298  0.5180 -1.0905  1.9557
   18CHTO   C47 7436   6.452   7.704   0.223  0.5028 -0.7580  0.3838
   18CHTO   H89 7437   6.431   7.609   0.169  0.9315 -0.1666 -0.8435
   18CHTO   O33 7438   6.512   7.795   0.136  0.2765 -0.5569  0.0563
   18CHTO   H70 7439   6.451   7.828   0.073  1.6094  1.8543 -0.0087
   18CHTO   C45 7440   6.317   7.773   0.277 -0.2519 -0.1764 -0.5779
   18CHTO   H87 7441   6.322   7.883   0.273  0.7819 -0.2154 -0.5327
   18CHTO    N8 7442   6.210   7.732   0.185  0.6881 -0.2894 -0.0770
   18CHTO   H75 7443   6.122   7.793   0.186  0.8642  0.1172 -4.2499
   18CHTO   H76 7444   6.172   7.631   0.193  1.2206 -0.6421 -1.9926
   18CHTO   C43 7445   6.279   7.730   0.421 -0.2843  0.0121 -1.3017
   18CHTO   H85 7446   6.339   7.796   0.484 -0.2465 -1.6031  0.4180
   18CHTO   O29 7447   6.317   7.597   0.442 -0.2333  0.5960 -0.3890
   18CHTO   C50 7448   6.462   7.582   0.443  0.2166 -0.1384  0.1610
   18CHTO   H92 7449   6.496   7.617   0.542  0.0610 -0.4923  0.3400
   18CHTO   C54 7450   6.503   7.436   0.434  0.5569  0.2537  0.3759
   18CHTO   O36 7451   6.481   7.390   0.304 -0.1246 -0.0069 -0.3397
   18CHTO   H72 7452   6.530   7.316   0.276  2.3934  1.4086  0.1401
   18CHTO   O27 7453   6.145   7.766   0.467 -0.2906 -0.2825 -0.1151
   18CHTO   C37 7454   6.062   7.760   0.584  0.1305  0.1702 -0.0687
   18CHTO   H79 7455   6.036   7.657   0.616 -1.3003  0.8443  1.0176
   18CHTO   C38 7456   6.128   7.831   0.705 -0.5107 -0.0099 -0.0799
   18CHTO   H80 7457   6.169   7.927   0.672 -0.2985 -0.1393 -0.1968
   18CHTO   O31 7458   6.241   7.744   0.746  0.4638  0.1468 -0.1514
   18CHTO   H68 7459   6.296   7.799   0.798  1.9948 -2.0738  0.6689
   18CHTO   C39 7460   6.032   7.856   0.828 -0.2487  0.4685  0.4491
   18CHTO   H81 7461   6.001   7.755   0.855 -2.7236  0.7140 -1.2674
   18CHTO    N7 7462   6.083   7.938   0.944  0.7473 -0.4954 -0.2733
   18CHTO   H73 7463   6.102   7.904   1.045  0.9690  1.4023  0.3512
   18CHTO   H74 7464   6.060   8.040   0.918 -0.2966 -0.9512 -1.1896
   18CHTO   C40 7465   5.898   7.927   0.771 -0.0134 -0.3416  0.0931
   18CHTO   H82 7466   5.904   8.033   0.747  1.8292  0.1432  2.5705
   18CHTO   O26 7467   5.853   7.841   0.659 -0.0354  0.0957 -0.0019
   18CHTO   C41 7468   5.930   7.822   0.545  0.1753 -0.2807 -0.7162
   18CHTO   H83 7469   5.940   7.918   0.493  0.4752  0.0377 -0.0708
   18CHTO   C52 7470   5.844   7.728   0.453  0.2887  0.6866 -0.4360
   18CHTO   O35 7471   5.717   7.801   0.397 -0.1587 -0.2130 -0.5058
   18CHTO   H71 7472   5.684   7.764   0.318 -0.0799 -1.0794 -0.1397
   18CHTO   O28 7473   5.796   7.933   0.873 -0.2132 -0.1498  0.8146
   18CHTO   C42 7474   5.652   7.917   0.851 -0.6983 -0.0222  0.1819
   18CHTO   H84 7475   5.609   7.962   0.940 -1.5188  1.5113 -0.9530
   18CHTO   C44 7476   5.598   7.768   0.840  0.1941 -0.8090 -0.4558
   18CHTO   H86 7477   5.662   7.721   0.765  0.3751  2.2197 -2.2564
   18CHTO   O32 7478   5.630   7.710   0.968  0.5868 -0.0149  0.5492
   18CHTO   H69 7479   5.593   7.624   0.975 -2.2844  1.1379  0.3415
   18CHTO   C48 7480   5.442   7.760   0.802  0.4029 -0.3406  1.2155
   18CHTO   H90 7481   5.386   7.789   0.891  1.5405 -0.5181  2.0034
   18CHTO    N9 7482   5.398   7.623   0.774  0.7129 -0.0689  0.5152
   18CHTO   H77 7483   5.294   7.609   0.800 -0.7827  2.2293 -3.6056
   18CHTO   H78 7484   5.423   7.586   0.676 -2.8277 -0.4319 -0.3298
   18CHTO   C51 7485   5.413   7.861   0.687  0.4915 -0.0945 -0.0278
   18CHTO   H93 7486   5.470   7.817   0.605  1.2002  1.6386 -0.4930
   18CHTO   O30 7487   5.456   7.993   0.713 -0.4380  0.4195 -0.3503
   18CHTO   C46 7488   5.612   8.009   0.731  0.2511  0.1899 -0.3869
   18CHTO   H88 7489   5.658   7.982   0.636  1.1866  0.1420  0.0711
   18CHTO   C53 7490   5.635   8.153   0.773  0.2548 -0.1118  0.0606
   18CHTO   O72 7491   5.593   8.248   0.680  0.4183  0.2969 -0.1785
   18CHTO  H199 7492   5.536   8.212   0.615 -1.7771  0.4691  1.5633
   18CHTO   O22 7493   5.276   7.862   0.650  0.0618 -0.2454 -0.0275
   18CHTO   C31 7494   5.236   7.878   0.502  0.0873 -0.3903 -0.3907
   18CHTO   H59 7495   5.125   7.884   0.500  0.1727  0.9974 -1.8415
   18CHTO   C29 7496   5.281   8.007   0.441 -0.1204  0.3448  0.4753
   18CHTO   H57 7497   5.390   8.005   0.454 -0.0516  0.3872 -0.0878
   18CHTO   O21 7498   5.229   8.113   0.524  0.3884  0.9607 -0.7930
   18CHTO   H37 7499   5.234   8.195   0.479  2.4063  1.4059  0.1879
   18CHTO   C27 7500   5.239   8.012   0.287 -0.7013  0.1525 -0.0461
   18CHTO   H55 7501   5.129   8.000   0.285 -0.6659 -0.4411  0.8127
   18CHTO    N5 7502   5.271   8.147   0.227  0.1971 -0.1072  0.1857
   18CHTO   H43 7503   5.189   8.183   0.167  1.5563  0.5025 -1.3308
   18CHTO   H44 7504   5.304   8.225   0.293  0.6236 -0.2823  0.1832
   18CHTO   C25 7505   5.299   7.891   0.212  0.0077  0.1328  0.0097
   18CHTO   H53 7506   5.409   7.897   0.213 -0.0224  0.6656  1.2175
   18CHTO   O17 7507   5.239   7.771   0.275  0.4332 -0.0363 -0.7112
   18CHTO   C32 7508   5.273   7.753   0.415  0.0861  0.2798 -0.6561
   18CHTO   H60 7509   5.379   7.733   0.425 -0.2171 -1.0958 -0.0447
   18CHTO   C36 7510   5.191   7.634   0.474 -0.2658  0.1630 -0.1295
   18CHTO   O25 7511   5.049   7.649   0.483 -0.4683 -0.2131 -0.3726
   18CHTO   H40 7512   5.011   7.585   0.540  0.6977 -0.3866  0.2426
   18CHTO   O15 7513   5.270   7.882   0.042  0.2197  1.2215  0.1860
   18CHTO   C19 7514   5.316   7.844  -0.089  0.0883 -0.5040  0.1735
   18CHTO   H47 7515   5.269   7.748  -0.118 -0.4460  0.2518 -1.5403
   18CHTO   C20 7516   5.269   7.951  -0.194 -0.3713 -0.0655  0.6855
   18CHTO   H48 7517   5.283   8.053  -0.157  0.6050  0.3488 -0.8012
   18CHTO   O19 7518   5.128   7.931  -0.199  0.5056  0.1513 -0.2394
   18CHTO   H35 7519   5.095   7.923  -0.287 -0.8756  0.8896  0.2049
   18CHTO   C21 7520   5.349   7.932  -0.333  1.0440  0.8881  0.8353
   18CHTO   H49 7521   5.304   7.849  -0.387  1.4792  0.9733  0.3416
   18CHTO    N4 7522   5.327   8.048  -0.428  0.3730 -0.3986 -0.6912
   18CHTO   H41 7523   5.312   8.008  -0.527  0.0522  0.0225 -0.8128
   18CHTO   H42 7524   5.236   8.094  -0.394  0.3041 -1.6505  0.8667
   18CHTO   C22 7525   5.495   7.900  -0.318 -0.2972  0.4627 -0.7037
   18CHTO   H50 7526   5.560   7.980  -0.284 -1.1642  1.0556 -0.4219
   18CHTO   O14 7527   5.513   7.793  -0.224  0.0552 -0.8322  0.9738
   18CHTO   C23 7528   5.470   7.834  -0.090  0.4880  0.0649  0.0194
   18CHTO   H51 7529   5.522   7.924  -0.053 -1.1845  0.2142  2.0797
   18CHTO   C34 7530   5.532   7.731   0.002  0.3016 -0.5163 -0.3816
   18CHTO   O23 7531   5.671   7.735   0.010  0.4468  0.0780  0.2587
   18CHTO   H38 7532   5.712   7.762  -0.070 -0.1573 -0.9598 -0.4156
   18CHTO   O16 7533   5.555   7.846  -0.442  0.4488  0.4411 -0.3818
   18CHTO   C24 7534   5.715   7.890  -0.459 -0.6139  0.4268 -0.4009
   18CHTO   H52 7535   5.746   7.950  -0.373 -0.8223 -2.0114  1.4319
   18CHTO   C26 7536   5.728   7.969  -0.596  0.0746  0.7953  0.2830
   18CHTO   H54 7537   5.671   7.915  -0.675  1.4568  1.7281 -1.4059
   18CHTO   O20 7538   5.660   8.092  -0.578 -0.5225  0.2154  1.0006
   18CHTO   H36 7539   5.682   8.130  -0.494  0.6148  0.3945  0.6392
   18CHTO   C30 7540   5.874   7.981  -0.653  0.0455 -0.1963 -0.5376
   18CHTO   H58 7541   5.935   8.056  -0.601 -0.6651 -0.0470  0.0971
   18CHTO    N6 7542   5.873   8.029  -0.794  0.1731 -0.0223  0.1077
   18CHTO   H45 7543   5.829   8.128  -0.790  0.9979  0.3912 -0.7386
   18CHTO   H46 7544   5.814   7.964  -0.856  2.3352 -1.0384 -0.9410
   18CHTO   C33 7545   5.959   7.854  -0.643 -0.0833  0.4705  0.7390
   18CHTO   H61 7546   5.926   7.775  -0.711  1.8538  2.8704 -3.1881
   18CHTO   O18 7547   5.947   7.807  -0.506 -0.7763  0.0307  0.4100
   18CHTO   C28 7548   5.815   7.762  -0.464 -0.4185 -0.0569  0.6745
   18CHTO   H56 7549   5.784   7.693  -0.542 -0.2157  1.8167 -1.0974
   18CHTO   C35 7550   5.823   7.709  -0.318  0.5287  0.6956  0.0710
   18CHTO   O24 7551   5.902   7.588  -0.305  0.2170  0.3926 -0.1375
   18CHTO   H39 7552   5.896   7.519  -0.368 -1.8005  0.9621 -0.6001
   18CHTO    O9 7553   6.101   7.882  -0.678 -0.1926 -0.4858  0.0409
   18CHTO   C13 7554   6.200   7.776  -0.750 -0.3906  0.1711  0.1260
   18CHTO   H26 7555   6.219   7.828  -0.847 -1.7252  0.7599  0.1558
   18CHTO   C11 7556   6.132   7.633  -0.772 -0.1360  0.0219 -0.2061
   18CHTO   H24 7557   6.042   7.646  -0.834  1.3481 -0.2030 -2.4639
   18CHTO    O8 7558   6.082   7.585  -0.645  0.3872 -0.1086  0.1409
   18CHTO    H3 7559   6.152   7.556  -0.590  1.7349  0.6298 -1.1452
   18CHTO    C9 7560   6.239   7.539  -0.834 -0.4221 -0.4350  0.7546
   18CHTO   H22 7561   6.281   7.594  -0.920 -0.7263 -1.3310  0.0130
   18CHTO    N2 7562   6.185   7.413  -0.890 -0.0669  0.4080 -0.3993
   18CHTO   H10 7563   6.226   7.326  -0.841  0.9086  1.5361  0.8230
   18CHTO   H11 7564   6.078   7.421  -0.898 -0.0230  0.4437 -0.9495
   18CHTO    C7 7565   6.357   7.523  -0.728  0.1721  0.0269  0.1628
   18CHTO   H20 7566   6.450   7.524  -0.789 -0.6578 -0.2076 -1.1174
   18CHTO    O4 7567   6.369   7.630  -0.637  0.3033 -0.6039  0.5821
   18CHTO   C14 7568   6.340   7.767  -0.679 -0.0421  0.4340 -0.2956
   18CHTO   H27 7569   6.420   7.800  -0.748  1.5695 -0.3162  1.1692
   18CHTO   C18 7570   6.348   7.851  -0.550  0.1508 -0.3272  0.3159
   18CHTO   O13 7571   6.259   7.819  -0.443  0.3710 -0.1400 -0.0432
   18CHTO    H7 7572   6.172   7.842  -0.468  0.1729 -0.1110  0.6674
   18CHTO    O2 7573   6.343   7.377  -0.645 -0.2444 -0.3595  0.9506
   18CHTO    C1 7574   6.463   7.344  -0.579 -0.1938  0.7089 -0.2022
   18CHTO   H14 7575   6.526   7.435  -0.570  1.2655 -0.5697  3.3456
   18CHTO    C2 7576   6.554   7.230  -0.640  0.3433 -0.0112 -0.5203
   18CHTO   H15 7577   6.492   7.139  -0.647  0.1287 -0.1552  2.4291
   18CHTO    O6 7578   6.610   7.269  -0.768  0.6921  0.3333  0.2559
   18CHTO    H1 7579   6.603   7.362  -0.773 -1.2882  0.2254  0.3964
   18CHTO    C3 7580   6.670   7.182  -0.542  0.2752  0.1362  0.2857
   18CHTO   H16 7581   6.740   7.267  -0.550  0.0303  0.2008 -1.2280
   18CHTO    N1 7582   6.757   7.067  -0.587  0.3011 -0.2161 -0.6009
   18CHTO    H8 7583   6.734   6.970  -0.546 -0.5983 -1.1312 -3.1155
   18CHTO    H9 7584   6.854   7.099  -0.553 -1.0792  1.8150  1.5598
   18CHTO    C4 7585   6.624   7.172  -0.389  0.4439 -0.1126 -0.5080
   18CHTO   H17 7586   6.578   7.077  -0.363  0.4200 -0.2571 -1.0616
   18CHTO    O1 7587   6.539   7.283  -0.354  0.8439  0.2004  0.7068
   18CHTO    C5 7588   6.421   7.300  -0.433  0.1602  0.1774 -0.0811
   18CHTO   H18 7589   6.369   7.205  -0.448 -2.0725  1.2767  0.6672
   18CHTO   C16 7590   6.332   7.404  -0.357 -0.4052 -0.3891 -0.0096
   18CHTO   O11 7591   6.403   7.528  -0.343  0.2614 -0.5426 -0.2822
   18CHTO    H5 7592   6.345   7.600  -0.325  0.0420 -0.9683  0.8096
   18CHTO    O3 7593   6.737   7.186  -0.293  0.4274 -0.5879 -0.5576
   18CHTO    C6 7594   6.708   7.126  -0.164  0.1589 -0.6415  0.4352
   18CHTO   H19 7595   6.602   7.128  -0.142  0.3151 -0.5681  1.2122
   18CHTO    C8 7596   6.764   6.983  -0.152  0.3611 -0.7199  0.2302
   18CHTO   H21 7597   6.873   6.990  -0.157  0.2904  0.9142  0.9380
   18CHTO    O7 7598   6.711   6.892  -0.244 -0.6335 -0.5324 -0.0780
   18CHTO    H2 7599   6.722   6.801  -0.223 -0.3185 -0.0931  1.7282
   18CHTO   C12 7600   6.756   6.937   0.003  0.0317 -0.2574 -0.6840
   18CHTO   H25 7601   6.649   6.924   0.029  0.1815  2.6758  1.6485
   18CHTO    N3 7602   6.822   6.800   0.024  0.1355 -0.1152 -0.1186
   18CHTO   H12 7603   6.918   6.794  -0.025  1.2013  0.2411  1.8671
   18CHTO   H13 7604   6.753   6.730  -0.020 -1.0820 -0.6873  2.5639
   18CHTO   C15 7605   6.817   7.052   0.093  0.1089  0.3240  0.0264
   18CHTO   H28 7606   6.924   7.051   0.074  0.2273  1.0558  0.6198
   18CHTO   O10 7607   6.785   7.025   0.254 -0.2400 -0.5455  0.2052
   18CHTO    H4 7608   6.842   6.958   0.285  0.5526 -0.0091 -0.0734
   18CHTO    O5 7609   6.763   7.186   0.072 -0.2900  0.9085 -0.0015
   18CHTO   C10 7610   6.772   7.230  -0.064 -0.4796 -0.0556 -0.8127
   18CHTO   H23 7611   6.876   7.259  -0.082 -0.2462 -1.0799 -1.1199
   18CHTO   C17 7612   6.695   7.363  -0.070 -0.6608  0.7808  0.2290
   18CHTO   O12 7613   6.768   7.476  -0.012 -0.2185  0.1922 -0.1773
   18CHTO    H6 7614   6.736   7.492   0.074 -3.8555 -1.2708 -1.1398
   19CHTO  H203 7615   6.620   8.749   1.514 -1.5646 -0.5610 -0.0317
   19CHTO   O82 7616   6.622   8.760   1.421 -0.3986 -0.3473  0.0085
   19CHTO  C123 7617   6.508   8.698   1.355  0.4201 -0.5388 -0.0998
   19CHTO  H227 7618   6.519   8.714   1.246 -1.2743  0.2380 -0.1773
   19CHTO   O77 7619   6.523   8.554   1.377 -0.2353  0.4443  0.8740
   19CHTO  C118 7620   6.433   8.476   1.300 -0.9440 -0.0040  0.9225
   19CHTO  H222 7621   6.455   8.494   1.194 -3.0715  0.5892  0.5494
   19CHTO  C125 7622   6.460   8.324   1.336 -0.0308  0.2286  0.0440
   19CHTO   O84 7623   6.416   8.245   1.225 -0.1404 -0.8876  0.0916
   19CHTO  H205 7624   6.470   8.168   1.222  1.8149  0.4445  0.1270
   19CHTO  C114 7625   6.286   8.505   1.335 -0.4727 -0.6075  0.1978
   19CHTO  H218 7626   6.269   8.475   1.438  2.5832 -2.0371  0.3441
   19CHTO  C116 7627   6.260   8.659   1.325 -0.5295 -0.1111 -0.2146
   19CHTO  H220 7628   6.261   8.679   1.216 -1.0338  0.3441 -0.1348
   19CHTO   O79 7629   6.129   8.681   1.367 -0.2556 -0.0082  0.0507
   19CHTO  H201 7630   6.077   8.694   1.290  0.2562  1.5326 -0.0465
   19CHTO  C120 7631   6.369   8.735   1.409 -0.0968  0.2515 -1.1416
   19CHTO  H224 7632   6.357   8.699   1.514  1.2428  1.1279 -0.6665
   19CHTO   N21 7633   6.349   8.879   1.399  0.0260 -0.6100 -0.0432
   19CHTO  H211 7634   6.273   8.914   1.330 -1.4875  1.8132  2.7402
   19CHTO  H212 7635   6.335   8.934   1.491  1.9537 -0.6627  0.3066
   19CHTO   O75 7636   6.212   8.425   1.241  0.3225  0.2305  0.0072
   19CHTO  C112 7637   6.086   8.357   1.287  0.0744 -0.4041 -0.6142
   19CHTO  H216 7638   6.025   8.431   1.340 -0.4198 -2.1424  1.2913
   19CHTO   O73 7639   6.136   8.253   1.377  0.0023 -0.6609  0.2490
   19CHTO  C113 7640   6.036   8.153   1.410  0.7656 -0.6134  0.1017
   19CHTO  H217 7641   5.981   8.214   1.485  0.2284  0.8348 -1.4477
   19CHTO  C124 7642   6.113   8.040   1.474 -0.1187  0.2667 -0.3090
   19CHTO   O83 7643   6.170   8.088   1.595  0.1930 -0.3925  0.6153
   19CHTO  H204 7644   6.256   8.106   1.563  0.3103 -1.2753  0.4270
   19CHTO  C109 7645   5.953   8.089   1.291 -0.3675  0.0643  0.8118
   19CHTO  H213 7646   6.022   8.033   1.227 -1.0666  0.3105 -0.1597
   19CHTO  C110 7647   5.887   8.210   1.215  0.6975 -0.8511 -0.4872
   19CHTO  H214 7648   5.830   8.273   1.284  1.5374 -1.5958  0.9131
   19CHTO   O78 7649   5.791   8.175   1.113 -0.0141 -0.1255  0.2558
   19CHTO  H200 7650   5.841   8.146   1.039 -0.7346 -0.0887 -0.2480
   19CHTO  C111 7651   6.004   8.294   1.167 -0.1513  0.1982  0.5209
   19CHTO  H215 7652   6.075   8.230   1.113  0.8563  1.7016  0.0470
   19CHTO   N19 7653   5.968   8.406   1.075  0.2954  0.1736  0.2155
   19CHTO  H207 7654   5.861   8.419   1.072 -0.1853 -2.6551  2.3619
   19CHTO  H208 7655   6.003   8.393   0.974  0.4591  1.7070  0.0632
   19CHTO   O74 7656   5.847   8.007   1.349  0.0167  0.3489 -0.4719
   19CHTO  C115 7657   5.776   7.896   1.244  0.2343 -0.8952  0.1271
   19CHTO  H219 7658   5.725   7.944   1.161 -0.4053 -1.0134  0.4534
   19CHTO   O76 7659   5.888   7.810   1.177  0.3054  0.4821  0.0149
   19CHTO  C122 7660   5.943   7.700   1.251  0.1322  0.3146  0.3445
   19CHTO  H226 7661   6.018   7.732   1.322  0.7749 -0.3643 -0.0268
   19CHTO  C126 7662   6.033   7.613   1.148 -0.6289 -0.2855  0.2649
   19CHTO   O85 7663   6.111   7.515   1.219  0.2201  0.0440 -0.5977
   19CHTO  H206 7664   6.157   7.470   1.151  0.7199  0.4714 -0.5465
   19CHTO  C121 7665   5.837   7.620   1.331 -0.0748  0.8182 -0.9195
   19CHTO  H225 7666   5.846   7.513   1.303 -3.6824  0.0067  0.7926
   19CHTO   O81 7667   5.876   7.620   1.471  0.0914  0.0765  0.4689
   19CHTO  H202 7668   5.958   7.577   1.485  0.9867  0.9614 -1.8819
   19CHTO  C119 7669   5.694   7.661   1.303  0.0408 -0.1553 -0.3222
   19CHTO  H223 7670   5.673   7.635   1.199  1.2177 -1.5086 -0.2326
   19CHTO  C117 7671   5.673   7.818   1.332  0.5581  0.1292  0.1536
   19CHTO  H221 7672   5.689   7.846   1.436  0.3187  1.5743 -0.1863
   19CHTO   N20 7673   5.532   7.869   1.301  0.1190 -0.1636  0.2425
   19CHTO  H209 7674   5.532   7.973   1.331 -0.4326  0.6112 -2.3816
   19CHTO  H210 7675   5.443   7.809   1.316  0.4376 -0.5843  0.4835
   19CHTO   O80 7676   5.581   7.567   1.379  0.3524  0.2105  0.0579
   19CHTO  C103 7677   5.559   7.435   1.337  0.4875  0.6214 -0.3791
   19CHTO  H190 7678   5.614   7.403   1.249 -0.8830 -2.6233 -0.1012
   19CHTO  C101 7679   5.589   7.329   1.452  0.0730  0.5384 -0.3438
   19CHTO  H188 7680   5.552   7.363   1.549 -1.5417 -0.9200 -0.4144
   19CHTO   O68 7681   5.755   7.320   1.476  0.5443 -0.2805  0.7662
   19CHTO  H168 7682   5.773   7.364   1.557 -0.2242  1.1817  0.1578
   19CHTO   C99 7683   5.516   7.187   1.431  0.0703  0.0334  0.2601
   19CHTO  H186 7684   5.551   7.135   1.340 -0.7987 -0.4658  0.2071
   19CHTO   N17 7685   5.538   7.088   1.545 -0.1901  0.2144 -0.4336
   19CHTO  H174 7686   5.500   6.989   1.524  0.6955 -0.3963  0.7480
   19CHTO  H175 7687   5.496   7.135   1.632  2.8099  0.5984  0.8914
   19CHTO   C97 7688   5.371   7.208   1.406  0.2984  0.4139 -0.0661
   19CHTO  H184 7689   5.337   7.264   1.494  0.5864 -0.7470  0.7943
   19CHTO   O64 7690   5.369   7.291   1.288  0.4075  0.1765 -0.5442
   19CHTO  C104 7691   5.400   7.423   1.304 -0.0839 -0.7470 -0.1709
   19CHTO  H191 7692   5.346   7.488   1.373  0.8471 -0.3215  0.1714
   19CHTO  C108 7693   5.386   7.488   1.171  0.6487 -0.4403  0.4158
   19CHTO   O71 7694   5.258   7.510   1.110  0.6567  0.4132  0.6218
   19CHTO  H171 7695   5.254   7.436   1.052 -2.0808  0.4754  0.6914
   19CHTO   O62 7696   5.301   7.086   1.389 -0.5310 -0.2537 -0.2660
   19CHTO   C91 7697   5.160   7.102   1.372 -0.4106  0.3581 -0.0388
   19CHTO  H178 7698   5.138   7.200   1.414 -0.2413 -0.3355  1.7039
   19CHTO   C92 7699   5.076   6.992   1.449  0.0033  0.1613 -0.2699
   19CHTO  H179 7700   5.105   7.007   1.554  2.5848 -1.5305 -0.7006
   19CHTO   O66 7701   4.939   7.040   1.446 -0.0829 -0.3919  0.1955
   19CHTO  H166 7702   4.928   7.118   1.496 -0.7888 -0.2173 -0.2357
   19CHTO   C93 7703   5.080   6.848   1.392  0.3440 -0.8397  0.0522
   19CHTO  H180 7704   4.979   6.807   1.403 -0.2608  0.8577  0.9386
   19CHTO   N16 7705   5.171   6.764   1.466 -0.3113  0.3445  0.5931
   19CHTO  H172 7706   5.139   6.746   1.567 -0.0564  1.2929  0.8520
   19CHTO  H173 7707   5.274   6.795   1.456  0.7047 -3.0677 -0.3026
   19CHTO   C94 7708   5.116   6.854   1.233  0.1779 -0.4601  0.3995
   19CHTO  H181 7709   5.223   6.856   1.213  0.0564 -0.0955 -0.2121
   19CHTO   O61 7710   5.068   6.976   1.174  0.0134 -0.6627  0.3497
   19CHTO   C95 7711   5.112   7.106   1.219 -0.0857  0.4289  0.0596
   19CHTO  H182 7712   5.196   7.146   1.163 -0.8403  0.2221 -1.2225
   19CHTO  C106 7713   4.988   7.214   1.201  0.4139 -0.1986  0.2876
   19CHTO   O69 7714   5.036   7.349   1.214 -0.6095 -0.5113  0.2682
   19CHTO  H169 7715   4.971   7.406   1.251  1.6234  1.1121  1.7897
   19CHTO   O63 7716   5.033   6.729   1.154 -0.2322  0.2051  0.2374
   19CHTO   C96 7717   5.117   6.671   1.053  0.6456 -0.6758 -0.2868
   19CHTO  H183 7718   5.211   6.653   1.105 -0.6267  0.0870  2.3745
   19CHTO   C98 7719   5.143   6.775   0.937 -0.0897 -0.0560 -0.2560
   19CHTO  H185 7720   5.167   6.873   0.981  2.1295 -1.1493  1.0014
   19CHTO   O67 7721   5.259   6.728   0.878  0.3922  0.3225  0.3463
   19CHTO  H167 7722   5.278   6.783   0.805 -1.0318 -3.2905 -2.9468
   19CHTO  C102 7723   5.028   6.786   0.834 -0.0611 -0.1070 -0.0966
   19CHTO  H189 7724   5.073   6.829   0.743 -0.5992  0.8738  0.0918
   19CHTO   N18 7725   4.912   6.876   0.869  0.0816  0.2516  0.3013
   19CHTO  H176 7726   4.927   6.926   0.963  1.4042 -1.3081  0.9577
   19CHTO  H177 7727   4.903   6.960   0.802  1.2403 -0.1176 -0.3322
   19CHTO  C105 7728   4.983   6.642   0.786 -0.1184 -0.2755  0.1570
   19CHTO  H192 7729   4.875   6.633   0.802 -0.1896 -1.1595 -0.7750
   19CHTO   O65 7730   5.043   6.532   0.853  0.3244 -0.7590 -0.2144
   19CHTO  C100 7731   5.051   6.542   0.996 -0.2193 -0.2465 -0.0097
   19CHTO  H187 7732   4.947   6.534   1.031 -0.0118 -0.1453  0.6272
   19CHTO  C107 7733   5.133   6.416   1.039  0.6398  0.1883 -0.4046
   19CHTO   O70 7734   5.052   6.297   1.031 -0.2379 -0.1662 -0.2334
   19CHTO  H170 7735   4.993   6.288   1.103  0.2511  3.1496  0.6939
   19CHTO   O57 7736   5.016   6.634   0.629 -0.1991  0.0044  0.2727
   19CHTO   C85 7737   4.900   6.612   0.540 -0.1192  0.0116 -0.0662
   19CHTO  H157 7738   4.812   6.589   0.605  0.2788 -1.4460 -0.0145
   19CHTO   C83 7739   4.930   6.485   0.450  0.3347 -0.6080  0.1828
   19CHTO  H155 7740   4.942   6.404   0.522 -0.9575 -0.0798  0.9978
   19CHTO   O56 7741   5.054   6.488   0.373  0.1163  0.2900  0.6373
   19CHTO  H135 7742   5.097   6.571   0.369  0.3605  0.1068 -2.8542
   19CHTO   C81 7743   4.803   6.453   0.363 -0.5590 -0.0320 -0.1580
   19CHTO  H153 7744   4.716   6.451   0.429 -1.2465 -1.2365 -1.0788
   19CHTO   N14 7745   4.812   6.313   0.318 -0.5878  0.0753 -0.6921
   19CHTO  H141 7746   4.892   6.290   0.249  0.3598  1.5614 -0.1145
   19CHTO  H142 7747   4.718   6.275   0.286 -0.0329 -1.2321 -0.8057
   19CHTO   C79 7748   4.777   6.565   0.253 -0.9140 -0.1623  0.0341
   19CHTO  H151 7749   4.676   6.553   0.215 -0.8952  4.1953 -1.7086
   19CHTO   O52 7750   4.770   6.692   0.325 -0.0312  0.2182  0.0908
   19CHTO   C86 7751   4.864   6.722   0.432 -0.3291  0.0427 -0.4408
   19CHTO  H158 7752   4.959   6.755   0.386  0.6494  0.1359  1.6035
   19CHTO   C90 7753   4.817   6.849   0.515 -0.4638  0.7428  0.0601
   19CHTO   O60 7754   4.770   6.957   0.436 -0.0160 -0.6268  0.2071
   19CHTO  H138 7755   4.844   6.989   0.388 -1.0429  1.0155 -0.3023
   19CHTO   O50 7756   4.869   6.579   0.142 -0.0184  0.7545  0.3931
   19CHTO   C73 7757   4.889   6.614   0.003 -0.3725  0.6902 -0.2203
   19CHTO  H145 7758   4.846   6.534  -0.060  0.5745 -1.1205  1.3921
   19CHTO   C74 7759   5.042   6.626  -0.026 -0.2326  0.2173 -0.0474
   19CHTO  H146 7760   5.077   6.534   0.023 -0.1975 -0.3786 -1.1788
   19CHTO   O54 7761   5.042   6.610  -0.173  0.1198  0.0306 -0.2705
   19CHTO  H133 7762   5.021   6.695  -0.208 -0.1553 -0.0088 -0.2052
   19CHTO   C75 7763   5.097   6.766   0.045 -0.0179  0.1239 -0.1506
   19CHTO  H147 7764   5.102   6.754   0.154 -0.2799 -0.6378 -0.2263
   19CHTO   N13 7765   5.227   6.804   0.006  0.5837 -0.2610 -0.0727
   19CHTO  H139 7766   5.301   6.730   0.033  1.2952  1.1954  2.1256
   19CHTO  H140 7767   5.236   6.821  -0.100 -1.1577  2.6671  0.1817
   19CHTO   C76 7768   4.988   6.894   0.009 -0.8892 -1.0701 -0.3537
   19CHTO  H148 7769   5.001   6.924  -0.096 -0.1423 -0.1136  0.0057
   19CHTO   O49 7770   4.846   6.869   0.031  0.2923  0.2400 -0.5071
   19CHTO   C77 7771   4.807   6.746  -0.038  0.0615  0.0010  0.5014
   19CHTO  H149 7772   4.815   6.765  -0.145  0.7836 -2.2235  0.1313
   19CHTO   C88 7773   4.653   6.729  -0.021 -0.1166 -0.4766  0.6283
   19CHTO   O58 7774   4.591   6.685  -0.138  0.4869 -0.1549  0.3247
   19CHTO  H136 7775   4.584   6.756  -0.199  3.0903 -1.2155 -1.2666
   19CHTO   O51 7776   5.013   7.021   0.118 -0.2779 -0.8115 -0.8407
   19CHTO   C78 7777   5.009   7.167   0.049 -0.0545 -0.3604  0.0908
   19CHTO  H150 7778   4.963   7.173  -0.053  0.3164  0.8483 -0.0041
   19CHTO   C80 7779   5.148   7.232   0.037 -0.5089 -0.1534 -0.4819
   19CHTO  H152 7780   5.187   7.242   0.140  0.4289  1.1378 -0.9422
   19CHTO   O55 7781   5.221   7.151  -0.055  0.0591  0.1407 -0.6522
   19CHTO  H134 7782   5.304   7.188  -0.079  0.1849  0.6013  0.4138
   19CHTO   C84 7783   5.139   7.376  -0.018 -0.1816 -0.4600 -0.1905
   19CHTO  H156 7784   5.090   7.378  -0.116 -1.1045  3.5772  0.2747
   19CHTO   N15 7785   5.267   7.451  -0.029 -0.6351 -0.0309  0.4218
   19CHTO  H143 7786   5.269   7.547  -0.076  1.7733 -0.1374  0.2475
   19CHTO  H144 7787   5.324   7.462   0.062 -1.3081  1.4155  0.6968
   19CHTO   C87 7788   5.043   7.453   0.071 -0.1804  0.1138 -0.5428
   19CHTO  H159 7789   5.091   7.471   0.167  0.9649 -0.8836 -0.9195
   19CHTO   O53 7790   4.916   7.387   0.087  0.0799  0.1711  0.2587
   19CHTO   C82 7791   4.924   7.255   0.141 -0.1902  0.3984 -0.0584
   19CHTO  H154 7792   4.968   7.260   0.240  3.2408  1.5910 -1.5642
   19CHTO   C89 7793   4.776   7.197   0.156 -0.2776  0.5559  0.5087
   19CHTO   O59 7794   4.701   7.275   0.246 -0.1402 -0.0378  0.2247
   19CHTO  H137 7795   4.615   7.239   0.260 -0.2275  0.2950  0.5328
   19CHTO   O45 7796   5.005   7.604  -0.006 -0.5386 -0.7284  0.0882
   19CHTO   C67 7797   4.890   7.676   0.047 -0.0373 -0.5148 -1.7611
   19CHTO  H124 7798   4.835   7.627   0.127  1.4457  1.3383  0.4696
   19CHTO   C65 7799   4.931   7.816   0.108  0.6114 -0.6247  0.2988
   19CHTO  H122 7800   5.033   7.824   0.069 -0.0871  0.0140 -1.4340
   19CHTO   O44 7801   4.924   7.810   0.249 -0.1257  0.2099  0.3354
   19CHTO  H102 7802   4.987   7.870   0.283 -1.7989  0.8615  2.3647
   19CHTO   C63 7803   4.855   7.939   0.046  0.7246 -0.1288  0.0047
   19CHTO  H120 7804   4.880   7.943  -0.061  1.2458  0.4564  0.1441
   19CHTO   N11 7805   4.903   8.075   0.090  0.1502  0.0993 -0.0910
   19CHTO  H108 7806   4.873   8.091   0.192  0.8060  0.8360 -0.0051
   19CHTO  H109 7807   4.851   8.154   0.041  3.1811  1.6978 -0.8234
   19CHTO   C61 7808   4.700   7.908   0.049  0.4825 -0.0150 -0.4540
   19CHTO  H118 7809   4.647   7.990  -0.001  0.2824  0.4160  0.4529
   19CHTO   O40 7810   4.673   7.782  -0.030 -0.4162  0.2430 -0.4053
   19CHTO   C68 7811   4.791   7.695  -0.068 -0.1693 -0.8473 -0.2868
   19CHTO  H125 7812   4.835   7.758  -0.148 -1.6728 -0.1595 -0.6005
   19CHTO   C72 7813   4.746   7.564  -0.135 -0.6082 -0.9332  0.7165
   19CHTO   O48 7814   4.679   7.475  -0.043  0.2341  0.0693  0.1688
   19CHTO  H105 7815   4.736   7.401  -0.031 -0.5630 -0.6180 -0.2034
   19CHTO   O38 7816   4.661   7.913   0.187  0.5581 -0.5555  0.1188
   19CHTO   C55 7817   4.532   7.857   0.220  0.3142 -0.1321 -0.0424
   19CHTO  H112 7818   4.503   7.787   0.140 -0.4385 -1.9137  1.7501
   19CHTO   C56 7819   4.429   7.966   0.231  0.1167 -0.1902 -0.2023
   19CHTO  H113 7820   4.452   8.025   0.321 -5.1527  0.1334  1.1042
   19CHTO   O42 7821   4.429   8.048   0.110 -0.4285  0.1318 -0.4185
   19CHTO  H100 7822   4.503   8.105   0.103 -0.4593  0.3014  0.6650
   19CHTO   C57 7823   4.292   7.907   0.259  0.3456  0.3937 -0.1967
   19CHTO  H114 7824   4.259   7.859   0.167 -1.0149  2.3246 -0.7501
   19CHTO   N10 7825   4.184   8.012   0.279  0.1109  0.2928  0.3364
   19CHTO  H106 7826   4.211   8.102   0.225  3.0821  0.3394  1.8213
   19CHTO  H107 7827   4.175   8.031   0.385  1.9323 -2.6929  1.0778
   19CHTO   C58 7828   4.289   7.806   0.380 -0.4313  0.7070  0.4867
   19CHTO  H115 7829   4.301   7.863   0.474  2.0870  1.0389 -0.0053
   19CHTO   O37 7830   4.404   7.715   0.364  0.3592 -0.1565  0.4838
   19CHTO   C59 7831   4.532   7.780   0.358 -0.4895  0.5105  1.0790
   19CHTO  H116 7832   4.557   7.844   0.443 -0.6028  3.6615 -1.1895
   19CHTO   C70 7833   4.627   7.658   0.351 -0.2634  0.5736  0.4123
   19CHTO   O46 7834   4.623   7.576   0.462  0.8356 -0.1431  0.4091
   19CHTO  H103 7835   4.653   7.632   0.531  0.4657 -1.1745  1.4285
   19CHTO   O39 7836   4.157   7.687   0.380  0.4375  0.3207  0.0382
   19CHTO   C60 7837   4.140   7.592   0.273  0.9118 -0.0685 -0.0097
   19CHTO  H117 7838   4.187   7.637   0.185  0.3280  1.1734  0.2931
   19CHTO   C62 7839   4.222   7.463   0.290 -0.0029  0.3366 -0.1991
   19CHTO  H119 7840   4.330   7.478   0.314 -0.2688  3.2672 -0.6095
   19CHTO   O43 7841   4.162   7.392   0.400 -0.2423 -0.1644 -0.4536
   19CHTO  H101 7842   4.071   7.378   0.384 -0.0728 -2.6040  0.4390
   19CHTO   C66 7843   4.215   7.372   0.160 -0.4528 -0.4856 -0.7466
   19CHTO  H123 7844   4.268   7.425   0.081  2.3416  0.0555  1.3854
   19CHTO   N12 7845   4.289   7.247   0.170  0.2386  0.3498  0.0618
   19CHTO  H110 7846   4.260   7.182   0.251 -2.1508  2.3698  0.8829
   19CHTO  H111 7847   4.307   7.194   0.077 -1.7195 -0.3907  0.0763
   19CHTO   C69 7848   4.068   7.335   0.121  0.2034 -1.0689 -0.7971
   19CHTO  H126 7849   4.025   7.267   0.198 -1.0994  1.7565  1.0389
   19CHTO   O41 7850   3.980   7.466   0.117  0.0197  0.0311  0.4286
   19CHTO   C64 7851   3.989   7.561   0.238 -0.5481 -0.0742 -0.4613
   19CHTO  H121 7852   3.939   7.513   0.325  0.0811  1.9768  1.0705
   19CHTO   C71 7853   3.907   7.690   0.195  0.4902  0.0346 -0.2291
   19CHTO   O47 7854   3.766   7.672   0.186  0.5764  0.3413  0.7469
   19CHTO  H104 7855   3.741   7.655   0.275 -0.9361  0.6691  0.4032
   19CHTO   O34 7856   4.063   7.255  -0.014  0.2937  0.1682  0.4601
   19CHTO   C49 7857   3.985   7.255  -0.145 -0.2049 -0.1900 -0.3114
   19CHTO   H91 7858   3.880   7.267  -0.121  0.5419  0.1762  2.9409
   19CHTO   C47 7859   4.022   7.127  -0.227  0.0505 -0.2196 -0.1385
   19CHTO   H89 7860   3.950   7.126  -0.311 -1.3357  0.5011  1.0248
   19CHTO   O33 7861   3.993   7.007  -0.149 -0.0467  0.0128  0.1409
   19CHTO   H70 7862   3.905   6.981  -0.167 -0.4063  1.4932 -0.2960
   19CHTO   C45 7863   4.171   7.119  -0.286 -0.0455 -0.0846 -0.5586
   19CHTO   H87 7864   4.240   7.070  -0.216  1.0233  1.6840 -0.3230
   19CHTO    N8 7865   4.167   7.030  -0.403  0.2571 -0.2555 -0.6080
   19CHTO   H75 7866   4.098   7.079  -0.470  1.8028  1.5769 -0.8939
   19CHTO   H76 7867   4.257   7.021  -0.461 -0.4813  1.3567 -2.0551
   19CHTO   C43 7868   4.231   7.274  -0.305  1.0864  0.9826 -0.8907
   19CHTO   H85 7869   4.271   7.303  -0.208 -0.8520  0.3637  0.1178
   19CHTO   O29 7870   4.124   7.355  -0.340 -0.0846 -0.0401  0.5961
   19CHTO   C50 7871   4.031   7.377  -0.229  0.5082  0.6104  0.3045
   19CHTO   H92 7872   4.065   7.456  -0.160 -0.0300  1.2020 -0.1105
   19CHTO   C54 7873   3.917   7.443  -0.300 -0.1737  0.2513  0.2341
   19CHTO   O36 7874   3.825   7.495  -0.203  0.3323  0.2425 -0.2948
   19CHTO   H72 7875   3.865   7.572  -0.168  0.6771  0.3108 -0.8355
   19CHTO   O27 7876   4.338   7.288  -0.398  0.1044 -0.1812  0.2066
   19CHTO   C37 7877   4.453   7.283  -0.478  0.4643  0.2205 -0.2739
   19CHTO   H79 7878   4.448   7.190  -0.536 -0.0839  1.2826 -1.9477
   19CHTO   C38 7879   4.442   7.400  -0.582  0.1755 -0.6630 -0.5457
   19CHTO   H80 7880   4.416   7.490  -0.524 -0.8145 -1.4729  0.2943
   19CHTO   O31 7881   4.339   7.368  -0.682 -0.3146  0.8582  0.2419
   19CHTO   H68 7882   4.256   7.348  -0.645  0.1176 -0.3649  0.5529
   19CHTO   C39 7883   4.579   7.421  -0.660 -0.5543 -0.3864  0.1659
   19CHTO   H81 7884   4.601   7.339  -0.727 -0.5515 -1.0056  0.9208
   19CHTO    N7 7885   4.589   7.542  -0.746  0.4975  0.2808  0.0340
   19CHTO   H73 7886   4.515   7.616  -0.720  1.8555  1.2473  1.1372
   19CHTO   H74 7887   4.686   7.588  -0.746 -0.2058  1.9083 -2.8329
   19CHTO   C40 7888   4.694   7.420  -0.552 -0.0588  0.4477  0.1179
   19CHTO   H82 7889   4.691   7.510  -0.491  3.2368 -1.3648  3.1526
   19CHTO   O26 7890   4.690   7.293  -0.471  0.3431 -0.5090 -0.3016
   19CHTO   C41 7891   4.575   7.294  -0.390 -0.0685 -0.6080  0.8285
   19CHTO   H83 7892   4.576   7.391  -0.339  0.0277 -0.5178  0.6557
   19CHTO   C52 7893   4.580   7.184  -0.276 -0.1812 -0.6768 -0.5810
   19CHTO   O35 7894   4.483   7.192  -0.157 -0.3392 -0.0388  0.0874
   19CHTO   H71 7895   4.453   7.281  -0.153  0.8193  0.3675  0.1068
   19CHTO   O28 7896   4.830   7.404  -0.608  0.1940  0.5324 -0.1068
   19CHTO   C42 7897   4.960   7.457  -0.565  0.5387  0.1066 -0.0661
   19CHTO   H84 7898   4.939   7.479  -0.460 -0.0339  0.5343 -0.2681
   19CHTO   C44 7899   5.003   7.582  -0.629 -0.2559  0.1278 -0.4941
   19CHTO   H86 7900   5.002   7.576  -0.738  0.4997  1.5693 -0.5926
   19CHTO   O32 7901   4.906   7.688  -0.602 -0.2641 -0.3549 -0.0731
   19CHTO   H69 7902   4.822   7.670  -0.640 -0.6485 -1.5231  1.3062
   19CHTO   C48 7903   5.153   7.627  -0.587  0.1191 -0.7478 -0.4061
   19CHTO   H90 7904   5.147   7.676  -0.490 -0.2048  0.5410 -1.0564
   19CHTO    N9 7905   5.200   7.743  -0.672  0.5895  0.3706  0.1691
   19CHTO   H77 7906   5.116   7.807  -0.692 -1.2008 -1.7698  0.6383
   19CHTO   H78 7907   5.251   7.706  -0.760 -1.5841  0.0767 -0.9959
   19CHTO   C51 7908   5.245   7.505  -0.582  0.3032 -0.0852 -0.1745
   19CHTO   H93 7909   5.255   7.481  -0.688  0.5593 -1.2332  0.1082
   19CHTO   O30 7910   5.193   7.392  -0.510 -0.4416 -0.4266  0.4818
   19CHTO   C46 7911   5.064   7.344  -0.574  0.6290  0.6169 -0.0674
   19CHTO   H88 7912   5.084   7.306  -0.675 -2.2273 -2.5743  0.4974
   19CHTO   C53 7913   5.009   7.223  -0.498 -0.7522  0.7854 -0.1593
   19CHTO   O72 7914   5.108   7.124  -0.484 -0.5215  0.3332 -0.0899
   19CHTO  H199 7915   5.077   7.038  -0.463  0.2578  0.3173  1.0500
   19CHTO   O22 7916   5.368   7.545  -0.532  0.2442 -0.1481 -0.0718
   19CHTO   C31 7917   5.488   7.469  -0.569 -0.5391 -0.4468  0.1730
   19CHTO   H59 7918   5.456   7.365  -0.591  0.9748 -1.0018  0.5179
   19CHTO   C29 7919   5.553   7.520  -0.696 -0.2598 -0.7849  1.2309
   19CHTO   H57 7920   5.575   7.625  -0.671 -3.1988 -0.0887  1.0259
   19CHTO   O21 7921   5.464   7.524  -0.801 -0.2172 -0.0285 -0.0894
   19CHTO   H37 7922   5.446   7.439  -0.835 -1.0004  0.0923 -0.0019
   19CHTO   C27 7923   5.688   7.439  -0.732 -0.2727  0.0515  0.4264
   19CHTO   H55 7924   5.661   7.346  -0.784  0.1943  1.9234 -3.2923
   19CHTO    N5 7925   5.772   7.517  -0.833  0.1759 -0.2301  0.4084
   19CHTO   H43 7926   5.878   7.512  -0.814 -0.2234 -2.4390  2.2638
   19CHTO   H44 7927   5.749   7.488  -0.934  0.7252 -0.3185  0.3091
   19CHTO   C25 7928   5.773   7.392  -0.607  0.4676 -0.5217  0.2333
   19CHTO   H53 7929   5.845   7.467  -0.571  2.1524 -2.6920  1.5442
   19CHTO   O17 7930   5.689   7.354  -0.494 -0.5572  0.2200  0.1930
   19CHTO   C32 7931   5.590   7.456  -0.452 -1.3990 -0.2497 -0.5207
   19CHTO   H60 7932   5.635   7.554  -0.435 -0.7868 -0.7597  0.8761
   19CHTO   C36 7933   5.528   7.417  -0.322  0.0932 -0.9425  0.2861
   19CHTO   O25 7934   5.494   7.279  -0.309 -0.1050 -0.4260 -0.7965
   19CHTO   H40 7935   5.409   7.272  -0.271 -1.1773  0.4623 -2.9375
   19CHTO   O15 7936   5.857   7.267  -0.652  0.3223 -0.0016  0.3445
   19CHTO   C19 7937   5.855   7.127  -0.629 -0.4662 -1.0111 -0.1758
   19CHTO   H47 7938   5.852   7.116  -0.519 -1.4732  0.5199 -0.0462
   19CHTO   C20 7939   5.734   7.065  -0.696  0.2317  0.6216  0.4308
   19CHTO   H48 7940   5.734   7.085  -0.804 -1.0630  1.8448  0.6442
   19CHTO   O19 7941   5.613   7.130  -0.646  0.2522 -0.1542  0.0543
   19CHTO   H35 7942   5.538   7.135  -0.703  0.8568  0.9579 -0.6624
   19CHTO   C21 7943   5.733   6.908  -0.660  0.0545 -0.0840  0.2068
   19CHTO   H49 7944   5.724   6.897  -0.552  0.7182 -1.6271  0.1120
   19CHTO    N4 7945   5.613   6.841  -0.717  0.2316 -0.2402 -0.0411
   19CHTO   H41 7946   5.612   6.735  -0.698  0.4675 -0.0349  1.1129
   19CHTO   H42 7947   5.523   6.885  -0.675  1.6603  0.8309  1.9586
   19CHTO   C22 7948   5.867   6.845  -0.714  0.4570  0.5349  1.2064
   19CHTO   H50 7949   5.872   6.847  -0.823 -0.1100 -0.1373  1.1609
   19CHTO   O14 7950   5.980   6.910  -0.658  0.1864  0.0290  0.3167
   19CHTO   C23 7951   5.984   7.056  -0.685 -0.3450 -0.0554  0.5638
   19CHTO   H51 7952   5.992   7.069  -0.794 -0.2616  0.9106  0.6792
   19CHTO   C34 7953   6.110   7.112  -0.625 -0.4296  0.4869 -0.5399
   19CHTO   O23 7954   6.118   7.114  -0.484  0.4647  0.2455 -0.3822
   19CHTO   H38 7955   6.162   7.037  -0.455 -1.1900 -1.3086 -1.8354
   19CHTO   O16 7956   5.875   6.713  -0.660 -0.0228  0.3894  0.5803
   19CHTO   C24 7957   5.932   6.581  -0.755  0.1622 -0.1228 -0.3572
   19CHTO   H52 7958   5.958   6.493  -0.696  0.5367 -1.3174 -2.2461
   19CHTO   C26 7959   6.060   6.621  -0.827 -0.0592  0.0625  0.8146
   19CHTO   H54 7960   6.038   6.705  -0.897  0.3734  0.1422  0.7719
   19CHTO   O20 7961   6.166   6.669  -0.734  0.4586 -0.5007 -0.1917
   19CHTO   H36 7962   6.137   6.752  -0.701  3.1060  0.7535 -0.8342
   19CHTO   C30 7963   6.113   6.496  -0.908  0.5422 -0.3094 -0.1893
   19CHTO   H58 7964   6.133   6.413  -0.839 -3.7203  0.3069  1.9635
   19CHTO    N6 7965   6.243   6.521  -0.982 -0.0536  0.0769 -0.2620
   19CHTO   H45 7966   6.237   6.452  -1.065 -1.1152  1.8908 -1.7234
   19CHTO   H46 7967   6.328   6.497  -0.919 -0.3397 -2.4968 -0.7899
   19CHTO   C33 7968   6.003   6.446  -1.005  0.4479 -0.1037  0.4579
   19CHTO   H61 7969   5.994   6.511  -1.094 -0.8373 -1.9417 -0.7894
   19CHTO   O18 7970   5.876   6.438  -0.936  0.2719  0.3008  0.4323
   19CHTO   C28 7971   5.823   6.543  -0.850  1.4211  0.8126  0.5043
   19CHTO   H56 7972   5.799   6.631  -0.909  2.4951 -0.3088 -1.7095
   19CHTO   C35 7973   5.699   6.492  -0.771  0.1646  0.2115  0.8058
   19CHTO   O24 7974   5.585   6.494  -0.847 -0.1025 -0.3462  0.3552
   19CHTO   H39 7975   5.514   6.479  -0.788  0.3975  1.1879  1.3700
   19CHTO    O9 7976   6.041   6.318  -1.065  0.3854 -0.0601 -0.1006
   19CHTO   C13 7977   6.056   6.306  -1.235 -0.2191 -0.1675  0.3107
   19CHTO   H26 7978   6.140   6.368  -1.274 -0.8167  0.4727  0.0275
   19CHTO   C11 7979   5.913   6.342  -1.309 -0.1890  0.1974  0.0674
   19CHTO   H24 7980   5.933   6.410  -1.393  0.8793  1.6978  1.5080
   19CHTO    O8 7981   5.827   6.416  -1.220  0.1443  0.3681 -0.2751
   19CHTO    H3 7982   5.868   6.479  -1.164 -1.6035  0.9719  0.3586
   19CHTO    C9 7983   5.833   6.214  -1.363  0.3464 -0.1689  0.6993
   19CHTO   H22 7984   5.884   6.187  -1.457  1.1784  0.5017  0.9548
   19CHTO    N2 7985   5.704   6.243  -1.430 -1.2814 -0.0941 -0.3615
   19CHTO   H10 7986   5.724   6.332  -1.489  0.4947  0.2299  0.6836
   19CHTO   H11 7987   5.650   6.272  -1.341 -0.1623 -0.4889  0.4716
   19CHTO    C7 7988   5.849   6.094  -1.259  0.8227  1.1351 -0.6553
   19CHTO   H20 7989   5.802   6.006  -1.307  0.7710  0.5238  0.5091
   19CHTO    O4 7990   5.985   6.066  -1.224 -0.3936 -0.4985 -0.0120
   19CHTO   C14 7991   6.096   6.155  -1.265  0.4562 -0.4704  0.6773
   19CHTO   H27 7992   6.117   6.136  -1.373  0.8733 -0.4934  0.7624
   19CHTO   C18 7993   6.228   6.133  -1.189 -0.0677 -0.1671  0.2911
   19CHTO   O13 7994   6.280   6.017  -1.247  0.3202 -0.1437  0.3772
   19CHTO    H7 7995   6.343   6.048  -1.310 -1.0086  0.6957 -0.5584
   19CHTO    O2 7996   5.752   6.109  -1.124  0.0595 -0.2652  0.1529
   19CHTO    C1 7997   5.739   5.990  -1.053  0.4519 -0.0042  0.3380
   19CHTO   H14 7998   5.830   5.929  -1.072 -0.1674 -0.9068  0.2458
   19CHTO    C2 7999   5.609   5.903  -1.078 -0.3902  0.0818 -0.7502
   19CHTO   H15 8000   5.526   5.963  -1.037 -0.7493 -1.8433  1.4894
   19CHTO    O6 8001   5.590   5.875  -1.214 -0.6558 -0.3729 -0.0144
   19CHTO    H1 8002   5.511   5.919  -1.239  0.8396  3.0882  1.0001
   19CHTO    C3 8003   5.631   5.773  -0.983 -0.0300 -0.5913 -0.1854
   19CHTO   H16 8004   5.725   5.736  -1.026 -1.1591 -2.3178 -1.2442
   19CHTO    N1 8005   5.517   5.675  -1.000 -0.0070 -0.1920 -0.2840
   19CHTO    H8 8006   5.452   5.679  -1.086 -2.1684 -0.7294  1.2836
   19CHTO    H9 8007   5.449   5.693  -0.917 -1.8538  2.1728 -2.2374
   19CHTO    C4 8008   5.659   5.811  -0.832 -0.2343 -0.0863 -0.3603
   19CHTO   H17 8009   5.568   5.848  -0.784  0.3180  1.7898 -0.7212
   19CHTO    O1 8010   5.772   5.903  -0.826  0.3131 -0.4195 -0.1967
   19CHTO    C5 8011   5.743   6.024  -0.898 -0.4384  0.5338 -0.1062
   19CHTO   H18 8012   5.647   6.069  -0.871 -0.5493  0.1019  0.2169
   19CHTO   C16 8013   5.855   6.117  -0.850  0.2191  0.5444  0.0092
   19CHTO   O11 8014   5.986   6.075  -0.882 -0.5664  0.3210 -0.1279
   19CHTO    H5 8015   6.038   6.136  -0.930 -3.3004  1.1238 -2.2291
   19CHTO    O3 8016   5.716   5.694  -0.758 -0.1672  0.6521  0.3197
   19CHTO    C6 8017   5.663   5.661  -0.625 -1.0324 -0.5181  0.4576
   19CHTO   H19 8018   5.592   5.736  -0.590 -0.7341  1.0996 -2.2373
   19CHTO    C8 8019   5.592   5.523  -0.640 -0.1962 -0.3626  0.7094
   19CHTO   H21 8020   5.666   5.457  -0.684  0.6985 -0.0488  1.7039
   19CHTO    O7 8021   5.478   5.527  -0.729  0.2881 -0.6157 -0.6244
   19CHTO    H2 8022   5.415   5.590  -0.699  1.3611 -0.2732  0.9740
   19CHTO   C12 8023   5.557   5.461  -0.496  0.0187  0.2889 -0.7293
   19CHTO   H25 8024   5.468   5.515  -0.459  1.1107 -0.4041  3.1637
   19CHTO    N3 8025   5.513   5.313  -0.512 -0.4584 -0.8116  0.4369
   19CHTO   H12 8026   5.493   5.268  -0.415 -0.6967  0.2776  0.9073
   19CHTO   H13 8027   5.595   5.268  -0.565  0.9371  1.3020  0.7224
   19CHTO   C15 8028   5.669   5.482  -0.384  0.3242 -0.8225 -0.4248
   19CHTO   H28 8029   5.741   5.401  -0.393  0.3400 -1.1038  1.9705
   19CHTO   O10 8030   5.601   5.484  -0.254  0.1850 -0.9196 -0.2121
   19CHTO    H4 8031   5.560   5.401  -0.234  1.0109 -1.8013 -2.0365
   19CHTO    O5 8032   5.708   5.622  -0.395 -0.3842  0.4585  0.1109
   19CHTO   C10 8033   5.779   5.650  -0.518  0.4247  0.2966  0.6528
   19CHTO   H23 8034   5.839   5.565  -0.551 -0.7566 -0.0633 -0.6509
   19CHTO   C17 8035   5.854   5.777  -0.490  0.2068 -0.5639  0.0645
   19CHTO   O12 8036   5.936   5.796  -0.606 -0.2370  0.5724 -0.3111
   19CHTO    H6 8037   5.986   5.875  -0.598  0.8755 -0.0145 -1.2388
   20CHTO  H203 8038   5.782   1.280   0.266 -1.0001  0.1866 -1.1758
   20CHTO   O82 8039   5.703   1.255   0.309 -0.4729  0.3867 -0.0880
   20CHTO  C123 8040   5.649   1.380   0.355  0.5023 -0.2553 -0.3287
   20CHTO  H227 8041   5.638   1.449   0.270 -0.1043  0.7753  0.5666
   20CHTO   O77 8042   5.516   1.339   0.413 -0.4982  0.1979 -0.0027
   20CHTO  C118 8043   5.432   1.457   0.423 -0.5466 -0.6290 -0.5802
   20CHTO  H222 8044   5.437   1.519   0.332 -0.3416  1.9205  1.1326
   20CHTO  C125 8045   5.287   1.411   0.437  0.5681  1.2928 -0.4123
   20CHTO   O84 8046   5.180   1.513   0.434  0.4711 -0.2438 -0.1257
   20CHTO  H205 8047   5.197   1.562   0.356  2.3882  0.6089  0.7654
   20CHTO  C114 8048   5.485   1.541   0.540  0.5454 -0.5344  0.5042
   20CHTO  H218 8049   5.481   1.479   0.629 -1.2327  0.5095  1.1575
   20CHTO  C116 8050   5.639   1.574   0.523  0.1546 -0.4874  0.0250
   20CHTO  H220 8051   5.647   1.655   0.447 -2.7381  2.5495  2.7720
   20CHTO   O79 8052   5.686   1.633   0.645 -0.0349 -0.6681  0.0906
   20CHTO  H201 8053   5.779   1.639   0.645 -0.1232  1.4823 -1.6053
   20CHTO  C120 8054   5.730   1.446   0.473 -0.2811 -1.1413 -0.2726
   20CHTO  H224 8055   5.727   1.368   0.553 -0.9307 -1.9593 -1.0806
   20CHTO   N21 8056   5.871   1.481   0.442 -0.6957  0.4142  0.1119
   20CHTO  H211 8057   5.885   1.508   0.338  3.2055  1.7697  0.9006
   20CHTO  H212 8058   5.916   1.555   0.507 -0.8654  0.8357 -0.2471
   20CHTO   O75 8059   5.397   1.649   0.558  0.1708 -0.4158 -0.2261
   20CHTO  C112 8060   5.427   1.787   0.477  0.2578  0.3081 -0.6413
   20CHTO  H216 8061   5.449   1.768   0.370  1.4137  0.0589 -0.3668
   20CHTO   O73 8062   5.537   1.855   0.544 -0.0580  0.3887  0.3653
   20CHTO  C113 8063   5.587   1.975   0.495 -0.0246 -0.2983  0.6081
   20CHTO  H217 8064   5.626   1.959   0.393  0.9029 -0.1064  0.9317
   20CHTO  C124 8065   5.706   2.027   0.577  0.0034  0.0747 -0.0080
   20CHTO   O83 8066   5.820   1.945   0.552 -0.4304 -0.1050  0.1793
   20CHTO  H204 8067   5.825   1.919   0.462 -0.7618  1.2037 -0.2229
   20CHTO  C109 8068   5.475   2.076   0.491 -0.4843 -0.5601 -0.7132
   20CHTO  H213 8069   5.447   2.102   0.594 -3.1532 -2.7229 -0.8292
   20CHTO  C110 8070   5.357   2.017   0.407 -0.8814  0.0433 -0.2998
   20CHTO  H214 8071   5.391   1.995   0.306 -0.4606  1.2278 -0.4248
   20CHTO   O78 8072   5.255   2.124   0.398 -0.7143  0.0528  0.7019
   20CHTO  H200 8073   5.204   2.115   0.319 -0.3375  2.1933  0.1873
   20CHTO  C111 8074   5.312   1.892   0.487 -0.1798  0.3470  0.1141
   20CHTO  H215 8075   5.293   1.924   0.590  0.3171 -2.1834  1.0163
   20CHTO   N19 8076   5.184   1.828   0.439 -0.3919  0.9214  0.3577
   20CHTO  H207 8077   5.179   1.724   0.469 -0.7955 -0.5525 -4.3483
   20CHTO  H208 8078   5.096   1.883   0.468 -0.0407  1.9422 -0.4738
   20CHTO   O74 8079   5.529   2.200   0.425  0.1245 -0.0459 -0.4421
   20CHTO  C115 8080   5.454   2.343   0.462 -0.1736  0.5942 -0.1866
   20CHTO  H219 8081   5.364   2.322   0.520  1.1713 -0.1883  1.6610
   20CHTO   O76 8082   5.540   2.427   0.558 -0.1586  0.3357  0.1904
   20CHTO  C122 8083   5.676   2.447   0.514 -0.1888 -0.9628 -0.2865
   20CHTO  H226 8084   5.730   2.352   0.517  0.5181 -0.5260  2.7634
   20CHTO  C126 8085   5.757   2.545   0.609  0.1588  0.1543 -0.9120
   20CHTO   O85 8086   5.776   2.508   0.746  0.1655 -0.4619 -0.0291
   20CHTO  H206 8087   5.863   2.509   0.782 -0.1006 -0.5724  0.6260
   20CHTO  C121 8088   5.675   2.499   0.365  0.0769  0.2371 -0.1479
   20CHTO  H225 8089   5.745   2.585   0.365 -0.6229  0.8267  1.6885
   20CHTO   O81 8090   5.729   2.395   0.280 -0.3832 -0.3340  0.3493
   20CHTO  H202 8091   5.819   2.415   0.262 -1.0302  0.7458 -1.8963
   20CHTO  C119 8092   5.533   2.545   0.325  0.0534 -0.2149 -0.0104
   20CHTO  H223 8093   5.500   2.619   0.398 -0.0733 -0.3781  0.0972
   20CHTO  C117 8094   5.433   2.431   0.328  0.1641  0.6421 -0.0672
   20CHTO  H221 8095   5.448   2.365   0.243  1.5160 -0.4090  0.9782
   20CHTO   N20 8096   5.293   2.490   0.313  0.5135 -0.2630 -0.0253
   20CHTO  H209 8097   5.289   2.505   0.206  1.1500 -1.9744 -0.3115
   20CHTO  H210 8098   5.293   2.581   0.371 -1.0724  0.2156 -0.7579
   20CHTO   O80 8099   5.503   2.630   0.170  0.0229 -0.1740  0.3280
   20CHTO  C103 8100   5.548   2.779   0.149 -0.3059 -0.2546  0.3580
   20CHTO  H190 8101   5.479   2.851   0.194  1.5173  0.0812  2.7103
   20CHTO  C101 8102   5.696   2.821   0.182  0.1642  0.5140 -0.2374
   20CHTO  H188 8103   5.759   2.739   0.146 -0.7487 -1.2496  2.0573
   20CHTO   O68 8104   5.704   2.821   0.337  0.3525 -0.0159 -0.0330
   20CHTO  H168 8105   5.720   2.910   0.364  2.9000 -0.2019 -0.7519
   20CHTO   C99 8106   5.737   2.956   0.115 -0.2233 -0.1703  0.1364
   20CHTO  H186 8107   5.674   3.036   0.159  0.2156  0.1368  0.1986
   20CHTO   N17 8108   5.878   2.997   0.143 -1.1127 -0.0394 -0.7392
   20CHTO  H174 8109   5.940   2.915   0.108  0.0407 -0.4089  2.0679
   20CHTO  H175 8110   5.887   3.022   0.247 -1.4190 -0.1275 -0.6906
   20CHTO   C97 8111   5.702   2.956  -0.035 -0.7382  0.4515 -0.0744
   20CHTO  H184 8112   5.770   2.884  -0.084  0.1212  0.3888  1.1922
   20CHTO   O64 8113   5.564   2.927  -0.059  0.1097 -0.1199 -0.1094
   20CHTO  C104 8114   5.528   2.801  -0.007  0.2173  0.2946 -0.2919
   20CHTO  H191 8115   5.586   2.725  -0.059 -1.1359 -0.1069 -1.2523
   20CHTO  C108 8116   5.381   2.766  -0.031 -0.3054 -0.3676  0.2997
   20CHTO   O71 8117   5.295   2.869   0.017  0.1714  0.4464  0.0714
   20CHTO  H171 8118   5.206   2.840   0.011  0.1562  0.2446  1.1892
   20CHTO   O62 8119   5.718   3.089  -0.095  0.5190 -0.3799  0.3694
   20CHTO   C91 8120   5.763   3.082  -0.235 -0.2827  0.5723  0.1717
   20CHTO  H178 8121   5.779   2.982  -0.276  0.1234  1.1841 -1.2075
   20CHTO   C92 8122   5.906   3.145  -0.243  0.5023  0.3180  0.3616
   20CHTO  H179 8123   5.898   3.246  -0.199 -0.5706  0.2501  0.3353
   20CHTO   O66 8124   5.992   3.057  -0.168 -0.1640 -0.4196 -0.3628
   20CHTO  H166 8125   5.967   3.069  -0.079 -0.6954 -0.2381 -0.5371
   20CHTO   C93 8126   5.951   3.158  -0.395  0.0888  0.0400  0.2275
   20CHTO  H180 8127   5.968   3.062  -0.446  1.2371  0.4405 -0.1528
   20CHTO   N16 8128   6.084   3.226  -0.403  0.4063 -0.2112 -0.2347
   20CHTO  H172 8129   6.158   3.179  -0.340  0.0655 -0.0377  0.2972
   20CHTO  H173 8130   6.090   3.332  -0.383  2.7262 -0.6824  1.7236
   20CHTO   C94 8131   5.839   3.238  -0.469 -0.0376 -0.4805  0.1600
   20CHTO  H181 8132   5.812   3.330  -0.417 -0.3005 -0.6345  0.2965
   20CHTO   O61 8133   5.719   3.161  -0.471  0.1777 -0.2745 -0.1456
   20CHTO   C95 8134   5.663   3.150  -0.340 -0.2630 -0.4749  0.3611
   20CHTO  H182 8135   5.634   3.249  -0.306  2.7145  1.4226 -2.3449
   20CHTO  C106 8136   5.533   3.066  -0.346 -0.3903 -0.6253 -0.5653
   20CHTO   O69 8137   5.560   2.937  -0.411  0.4869  0.3391  0.2794
   20CHTO  H169 8138   5.617   2.882  -0.362 -0.7390 -1.2928 -0.0738
   20CHTO   O63 8139   5.870   3.262  -0.632  0.0133  0.3029 -0.0370
   20CHTO   C96 8140   5.897   3.124  -0.715 -0.1251  0.2117  0.4803
   20CHTO  H183 8141   5.884   3.039  -0.649  0.6069 -0.6043 -0.4152
   20CHTO   C98 8142   6.037   3.108  -0.778 -1.1124  0.3866 -0.2211
   20CHTO  H185 8143   6.106   3.113  -0.693 -1.8159  1.2074  0.3052
   20CHTO   O67 8144   6.043   2.973  -0.830 -0.3438 -0.2955 -0.1910
   20CHTO  H167 8145   6.084   2.920  -0.764  2.5614  0.5134 -1.2687
   20CHTO  C102 8146   6.067   3.215  -0.895 -0.7665 -0.4852 -0.0268
   20CHTO  H189 8147   6.145   3.169  -0.958  1.9307  0.0107  2.7877
   20CHTO   N18 8148   6.129   3.344  -0.857 -0.2172  0.2693  0.3108
   20CHTO  H176 8149   6.229   3.363  -0.894 -0.4153 -0.8355 -0.8059
   20CHTO  H177 8150   6.119   3.368  -0.752  0.0065  1.7730  0.0064
   20CHTO  C105 8151   5.937   3.237  -0.978 -0.0669 -0.7163  0.9601
   20CHTO  H192 8152   5.885   3.327  -0.944  1.8654  1.0116 -0.4823
   20CHTO   O65 8153   5.846   3.126  -0.961 -0.2638 -0.3408  0.2079
   20CHTO  C100 8154   5.791   3.120  -0.826  0.1200 -0.7917 -0.2051
   20CHTO  H187 8155   5.730   3.209  -0.805 -0.8276 -1.7578  1.2247
   20CHTO  C107 8156   5.701   2.995  -0.804 -1.3080 -0.4718 -0.3277
   20CHTO   O70 8157   5.601   2.986  -0.906 -0.1846 -0.1458 -0.1900
   20CHTO  H170 8158   5.520   3.028  -0.885 -0.1229  0.0260 -0.3000
   20CHTO   O57 8159   5.987   3.257  -1.126 -0.2298  0.3408  0.4615
   20CHTO   C85 8160   5.896   3.312  -1.228  0.0999 -0.0156  0.3335
   20CHTO  H157 8161   5.858   3.399  -1.171 -0.3353 -1.3487  2.1108
   20CHTO   C83 8162   5.777   3.214  -1.264  0.0692  0.2479  0.4869
   20CHTO  H155 8163   5.725   3.198  -1.170  0.0812 -0.0230  0.4494
   20CHTO   O56 8164   5.830   3.079  -1.294  0.5551 -0.0920  0.3478
   20CHTO  H135 8165   5.857   3.033  -1.216  0.1152 -0.2403  0.4165
   20CHTO   C81 8166   5.687   3.274  -1.374  0.5256  0.1605  0.2479
   20CHTO  H153 8167   5.641   3.363  -1.332 -1.4814 -0.6870 -0.1146
   20CHTO   N14 8168   5.564   3.199  -1.386 -0.1627  0.4092  0.1357
   20CHTO  H141 8169   5.514   3.234  -1.474  2.3285  0.5619 -1.2833
   20CHTO  H142 8170   5.496   3.191  -1.304  0.6911  0.7351  0.8862
   20CHTO   C79 8171   5.768   3.302  -1.506 -0.1160 -0.3969 -0.1400
   20CHTO  H151 8172   5.701   3.349  -1.579  2.0677  0.3079 -1.7620
   20CHTO   O52 8173   5.882   3.388  -1.475  0.2062  1.0421  0.6117
   20CHTO   C86 8174   5.966   3.355  -1.365 -0.3057  0.0763 -0.3224
   20CHTO  H158 8175   6.025   3.269  -1.404 -2.2975 -0.9644 -1.1172
   20CHTO   C90 8176   6.074   3.464  -1.338  0.1046 -0.0358  0.0496
   20CHTO   O60 8177   6.016   3.585  -1.277 -0.5169 -0.1258 -0.3545
   20CHTO  H138 8178   5.939   3.613  -1.322 -0.1315 -0.1650 -1.0585
   20CHTO   O50 8179   5.803   3.177  -1.562 -0.0861  0.3905  0.1541
   20CHTO   C73 8180   5.856   3.158  -1.698  0.2362 -0.2725 -0.2216
   20CHTO  H145 8181   5.958   3.198  -1.694 -0.0204  0.4179 -0.4781
   20CHTO   C74 8182   5.777   3.231  -1.808  0.3114  0.3210  0.9306
   20CHTO  H146 8183   5.769   3.339  -1.790  0.4898  0.1165  2.2552
   20CHTO   O54 8184   5.848   3.207  -1.930  0.2231 -0.6309  0.4642
   20CHTO  H133 8185   5.894   3.125  -1.928  1.6253  0.1402 -0.1329
   20CHTO   C75 8186   5.632   3.162  -1.814  0.2938 -0.0244 -0.2607
   20CHTO  H147 8187   5.591   3.173  -1.712 -0.1228 -2.5465 -0.1285
   20CHTO   N13 8188   5.530   3.210  -1.913 -0.1065  0.1077 -0.0796
   20CHTO  H139 8189   5.549   3.173  -2.013 -1.2977 -0.2991 -0.1555
   20CHTO  H140 8190   5.526   3.316  -1.931 -1.1056  0.1569  0.4491
   20CHTO   C76 8191   5.646   3.003  -1.824  0.2068  0.2948  0.4976
   20CHTO  H148 8192   5.695   2.981  -1.919 -1.5123 -0.0809 -0.3351
   20CHTO   O49 8193   5.729   2.955  -1.716  0.4386  0.3013  0.3860
   20CHTO   C77 8194   5.862   3.005  -1.717  0.3936  0.5799 -0.1050
   20CHTO  H149 8195   5.902   2.984  -1.816  0.2595 -0.5661  0.0735
   20CHTO   C88 8196   5.934   2.932  -1.604 -0.3835 -0.5632  0.1514
   20CHTO   O58 8197   5.934   2.796  -1.617 -0.1103  0.2948  0.0118
   20CHTO  H136 8198   6.007   2.779  -1.673  0.2989 -0.3728  0.7300
   20CHTO   O51 8199   5.508   2.921  -1.801  0.6390  0.0688 -0.6521
   20CHTO   C78 8200   5.551   2.756  -1.757  0.1180  0.1697 -0.3153
   20CHTO  H150 8201   5.635   2.754  -1.685 -0.4880 -0.6345  0.3758
   20CHTO   C80 8202   5.590   2.662  -1.874 -1.0691  0.0013 -0.2575
   20CHTO  H152 8203   5.513   2.674  -1.954 -0.2290  1.4688 -0.8542
   20CHTO   O55 8204   5.720   2.703  -1.933 -0.2138 -0.1115  0.0816
   20CHTO  H134 8205   5.719   2.704  -2.026 -0.2921 -1.9436  0.0303
   20CHTO   C84 8206   5.598   2.509  -1.834  0.4944 -0.9513  0.0620
   20CHTO  H156 8207   5.681   2.503  -1.764  1.1469 -0.7620 -0.6960
   20CHTO   N15 8208   5.625   2.417  -1.949 -1.0979  0.3321  0.2435
   20CHTO  H143 8209   5.691   2.344  -1.907 -0.7627 -0.4093 -1.5400
   20CHTO  H144 8210   5.681   2.455  -2.032  1.1221  1.4252  2.1820
   20CHTO   C87 8211   5.480   2.465  -1.740 -0.2077  0.5997 -0.5446
   20CHTO  H159 8212   5.383   2.442  -1.785 -0.7468  2.3594 -0.3480
   20CHTO   O53 8213   5.458   2.565  -1.623 -0.2688  0.5300 -0.0801
   20CHTO   C82 8214   5.435   2.700  -1.673 -0.1293 -0.0522 -0.6296
   20CHTO  H154 8215   5.341   2.708  -1.729 -1.0810 -1.5092  0.7127
   20CHTO   C89 8216   5.423   2.799  -1.545  0.1217  0.0838  0.0291
   20CHTO   O59 8217   5.297   2.800  -1.468 -0.2954 -0.4602 -0.6440
   20CHTO  H137 8218   5.318   2.805  -1.376  1.0458 -3.2057 -0.7361
   20CHTO   O45 8219   5.515   2.330  -1.667 -0.2642  0.6270 -0.5703
   20CHTO   C67 8220   5.411   2.277  -1.581 -0.8740  0.1530  0.1662
   20CHTO  H124 8221   5.340   2.354  -1.550  1.7311  2.4402  0.6277
   20CHTO   C65 8222   5.332   2.172  -1.665  0.2267 -0.0950  0.0919
   20CHTO  H122 8223   5.408   2.134  -1.733 -2.8082 -1.3135 -2.7613
   20CHTO   O44 8224   5.232   2.252  -1.734 -0.1125 -0.0396  0.4144
   20CHTO  H102 8225   5.174   2.210  -1.795  3.6005 -0.3506 -3.0999
   20CHTO   C63 8226   5.287   2.051  -1.575 -0.0607 -0.8821 -0.0422
   20CHTO  H120 8227   5.370   1.982  -1.561 -0.4809 -1.5063 -0.5805
   20CHTO   N11 8228   5.191   1.960  -1.637  0.3114 -0.0441 -0.7917
   20CHTO  H108 8229   5.212   1.861  -1.604  0.2825  0.4915  0.8965
   20CHTO  H109 8230   5.173   1.974  -1.742 -1.1825  1.1760 -0.3976
   20CHTO   C61 8231   5.250   2.089  -1.430 -0.2962  0.1986 -0.0607
   20CHTO  H118 8232   5.242   1.997  -1.369 -1.5403  1.3910  1.6414
   20CHTO   O40 8233   5.355   2.173  -1.367 -0.4195 -0.2105  0.3509
   20CHTO   C68 8234   5.469   2.217  -1.447  0.4017 -0.0384  0.7547
   20CHTO  H125 8235   5.530   2.125  -1.461  0.6583  0.3220 -0.5742
   20CHTO   C72 8236   5.561   2.321  -1.373  0.9256 -0.2763  0.4017
   20CHTO   O48 8237   5.636   2.250  -1.271  0.2879 -0.1811 -0.3173
   20CHTO  H105 8238   5.666   2.316  -1.211 -1.7639 -0.3869  0.9936
   20CHTO   O38 8239   5.127   2.173  -1.425  0.0961 -0.5646 -0.0063
   20CHTO   C55 8240   5.071   2.196  -1.293 -0.2819  0.7251 -0.3609
   20CHTO  H112 8241   5.141   2.173  -1.212 -1.0384  0.6562  0.2878
   20CHTO   C56 8242   4.942   2.103  -1.287 -0.2308 -0.0852  0.4822
   20CHTO  H113 8243   4.898   2.111  -1.388  1.1338 -0.8428 -0.1976
   20CHTO   O42 8244   4.968   1.961  -1.277 -0.2575  0.2714 -0.0462
   20CHTO  H100 8245   5.037   1.934  -1.220 -0.6057 -1.7819 -0.5472
   20CHTO   C57 8246   4.838   2.139  -1.180  0.3801 -0.2046  0.3452
   20CHTO  H114 8247   4.879   2.100  -1.086  0.0774 -1.6863 -0.1261
   20CHTO   N10 8248   4.701   2.077  -1.191  0.5155 -0.0626 -0.2340
   20CHTO  H106 8249   4.703   1.996  -1.262  1.4854  1.4944 -2.0516
   20CHTO  H107 8250   4.617   2.140  -1.218 -0.0711 -0.9517 -0.4974
   20CHTO   C58 8251   4.830   2.293  -1.163  0.0155 -0.1945  0.0080
   20CHTO  H115 8252   4.789   2.334  -1.258  0.3880  1.5048  0.5577
   20CHTO   O37 8253   4.963   2.352  -1.148  0.3043 -0.2026  0.7028
   20CHTO   C59 8254   5.030   2.342  -1.275 -0.3677 -0.2267  0.4605
   20CHTO  H116 8255   4.967   2.379  -1.356 -0.7724  0.8910  1.2831
   20CHTO   C70 8256   5.160   2.429  -1.284 -0.3341 -0.1308 -0.1897
   20CHTO   O46 8257   5.254   2.402  -1.182 -0.2361 -0.1047  0.3514
   20CHTO  H103 8258   5.339   2.434  -1.205  0.3753 -0.4392  2.0572
   20CHTO   O39 8259   4.735   2.331  -1.026  0.7515 -0.5850 -0.8717
   20CHTO   C60 8260   4.790   2.423  -0.929  1.0717 -0.0016  0.4434
   20CHTO  H117 8261   4.895   2.400  -0.911  0.9506  0.2634  1.5488
   20CHTO   C62 8262   4.761   2.562  -0.983 -0.2772  0.4558 -0.3820
   20CHTO  H119 8263   4.829   2.577  -1.070 -1.5094 -2.1697 -1.8387
   20CHTO   O43 8264   4.622   2.594  -0.999  0.3958 -0.0964  0.0974
   20CHTO  H101 8265   4.555   2.578  -0.935  1.1326 -0.1215  0.8774
   20CHTO   C66 8266   4.826   2.661  -0.871 -0.3286  0.0633 -0.3368
   20CHTO  H123 8267   4.931   2.636  -0.859 -0.1183 -0.2767 -2.7876
   20CHTO   N12 8268   4.819   2.805  -0.910 -0.1304  0.2390 -0.0254
   20CHTO  H110 8269   4.771   2.805  -1.006  0.3783 -1.3645 -0.2966
   20CHTO  H111 8270   4.923   2.832  -0.913  0.2720 -1.3572 -1.3432
   20CHTO   C69 8271   4.767   2.644  -0.727  0.4664  0.2781 -0.6974
   20CHTO  H126 8272   4.662   2.679  -0.735  0.0123 -1.0680 -0.8008
   20CHTO   O41 8273   4.754   2.487  -0.686  0.1186  0.2262 -0.2372
   20CHTO   C64 8274   4.712   2.395  -0.792 -0.4276 -0.5031  0.3211
   20CHTO  H121 8275   4.602   2.396  -0.810 -0.4165  0.0534  0.2727
   20CHTO   C71 8276   4.747   2.249  -0.753 -0.5389  0.3471 -0.5127
   20CHTO   O47 8277   4.670   2.212  -0.640  0.7391  0.0946 -0.1382
   20CHTO  H104 8278   4.580   2.234  -0.655  0.9725  0.7738 -0.5125
   20CHTO   O34 8279   4.871   2.723  -0.615  0.1905  0.1537  0.0429
   20CHTO   C49 8280   4.905   2.747  -0.473 -0.3984 -0.3206  0.5458
   20CHTO   H91 8281   4.816   2.747  -0.410 -0.2323  0.1968  0.7867
   20CHTO   C47 8282   4.981   2.878  -0.466 -0.2803 -0.7454 -0.2605
   20CHTO   H89 8283   5.005   2.895  -0.359 -0.3350  0.2245 -0.4068
   20CHTO   O33 8284   4.880   2.978  -0.503 -0.1686  0.1888 -0.4338
   20CHTO   H70 8285   4.846   3.024  -0.429 -0.1172  1.4536 -1.1902
   20CHTO   C45 8286   5.108   2.878  -0.558 -0.3046  0.2584 -0.1265
   20CHTO   H87 8287   5.081   2.921  -0.655 -0.5448 -0.1515 -0.2421
   20CHTO    N8 8288   5.211   2.964  -0.497 -0.0190 -0.0247 -0.6915
   20CHTO   H75 8289   5.306   2.913  -0.489 -0.2579 -0.3183  0.5352
   20CHTO   H76 8290   5.184   3.005  -0.401  0.7709 -2.6399  0.7221
   20CHTO   C43 8291   5.159   2.726  -0.587  0.2416  0.4941 -0.1789
   20CHTO   H85 8292   5.104   2.686  -0.672 -0.6675  2.0567 -0.3348
   20CHTO   O29 8293   5.136   2.648  -0.471  0.1774  0.0089 -0.2664
   20CHTO   C50 8294   5.005   2.628  -0.432  0.1318  0.0807  0.5278
   20CHTO   H92 8295   4.964   2.542  -0.486 -1.1780 -0.0197  1.6578
   20CHTO   C54 8296   4.995   2.601  -0.278 -0.5529  0.1798 -0.7325
   20CHTO   O36 8297   5.061   2.705  -0.199  0.3294 -0.9565  0.4107
   20CHTO   H72 8298   5.039   2.794  -0.221  0.5443 -0.6548  1.3800
   20CHTO   O27 8299   5.294   2.716  -0.636 -0.5930  0.4784 -0.2987
   20CHTO   C37 8300   5.362   2.671  -0.759  0.2428  0.1037  0.0011
   20CHTO   H79 8301   5.323   2.573  -0.792 -2.6548  0.8840  0.9700
   20CHTO   C38 8302   5.351   2.764  -0.881  0.5640 -0.1904  0.1039
   20CHTO   H80 8303   5.395   2.861  -0.855 -0.5132  0.7508 -1.5425
   20CHTO   O31 8304   5.208   2.789  -0.913  0.1083  0.2982  0.1877
   20CHTO   H68 8305   5.198   2.866  -0.966  0.5481 -0.1664 -0.5744
   20CHTO   C39 8306   5.436   2.703  -1.009 -0.8744 -0.1257 -0.4941
   20CHTO   H81 8307   5.385   2.610  -1.036 -1.3170  0.1151 -0.4832
   20CHTO    N7 8308   5.436   2.799  -1.123  0.2928 -0.4308 -0.0368
   20CHTO   H73 8309   5.473   2.895  -1.091 -0.3339  0.1044 -0.9187
   20CHTO   H74 8310   5.338   2.809  -1.166  1.0137  0.1647 -1.5695
   20CHTO   C40 8311   5.579   2.655  -0.974 -0.1728 -0.1738  0.3849
   20CHTO   H82 8312   5.650   2.739  -0.974 -0.5921  0.2008  2.7933
   20CHTO   O26 8313   5.584   2.585  -0.848 -0.6472  0.3461 -0.7467
   20CHTO   C41 8314   5.515   2.652  -0.731  0.1378 -0.2403 -0.5145
   20CHTO   H83 8315   5.560   2.751  -0.717  0.5471 -0.4977  0.0273
   20CHTO   C52 8316   5.540   2.573  -0.595 -0.2500 -0.2613  0.5298
   20CHTO   O35 8317   5.497   2.643  -0.491 -0.1330  0.6340  0.0718
   20CHTO   H71 8318   5.551   2.718  -0.482 -0.2639  0.7255  0.0940
   20CHTO   O28 8319   5.635   2.564  -1.071  0.5730  0.0398 -0.0460
   20CHTO   C42 8320   5.775   2.545  -1.073  0.2793 -0.3142 -0.6948
   20CHTO   H84 8321   5.787   2.460  -1.141 -0.5643  0.7105 -2.1603
   20CHTO   C44 8322   5.839   2.508  -0.937 -0.2351 -0.6569 -0.3132
   20CHTO   H86 8323   5.826   2.592  -0.869 -0.6517 -0.9619 -0.0167
   20CHTO   O32 8324   5.768   2.390  -0.888 -0.2128  0.6802  0.0631
   20CHTO   H69 8325   5.789   2.389  -0.797 -1.4411 -1.3152  0.3646
   20CHTO   C48 8326   5.997   2.479  -0.948  0.2679 -0.0352  0.0219
   20CHTO   H90 8327   6.019   2.393  -1.011 -3.3744 -0.8012 -0.3519
   20CHTO    N9 8328   6.054   2.439  -0.814 -0.2208  0.8469  0.4974
   20CHTO   H77 8329   6.023   2.337  -0.796 -1.0019  0.3892 -2.9943
   20CHTO   H78 8330   6.161   2.447  -0.807 -0.1965  0.2838  0.8061
   20CHTO   C51 8331   6.070   2.601  -1.019  0.0068  0.1290  0.6675
   20CHTO   H93 8332   6.063   2.688  -0.953  1.0887  0.3510  0.5075
   20CHTO   O30 8333   6.009   2.622  -1.144 -0.2605 -1.3278  0.2371
   20CHTO   C46 8334   5.859   2.660  -1.136  0.5044 -0.4949  0.1953
   20CHTO   H88 8335   5.843   2.752  -1.079  0.2377 -1.4190  1.6295
   20CHTO   C53 8336   5.815   2.683  -1.285 -0.2485 -0.0710 -0.0434
   20CHTO   O72 8337   5.840   2.566  -1.354  0.1685 -0.1962 -0.2691
   20CHTO  H199 8338   5.761   2.550  -1.404 -0.4643 -0.7864  0.8976
   20CHTO   O22 8339   6.210   2.572  -1.047  0.0103 -0.4601  0.3978
   20CHTO   C31 8340   6.308   2.691  -1.066 -0.0649  0.8422 -0.1729
   20CHTO   H59 8341   6.400   2.641  -1.103 -2.7969 -1.7101 -3.7526
   20CHTO   C29 8342   6.263   2.789  -1.178  0.0941 -0.0921  0.4365
   20CHTO   H57 8343   6.171   2.837  -1.141 -0.5340 -1.0241  0.0946
   20CHTO   O21 8344   6.247   2.723  -1.304 -0.6644  0.1197 -0.2203
   20CHTO   H37 8345   6.157   2.729  -1.330 -0.8326 -0.9706  0.0816
   20CHTO   C27 8346   6.381   2.894  -1.207  0.1576 -0.4136  0.3369
   20CHTO   H55 8347   6.461   2.833  -1.252 -1.0844 -1.1127 -0.9570
   20CHTO    N5 8348   6.342   3.007  -1.294  0.0230 -0.1273 -0.2029
   20CHTO   H43 8349   6.399   2.995  -1.385 -0.5658 -1.7532 -0.3746
   20CHTO   H44 8350   6.346   3.109  -1.260 -1.3297  0.9126 -2.9812
   20CHTO   C25 8351   6.448   2.951  -1.075  0.3814 -0.3289  0.3837
   20CHTO   H53 8352   6.376   3.020  -1.028  1.3014  0.0078  1.3130
   20CHTO   O17 8353   6.446   2.855  -0.962 -0.2764 -0.2516 -0.5672
   20CHTO   C32 8354   6.341   2.772  -0.934 -0.3930 -0.4780  0.0738
   20CHTO   H60 8355   6.251   2.828  -0.909  0.3902  0.4762  0.7583
   20CHTO   C36 8356   6.372   2.693  -0.811 -0.3954 -0.7545  0.0823
   20CHTO   O25 8357   6.504   2.646  -0.814  0.1836  0.2991 -0.2772
   20CHTO   H40 8358   6.546   2.656  -0.731  1.5186  0.0660 -0.9058
   20CHTO   O15 8359   6.588   3.006  -1.101 -0.1221  0.3513  0.1961
   20CHTO   C19 8360   6.723   2.966  -1.083 -0.1012  0.3337  0.2794
   20CHTO   H47 8361   6.782   3.056  -1.107 -0.5635  0.0758 -1.8774
   20CHTO   C20 8362   6.761   2.928  -0.939  0.1438 -0.5586 -0.0132
   20CHTO   H48 8363   6.690   2.855  -0.898 -1.1466  1.5928  1.6612
   20CHTO   O19 8364   6.722   3.047  -0.867 -0.2393  0.2228 -0.0329
   20CHTO   H35 8365   6.632   3.072  -0.882 -0.7156 -0.6000  1.3676
   20CHTO   C21 8366   6.917   2.891  -0.928  0.3554 -0.5224 -0.2242
   20CHTO   H49 8367   6.969   2.982  -0.955 -0.8414  0.5592  1.0213
   20CHTO    N4 8368   6.968   2.864  -0.788  0.3897  0.2992 -0.1824
   20CHTO   H41 8369   6.888   2.822  -0.729 -0.4151 -3.0357 -3.4820
   20CHTO   H42 8370   6.998   2.960  -0.750  2.0416 -0.3171  0.1517
   20CHTO   C22 8371   6.951   2.778  -1.034  0.4693 -0.2354 -0.3711
   20CHTO   H50 8372   6.905   2.682  -1.010 -1.4544  0.3678 -1.5038
   20CHTO   O14 8373   6.911   2.821  -1.165  0.8815 -0.2055  0.0685
   20CHTO   C23 8374   6.767   2.854  -1.183  0.0261 -0.5519  0.5873
   20CHTO   H51 8375   6.705   2.763  -1.177 -2.3764  1.0184  0.4050
   20CHTO   C34 8376   6.761   2.908  -1.324  0.5363 -0.5607 -0.0567
   20CHTO   O23 8377   6.809   2.813  -1.420 -0.3972 -0.0314  0.2473
   20CHTO   H38 8378   6.813   2.853  -1.505  1.4128 -0.7026 -0.0163
   20CHTO   O16 8379   7.096   2.769  -1.048  0.4357 -0.3056  0.3621
   20CHTO   C24 8380   7.149   2.628  -0.991 -0.0172 -0.0611  0.1034
   20CHTO   H52 8381   7.079   2.581  -0.923  1.4139 -1.8464  0.3866
   20CHTO   C26 8382   7.281   2.652  -0.914 -0.1984 -1.0387 -0.0291
   20CHTO   H54 8383   7.357   2.693  -0.984  0.9378 -0.9218  1.2517
   20CHTO   O20 8384   7.278   2.747  -0.812 -0.3046 -0.1585  0.1917
   20CHTO   H36 8385   7.196   2.735  -0.767 -0.2813 -1.3131 -0.0473
   20CHTO   C30 8386   7.340   2.525  -0.848  1.7008 -0.7893 -0.1115
   20CHTO   H58 8387   7.293   2.515  -0.749 -0.6579 -0.5191 -1.1694
   20CHTO    N6 8388   7.488   2.532  -0.827 -0.3510 -0.1806  0.2087
   20CHTO   H45 8389   7.537   2.504  -0.919  0.0278  0.0948  0.3264
   20CHTO   H46 8390   7.505   2.637  -0.808 -1.9429  0.3314 -1.0253
   20CHTO   C33 8391   7.284   2.404  -0.927 -0.0933 -0.2401 -0.1852
   20CHTO   H61 8392   7.349   2.317  -0.909 -0.9710 -1.2151 -1.6503
   20CHTO   O18 8393   7.275   2.419  -1.065  0.3103 -0.4074  0.9400
   20CHTO   C28 8394   7.179   2.520  -1.105 -0.0091 -0.3376  0.0972
   20CHTO   H56 8395   7.214   2.570  -1.195  2.3275 -0.4143  0.9264
   20CHTO   C35 8396   7.045   2.462  -1.159  0.5778  0.4653  0.0971
   20CHTO   O24 8397   7.047   2.376  -1.270  0.5732  0.3254 -0.5321
   20CHTO   H39 8398   7.057   2.420  -1.353  2.7085 -0.2492 -0.6274
   20CHTO    O9 8399   7.158   2.365  -0.864 -0.4130  0.0038  0.2571
   20CHTO   C13 8400   7.145   2.201  -0.831  0.5445 -0.3420 -0.2056
   20CHTO   H26 8401   7.244   2.151  -0.836 -0.3181 -2.0738 -0.5175
   20CHTO   C11 8402   7.046   2.142  -0.939 -0.2894 -0.1058 -0.5519
   20CHTO   H24 8403   7.099   2.143  -1.035  1.4142 -2.1343  0.3014
   20CHTO    O8 8404   6.925   2.221  -0.958  0.4540  0.8644  0.5338
   20CHTO    H3 8405   6.938   2.293  -0.900  1.3431  1.4169 -0.3421
   20CHTO    C9 8406   7.007   1.999  -0.893 -0.3946 -0.1957 -0.2136
   20CHTO   H22 8407   7.108   1.959  -0.874 -0.2445 -0.3380 -1.2932
   20CHTO    N2 8408   6.944   1.920  -1.004  0.1497  0.1134  0.6195
   20CHTO   H10 8409   6.947   1.813  -0.990  2.5611  0.1987  0.8707
   20CHTO   H11 8410   6.840   1.947  -1.010  0.6962  2.2397  0.2777
   20CHTO    C7 8411   6.933   2.009  -0.754 -0.2746 -0.3820 -0.6416
   20CHTO   H20 8412   6.976   1.930  -0.690  1.4041 -1.5387 -3.0983
   20CHTO    O4 8413   6.949   2.138  -0.697  0.8427  0.2472  0.2789
   20CHTO   C14 8414   7.080   2.183  -0.685  0.1908 -0.1762  0.7440
   20CHTO   H27 8415   7.137   2.113  -0.620 -0.8633  1.1923  3.2489
   20CHTO   C18 8416   7.075   2.317  -0.603 -0.7100 -0.8887 -0.1650
   20CHTO   O13 8417   7.203   2.352  -0.545 -0.5168  0.5317  0.0442
   20CHTO    H7 8418   7.203   2.413  -0.474  1.6828  0.6005  0.0372
   20CHTO    O2 8419   6.774   1.979  -0.768 -0.1069 -0.9152 -0.1455
   20CHTO    C1 8420   6.699   2.001  -0.651 -0.3261 -0.8101  0.5963
   20CHTO   H14 8421   6.762   2.052  -0.576 -0.8921 -0.4385  0.8279
   20CHTO    C2 8422   6.636   1.860  -0.604 -0.3458 -0.3059  0.1305
   20CHTO   H15 8423   6.608   1.824  -0.704  0.5400  0.1105 -0.2662
   20CHTO    O6 8424   6.732   1.779  -0.537  0.3654  0.4483  0.3153
   20CHTO    H1 8425   6.738   1.796  -0.445  0.2419 -0.4291  0.4848
   20CHTO    C3 8426   6.499   1.881  -0.514  0.9383 -0.3146  0.4890
   20CHTO   H16 8427   6.526   1.906  -0.410  1.5847 -0.4415  0.3493
   20CHTO    N1 8428   6.420   1.751  -0.503  0.4794 -0.5387 -0.3286
   20CHTO    H8 8429   6.476   1.665  -0.470  2.4874  0.3945 -1.1854
   20CHTO    H9 8430   6.374   1.727  -0.597  0.2486  1.7058 -0.8122
   20CHTO    C4 8431   6.412   2.005  -0.554  0.8234  0.6425 -0.0291
   20CHTO   H17 8432   6.355   1.979  -0.643 -2.0018  0.8292  1.6708
   20CHTO    O1 8433   6.499   2.116  -0.579 -0.2796  0.4201 -0.2813
   20CHTO    C5 8434   6.588   2.096  -0.691  0.8056  0.1340 -0.3201
   20CHTO   H18 8435   6.539   2.036  -0.769 -0.8889 -0.0522  0.8647
   20CHTO   C16 8436   6.645   2.231  -0.750  0.3474  0.2294  0.7239
   20CHTO   O11 8437   6.714   2.309  -0.647 -0.0606  0.5353 -0.3090
   20CHTO    H5 8438   6.667   2.312  -0.566  1.7109 -1.1021  0.8314
   20CHTO    O3 8439   6.324   2.047  -0.446  0.2604  0.5077 -0.4629
   20CHTO    C6 8440   6.193   2.107  -0.490 -0.4012  0.2415  0.0333
   20CHTO   H19 8441   6.202   2.132  -0.596  1.6607  0.8072  0.3213
   20CHTO    C8 8442   6.069   2.020  -0.473  0.1470 -0.1506 -0.5701
   20CHTO   H21 8443   6.069   1.982  -0.370  0.1229 -0.3291 -0.6361
   20CHTO    O7 8444   6.093   1.909  -0.568  0.2444 -0.4986  0.3815
   20CHTO    H2 8445   6.082   1.820  -0.540  0.2690 -0.3945  0.7239
   20CHTO   C12 8446   5.935   2.101  -0.520 -0.5399 -0.9612 -0.0686
   20CHTO   H25 8447   5.940   2.112  -0.630  1.7748 -1.1124 -0.0110
   20CHTO    N3 8448   5.811   2.020  -0.478 -0.6443 -0.4590 -0.3519
   20CHTO   H12 8449   5.802   2.024  -0.371  2.2065 -0.5838 -0.0755
   20CHTO   H13 8450   5.818   1.916  -0.508  0.5881 -0.1936 -1.0061
   20CHTO   C15 8451   5.937   2.248  -0.455 -0.3484  0.2039 -0.1881
   20CHTO   H28 8452   5.903   2.237  -0.352 -2.4178  0.4795 -0.8124
   20CHTO   O10 8453   5.842   2.344  -0.515  0.7992  0.1266 -0.2178
   20CHTO    H4 8454   5.825   2.417  -0.459 -1.1544 -0.6404  0.2220
   20CHTO    O5 8455   6.062   2.313  -0.467 -0.0388  0.5452  0.0477
   20CHTO   C10 8456   6.169   2.244  -0.415  0.1762  0.4775  0.1851
   20CHTO   H23 8457   6.151   2.231  -0.308 -0.5490  0.4665  0.0633
   20CHTO   C17 8458   6.290   2.339  -0.419  0.0215  0.3388  0.0928
   20CHTO   O12 8459   6.334   2.387  -0.545  0.1890  0.6267 -0.1737
   20CHTO    H6 8460   6.416   2.350  -0.572 -0.6771 -1.1724 -0.4454
   21GLOH   H03 8461   9.393   3.067   1.808 -0.2331 -2.2849 -0.4561
   21GLOH    O1 8462   9.346   3.114   1.737  0.7819  0.0524  0.3515
   21GLOH    C1 8463   9.378   3.045   1.613 -0.3370 -0.2356  0.0671
   21GLOH   H02 8464   9.370   2.937   1.623  1.3883 -0.4334 -0.3987
   21GLOH   H08 8465   9.480   3.071   1.584 -0.3772  0.8670  0.8895
   21GLOH    C2 8466   9.290   3.074   1.491  0.0935  0.2295 -0.3390
   21GLOH   H04 8467   9.290   3.181   1.466 -2.7055  0.0970 -1.1175
   21GLOH    O2 8468   9.346   2.994   1.380  0.5263 -0.1046 -0.1082
   21GLOH   H05 8469   9.278   2.934   1.345 -0.1287 -0.5027  1.7907
   21GLOH    C3 8470   9.149   3.012   1.515 -0.4785  0.0674 -1.2436
   21GLOH   H06 8471   9.091   3.037   1.426  0.3282  0.2510 -1.7294
   21GLOH   H07 8472   9.114   3.063   1.604  0.9025  1.0404 -1.2359
   21GLOH    O3 8473   9.157   2.871   1.541  0.3949  0.2691 -0.6977
   21GLOH   H01 8474   9.067   2.835   1.535 -0.3361  1.4815  2.2371
   22GLOH   H03 8475   9.571   9.096   3.167  1.5952  0.7264 -0.0591
   22GLOH    O1 8476   9.572   9.021   3.104  0.4713  0.2207  0.4941
   22GLOH    C1 8477   9.438   8.969   3.097  0.1518  0.0454 -0.0218
   22GLOH   H02 8478   9.364   9.041   3.134 -1.5970 -1.7427  0.0638
   22GLOH   H08 8479   9.425   8.880   3.159 -0.8036  0.4386  0.3646
   22GLOH    C2 8480   9.396   8.930   2.958 -0.1215 -0.2133  0.2435
   22GLOH   H04 8481   9.400   9.009   2.883 -0.6922 -1.4501 -1.1123
   22GLOH    O2 8482   9.479   8.825   2.905 -0.2310  0.2736  0.8264
   22GLOH   H05 8483   9.542   8.869   2.846 -0.0462  2.6013  2.7111
   22GLOH    C3 8484   9.249   8.882   2.962  0.2317 -0.6494  0.2958
   22GLOH   H06 8485   9.252   8.791   3.023 -1.1076 -0.7160  0.2617
   22GLOH   H07 8486   9.206   8.852   2.866  0.0498 -1.5343  0.6447
   22GLOH    O3 8487   9.151   8.977   3.027 -0.2874 -0.0635  0.3614
   22GLOH   H01 8488   9.140   9.062   2.981 -1.5954  0.4808  1.6286
   23GLOH   H03 8489   8.099   7.709   4.863  1.5217  1.1852  2.8391
   23GLOH    O1 8490   8.066   7.634   4.916 -0.0973  0.0034  0.2762
   23GLOH    C1 8491   8.131   7.521   4.856  0.2396 -0.0462 -0.9001
   23GLOH   H02 8492   8.163   7.449   4.931 -2.0345 -1.2646 -1.0340
   23GLOH   H08 8493   8.219   7.547   4.799  0.2626  0.5447 -0.5991
   23GLOH    C2 8494   8.037   7.441   4.766 -0.3265 -0.2692  0.3948
   23GLOH   H04 8495   8.009   7.497   4.676 -0.7025  0.0757  0.7242
   23GLOH    O2 8496   8.099   7.313   4.745 -0.2567 -0.2418 -1.0016
   23GLOH   H05 8497   8.195   7.328   4.740 -0.1322 -0.2917  0.8963
   23GLOH    C3 8498   7.906   7.408   4.843  0.1084  0.1110  0.2467
   23GLOH   H06 8499   7.925   7.365   4.942 -0.2687 -0.6505 -0.0040
   23GLOH   H07 8500   7.836   7.340   4.795 -0.1278  0.1342  0.5595
   23GLOH    O3 8501   7.838   7.531   4.882  0.6173 -0.1454 -0.7401
   23GLOH   H01 8502   7.906   7.596   4.909 -1.2757  2.8226 -2.7855
   24GLOH   H03 8503   8.080   2.513   5.536 -0.1619 -0.7903 -1.0606
   24GLOH    O1 8504   8.069   2.607   5.558 -0.3843 -0.9116 -0.6409
   24GLOH    C1 8505   7.931   2.633   5.547 -1.0241  0.2516  0.0262
   24GLOH   H02 8506   7.890   2.561   5.617  1.7516 -0.4783  0.9543
   24GLOH   H08 8507   7.892   2.613   5.447  0.9022  2.2068 -1.1642
   24GLOH    C2 8508   7.896   2.780   5.582  0.1103 -0.7064  0.4163
   24GLOH   H04 8509   7.967   2.847   5.531 -1.4542  0.1250 -0.7118
   24GLOH    O2 8510   7.771   2.806   5.519  0.4549 -0.3403  0.4486
   24GLOH   H05 8511   7.733   2.885   5.561  0.6256  0.3578 -0.6855
   24GLOH    C3 8512   7.905   2.798   5.734 -0.0842 -0.2377 -0.0565
   24GLOH   H06 8513   7.905   2.904   5.758  0.8789 -0.2627  0.0528
   24GLOH   H07 8514   8.005   2.771   5.767  0.7433  2.8410  0.1308
   24GLOH    O3 8515   7.799   2.726   5.802  0.3084 -0.3648  0.2194
   24GLOH   H01 8516   7.721   2.785   5.804  1.2109  0.8145  2.2484
   25GLOH   H03 8517   4.668   2.517   1.859  2.1964  2.0160  1.6473
   25GLOH    O1 8518   4.603   2.550   1.924 -0.1819  0.1974  0.2852
   25GLOH    C1 8519   4.653   2.621   2.038 -0.6827 -0.0382  0.0831
   25GLOH   H02 8520   4.575   2.615   2.114 -0.9942  0.7400 -0.1726
   25GLOH   H08 8521   4.672   2.724   2.009 -1.7961 -0.3267 -1.7753
   25GLOH    C2 8522   4.784   2.555   2.104  1.3647 -0.5110 -0.2554
   25GLOH   H04 8523   4.859   2.568   2.024  2.1953 -0.0933  0.5870
   25GLOH    O2 8524   4.832   2.623   2.221 -0.3175  0.5907 -0.2850
   25GLOH   H05 8525   4.754   2.612   2.277 -0.1235  2.3059  0.3605
   25GLOH    C3 8526   4.747   2.408   2.143 -0.1864 -1.0962  0.1069
   25GLOH   H06 8527   4.705   2.367   2.052 -0.2223 -1.5136  0.3102
   25GLOH   H07 8528   4.672   2.411   2.222  2.5774  2.3690  2.8176
   25GLOH    O3 8529   4.844   2.321   2.188 -0.7578  0.4781  0.2634
   25GLOH   H01 8530   4.894   2.290   2.110 -1.3754  1.1774 -0.4198
   26GLOH   H03 8531   5.343   1.444   4.589  1.0680  0.3825 -0.3714
   26GLOH    O1 8532   5.330   1.377   4.659  0.2453 -0.0128 -0.8993
   26GLOH    C1 8533   5.460   1.335   4.699 -0.2985  0.2606 -0.6644
   26GLOH   H02 8534   5.512   1.425   4.733 -0.1958 -0.3651  0.9067
   26GLOH   H08 8535   5.519   1.293   4.617  0.2034 -1.2654  0.4418
   26GLOH    C2 8536   5.445   1.229   4.805 -0.2721 -0.3668 -0.1585
   26GLOH   H04 8537   5.377   1.157   4.757 -1.9715  1.3524 -0.3841
   26GLOH    O2 8538   5.573   1.173   4.849 -0.4187  1.0935  0.1387
   26GLOH   H05 8539   5.571   1.083   4.885  1.5338  0.1655 -1.9308
   26GLOH    C3 8540   5.366   1.280   4.926 -0.5188 -0.7001 -0.0661
   26GLOH   H06 8541   5.416   1.364   4.975 -0.3788 -2.0398  2.1462
   26GLOH   H07 8542   5.362   1.203   5.003  0.0913 -0.2364  0.4363
   26GLOH    O3 8543   5.230   1.321   4.888  0.3286 -0.3451 -0.1231
   26GLOH   H01 8544   5.240   1.371   4.805 -0.5064  1.5494  0.8747
   27GLOH   H03 8545   9.330   9.639   3.237  0.6065  0.8804  0.4442
   27GLOH    O1 8546   9.280   9.585   3.301 -0.2889  0.9385 -0.1962
   27GLOH    C1 8547   9.218   9.479   3.226  0.1819 -0.4544 -0.3312
   27GLOH   H02 8548   9.214   9.502   3.120 -1.0446  0.7087 -0.0508
   27GLOH   H08 8549   9.113   9.469   3.253  0.7039  0.8937  2.4156
   27GLOH    C2 8550   9.296   9.345   3.252  0.6140 -0.6832  0.0282
   27GLOH   H04 8551   9.303   9.326   3.360  0.3335  0.5497  0.2628
   27GLOH    O2 8552   9.211   9.244   3.197 -0.7916 -0.2033 -0.0902
   27GLOH   H05 8553   9.216   9.248   3.100  0.1324  2.4331  0.0422
   27GLOH    C3 8554   9.442   9.337   3.206 -0.4168 -0.1403 -0.5230
   27GLOH   H06 8555   9.501   9.425   3.229  0.1523  0.0626 -2.6776
   27GLOH   H07 8556   9.441   9.332   3.097 -0.5902 -1.7005 -0.4573
   27GLOH    O3 8557   9.510   9.221   3.258 -0.6725 -0.3393 -0.1197
   27GLOH   H01 8558   9.502   9.229   3.355 -0.1240 -2.6206  0.1453
   28GLOH   H03 8559   3.863   4.606   1.601 -0.7468 -0.1235 -0.1116
   28GLOH    O1 8560   3.807   4.684   1.617  0.3571  0.7100 -0.2554
   28GLOH    C1 8561   3.688   4.626   1.691  0.6531  0.1937 -0.0912
   28GLOH   H02 8562   3.632   4.710   1.733  0.4751 -0.0141  0.0843
   28GLOH   H08 8563   3.725   4.575   1.779 -1.6046  2.1239  2.0245
   28GLOH    C2 8564   3.595   4.533   1.617 -0.1651  0.2221 -0.0095
   28GLOH   H04 8565   3.660   4.450   1.586  0.9574  1.5806 -1.4040
   28GLOH    O2 8566   3.482   4.492   1.695  0.7112  0.0086  0.2785
   28GLOH   H05 8567   3.416   4.443   1.645  2.0249  0.1445 -1.6248
   28GLOH    C3 8568   3.542   4.596   1.485  0.8819  0.2093 -0.0038
   28GLOH   H06 8569   3.460   4.660   1.518 -0.1176 -0.2151 -1.5929
   28GLOH   H07 8570   3.492   4.519   1.426 -0.5892 -0.3791  1.9524
   28GLOH    O3 8571   3.634   4.669   1.401 -0.5137  1.1112 -0.4778
   28GLOH   H01 8572   3.720   4.660   1.446 -0.4703 -1.0638 -0.9334
   29GLOH   H03 8573   3.340   6.215   5.066  2.9107  3.4126 -1.9629
   29GLOH    O1 8574   3.359   6.243   5.158 -0.2569 -0.0914 -0.1388
   29GLOH    C1 8575   3.281   6.352   5.203 -0.1348  0.1597  0.0833
   29GLOH   H02 8576   3.302   6.382   5.306  0.8625 -0.9942  0.2210
   29GLOH   H08 8577   3.175   6.335   5.187  0.0626  0.9480 -2.1942
   29GLOH    C2 8578   3.289   6.479   5.117  0.3284  0.1070  0.5317
   29GLOH   H04 8579   3.396   6.502   5.107 -0.0959  2.7750  1.8303
   29GLOH    O2 8580   3.232   6.459   4.986 -0.0303 -0.1611  0.2844
   29GLOH   H05 8581   3.137   6.480   4.996 -0.1631  0.1530 -1.3741
   29GLOH    C3 8582   3.226   6.595   5.198 -0.0416 -0.1344  0.0593
   29GLOH   H06 8583   3.244   6.690   5.146  0.0336 -0.7243 -1.0118
   29GLOH   H07 8584   3.287   6.610   5.287 -1.2326  1.4825  0.6146
   29GLOH    O3 8585   3.085   6.584   5.229 -0.3581 -0.0383 -0.3575
   29GLOH   H01 8586   3.040   6.669   5.241 -0.3598  0.0857 -1.2434
   30GLOH   H03 8587   6.961   7.500   3.519 -0.2404 -0.1809  0.0851
   30GLOH    O1 8588   6.892   7.436   3.543 -0.2295 -0.1460  0.2090
   30GLOH    C1 8589   6.947   7.331   3.622  0.2515  0.1280 -0.0219
   30GLOH   H02 8590   6.874   7.251   3.623 -1.5250  1.7349  0.3766
   30GLOH   H08 8591   6.957   7.367   3.725 -0.6650  1.2969 -0.3252
   30GLOH    C2 8592   7.075   7.273   3.557  0.3084 -0.4534 -0.7077
   30GLOH   H04 8593   7.147   7.351   3.529 -0.6940  0.3075 -1.2065
   30GLOH    O2 8594   7.143   7.193   3.656  0.2160  0.3081  0.3946
   30GLOH   H05 8595   7.076   7.144   3.705  0.7441  1.1088  1.9421
   30GLOH    C3 8596   7.029   7.199   3.427  0.7860 -0.8823  0.3685
   30GLOH   H06 8597   6.973   7.113   3.464  1.5310 -1.9980 -1.0301
   30GLOH   H07 8598   7.115   7.159   3.373  1.1472  0.9881 -0.4689
   30GLOH    O3 8599   6.939   7.274   3.345 -0.1906  0.0013 -0.0748
   30GLOH   H01 8600   6.910   7.346   3.403  1.3030  2.0354 -1.7543
   31GLOH   H03 8601   0.434   9.605   2.061  1.2900  0.7008 -0.4039
   31GLOH    O1 8602   0.379   9.662   2.117  0.7740 -0.0126 -0.1710
   31GLOH    C1 8603   0.273   9.716   2.032  0.4826  0.4807  0.1569
   31GLOH   H02 8604   0.176   9.672   2.056  0.4384 -1.2434 -2.9374
   31GLOH   H08 8605   0.293   9.674   1.934  1.8892 -0.9760  1.0442
   31GLOH    C2 8606   0.256   9.866   2.019  0.7718  0.0336 -0.0063
   31GLOH   H04 8607   0.252   9.891   2.126 -2.0356  0.3837 -0.1427
   31GLOH    O2 8608   0.368   9.933   1.951 -0.2179  0.2091  0.7049
   31GLOH   H05 8609   0.370   9.894   1.862 -0.6156  2.1708 -0.1818
   31GLOH    C3 8610   0.126   9.900   1.948  0.1922  0.0644 -0.2673
   31GLOH   H06 8611   0.101   9.819   1.878 -1.8528  0.4775 -0.0660
   31GLOH   H07 8612   0.137   9.980   1.875 -1.9538  0.7941  0.1703
   31GLOH    O3 8613   0.013   9.915   2.037  0.1987 -0.0616  0.0649
   31GLOH   H01 8614   0.036   9.960   2.120  1.6450  0.5519 -0.6485
   32GLOH   H03 8615   9.038   1.169   5.585 -0.1965 -0.4606  1.3125
   32GLOH    O1 8616   9.124   1.135   5.617  0.5328  0.3660  0.2561
   32GLOH    C1 8617   9.130   1.142   5.760 -0.1852  0.7490 -0.2348
   32GLOH   H02 8618   9.116   1.041   5.797 -0.1739  0.7814 -0.1415
   32GLOH   H08 8619   9.049   1.203   5.801  1.5148  1.4372  2.2050
   32GLOH    C2 8620   9.255   1.198   5.819  0.1250 -0.4742  0.1970
   32GLOH   H04 8621   9.329   1.117   5.827  0.2555 -0.0530  4.3248
   32GLOH    O2 8622   9.306   1.309   5.741  0.6550  0.7470 -0.3295
   32GLOH   H05 8623   9.323   1.277   5.651  0.9181  0.0627 -0.0390
   32GLOH    C3 8624   9.234   1.242   5.966 -0.7462 -0.0756 -0.0246
   32GLOH   H06 8625   9.318   1.305   5.993 -0.4595 -1.3569  2.1943
   32GLOH   H07 8626   9.233   1.162   6.039 -0.1710  0.0309  0.1001
   32GLOH    O3 8627   9.122   1.332   5.978 -0.1713 -0.3157 -0.2669
   32GLOH   H01 8628   9.149   1.423   5.955 -0.8483 -0.3186 -1.0823
   33GLOH   H03 8629   0.096   0.552   0.958  0.2526  2.0951  1.4427
   33GLOH    O1 8630   0.067   0.507   1.039  0.0574 -0.3299  0.1044
   33GLOH    C1 8631   0.165   0.426   1.099 -0.1139  0.3714  0.2164
   33GLOH   H02 8632   0.146   0.400   1.203  0.6838  2.6263  0.9437
   33GLOH   H08 8633   0.251   0.491   1.109  1.7324 -2.0757  0.5884
   33GLOH    C2 8634   0.193   0.300   1.016 -0.3252  0.9638 -0.4039
   33GLOH   H04 8635   0.239   0.330   0.921 -0.7784  0.8539 -0.6569
   33GLOH    O2 8636   0.281   0.216   1.092 -0.4948 -0.2434 -0.1648
   33GLOH   H05 8637   0.246   0.210   1.182  0.9995  2.3163  0.6537
   33GLOH    C3 8638   0.066   0.226   0.973  0.2910  0.3792 -0.2231
   33GLOH   H06 8639   0.009   0.202   1.062 -0.2964  1.2722 -0.3504
   33GLOH   H07 8640   0.081   0.130   0.924 -0.1895 -0.9215  2.1038
   33GLOH    O3 8641  -0.024   0.300   0.896  0.4283 -0.3265  0.0352
   33GLOH   H01 8642  -0.006   0.389   0.932  3.1111 -0.8010  0.0181
   34GLOH   H03 8643   9.084   0.333   2.290 -0.0735 -0.9057 -1.0437
   34GLOH    O1 8644   9.174   0.352   2.320 -0.4936 -0.1872 -0.2405
   34GLOH    C1 8645   9.252   0.404   2.220 -0.7091  0.8236 -0.1308
   34GLOH   H02 8646   9.304   0.491   2.262 -0.8162  0.3300  1.0388
   34GLOH   H08 8647   9.198   0.450   2.137  0.5907  2.7697  0.0660
   34GLOH    C2 8648   9.351   0.299   2.168  0.1285  0.0372 -0.5463
   34GLOH   H04 8649   9.296   0.219   2.116  0.1625 -0.8629  0.7658
   34GLOH    O2 8650   9.446   0.361   2.078 -0.0616  0.2077  0.5226
   34GLOH   H05 8651   9.490   0.426   2.135  0.4209  0.6672 -0.3593
   34GLOH    C3 8652   9.428   0.245   2.290 -0.0632 -0.3311  0.6209
   34GLOH   H06 8653   9.456   0.325   2.359 -0.4426  0.4018 -0.0714
   34GLOH   H07 8654   9.522   0.202   2.256 -0.5168  0.7315 -2.1035
   34GLOH    O3 8655   9.346   0.156   2.358 -0.3337  0.4226  0.2267
   34GLOH   H01 8656   9.268   0.206   2.388 -0.4598  0.3856 -0.0341
   35GLOH   H03 8657   2.322   0.401   3.833 -0.8092 -2.1319 -0.4514
   35GLOH    O1 8658   2.345   0.364   3.920 -0.3187 -0.3680  0.1961
   35GLOH    C1 8659   2.471   0.388   3.965 -0.2886  0.7961 -0.0077
   35GLOH   H02 8660   2.480   0.492   3.997 -0.1249 -0.3841  4.2194
   35GLOH   H08 8661   2.537   0.369   3.881 -0.4718 -0.8131  0.1945
   35GLOH    C2 8662   2.528   0.305   4.083 -0.4291  0.1547 -0.0081
   35GLOH   H04 8663   2.555   0.210   4.035  0.6018  0.0491  0.7631
   35GLOH    O2 8664   2.643   0.371   4.132  1.2200  0.4639  0.0302
   35GLOH   H05 8665   2.660   0.326   4.217 -1.4410 -0.5357  0.0780
   35GLOH    C3 8666   2.415   0.283   4.189 -0.1476 -0.6549 -0.9299
   35GLOH   H06 8667   2.383   0.381   4.224  0.4684 -1.0969  0.9053
   35GLOH   H07 8668   2.453   0.218   4.267 -0.6275  0.6195  0.3851
   35GLOH    O3 8669   2.300   0.224   4.125 -0.2192  0.2336  0.0518
   35GLOH   H01 8670   2.295   0.263   4.036  2.9373  2.5073  0.7877
   36GLOH   H03 8671   4.607   7.969   1.356  1.3660  1.2314  1.7643
   36GLOH    O1 8672   4.558   7.909   1.417  0.3946  0.2737  0.0799
   36GLOH    C1 8673   4.657   7.831   1.483  0.2426 -0.5412  0.1981
   36GLOH   H02 8674   4.685   7.745   1.422  0.1097 -0.7401  0.4168
   36GLOH   H08 8675   4.606   7.790   1.570 -1.4656  0.4184 -0.3202
   36GLOH    C2 8676   4.774   7.919   1.523  0.1003  0.1747 -0.2161
   36GLOH   H04 8677   4.739   7.998   1.591  1.8237  0.3732  0.4687
   36GLOH    O2 8678   4.880   7.853   1.595 -0.2766  1.0076  0.4449
   36GLOH   H05 8679   4.939   7.904   1.653 -2.5311  2.2748  1.6992
   36GLOH    C3 8680   4.828   7.995   1.403  0.0474 -0.7716 -0.0362
   36GLOH   H06 8681   4.884   7.924   1.342 -0.3134 -1.0525 -0.0382
   36GLOH   H07 8682   4.905   8.062   1.443 -1.2321 -0.1748  1.4509
   36GLOH    O3 8683   4.734   8.061   1.316  0.3381  0.6085 -0.2377
   36GLOH   H01 8684   4.711   8.147   1.356 -2.2747  0.8004 -2.0453
   37GLOH   H03 8685   2.931   4.116   3.526  2.3666  2.6272 -1.5202
   37GLOH    O1 8686   2.999   4.046   3.525  0.0609  0.2443  0.5764
   37GLOH    C1 8687   3.104   4.100   3.441  0.4036  0.3946  0.1822
   37GLOH   H02 8688   3.197   4.052   3.472  1.4021  1.6440 -0.8362
   37GLOH   H08 8689   3.106   4.206   3.465 -0.2847  0.6750 -0.9606
   37GLOH    C2 8690   3.072   4.085   3.292  0.5218 -1.1711 -0.4068
   37GLOH   H04 8691   2.968   4.112   3.267  0.8178 -0.4703 -0.8880
   37GLOH    O2 8692   3.179   4.165   3.227 -0.5528 -0.5718  0.5669
   37GLOH   H05 8693   3.159   4.154   3.133  1.4062  0.7541 -0.0319
   37GLOH    C3 8694   3.080   3.935   3.259 -0.9454  0.7511  0.8430
   37GLOH   H06 8695   3.043   3.873   3.341  2.0652 -1.1942  0.8390
   37GLOH   H07 8696   3.186   3.911   3.247 -1.3017 -1.0783  1.0836
   37GLOH    O3 8697   3.017   3.914   3.132  0.0188 -0.1787 -0.4580
   37GLOH   H01 8698   3.075   3.954   3.064 -0.1322 -1.1297 -1.1637
   38GLOH   H03 8699   7.558   3.576   1.362 -1.3531 -0.5340  1.6869
   38GLOH    O1 8700   7.579   3.482   1.376 -0.2133 -0.5447 -0.0192
   38GLOH    C1 8701   7.721   3.473   1.389 -0.1076  0.3395  0.1304
   38GLOH   H02 8702   7.768   3.426   1.303  0.3381 -1.6554  1.4260
   38GLOH   H08 8703   7.742   3.406   1.473 -0.5323  1.0172  0.7837
   38GLOH    C2 8704   7.813   3.597   1.415  0.0174 -0.1363 -0.0449
   38GLOH   H04 8705   7.813   3.599   1.525  2.1816 -2.1131  0.0482
   38GLOH    O2 8706   7.951   3.577   1.367 -0.1082 -0.5559 -0.0220
   38GLOH   H05 8707   8.019   3.629   1.413 -0.8761  0.9960 -0.5918
   38GLOH    C3 8708   7.745   3.712   1.345 -0.5210 -0.2019  0.9598
   38GLOH   H06 8709   7.737   3.681   1.241 -0.4708 -0.7953  1.1345
   38GLOH   H07 8710   7.813   3.797   1.349 -0.3948 -0.3437  1.9202
   38GLOH    O3 8711   7.609   3.741   1.384  0.1475 -0.2609  0.0957
   38GLOH   H01 8712   7.598   3.837   1.379  0.9964 -0.0515  1.7072
   39GLOH   H03 8713   0.001   2.773   0.703  0.3024 -2.4171  0.5583
   39GLOH    O1 8714   0.046   2.801   0.785 -0.2691 -0.4821  0.2467
   39GLOH    C1 8715   0.069   2.677   0.846 -0.6497 -0.1958 -0.3563
   39GLOH   H02 8716   0.166   2.683   0.895 -0.4415  1.1274 -0.9157
   39GLOH   H08 8717   0.070   2.592   0.778 -0.0013 -0.7810  0.3696
   39GLOH    C2 8718  -0.029   2.650   0.965 -0.2773 -0.4126  0.6766
   39GLOH   H04 8719  -0.000   2.551   1.002  0.4081 -0.0122  1.2281
   39GLOH    O2 8720   0.000   2.745   1.069 -0.3257 -0.0227 -0.1068
   39GLOH   H05 8721  -0.002   2.838   1.039  1.7863  0.4363  1.0200
   39GLOH    C3 8722  -0.178   2.642   0.932  0.4645  0.4640 -0.2759
   39GLOH   H06 8723  -0.199   2.696   0.840  0.9433 -0.4030 -0.8919
   39GLOH   H07 8724  -0.234   2.695   1.009 -0.6074 -1.4494  0.2862
   39GLOH    O3 8725  -0.230   2.516   0.897 -0.4976 -0.5071 -0.1296
   39GLOH   H01 8726  -0.242   2.463   0.978  1.5136  1.1517  1.2970
   40GLOH   H03 8727   0.791   0.646   5.541  0.6068  2.0604 -0.9698
   40GLOH    O1 8728   0.695   0.656   5.530  0.2179 -0.5310 -0.3419
   40GLOH    C1 8729   0.670   0.616   5.392  0.2403 -0.2163  0.6833
   40GLOH   H02 8730   0.728   0.529   5.360  0.3052 -0.0960  0.4755
   40GLOH   H08 8731   0.705   0.700   5.332 -0.4064  0.5260  1.3375
   40GLOH    C2 8732   0.516   0.601   5.369  0.4097 -0.1893  0.6949
   40GLOH   H04 8733   0.477   0.533   5.446  2.0888 -1.2883  0.5933
   40GLOH    O2 8734   0.440   0.719   5.383  0.4845 -0.3642  0.2434
   40GLOH   H05 8735   0.499   0.784   5.424  0.6881 -0.4496  0.0858
   40GLOH    C3 8736   0.503   0.527   5.235  1.1673 -0.2583  0.5164
   40GLOH   H06 8737   0.557   0.577   5.154  1.5368 -0.0660  0.8771
   40GLOH   H07 8738   0.398   0.532   5.209  1.7818  1.4126 -1.8827
   40GLOH    O3 8739   0.550   0.395   5.244  0.9827  0.1279  0.2881
   40GLOH   H01 8740   0.632   0.387   5.192  0.4507 -0.4880 -0.4815
   41GLOH   H03 8741   1.918   2.084   2.589  0.2451 -0.7231 -4.2704
   41GLOH    O1 8742   1.827   2.114   2.574 -0.1406  0.7819  0.3250
   41GLOH    C1 8743   1.732   2.027   2.516  0.4604  0.5458  0.0328
   41GLOH   H02 8744   1.636   2.075   2.531 -0.4299 -1.0623 -0.3853
   41GLOH   H08 8745   1.724   1.936   2.575 -2.6614  0.1739 -0.8896
   41GLOH    C2 8746   1.754   2.003   2.368 -0.3688  0.3394 -0.5752
   41GLOH   H04 8747   1.844   1.945   2.340 -1.1320 -0.2860 -1.7788
   41GLOH    O2 8748   1.638   1.934   2.334  0.5501 -0.1134 -0.1051
   41GLOH   H05 8749   1.654   1.854   2.281  1.3643  0.6500 -1.0471
   41GLOH    C3 8750   1.763   2.134   2.282 -0.3669  0.4615 -0.0467
   41GLOH   H06 8751   1.845   2.191   2.325  0.0156 -0.0175 -0.1277
   41GLOH   H07 8752   1.669   2.185   2.298  0.1277  1.0105  1.2012
   41GLOH    O3 8753   1.781   2.113   2.140 -0.6316  0.0001 -0.2770
   41GLOH   H01 8754   1.847   2.048   2.110 -0.1380  0.4438 -0.1639
   42GLOH   H03 8755   4.260   4.331   4.143  0.5790 -0.7663 -0.6526
   42GLOH    O1 8756   4.296   4.416   4.174 -0.4829 -0.2532 -0.8013
   42GLOH    C1 8757   4.381   4.386   4.289  0.5361  0.0772  0.2428
   42GLOH   H02 8758   4.451   4.307   4.262 -2.1164 -2.4771  0.5808
   42GLOH   H08 8759   4.325   4.357   4.378  0.9045  0.0628  0.4727
   42GLOH    C2 8760   4.473   4.505   4.318 -0.9793  0.3814 -0.5946
   42GLOH   H04 8761   4.414   4.595   4.343  0.7573  1.5852 -0.7679
   42GLOH    O2 8762   4.575   4.475   4.423 -0.4120 -0.4990 -0.2119
   42GLOH   H05 8763   4.572   4.382   4.451  0.8227 -0.0079  1.6388
   42GLOH    C3 8764   4.540   4.539   4.184  0.3984 -0.2330 -0.2679
   42GLOH   H06 8765   4.458   4.564   4.117 -2.4926 -2.0088  2.5232
   42GLOH   H07 8766   4.600   4.455   4.149 -1.1583 -1.9601  1.1624
   42GLOH    O3 8767   4.628   4.655   4.201  0.0054  0.4581 -0.3941
   42GLOH   H01 8768   4.714   4.642   4.245  0.1368  0.3593 -0.6779
   43GLOH   H03 8769   8.765   8.213   0.719 -0.8920  0.6328 -0.0317
   43GLOH    O1 8770   8.824   8.262   0.779 -0.6886 -0.0085  0.2891
   43GLOH    C1 8771   8.776   8.241   0.911 -0.0002 -0.2049  0.0885
   43GLOH   H02 8772   8.778   8.133   0.928 -2.5722 -0.3336 -0.2762
   43GLOH   H08 8773   8.673   8.276   0.917 -0.1969 -0.9296  1.0157
   43GLOH    C2 8774   8.865   8.319   1.008  0.5007  0.1849  0.3393
   43GLOH   H04 8775   8.888   8.422   0.975  2.3954  0.0056  1.0157
   43GLOH    O2 8776   8.791   8.325   1.127  0.2799  0.6756 -0.0498
   43GLOH   H05 8777   8.846   8.357   1.200 -0.9948  0.5612  0.9862
   43GLOH    C3 8778   8.997   8.251   1.034 -0.3500 -0.0213  0.2844
   43GLOH   H06 8779   9.048   8.204   0.950  1.8686  1.1715  0.8973
   43GLOH   H07 8780   8.982   8.167   1.101  1.6481 -0.8537 -0.2776
   43GLOH    O3 8781   9.092   8.341   1.093 -0.1401 -0.3350  0.5075
   43GLOH   H01 8782   9.180   8.299   1.102  1.0125  1.1295 -3.0547
   44GLOH   H03 8783   0.667   1.919   4.911  0.4708  2.5827 -1.2068
   44GLOH    O1 8784   0.572   1.928   4.890 -0.0305  0.8060  0.1355
   44GLOH    C1 8785   0.563   1.890   4.753  0.2783 -0.1050 -0.2411
   44GLOH   H02 8786   0.616   1.795   4.738 -1.2594 -1.0102 -0.0002
   44GLOH   H08 8787   0.617   1.969   4.700 -0.3316 -0.2545 -1.0986
   44GLOH    C2 8788   0.418   1.865   4.718 -0.7708 -0.2386  0.3283
   44GLOH   H04 8789   0.365   1.961   4.732 -2.1723 -1.1109  1.1518
   44GLOH    O2 8790   0.404   1.814   4.579  0.3461  0.3762 -0.0851
   44GLOH   H05 8791   0.478   1.766   4.540 -1.0439 -1.1871 -0.8394
   44GLOH    C3 8792   0.338   1.782   4.823 -0.2739  0.7523  0.1160
   44GLOH   H06 8793   0.235   1.779   4.788  0.0960  0.5265 -0.9880
   44GLOH   H07 8794   0.327   1.831   4.919 -0.9935 -0.7721  0.8371
   44GLOH    O3 8795   0.394   1.646   4.833  0.1185 -0.1296 -0.2597
   44GLOH   H01 8796   0.353   1.597   4.907  2.0691  0.2452  1.1011
   45GLOH   H03 8797   6.199   0.662   0.460 -0.3005  0.7164  0.9556
   45GLOH    O1 8798   6.294   0.664   0.482  0.1288 -0.9905 -0.6716
   45GLOH    C1 8799   6.321   0.691   0.620  0.0421  0.3077  1.1664
   45GLOH   H02 8800   6.382   0.607   0.655 -0.2185 -0.2661  0.2592
   45GLOH   H08 8801   6.225   0.706   0.669 -1.0541 -0.8697 -0.5514
   45GLOH    C2 8802   6.405   0.823   0.630  0.5308  0.3399 -0.4553
   45GLOH   H04 8803   6.343   0.908   0.599  1.5645  1.2865  0.0144
   45GLOH    O2 8804   6.445   0.831   0.769  0.2092 -0.0397  0.2434
   45GLOH   H05 8805   6.512   0.901   0.779  0.3143 -0.2707  1.1901
   45GLOH    C3 8806   6.534   0.809   0.542  0.6468  0.3776  0.6500
   45GLOH   H06 8807   6.594   0.723   0.573  0.8828  0.0090 -0.7891
   45GLOH   H07 8808   6.603   0.890   0.565 -0.4011  1.3071  0.5758
   45GLOH    O3 8809   6.508   0.803   0.402  0.1038 -0.4786 -0.1741
   45GLOH   H01 8810   6.444   0.729   0.408  0.4932 -0.8167 -0.1393
   46GLOH   H03 8811   4.537   5.220   1.999 -2.2979 -4.3084  0.5055
   46GLOH    O1 8812   4.502   5.217   1.909  0.1424  0.3004 -0.7734
   46GLOH    C1 8813   4.361   5.246   1.925 -0.2297  0.0410  0.3755
   46GLOH   H02 8814   4.349   5.353   1.942  0.0364  0.4109 -1.6745
   46GLOH   H08 8815   4.314   5.189   2.005 -1.7297 -0.7467 -1.0295
   46GLOH    C2 8816   4.271   5.213   1.805  1.2531 -0.1897 -0.7739
   46GLOH   H04 8817   4.248   5.106   1.802  0.2710  0.0075 -0.3068
   46GLOH    O2 8818   4.148   5.287   1.824  0.2106 -0.0529  0.2710
   46GLOH   H05 8819   4.084   5.252   1.759  0.7055 -0.7104  0.1326
   46GLOH    C3 8820   4.338   5.245   1.672 -0.3120  0.0723 -0.9480
   46GLOH   H06 8821   4.360   5.351   1.686  1.2931 -0.1899 -1.3358
   46GLOH   H07 8822   4.262   5.238   1.594 -1.8295 -0.1569  0.5141
   46GLOH    O3 8823   4.453   5.172   1.629  0.1279  0.4329 -0.6414
   46GLOH   H01 8824   4.518   5.151   1.699  1.9573  1.7485 -1.8636
   47GLOH   H03 8825   0.185   3.437   2.214 -2.5483 -1.4817  0.3966
   47GLOH    O1 8826   0.155   3.528   2.194  0.6839 -0.2347  0.9359
   47GLOH    C1 8827   0.073   3.538   2.073 -0.1046  0.5707 -0.4038
   47GLOH   H02 8828   0.088   3.640   2.036 -1.9474  0.9260 -0.2075
   47GLOH   H08 8829  -0.033   3.523   2.095 -0.0045  0.6387  0.1257
   47GLOH    C2 8830   0.113   3.455   1.952  0.4666 -0.2095 -0.0662
   47GLOH   H04 8831   0.209   3.493   1.914 -0.4805  0.9432 -1.3731
   47GLOH    O2 8832   0.134   3.312   1.969  0.0097  0.1232  0.1682
   47GLOH   H05 8833   0.168   3.282   1.883 -2.5092 -1.1767 -0.4197
   47GLOH    C3 8834   0.008   3.470   1.842  0.0023  0.1284 -0.7584
   47GLOH   H06 8835  -0.087   3.425   1.871  0.5122  0.9751  2.4006
   47GLOH   H07 8836   0.038   3.412   1.755  1.3660  1.4749 -1.2025
   47GLOH    O3 8837  -0.012   3.601   1.802  0.1321  0.3819  0.1560
   47GLOH   H01 8838  -0.035   3.648   1.884 -2.1473 -3.4483  1.8723
   48GLOH   H03 8839   7.931   5.015   3.834  2.1056  2.5555  1.8595
   48GLOH    O1 8840   7.841   5.051   3.849  0.6452 -0.1805 -0.0735
   48GLOH    C1 8841   7.847   5.172   3.776  0.0947  0.1040  0.2543
   48GLOH   H02 8842   7.862   5.263   3.833  0.4582 -0.4553  1.0654
   48GLOH   H08 8843   7.751   5.194   3.729  0.3468  0.5523 -0.0548
   48GLOH    C2 8844   7.951   5.166   3.665  0.2536  0.3401 -0.3210
   48GLOH   H04 8845   7.908   5.101   3.587  2.2866 -0.5784 -0.6999
   48GLOH    O2 8846   7.961   5.301   3.608  0.6467  0.4341 -0.0621
   48GLOH   H05 8847   8.023   5.314   3.534  0.3922  0.1883 -0.3216
   48GLOH    C3 8848   8.086   5.111   3.718  0.0967 -0.4623 -0.0242
   48GLOH   H06 8849   8.125   5.187   3.786 -0.8691  1.3173 -1.4170
   48GLOH   H07 8850   8.163   5.096   3.642  1.8768 -0.0331  1.6471
   48GLOH    O3 8851   8.064   4.986   3.779 -0.7028 -0.1684 -0.6249
   48GLOH   H01 8852   8.149   4.942   3.799 -0.9081 -0.2062  0.1992
   49GLOH   H03 8853   8.956   9.759   0.534  0.2956  0.2207 -0.5021
   49GLOH    O1 8854   8.886   9.693   0.548  0.2983  0.3124 -0.0285
   49GLOH    C1 8855   8.789   9.705   0.439 -0.2793  0.0817  0.4426
   49GLOH   H02 8856   8.848   9.696   0.347 -0.8885  3.2649 -0.3223
   49GLOH   H08 8857   8.749   9.806   0.450  2.5417  1.2894  0.2032
   49GLOH    C2 8858   8.683   9.594   0.431  0.4591  0.2804 -0.1138
   49GLOH   H04 8859   8.624   9.615   0.341  1.5409 -2.2429 -1.4582
   49GLOH    O2 8860   8.743   9.463   0.414  0.3147 -1.1512 -0.7663
   49GLOH   H05 8861   8.789   9.458   0.499  0.7854  3.0011 -0.6541
   49GLOH    C3 8862   8.582   9.603   0.550 -0.2164 -0.6026 -0.0885
   49GLOH   H06 8863   8.552   9.706   0.571 -1.5391 -0.9498 -0.1737
   49GLOH   H07 8864   8.636   9.572   0.639 -0.9572  0.4620  0.7539
   49GLOH    O3 8865   8.473   9.512   0.526  0.0785  0.2051  0.1685
   49GLOH   H01 8866   8.512   9.424   0.507  0.8680  0.7925 -0.9958
   50GLOH   H03 8867   9.869   4.732   4.411 -0.3063  0.3643 -2.3330
   50GLOH    O1 8868   9.940   4.799   4.416 -0.1253  0.0531 -0.4881
   50GLOH    C1 8869   9.984   4.856   4.293  0.2330 -0.6964 -0.6772
   50GLOH   H02 8870  10.058   4.788   4.250  0.0493 -1.6538  0.5078
   50GLOH   H08 8871  10.034   4.951   4.310 -1.5173  0.0282  0.6241
   50GLOH    C2 8872   9.869   4.880   4.192 -0.8674 -0.6677 -0.0620
   50GLOH   H04 8873   9.920   4.904   4.098 -1.0615 -2.6534 -0.7045
   50GLOH    O2 8874   9.818   4.756   4.150  0.3452  0.8765  0.5630
   50GLOH   H05 8875   9.724   4.778   4.135 -0.7160 -1.5374  3.2667
   50GLOH    C3 8876   9.766   4.987   4.224  0.0796 -0.2200  0.1135
   50GLOH   H06 8877   9.801   5.075   4.280  0.0657  0.4449 -0.9098
   50GLOH   H07 8878   9.699   4.932   4.290  0.5555  0.8498  1.5340
   50GLOH    O3 8879   9.692   5.026   4.110 -0.3646 -0.2462  0.6434
   50GLOH   H01 8880   9.632   5.100   4.134 -0.3619  0.2227 -0.7476
   51GLOH   H03 8881   8.814   4.112   1.730 -0.8097  1.0121  2.4596
   51GLOH    O1 8882   8.843   4.027   1.769 -0.4149  0.1181  0.3084
   51GLOH    C1 8883   8.859   3.925   1.667 -0.1856  0.6142  0.3744
   51GLOH   H02 8884   8.854   3.833   1.725  1.5539 -0.1733 -0.6752
   51GLOH   H08 8885   8.946   3.928   1.602  0.2622  0.5678  0.9711
   51GLOH    C2 8886   8.740   3.922   1.572 -0.0354 -0.1974 -1.0276
   51GLOH   H04 8887   8.739   4.021   1.524 -0.0122  0.2660 -0.0949
   51GLOH    O2 8888   8.759   3.815   1.479  0.1063 -0.2078  0.2119
   51GLOH   H05 8889   8.774   3.732   1.526  0.9462 -1.2119 -1.7762
   51GLOH    C3 8890   8.609   3.905   1.652 -0.1920  0.2183 -0.0033
   51GLOH   H06 8891   8.613   3.959   1.746  0.1837 -0.3798  0.3269
   51GLOH   H07 8892   8.593   3.802   1.685 -3.7923  1.4251  2.2679
   51GLOH    O3 8893   8.490   3.955   1.585  1.0245  0.1433 -0.3629
   51GLOH   H01 8894   8.416   3.926   1.641  0.1367  0.2598 -1.4626
   52GLOH   H03 8895   9.636   9.257   4.228 -2.2452 -0.6696 -0.8829
   52GLOH    O1 8896   9.682   9.210   4.156 -0.1016  0.2544 -0.1474
   52GLOH    C1 8897   9.593   9.125   4.086  0.4541 -0.3233  0.4161
   52GLOH   H02 8898   9.525   9.188   4.029  0.6543 -0.0082  0.5193
   52GLOH   H08 8899   9.530   9.067   4.153  0.9502 -0.0639  1.1053
   52GLOH    C2 8900   9.653   9.024   3.990  0.0026  0.3812  0.3147
   52GLOH   H04 8901   9.740   8.973   4.034  1.3767 -0.5876 -3.3359
   52GLOH    O2 8902   9.548   8.929   3.961 -0.0376  0.2454  0.1344
   52GLOH   H05 8903   9.492   8.951   3.884 -1.3961 -0.2175  0.9749
   52GLOH    C3 8904   9.689   9.104   3.860  0.0459  0.9744  0.0660
   52GLOH   H06 8905   9.598   9.161   3.840 -0.6803  0.7916  2.5750
   52GLOH   H07 8906   9.710   9.026   3.787  1.0859  0.1445  1.2111
   52GLOH    O3 8907   9.812   9.181   3.875 -0.0695  0.5568 -0.2852
   52GLOH   H01 8908   9.887   9.120   3.862 -1.2994 -0.5431 -2.4953
   53GLOH   H03 8909   8.848   9.511   1.589  0.8404 -0.0109  1.8084
   53GLOH    O1 8910   8.855   9.414   1.589  0.4710 -0.0447  0.6666
   53GLOH    C1 8911   8.993   9.370   1.602 -0.3419  0.1266  0.0864
   53GLOH   H02 8912   9.010   9.275   1.552 -1.9739  0.5288 -1.2672
   53GLOH   H08 8913   9.023   9.362   1.706 -1.2385  1.4393  0.4581
   53GLOH    C2 8914   9.100   9.471   1.550 -0.2361  0.1467  0.2308
   53GLOH   H04 8915   9.195   9.433   1.591  0.1374  1.4119  0.5620
   53GLOH    O2 8916   9.119   9.466   1.408  0.1381 -0.1543  0.7386
   53GLOH   H05 8917   9.157   9.377   1.396 -0.9615 -0.2208 -2.5830
   53GLOH    C3 8918   9.072   9.619   1.597  0.2821  0.4174  0.5100
   53GLOH   H06 8919   9.137   9.689   1.544  0.1039  0.5596  0.4803
   53GLOH   H07 8920   9.103   9.607   1.701  0.3276 -1.7630  0.2704
   53GLOH    O3 8921   8.934   9.661   1.586  0.2044 -0.3224 -0.0574
   53GLOH   H01 8922   8.932   9.758   1.585  0.3143 -0.3127  0.6177
   54GLOH   H03 8923   3.151   5.049   2.830  1.4084 -0.3718 -0.0767
   54GLOH    O1 8924   3.098   4.973   2.859  0.1090  0.3815 -0.4185
   54GLOH    C1 8925   2.961   5.008   2.866 -0.3215  0.0543  0.2035
   54GLOH   H02 8926   2.895   4.924   2.841  0.8668 -0.8942  0.2448
   54GLOH   H08 8927   2.941   5.087   2.794  0.3033 -0.5881 -0.6847
   54GLOH    C2 8928   2.921   5.055   3.006 -0.0812 -0.1379  0.4190
   54GLOH   H04 8929   2.997   5.133   3.026 -0.0819  0.0591 -0.3039
   54GLOH    O2 8930   2.791   5.111   3.007 -0.4547  0.4008 -0.3368
   54GLOH   H05 8931   2.800   5.206   3.029 -1.2040  0.1400  1.1915
   54GLOH    C3 8932   2.930   4.940   3.112 -0.2314 -0.2691  0.6004
   54GLOH   H06 8933   3.026   4.892   3.100 -0.9680 -1.6687  0.1939
   54GLOH   H07 8934   2.861   4.865   3.074 -1.1963  0.3629  1.0713
   54GLOH    O3 8935   2.909   4.972   3.247 -0.0219 -0.7251  0.0986
   54GLOH   H01 8936   2.866   5.059   3.250  2.1949  0.3414  2.0146
   55GLOH   H03 8937   6.462   9.143   1.623 -0.6878 -0.4510  1.6252
   55GLOH    O1 8938   6.555   9.122   1.642 -0.1913  0.1836 -0.0198
   55GLOH    C1 8939   6.643   9.187   1.553  0.6549  0.3471 -0.2282
   55GLOH   H02 8940   6.630   9.148   1.452 -1.0686 -1.9403  0.8220
   55GLOH   H08 8941   6.744   9.158   1.582 -0.2338 -1.4010  1.1863
   55GLOH    C2 8942   6.620   9.343   1.556  0.3839  0.3829  0.6609
   55GLOH   H04 8943   6.699   9.389   1.495 -0.0378 -0.4638 -0.5312
   55GLOH    O2 8944   6.489   9.373   1.493  0.3162  0.2373 -0.0731
   55GLOH   H05 8945   6.415   9.341   1.548 -0.4374  1.4397 -0.3811
   55GLOH    C3 8946   6.625   9.417   1.696 -0.3932 -0.0867 -0.1900
   55GLOH   H06 8947   6.719   9.389   1.744  1.0457  3.6825 -0.6840
   55GLOH   H07 8948   6.543   9.376   1.755 -0.6738  0.6839 -0.0453
   55GLOH    O3 8949   6.620   9.556   1.698 -0.3870 -0.2374 -0.0561
   55GLOH   H01 8950   6.681   9.593   1.765  2.2621 -0.4063 -2.2880
   56GLOH   H03 8951   1.174   5.759   4.850 -1.1559 -0.0815 -0.8445
   56GLOH    O1 8952   1.226   5.773   4.769  0.5119  0.4870  0.2929
   56GLOH    C1 8953   1.355   5.827   4.804 -1.1841  0.8990  0.4169
   56GLOH   H02 8954   1.350   5.932   4.832  1.7344  1.7513 -1.9401
   56GLOH   H08 8955   1.421   5.829   4.717 -3.3531 -1.9781 -1.3984
   56GLOH    C2 8956   1.425   5.747   4.913  0.2118  0.0536 -0.7887
   56GLOH   H04 8957   1.353   5.744   4.996  1.7768 -3.0495  0.5219
   56GLOH    O2 8958   1.454   5.614   4.872 -0.5132  0.1986 -0.0564
   56GLOH   H05 8959   1.438   5.606   4.776  0.3193  2.2842 -0.4035
   56GLOH    C3 8960   1.558   5.814   4.960 -0.2600  0.6656 -0.2383
   56GLOH   H06 8961   1.612   5.822   4.865  0.3869  0.1290  0.0739
   56GLOH   H07 8962   1.608   5.751   5.034  0.7387  3.1516  1.2546
   56GLOH    O3 8963   1.544   5.945   5.015 -0.1497  0.5052  0.6006
   56GLOH   H01 8964   1.633   5.976   5.044  0.8078 -1.9015  0.3338
   57GLOH   H03 8965   2.620   2.779   4.102 -2.6636 -1.2319 -0.9063
   57GLOH    O1 8966   2.584   2.798   4.190  0.0484 -0.0190  0.0087
   57GLOH    C1 8967   2.494   2.902   4.187  0.1828 -0.1224  0.2937
   57GLOH   H02 8968   2.439   2.908   4.093  0.7837 -2.3702 -0.2374
   57GLOH   H08 8969   2.552   2.990   4.210  2.1958 -1.1730 -0.6179
   57GLOH    C2 8970   2.385   2.885   4.300  0.0635 -0.3810 -0.8761
   57GLOH   H04 8971   2.331   2.794   4.269 -0.5275 -0.3643  0.0720
   57GLOH    O2 8972   2.443   2.884   4.430 -0.3032  0.1289  0.1701
   57GLOH   H05 8973   2.418   2.808   4.486  2.9053  0.1552  1.7664
   57GLOH    C3 8974   2.278   3.001   4.281 -0.3492  0.5124  0.6714
   57GLOH   H06 8975   2.288   3.040   4.180 -2.5842 -1.6705 -0.4497
   57GLOH   H07 8976   2.303   3.087   4.342 -2.1074  1.2446  0.3981
   57GLOH    O3 8977   2.135   2.962   4.310 -0.3188 -0.6317 -0.1391
   57GLOH   H01 8978   2.098   3.007   4.388  0.5543  0.2586 -0.2346
   58GLOH   H03 8979   9.482   2.097   2.370 -0.8587  0.1633  1.0449
   58GLOH    O1 8980   9.398   2.049   2.386 -0.9798 -0.0568 -0.1884
   58GLOH    C1 8981   9.300   2.111   2.293  0.1610  0.5403 -0.8035
   58GLOH   H02 8982   9.208   2.059   2.319  0.8650 -0.6641 -0.6825
   58GLOH   H08 8983   9.327   2.085   2.191  0.5485 -0.8499 -0.3602
   58GLOH    C2 8984   9.287   2.258   2.301 -0.4254 -0.8327 -0.1516
   58GLOH   H04 8985   9.240   2.271   2.400  2.2018 -1.0283  1.1551
   58GLOH    O2 8986   9.410   2.331   2.308 -0.0286 -0.2113 -0.7360
   58GLOH   H05 8987   9.492   2.283   2.291  0.6074  1.1889 -1.8086
   58GLOH    C3 8988   9.201   2.317   2.190  0.0654 -0.1863  0.2924
   58GLOH   H06 8989   9.255   2.280   2.103  1.9388 -1.9584  2.1675
   58GLOH   H07 8990   9.203   2.426   2.184 -0.3410 -0.1231  1.2652
   58GLOH    O3 8991   9.062   2.278   2.191 -0.0549  0.3108  0.4435
   58GLOH   H01 8992   9.008   2.356   2.167 -1.0628 -0.9220 -1.4306
   59GLOH   H03 8993   6.343   8.418   1.715 -0.7821  1.9314  0.2015
   59GLOH    O1 8994   6.435   8.449   1.730 -0.3196  0.5795  0.1955
   59GLOH    C1 8995   6.447   8.516   1.859 -0.1349 -0.0169 -0.1849
   59GLOH   H02 8996   6.548   8.509   1.899 -1.4495 -0.2817  3.3232
   59GLOH   H08 8997   6.385   8.471   1.936  1.5819 -0.6282  0.8794
   59GLOH    C2 8998   6.416   8.672   1.853  0.0683  0.2220  0.8006
   59GLOH   H04 8999   6.315   8.698   1.817  0.3788  0.7393  0.3002
   59GLOH    O2 9000   6.432   8.722   1.983  0.3462 -0.0916  0.1730
   59GLOH   H05 9001   6.355   8.779   1.992  1.0899  1.2362 -1.6968
   59GLOH    C3 9002   6.511   8.750   1.760  0.1674  0.0105 -0.9052
   59GLOH   H06 9003   6.503   8.710   1.658  0.4304  0.2337 -1.0127
   59GLOH   H07 9004   6.615   8.730   1.785  0.4693  1.1725 -1.2236
   59GLOH    O3 9005   6.481   8.894   1.770  0.7182  0.2157 -0.1490
   59GLOH   H01 9006   6.549   8.947   1.724  1.8600  0.4549  1.7559
   60GLOH   H03 9007   0.643   1.319   4.248  0.3385 -0.1863 -1.1008
   60GLOH    O1 9008   0.718   1.290   4.305 -0.2123  0.1557 -0.1934
   60GLOH    C1 9009   0.703   1.353   4.436  0.5573 -1.0329 -0.2983
   60GLOH   H02 9010   0.675   1.457   4.420  1.1104 -1.0203 -1.2471
   60GLOH   H08 9011   0.797   1.348   4.490  0.3845  1.0689  0.2136
   60GLOH    C2 9012   0.604   1.279   4.531  0.3502  0.1356  0.8130
   60GLOH   H04 9013   0.651   1.182   4.554  1.8309  0.4892 -0.6573
   60GLOH    O2 9014   0.602   1.338   4.656 -0.0316 -0.3077  0.1769
   60GLOH   H05 9015   0.530   1.300   4.709 -0.7018  2.2198  1.1783
   60GLOH    C3 9016   0.466   1.249   4.471 -0.0247  0.5407 -0.2871
   60GLOH   H06 9017   0.414   1.173   4.529 -1.1465  0.4486 -1.3799
   60GLOH   H07 9018   0.482   1.201   4.375  0.1374  1.5828 -0.7845
   60GLOH    O3 9019   0.378   1.358   4.451 -0.4780  0.0775 -0.2807
   60GLOH   H01 9020   0.355   1.404   4.534  1.7206 -1.6903  1.3840
   61GLOH   H03 9021   4.102   0.236   4.153 -0.3110 -0.5321  0.7398
   61GLOH    O1 9022   4.044   0.307   4.122 -0.1058 -0.6292  0.1273
   61GLOH    C1 9023   4.074   0.366   3.991  0.3506  0.2713 -0.3965
   61GLOH   H02 9024   3.992   0.420   3.943 -0.0882  0.3331  0.3998
   61GLOH   H08 9025   4.092   0.279   3.928 -0.0184 -0.3421  0.3275
   61GLOH    C2 9026   4.191   0.465   3.993  0.0746 -0.0506 -0.0853
   61GLOH   H04 9027   4.163   0.533   4.074  0.3195 -1.0110  0.8100
   61GLOH    O2 9028   4.315   0.415   4.028  0.4366  0.0496  0.8627
   61GLOH   H05 9029   4.320   0.340   3.966 -1.7385  1.6028 -1.2669
   61GLOH    C3 9030   4.196   0.547   3.865 -0.1878 -0.0511  0.2050
   61GLOH   H06 9031   4.267   0.629   3.875  1.1340 -1.1050 -0.3262
   61GLOH   H07 9032   4.098   0.587   3.843  0.7876  0.9204 -2.6793
   61GLOH    O3 9033   4.231   0.467   3.746 -0.1091  0.2019  0.6206
   61GLOH   H01 9034   4.200   0.520   3.671  0.3124 -0.0144  0.2955
   62GLOH   H03 9035   6.490   0.001   0.933 -0.7728 -0.0047 -0.2288
   62GLOH    O1 9036   6.499  -0.086   0.976  0.2281  0.1727 -0.0760
   62GLOH    C1 9037   6.635  -0.124   0.976 -0.7930  0.4916  0.0641
   62GLOH   H02 9038   6.652  -0.155   0.873  0.0851  1.1718 -0.0022
   62GLOH   H08 9039   6.654  -0.212   1.038 -0.0323  1.1880  0.8237
   62GLOH    C2 9040   6.735  -0.008   0.997 -0.4727 -1.3879 -0.2177
   62GLOH   H04 9041   6.707   0.046   1.089 -1.8967  0.1213 -1.5131
   62GLOH    O2 9042   6.869  -0.060   1.019 -0.0795  0.2529  0.4040
   62GLOH   H05 9043   6.896  -0.106   1.100  2.9728 -0.1732 -0.8107
   62GLOH    C3 9044   6.732   0.090   0.880  0.0545  0.1818 -0.2066
   62GLOH   H06 9045   6.769   0.043   0.789 -0.7812  0.2654 -0.5925
   62GLOH   H07 9046   6.805   0.169   0.898  0.4421 -0.0321 -0.8236
   62GLOH    O3 9047   6.597   0.139   0.868 -0.6657  0.3842 -0.2535
   62GLOH   H01 9048   6.594   0.228   0.829  0.4891  0.6889  0.3211
   63GLOH   H03 9049   6.272   7.205   2.739  0.5997  0.6790 -2.0023
   63GLOH    O1 9050   6.221   7.130   2.704  0.2101 -0.0231  0.0194
   63GLOH    C1 9051   6.321   7.035   2.650 -0.5937 -0.4778 -0.1191
   63GLOH   H02 9052   6.337   7.062   2.545 -0.0643  1.2765  0.3905
   63GLOH   H08 9053   6.275   6.937   2.655 -1.8894  0.0343 -1.5437
   63GLOH    C2 9054   6.455   7.033   2.732  0.3269  0.3871  0.1806
   63GLOH   H04 9055   6.445   6.976   2.825  1.6809  2.0525  1.3690
   63GLOH    O2 9056   6.568   6.975   2.654  0.1933 -0.8599 -0.1004
   63GLOH   H05 9057   6.652   6.980   2.703 -0.2980 -0.7626  0.7283
   63GLOH    C3 9058   6.503   7.172   2.772 -0.3795 -0.2990  0.1322
   63GLOH   H06 9059   6.518   7.233   2.684  1.6861  0.5703  1.0572
   63GLOH   H07 9060   6.598   7.176   2.826 -0.9018 -0.7992  1.1136
   63GLOH    O3 9061   6.405   7.238   2.855  0.2130 -0.2511 -0.3183
   63GLOH   H01 9062   6.416   7.335   2.863 -0.0478 -0.1689 -0.9529
   64GLOH   H03 9063   2.008   2.859   4.266 -0.0179 -1.0966  1.8302
   64GLOH    O1 9064   1.943   2.793   4.234  0.2738 -0.2418 -0.6146
   64GLOH    C1 9065   2.008   2.721   4.134 -0.3308 -0.0276  0.6273
   64GLOH   H02 9066   2.094   2.673   4.181 -2.0612 -1.2014  2.6587
   64GLOH   H08 9067   2.051   2.792   4.063  0.7461 -0.6336  0.6554
   64GLOH    C2 9068   1.909   2.628   4.066  0.3557  0.2757 -0.3658
   64GLOH   H04 9069   1.856   2.689   3.992 -1.5284 -0.4917  0.3136
   64GLOH    O2 9070   1.986   2.534   3.992 -0.3578  0.4513  0.1439
   64GLOH   H05 9071   2.041   2.579   3.926 -1.1803 -0.8994 -1.4851
   64GLOH    C3 9072   1.809   2.564   4.159 -0.2555  0.3039  1.0368
   64GLOH   H06 9073   1.869   2.508   4.231 -0.2107 -0.5456  0.3408
   64GLOH   H07 9074   1.746   2.495   4.104 -0.1862  1.4683 -0.5473
   64GLOH    O3 9075   1.731   2.670   4.223  0.3675  0.0474  0.4928
   64GLOH   H01 9076   1.794   2.744   4.236 -0.1060  1.2039 -2.9637
   65GLOH   H03 9077   5.781   8.815   2.102  0.8129  1.7288  0.3933
   65GLOH    O1 9078   5.869   8.775   2.086 -0.1713 -0.0085 -0.8386
   65GLOH    C1 9079   5.968   8.868   2.040  0.7336  0.2495  0.3791
   65GLOH   H02 9080   5.964   8.954   2.107 -1.8371 -1.0165  1.9174
   65GLOH   H08 9081   5.940   8.906   1.942 -1.5484  1.0286  1.3137
   65GLOH    C2 9082   6.110   8.815   2.034 -0.4543  0.7031 -0.7258
   65GLOH   H04 9083   6.116   8.733   1.960  1.1925 -2.3354  2.6222
   65GLOH    O2 9084   6.207   8.910   1.993  1.2637  0.5401  0.3738
   65GLOH   H05 9085   6.223   8.962   2.074  2.2888  0.3335  0.3112
   65GLOH    C3 9086   6.149   8.754   2.175 -0.4819  0.3380  0.5112
   65GLOH   H06 9087   6.253   8.720   2.173  0.0909  2.0445  0.6526
   65GLOH   H07 9088   6.084   8.666   2.182  0.5095 -0.3226  1.4788
   65GLOH    O3 9089   6.133   8.842   2.293 -0.4357  0.4574 -0.2877
   65GLOH   H01 9090   6.104   8.791   2.371  3.1489  0.8532  1.4377
   66GLOH   H03 9091   4.695   2.760   3.578 -0.4420 -0.3959  0.2465
   66GLOH    O1 9092   4.774   2.705   3.593 -0.5588 -0.5682  0.2305
   66GLOH    C1 9093   4.750   2.625   3.710  0.4552  0.9383 -0.6495
   66GLOH   H02 9094   4.708   2.687   3.789  0.1503  1.2809 -1.0730
   66GLOH   H08 9095   4.842   2.583   3.750  0.8786 -1.0678 -3.5627
   66GLOH    C2 9096   4.652   2.509   3.680 -0.0763 -0.4811  0.2443
   66GLOH   H04 9097   4.653   2.446   3.770 -0.3152 -0.9588 -0.0802
   66GLOH    O2 9098   4.522   2.556   3.640  0.5959 -0.3484 -0.1386
   66GLOH   H05 9099   4.454   2.506   3.688  2.4488  0.4602  3.4572
   66GLOH    C3 9100   4.718   2.431   3.566  0.0126 -0.0010  0.4867
   66GLOH   H06 9101   4.826   2.443   3.579  0.2638  1.0902 -2.2615
   66GLOH   H07 9102   4.697   2.489   3.476 -1.1298  1.8753  1.9381
   66GLOH    O3 9103   4.670   2.300   3.560 -0.1106  0.2042  0.4439
   66GLOH   H01 9104   4.573   2.296   3.562 -0.2250  1.6224 -1.3872
   67GLOH   H03 9105   7.142   7.187   4.474 -0.9642  1.1880 -0.4221
   67GLOH    O1 9106   7.056   7.142   4.478 -0.6890  0.7180  0.2824
   67GLOH    C1 9107   7.059   7.034   4.573 -0.3526 -0.1492  0.4383
   67GLOH   H02 9108   6.976   7.044   4.642  0.7596  0.6393  1.6901
   67GLOH   H08 9109   7.148   7.045   4.634  0.5391 -1.6329 -0.5693
   67GLOH    C2 9110   7.043   6.897   4.505 -0.3923  0.4435  0.4638
   67GLOH   H04 9111   7.122   6.895   4.428  1.4782 -0.1755  2.3566
   67GLOH    O2 9112   7.049   6.795   4.603  0.0929  0.1150 -0.1140
   67GLOH   H05 9113   7.097   6.720   4.564 -1.6714 -1.0966 -0.0178
   67GLOH    C3 9114   6.907   6.885   4.429  0.2212 -0.1826  0.0067
   67GLOH   H06 9115   6.822   6.876   4.497  0.4921 -2.8106  0.0638
   67GLOH   H07 9116   6.899   6.794   4.371  0.4889 -1.5800  2.1019
   67GLOH    O3 9117   6.883   7.003   4.349  0.5106  0.7219  0.1562
   67GLOH   H01 9118   6.919   7.078   4.401 -0.4316 -1.7206  4.6591
   68GLOH   H03 9119   8.304   7.840   4.403  0.9386 -0.7491  0.4736
   68GLOH    O1 9120   8.274   7.752   4.434  0.0598 -0.6662 -0.1154
   68GLOH    C1 9121   8.196   7.689   4.339 -0.7125 -0.1112 -0.2949
   68GLOH   H02 9122   8.155   7.761   4.268 -0.3957  0.2905 -0.0726
   68GLOH   H08 9123   8.109   7.652   4.392 -1.2915 -1.6697 -2.2961
   68GLOH    C2 9124   8.277   7.573   4.271  0.1676 -0.7219 -0.1948
   68GLOH   H04 9125   8.314   7.512   4.355 -1.5873  0.2262  1.3024
   68GLOH    O2 9126   8.199   7.487   4.189 -0.8127  0.4278  0.0018
   68GLOH   H05 9127   8.150   7.421   4.240  0.4341 -0.9456 -0.5368
   68GLOH    C3 9128   8.398   7.633   4.198 -0.6689 -0.0343  0.2347
   68GLOH   H06 9129   8.443   7.711   4.259  0.5789 -0.9618  0.5256
   68GLOH   H07 9130   8.359   7.673   4.104  0.0644 -3.2420 -1.4957
   68GLOH    O3 9131   8.498   7.531   4.173  0.1174 -0.5971  0.0228
   68GLOH   H01 9132   8.588   7.568   4.165  0.0400 -0.0736  1.4294
   69GLOH   H03 9133   4.536   4.081   4.328  0.0524 -0.0390  3.5084
   69GLOH    O1 9134   4.632   4.069   4.315 -0.4382 -0.3298 -0.3049
   69GLOH    C1 9135   4.642   4.013   4.183 -0.3140  0.3230  0.4429
   69GLOH   H02 9136   4.546   4.024   4.133  0.4491 -0.1731 -1.1618
   69GLOH   H08 9137   4.661   3.906   4.186  1.6577  0.5678 -1.5149
   69GLOH    C2 9138   4.758   4.072   4.096 -0.0522 -0.0940  0.0586
   69GLOH   H04 9139   4.852   4.038   4.141 -0.9715 -0.5062  1.6959
   69GLOH    O2 9140   4.743   4.022   3.960  0.2728  0.6504  0.3740
   69GLOH   H05 9141   4.676   4.073   3.912  1.7710  2.2515 -0.0692
   69GLOH    C3 9142   4.755   4.226   4.099  1.1768  0.9757  0.0487
   69GLOH   H06 9143   4.660   4.261   4.059 -0.7153 -1.2633  2.4635
   69GLOH   H07 9144   4.834   4.259   4.031  2.2876  0.2132  0.9563
   69GLOH    O3 9145   4.771   4.271   4.236 -0.0885  0.5314  0.2963
   69GLOH   H01 9146   4.730   4.203   4.293 -0.4337  0.6831  0.2305
   70GLOH   H03 9147   4.001   4.297   4.477  2.6814  0.0978 -0.6849
   70GLOH    O1 9148   3.975   4.286   4.384  0.7309 -0.4530 -0.1104
   70GLOH    C1 9149   3.830   4.299   4.380 -0.5692  0.0066 -0.4890
   70GLOH   H02 9150   3.787   4.228   4.451  0.0247 -0.2177 -0.3519
   70GLOH   H08 9151   3.794   4.284   4.278  0.2927  0.5447 -0.8801
   70GLOH    C2 9152   3.790   4.442   4.424  0.6164  0.3146  0.5202
   70GLOH   H04 9153   3.846   4.455   4.517  3.4464  0.2532 -1.0949
   70GLOH    O2 9154   3.830   4.540   4.326 -0.1931 -0.3067  0.4818
   70GLOH   H05 9155   3.923   4.523   4.306  0.3603  0.5796  2.2167
   70GLOH    C3 9156   3.640   4.433   4.449 -0.2874 -0.0678  0.1418
   70GLOH   H06 9157   3.607   4.527   4.492 -1.1783 -0.5632  0.5460
   70GLOH   H07 9158   3.624   4.357   4.525 -2.8459 -1.5326 -1.7783
   70GLOH    O3 9159   3.562   4.399   4.334 -0.4516  0.3258 -0.5116
   70GLOH   H01 9160   3.567   4.480   4.281 -1.9828 -0.0120 -1.2081
   71GLOH   H03 9161   5.114   7.947   4.149  1.6892  1.6384 -0.9445
   71GLOH    O1 9162   5.131   7.965   4.243  0.1096 -0.0640 -0.2848
   71GLOH    C1 9163   5.009   8.017   4.306 -0.0634 -0.0833  0.1687
   71GLOH   H02 9164   5.013   8.033   4.414 -1.7425 -1.5674  0.4783
   71GLOH   H08 9165   4.926   7.947   4.299 -1.2832  1.5810 -3.0136
   71GLOH    C2 9166   4.959   8.150   4.240 -0.4287  0.4328 -0.0984
   71GLOH   H04 9167   4.862   8.175   4.286 -0.4861 -1.3694  0.8064
   71GLOH    O2 9168   5.044   8.263   4.278  0.3764 -0.9765 -0.0387
   71GLOH   H05 9169   5.122   8.257   4.220  0.9093  1.7099  0.3125
   71GLOH    C3 9170   4.948   8.132   4.086  0.4429  1.2561  1.0079
   71GLOH   H06 9171   4.950   8.227   4.032  2.6879  0.8176  0.2724
   71GLOH   H07 9172   4.846   8.098   4.065  1.6989 -0.0015 -3.8144
   71GLOH    O3 9173   5.036   8.040   4.021 -0.1194  0.6959 -0.1129
   71GLOH   H01 9174   5.039   8.063   3.926  0.0033 -0.3932 -0.3866
   72GLOH   H03 9175   1.287   9.637   2.978 -2.2854 -0.9988 -3.3096
   72GLOH    O1 9176   1.267   9.727   2.945 -0.0547  0.8834  0.1909
   72GLOH    C1 9177   1.189   9.704   2.827 -0.9716  0.3417 -0.1583
   72GLOH   H02 9178   1.179   9.601   2.794 -1.8421  0.6000 -0.7260
   72GLOH   H08 9179   1.241   9.753   2.745 -0.7925  0.6009  0.1063
   72GLOH    C2 9180   1.057   9.775   2.832  0.0551  0.4584 -0.2464
   72GLOH   H04 9181   1.060   9.876   2.875  2.0155  1.3794 -2.4232
   72GLOH    O2 9182   1.001   9.794   2.696 -0.6607  0.0665 -0.2553
   72GLOH   H05 9183   0.907   9.822   2.699 -1.3808 -2.2981  0.2550
   72GLOH    C3 9184   0.962   9.681   2.913 -0.3243 -0.1207  0.1416
   72GLOH   H06 9185   1.019   9.678   3.006  0.0331  1.9905  0.0157
   72GLOH   H07 9186   0.959   9.583   2.866 -0.4084  0.0868 -0.2836
   72GLOH    O3 9187   0.832   9.739   2.940 -0.2373  0.1950 -0.5359
   72GLOH   H01 9188   0.848   9.811   3.005  2.8754 -1.2747  0.4110
   73GLOH   H03 9189   8.272   0.264   1.576 -0.6546 -2.6265 -2.4060
   73GLOH    O1 9190   8.356   0.282   1.531  0.0170 -0.1794 -0.3471
   73GLOH    C1 9191   8.322   0.322   1.399 -0.2374  0.6453  0.5474
   73GLOH   H02 9192   8.297   0.235   1.338 -1.1597  2.0927 -1.1908
   73GLOH   H08 9193   8.410   0.365   1.352 -0.3335 -1.9123 -2.1217
   73GLOH    C2 9194   8.203   0.417   1.381 -0.7855  0.1172  0.3701
   73GLOH   H04 9195   8.120   0.400   1.451 -2.5378  1.3356 -1.3530
   73GLOH    O2 9196   8.243   0.554   1.415 -0.1795  0.2682 -0.7348
   73GLOH   H05 9197   8.196   0.576   1.497  0.2651 -1.0322 -0.1135
   73GLOH    C3 9198   8.156   0.415   1.231 -0.3781  0.5705 -0.3281
   73GLOH   H06 9199   8.235   0.454   1.166 -1.2110 -0.4507 -1.9714
   73GLOH   H07 9200   8.069   0.480   1.221 -0.8754  0.3000  2.0309
   73GLOH    O3 9201   8.129   0.282   1.187 -0.7236 -0.4109  0.8169
   73GLOH   H01 9202   8.198   0.266   1.121 -0.9262 -1.3024  0.8169
   74GLOH   H03 9203   5.462   4.217   0.126  0.3638 -0.8036  0.7242
   74GLOH    O1 9204   5.392   4.153   0.149 -0.1524 -0.2807  0.6089
   74GLOH    C1 9205   5.434   4.084   0.272 -0.2703 -0.5782 -0.0150
   74GLOH   H02 9206   5.357   4.092   0.349 -0.8368  2.1234 -0.8040
   74GLOH   H08 9207   5.526   4.134   0.302 -0.4436 -0.4365  0.2928
   74GLOH    C2 9208   5.470   3.937   0.256 -0.1597 -0.0428 -0.1927
   74GLOH   H04 9209   5.555   3.933   0.187 -1.6653 -2.5628 -2.0056
   74GLOH    O2 9210   5.508   3.872   0.380  0.4814  0.1706  0.2710
   74GLOH   H05 9211   5.424   3.851   0.425  1.5828 -1.4180  1.6438
   74GLOH    C3 9212   5.358   3.852   0.195 -1.0840 -0.4532  0.5656
   74GLOH   H06 9213   5.408   3.756   0.198  0.3362  0.3131  2.2683
   74GLOH   H07 9214   5.330   3.893   0.098  1.5389 -1.3109 -0.6130
   74GLOH    O3 9215   5.242   3.853   0.273  0.3920  0.0633 -0.8727
   74GLOH   H01 9216   5.186   3.931   0.260 -0.7889 -0.9185 -1.8642
   75GLOH   H03 9217   1.193   5.019   4.070 -0.0197  3.2856 -2.4236
   75GLOH    O1 9218   1.237   4.957   4.008 -0.3918  0.5235 -0.0278
   75GLOH    C1 9219   1.142   4.849   3.999 -0.2460  0.2476  0.7857
   75GLOH   H02 9220   1.047   4.890   3.963  0.4989  0.7712 -0.6097
   75GLOH   H08 9221   1.123   4.813   4.101 -1.6787  0.7299  0.6963
   75GLOH    C2 9222   1.185   4.732   3.902 -0.0428 -0.6302 -0.6907
   75GLOH   H04 9223   1.271   4.681   3.948 -0.6525  0.1422  1.3750
   75GLOH    O2 9224   1.074   4.640   3.898 -0.3257  0.1470 -0.4573
   75GLOH   H05 9225   1.107   4.557   3.859 -2.0887  0.1738 -2.0820
   75GLOH    C3 9226   1.220   4.785   3.767 -0.0640  0.4119  0.5967
   75GLOH   H06 9227   1.320   4.828   3.774  0.4842 -0.8060  0.4315
   75GLOH   H07 9228   1.156   4.862   3.725  2.6078  0.5252 -3.6345
   75GLOH    O3 9229   1.227   4.671   3.676  0.1679  0.6027 -0.4631
   75GLOH   H01 9230   1.276   4.695   3.595 -0.1165  2.3656 -0.1323
   76GLOH   H03 9231   7.086   6.184   4.070 -1.6339 -1.5499 -0.2020
   76GLOH    O1 9232   7.051   6.235   3.994  0.0962  0.7434  0.4776
   76GLOH    C1 9233   7.148   6.247   3.895 -0.7832  0.0543  0.0193
   76GLOH   H02 9234   7.110   6.204   3.802 -0.6672  1.4287 -0.6654
   76GLOH   H08 9235   7.247   6.207   3.916 -0.6032 -1.1188 -2.7983
   76GLOH    C2 9236   7.172   6.395   3.859  0.0713  0.5146  0.6282
   76GLOH   H04 9237   7.196   6.445   3.954  0.5552 -0.0331  0.8014
   76GLOH    O2 9238   7.285   6.414   3.766 -0.1702 -0.0422  0.1211
   76GLOH   H05 9239   7.264   6.486   3.704  1.2125  1.8852  1.8237
   76GLOH    C3 9240   7.042   6.453   3.802 -0.2811 -0.9415 -0.7800
   76GLOH   H06 9241   7.015   6.384   3.722  1.8533 -1.2236 -1.2999
   76GLOH   H07 9242   7.058   6.555   3.769  2.0823 -0.3087  2.1497
   76GLOH    O3 9243   6.945   6.462   3.901  0.3846 -0.3045 -0.4427
   76GLOH   H01 9244   6.973   6.397   3.969  0.0531  0.9936  0.9479
   77GLOH   H03 9245   3.520   9.530   3.677 -1.3268  1.3697 -1.3814
   77GLOH    O1 9246   3.494   9.444   3.641  0.5368  0.0154  0.3645
   77GLOH    C1 9247   3.544   9.327   3.714 -0.1748 -0.2560  0.3556
   77GLOH   H02 9248   3.649   9.310   3.689 -0.1459  1.4282 -0.7309
   77GLOH   H08 9249   3.492   9.238   3.679 -0.2434  0.4977 -1.4863
   77GLOH    C2 9250   3.532   9.334   3.861  0.1964  0.0010  0.0901
   77GLOH   H04 9251   3.584   9.242   3.891 -0.1979 -0.6678 -1.2494
   77GLOH    O2 9252   3.612   9.446   3.916 -0.3293 -0.1219  0.2187
   77GLOH   H05 9253   3.589   9.526   3.866 -0.6498 -0.2358  0.1821
   77GLOH    C3 9254   3.384   9.346   3.900 -0.5399 -0.2777  0.9229
   77GLOH   H06 9255   3.354   9.424   3.830  1.4687  0.3697  0.7365
   77GLOH   H07 9256   3.369   9.388   4.000  2.0612 -1.8933  2.0612
   77GLOH    O3 9257   3.306   9.228   3.882  0.4920 -0.3352 -0.0274
   77GLOH   H01 9258   3.348   9.164   3.821  1.5989  2.4406 -2.2889
   78GLOH   H03 9259   7.187   0.913   3.948 -0.8129  0.8863 -0.5290
   78GLOH    O1 9260   7.266   0.966   3.926  0.0122 -0.0170  0.2439
   78GLOH    C1 9261   7.380   0.873   3.912 -0.1659  0.0972  0.1364
   78GLOH   H02 9262   7.475   0.922   3.891  1.0576 -2.3047 -0.1163
   78GLOH   H08 9263   7.357   0.816   3.821 -0.9280 -0.7917  0.8741
   78GLOH    C2 9264   7.389   0.774   4.037 -0.1046  0.3371  0.6728
   78GLOH   H04 9265   7.301   0.709   4.038  1.0668 -1.2815  1.1545
   78GLOH    O2 9266   7.502   0.691   4.018 -0.1948 -0.2544 -0.5109
   78GLOH   H05 9267   7.482   0.615   3.961  0.7814 -0.4482 -0.6119
   78GLOH    C3 9268   7.409   0.836   4.177 -0.0233 -0.2989  0.1787
   78GLOH   H06 9269   7.488   0.908   4.159 -1.5287  1.1024 -0.9106
   78GLOH   H07 9270   7.446   0.755   4.240 -1.9803 -1.1696  0.2451
   78GLOH    O3 9271   7.286   0.889   4.231 -0.1494 -0.3830 -0.4429
   78GLOH   H01 9272   7.242   0.819   4.282 -0.3756  0.5767  0.7078
   79GLOH   H03 9273   2.601   3.028   5.276 -0.1338  2.1627 -0.8163
   79GLOH    O1 9274   2.558   2.971   5.210  0.3100  0.5408  0.2698
   79GLOH    C1 9275   2.461   2.891   5.279 -0.2439 -0.1758  0.5629
   79GLOH   H02 9276   2.365   2.940   5.263  0.7207  1.7774  0.5976
   79GLOH   H08 9277   2.473   2.900   5.387  3.9131 -0.7568  0.2489
   79GLOH    C2 9278   2.454   2.750   5.226 -0.4037  0.7457  0.5790
   79GLOH   H04 9279   2.546   2.689   5.233 -1.1730 -0.7246 -1.6521
   79GLOH    O2 9280   2.347   2.665   5.288 -0.2553  0.9450 -0.2934
   79GLOH   H05 9281   2.265   2.688   5.243 -1.0909  1.0356  1.2472
   79GLOH    C3 9282   2.436   2.746   5.069  0.9328 -0.0963 -0.0762
   79GLOH   H06 9283   2.437   2.643   5.035 -1.3558  0.2923 -1.4466
   79GLOH   H07 9284   2.515   2.799   5.015  0.3300  0.7718 -0.1237
   79GLOH    O3 9285   2.322   2.818   5.031  0.6721 -0.3852 -0.3368
   79GLOH   H01 9286   2.253   2.794   5.096  2.2445 -0.7699  1.2350
   80GLOH   H03 9287   8.174   1.131   5.622 -0.2218 -2.9161 -3.3106
   80GLOH    O1 9288   8.077   1.128   5.617 -0.6278 -0.0603  0.5103
   80GLOH    C1 9289   8.030   0.990   5.630 -0.2931 -0.1709 -0.1928
   80GLOH   H02 9290   8.095   0.922   5.575 -1.2669 -0.9901 -0.3495
   80GLOH   H08 9291   7.927   0.970   5.602 -0.1761  0.3700 -1.0333
   80GLOH    C2 9292   8.036   0.937   5.778  0.8326 -1.0594 -0.3089
   80GLOH   H04 9293   8.142   0.917   5.801  1.1889 -0.5495 -1.4865
   80GLOH    O2 9294   7.991   1.041   5.870 -0.3031 -0.6878 -0.5003
   80GLOH   H05 9295   7.978   1.117   5.811  1.7982 -0.2012 -0.3726
   80GLOH    C3 9296   7.964   0.801   5.791 -0.2767  0.0489  0.5785
   80GLOH   H06 9297   7.859   0.821   5.809 -0.3502 -0.6239  0.9373
   80GLOH   H07 9298   7.994   0.753   5.885 -0.4399  1.1639  1.2125
   80GLOH    O3 9299   7.988   0.711   5.679  0.7727  0.4294  0.2346
   80GLOH   H01 9300   7.912   0.710   5.619 -0.0255  1.3519  1.1888
   81GLOH   H03 9301   4.532   3.865   1.373 -0.6113 -0.0049 -1.0760
   81GLOH    O1 9302   4.541   3.787   1.316  0.0824 -0.1922 -0.7141
   81GLOH    C1 9303   4.662   3.760   1.243  0.4382  0.5918 -0.2678
   81GLOH   H02 9304   4.648   3.694   1.157  1.0705  0.7801 -0.5208
   81GLOH   H08 9305   4.731   3.705   1.307 -0.6770 -1.2311 -0.6123
   81GLOH    C2 9306   4.738   3.890   1.192  0.0184 -0.2424 -0.2907
   81GLOH   H04 9307   4.671   3.948   1.127 -0.3655 -1.3346 -0.8786
   81GLOH    O2 9308   4.773   3.969   1.310 -0.2361  0.2124 -0.3446
   81GLOH   H05 9309   4.707   3.984   1.379 -0.0307  1.1501 -0.3398
   81GLOH    C3 9310   4.864   3.875   1.100  0.0980 -0.4809 -0.3245
   81GLOH   H06 9311   4.940   3.816   1.152  0.1205 -0.0416  0.1353
   81GLOH   H07 9312   4.913   3.972   1.086  1.2068 -0.7098  1.7980
   81GLOH    O3 9313   4.821   3.802   0.981  0.0215  0.4649  0.4937
   81GLOH   H01 9314   4.773   3.866   0.926 -0.9622 -1.7903 -1.3429
   82GLOH   H03 9315   3.473   3.731   4.722  0.0133 -2.0062 -1.7506
   82GLOH    O1 9316   3.535   3.795   4.683  0.2650 -0.7398  0.6531
   82GLOH    C1 9317   3.467   3.905   4.621  0.0402 -0.3980  0.8553
   82GLOH   H02 9318   3.538   3.987   4.615 -1.4180  0.7134 -2.0706
   82GLOH   H08 9319   3.383   3.920   4.688 -0.4758  2.6571 -0.4149
   82GLOH    C2 9320   3.420   3.894   4.479 -0.7738  0.4528 -0.7015
   82GLOH   H04 9321   3.378   3.987   4.437  0.6397  2.0441  1.3201
   82GLOH    O2 9322   3.532   3.857   4.399 -0.1687  0.3146  0.1975
   82GLOH   H05 9323   3.506   3.849   4.305  0.4748 -0.9633  0.1074
   82GLOH    C3 9324   3.302   3.795   4.473 -1.1022  0.6292 -0.1501
   82GLOH   H06 9325   3.342   3.702   4.514  0.5539  1.1207 -0.5989
   82GLOH   H07 9326   3.283   3.779   4.367 -0.2272 -1.2357 -0.0582
   82GLOH    O3 9327   3.181   3.830   4.537  0.3690 -0.7761 -0.4242
   82GLOH   H01 9328   3.137   3.746   4.558 -1.0366  0.9314  4.0687
   83GLOH   H03 9329   0.001   6.218   5.149  0.4523  0.7405 -1.0181
   83GLOH    O1 9330  -0.008   6.130   5.107  0.6438  0.0669  0.3468
   83GLOH    C1 9331  -0.124   6.058   5.151  0.3448  0.4932 -0.0971
   83GLOH   H02 9332  -0.217   6.108   5.126  0.4606  1.9887  2.3284
   83GLOH   H08 9333  -0.116   6.040   5.258  2.5127 -0.1150 -0.3344
   83GLOH    C2 9334  -0.118   5.916   5.084  0.5539 -0.4145 -0.6623
   83GLOH   H04 9335  -0.012   5.888   5.090 -0.5069 -4.1761  2.2161
   83GLOH    O2 9336  -0.211   5.823   5.144  0.1210 -0.2688  0.0683
   83GLOH   H05 9337  -0.289   5.865   5.183  0.7973 -1.6934  3.1050
   83GLOH    C3 9338  -0.156   5.925   4.936  0.1810  0.2094 -0.6950
   83GLOH   H06 9339  -0.111   6.019   4.902  0.6552  0.2595  0.0628
   83GLOH   H07 9340  -0.265   5.936   4.932 -0.2591 -2.0519  2.9137
   83GLOH    O3 9341  -0.114   5.813   4.857  0.7445  0.2555 -0.2057
   83GLOH   H01 9342  -0.189   5.754   4.876  1.3716 -0.2869  0.5945
   84GLOH   H03 9343   7.415   4.475   5.052  2.5839 -1.2907 -0.0021
   84GLOH    O1 9344   7.402   4.381   5.028 -0.7273 -0.8773 -0.1655
   84GLOH    C1 9345   7.512   4.350   4.943  0.2841 -0.2350  0.1240
   84GLOH   H02 9346   7.602   4.366   5.002 -0.0927  0.5812  0.4786
   84GLOH   H08 9347   7.528   4.411   4.854 -0.1254 -0.0407  0.1847
   84GLOH    C2 9348   7.516   4.201   4.905  0.5596 -0.0696 -0.1259
   84GLOH   H04 9349   7.459   4.191   4.811  0.8510 -0.9446 -0.2090
   84GLOH    O2 9350   7.648   4.155   4.871 -0.2902  0.3752  0.1449
   84GLOH   H05 9351   7.647   4.090   4.799  0.2418  0.1863  0.3056
   84GLOH    C3 9352   7.458   4.111   5.013 -0.3242  0.3927  0.4676
   84GLOH   H06 9353   7.520   4.110   5.103 -0.0190 -4.4607  0.3150
   84GLOH   H07 9354   7.456   4.011   4.970 -0.7601  1.1092 -1.1922
   84GLOH    O3 9355   7.326   4.152   5.046 -0.2738 -0.1135  0.4037
   84GLOH   H01 9356   7.322   4.249   5.034  1.9411 -0.0004  0.5008
   85GLOH   H03 9357   4.797   0.264   4.942  0.8433 -2.3265 -1.3531
   85GLOH    O1 9358   4.776   0.313   4.861  0.4310 -0.0651  0.0678
   85GLOH    C1 9359   4.834   0.235   4.760 -0.3786 -0.2035  0.3500
   85GLOH   H02 9360   4.932   0.277   4.737 -0.3187 -0.8951 -0.6736
   85GLOH   H08 9361   4.781   0.241   4.665 -0.4861 -2.2391  0.2571
   85GLOH    C2 9362   4.844   0.085   4.786 -0.3724 -0.3895  1.6341
   85GLOH   H04 9363   4.742   0.048   4.803 -0.2441 -0.4231  2.3329
   85GLOH    O2 9364   4.914   0.026   4.672 -0.0679  0.1651  0.0512
   85GLOH   H05 9365   4.850   0.010   4.601 -1.1122 -3.2611  1.6365
   85GLOH    C3 9366   4.921   0.051   4.910 -1.2301  0.0567 -0.0780
   85GLOH   H06 9367   5.012   0.111   4.910 -1.6405  0.6801 -0.2221
   85GLOH   H07 9368   4.952  -0.054   4.913 -0.4542  0.2993  0.8582
   85GLOH    O3 9369   4.834   0.094   5.022  0.2244  0.4086 -0.0166
   85GLOH   H01 9370   4.856   0.035   5.096 -1.7759 -0.1311  0.1623
   86GLOH   H03 9371   7.263   1.342   3.312 -2.0357  0.3665 -1.5682
   86GLOH    O1 9372   7.324   1.336   3.237 -0.1022  0.6171 -0.0694
   86GLOH    C1 9373   7.439   1.418   3.262 -0.0274  0.7509  0.0175
   86GLOH   H02 9374   7.532   1.375   3.225 -0.8189 -0.0720 -1.0468
   86GLOH   H08 9375   7.456   1.418   3.370  1.2652 -2.2484 -0.1469
   86GLOH    C2 9376   7.415   1.556   3.211 -0.7728  0.5240 -0.0070
   86GLOH   H04 9377   7.314   1.582   3.244 -1.2457 -0.5691 -0.5558
   86GLOH    O2 9378   7.511   1.648   3.268 -0.6340 -0.0703 -0.3000
   86GLOH   H05 9379   7.491   1.738   3.238  0.4566 -0.2319 -1.5793
   86GLOH    C3 9380   7.407   1.562   3.057 -0.2436 -0.4699 -0.0663
   86GLOH   H06 9381   7.317   1.509   3.028 -0.1378 -0.5142 -0.3170
   86GLOH   H07 9382   7.490   1.515   3.005  1.2432 -0.2081  1.9997
   86GLOH    O3 9383   7.393   1.700   3.016 -0.2710 -0.7274 -0.9796
   86GLOH   H01 9384   7.301   1.730   3.031 -0.3755 -0.9190 -1.2446
   87GLOH   H03 9385   7.675   3.376   2.155  0.9185 -1.4201 -0.2265
   87GLOH    O1 9386   7.592   3.368   2.105  0.5292 -0.2372  0.2178
   87GLOH    C1 9387   7.619   3.342   1.964  0.4488 -0.3445 -0.1817
   87GLOH   H02 9388   7.527   3.341   1.906  0.6112 -0.5141 -0.4362
   87GLOH   H08 9389   7.659   3.242   1.952  2.8254  0.5200  0.3457
   87GLOH    C2 9390   7.707   3.446   1.892  0.2280 -0.1560  0.2143
   87GLOH   H04 9391   7.799   3.463   1.949  0.6343  1.5426 -0.9163
   87GLOH    O2 9392   7.739   3.398   1.757 -0.0967  0.3441  1.2369
   87GLOH   H05 9393   7.658   3.362   1.717  0.4514 -0.6422  1.0047
   87GLOH    C3 9394   7.632   3.584   1.878 -0.4301 -0.2373  0.7479
   87GLOH   H06 9395   7.536   3.568   1.828  0.7060  1.1855 -1.9682
   87GLOH   H07 9396   7.693   3.656   1.825  1.4419 -1.6046  0.9986
   87GLOH    O3 9397   7.603   3.645   2.004  0.0012 -0.1033 -0.0706
   87GLOH   H01 9398   7.551   3.573   2.046 -0.7158  0.5075  0.0856
   88GLOH   H03 9399   0.426   7.029   2.189  0.0580  0.0026  0.6470
   88GLOH    O1 9400   0.336   7.050   2.220 -0.0986 -0.0682  0.2502
   88GLOH    C1 9401   0.326   7.002   2.358 -0.1069  0.3725  0.2657
   88GLOH   H02 9402   0.379   6.909   2.378  0.5586  0.5944 -0.4592
   88GLOH   H08 9403   0.222   6.988   2.388  0.1377 -0.9555  0.5131
   88GLOH    C2 9404   0.368   7.108   2.461 -0.3796  0.4606 -0.4937
   88GLOH   H04 9405   0.294   7.190   2.454  0.0952  1.0553  1.1529
   88GLOH    O2 9406   0.368   7.060   2.595 -0.6486  0.6219 -0.0561
   88GLOH   H05 9407   0.280   7.079   2.632 -0.2997  0.7800  0.7007
   88GLOH    C3 9408   0.508   7.163   2.435  0.2372  0.2403  0.4721
   88GLOH   H06 9409   0.547   7.229   2.512  0.8899 -1.6613  1.8088
   88GLOH   H07 9410   0.509   7.222   2.344 -0.6540 -0.5106 -0.0286
   88GLOH    O3 9411   0.605   7.057   2.421 -0.0597  0.6232  0.4538
   88GLOH   H01 9412   0.694   7.096   2.435  0.1851 -0.4073  1.8976
   89GLOH   H03 9413   8.664   8.234   1.113  1.4514 -1.0351 -0.8011
   89GLOH    O1 9414   8.594   8.167   1.122 -0.0001  0.5504  0.1166
   89GLOH    C1 9415   8.643   8.072   1.218 -0.3345  0.1964  0.3384
   89GLOH   H02 9416   8.561   8.001   1.226 -0.1822 -0.1441 -0.9770
   89GLOH   H08 9417   8.652   8.128   1.311  1.2292 -3.3290  2.3880
   89GLOH    C2 9418   8.772   7.991   1.184  0.2910 -0.4871  0.4755
   89GLOH   H04 9419   8.824   8.068   1.125 -1.4861  1.7832  1.8053
   89GLOH    O2 9420   8.811   7.956   1.316 -0.1941 -0.2510 -0.5204
   89GLOH   H05 9421   8.900   7.994   1.320 -0.0018 -0.6402 -1.0825
   89GLOH    C3 9422   8.748   7.864   1.101 -0.2959 -0.0146 -0.2440
   89GLOH   H06 9423   8.659   7.815   1.140 -1.2748  1.3790 -0.6901
   89GLOH   H07 9424   8.842   7.808   1.101  0.4997  1.2916  1.1819
   89GLOH    O3 9425   8.715   7.896   0.969 -0.3964 -0.5920 -0.2336
   89GLOH   H01 9426   8.730   7.817   0.914  0.7917  0.1009 -0.9593
   90GLOH   H03 9427   8.942   5.002   0.808 -1.9463  1.3104 -1.7006
   90GLOH    O1 9428   8.985   4.951   0.736  0.7134  0.9627  0.0569
   90GLOH    C1 9429   9.042   4.833   0.797 -0.2159 -0.9443  0.6624
   90GLOH   H02 9430   9.029   4.750   0.728 -2.2194 -1.3703  1.5185
   90GLOH   H08 9431   8.987   4.812   0.889 -0.7329 -0.0014  0.5739
   90GLOH    C2 9432   9.192   4.850   0.829 -0.9267  0.0798  0.0250
   90GLOH   H04 9433   9.212   4.949   0.871 -1.2096  0.4061 -0.6152
   90GLOH    O2 9434   9.243   4.743   0.916 -0.6131  0.2180 -0.4357
   90GLOH   H05 9435   9.177   4.675   0.936 -2.4766  1.5423 -1.8903
   90GLOH    C3 9436   9.262   4.844   0.692  0.3705  0.0580 -0.1363
   90GLOH   H06 9437   9.221   4.749   0.659  1.2158  0.0328 -1.1324
   90GLOH   H07 9438   9.371   4.842   0.700  0.3012 -0.2633  0.8658
   90GLOH    O3 9439   9.221   4.960   0.610  0.3183 -0.2204 -0.1445
   90GLOH   H01 9440   9.129   4.976   0.637  0.1238 -0.3096 -0.7536
   91GLOH   H03 9441   7.998   2.274   4.276  0.8887  0.8472 -2.0003
   91GLOH    O1 9442   7.910   2.291   4.236  0.0639 -0.2597 -0.6868
   91GLOH    C1 9443   7.839   2.182   4.302 -0.8948 -0.5752 -0.0263
   91GLOH   H02 9444   7.735   2.181   4.270 -0.4874 -1.8188 -1.4032
   91GLOH   H08 9445   7.840   2.205   4.408 -0.0602  0.0574 -0.1696
   91GLOH    C2 9446   7.897   2.039   4.285  0.0743  0.2019 -0.2768
   91GLOH   H04 9447   7.911   2.009   4.180 -2.6643 -2.4407  0.0587
   91GLOH    O2 9448   8.013   2.022   4.371 -0.2111 -0.4294  0.2951
   91GLOH   H05 9449   8.075   1.957   4.335  0.3416  1.1065 -1.6387
   91GLOH    C3 9450   7.789   1.937   4.326 -0.1709  0.1462 -0.0652
   91GLOH   H06 9451   7.768   1.955   4.431 -0.8137  2.4343 -0.5633
   91GLOH   H07 9452   7.834   1.839   4.310  0.2198  0.4253 -0.6763
   91GLOH    O3 9453   7.669   1.947   4.249 -0.5916  0.7388 -0.2272
   91GLOH   H01 9454   7.620   1.864   4.261  0.0530  0.3839 -0.0953
   92GLOH   H03 9455   0.470   1.624   1.800 -0.6648  0.3981  0.5526
   92GLOH    O1 9456   0.447   1.650   1.709  0.3671  0.5361  0.3290
   92GLOH    C1 9457   0.321   1.718   1.693  0.1640  0.3419 -0.0392
   92GLOH   H02 9458   0.315   1.783   1.606 -1.5858 -0.3580 -0.4551
   92GLOH   H08 9459   0.296   1.770   1.786 -1.2787  1.4171 -1.0247
   92GLOH    C2 9460   0.201   1.619   1.664 -0.8382  0.2358 -0.2969
   92GLOH   H04 9461   0.232   1.555   1.581 -0.5086  0.7489 -0.5760
   92GLOH    O2 9462   0.163   1.540   1.780  0.3558  0.1541 -0.1464
   92GLOH   H05 9463   0.145   1.599   1.855 -2.0086 -1.0399  0.2500
   92GLOH    C3 9464   0.085   1.707   1.626  0.9397  0.4466 -1.0273
   92GLOH   H06 9465  -0.009   1.657   1.605  1.7805 -1.9202  0.7054
   92GLOH   H07 9466   0.109   1.758   1.532  1.3231 -2.8874 -2.7952
   92GLOH    O3 9467   0.050   1.800   1.732 -0.1834 -0.0077 -0.6316
   92GLOH   H01 9468  -0.019   1.759   1.787  0.0534 -0.2550 -0.5186
   93GLOH   H03 9469   0.528   7.476   5.029 -1.5141  1.3866 -0.1397
   93GLOH    O1 9470   0.517   7.396   4.974 -0.8330  1.0393  0.2287
   93GLOH    C1 9471   0.500   7.262   5.036  0.4837 -0.2112 -0.3182
   93GLOH   H02 9472   0.496   7.263   5.145 -0.9183 -1.4035 -0.3424
   93GLOH   H08 9473   0.595   7.211   5.019  2.1128  2.0477  1.6827
   93GLOH    C2 9474   0.400   7.172   4.972  0.5547 -0.0890  0.2519
   93GLOH   H04 9475   0.419   7.173   4.863  0.7525  2.4032  0.2798
   93GLOH    O2 9476   0.404   7.030   5.013  0.5123 -0.2393 -0.0163
   93GLOH   H05 9477   0.402   7.029   5.110  0.0569  0.4342 -0.0216
   93GLOH    C3 9478   0.268   7.237   5.009  0.6372  0.3753  0.0657
   93GLOH   H06 9479   0.187   7.176   4.970  0.2461 -0.7274  2.4707
   93GLOH   H07 9480   0.264   7.338   4.968 -2.1506  0.4014  0.2849
   93GLOH    O3 9481   0.238   7.249   5.144 -0.6320  0.0362  0.1223
   93GLOH   H01 9482   0.187   7.170   5.169 -1.1489  0.1098 -0.6709
   94GLOH   H03 9483   7.909   4.217   1.256  2.0105  1.2626  0.9692
   94GLOH    O1 9484   7.865   4.205   1.342 -0.3457 -0.9748 -0.4906
   94GLOH    C1 9485   7.740   4.136   1.298 -0.1141 -0.1365  0.1679
   94GLOH   H02 9486   7.762   4.044   1.244 -0.6752 -0.2497  0.1334
   94GLOH   H08 9487   7.672   4.194   1.235 -0.0705 -3.7723 -3.4561
   94GLOH    C2 9488   7.652   4.093   1.417 -0.5796 -0.4773 -0.3160
   94GLOH   H04 9489   7.593   4.181   1.448  0.3463  0.5636 -1.4749
   94GLOH    O2 9490   7.565   3.986   1.371  0.2674 -0.0170  0.3832
   94GLOH   H05 9491   7.517   4.022   1.294  0.1918 -2.1894 -0.6238
   94GLOH    C3 9492   7.721   4.042   1.538 -0.1306  0.6681 -0.2696
   94GLOH   H06 9493   7.759   3.941   1.523 -0.6820  0.4846 -0.4213
   94GLOH   H07 9494   7.644   4.033   1.615 -0.4737  0.7919 -0.5967
   94GLOH    O3 9495   7.818   4.132   1.584 -0.6036  0.2442  0.1058
   94GLOH   H01 9496   7.870   4.173   1.513 -0.5882  2.5238  1.3569
   95GLOH   H03 9497   7.260   0.982   2.146  0.8590  0.8836 -0.4307
   95GLOH    O1 9498   7.252   1.076   2.170 -0.6387  0.6480  0.0518
   95GLOH    C1 9499   7.156   1.149   2.093  0.2556 -0.1998  0.3823
   95GLOH   H02 9500   7.105   1.219   2.159  1.2916  1.3925 -0.4728
   95GLOH   H08 9501   7.079   1.088   2.046  1.9593 -0.7277 -1.7757
   95GLOH    C2 9502   7.221   1.233   1.981  0.1604  0.3548  0.0644
   95GLOH   H04 9503   7.266   1.165   1.908 -2.3379 -1.0366 -0.2318
   95GLOH    O2 9504   7.117   1.314   1.924 -0.6381 -0.2450  0.6888
   95GLOH   H05 9505   7.115   1.286   1.831  2.5817  0.4015  0.3495
   95GLOH    C3 9506   7.340   1.316   2.030 -1.2470 -0.4802 -0.2199
   95GLOH   H06 9507   7.291   1.396   2.084  0.5778 -0.0459  0.8317
   95GLOH   H07 9508   7.399   1.364   1.952 -0.1666  0.9494  1.4397
   95GLOH    O3 9509   7.428   1.245   2.117 -0.1636  1.4168  0.4110
   95GLOH   H01 9510   7.363   1.190   2.165 -0.5264  0.1874 -1.4489
   96GLOH   H03 9511   8.353   8.686   1.058 -1.2392  2.5832  0.6862
   96GLOH    O1 9512   8.419   8.719   0.994 -0.3128 -0.0798  0.1923
   96GLOH    C1 9513   8.387   8.686   0.859 -0.2725  0.1997 -0.4533
   96GLOH   H02 9514   8.283   8.659   0.840 -0.0565  0.5778 -2.2680
   96GLOH   H08 9515   8.440   8.596   0.830  0.0265  0.7128 -1.5423
   96GLOH    C2 9516   8.411   8.802   0.763 -0.2242 -0.1451 -0.2923
   96GLOH   H04 9517   8.519   8.821   0.770 -0.3909 -0.2710  3.4907
   96GLOH    O2 9518   8.382   8.768   0.622 -0.2462  0.2656  0.5855
   96GLOH   H05 9519   8.469   8.754   0.581 -0.1830  0.9692  0.4673
   96GLOH    C3 9520   8.333   8.933   0.797 -0.3752  0.5784 -0.6673
   96GLOH   H06 9521   8.229   8.903   0.801  0.2366 -1.6671 -0.6578
   96GLOH   H07 9522   8.349   9.001   0.713 -0.9090 -0.2044 -1.4145
   96GLOH    O3 9523   8.382   8.994   0.923  0.1037 -0.3536  0.8591
   96GLOH   H01 9524   8.333   8.950   0.995  0.8738  1.0293  2.2392
   97GLOH   H03 9525   0.634   4.447   0.658 -0.1561 -1.4312 -0.1965
   97GLOH    O1 9526   0.571   4.487   0.596  0.2856  0.3325  0.4764
   97GLOH    C1 9527   0.633   4.578   0.507 -0.9003 -0.4824  0.4850
   97GLOH   H02 9528   0.710   4.528   0.449 -1.1491  0.0176 -0.2906
   97GLOH   H08 9529   0.676   4.661   0.563 -1.0956  0.9351 -1.4138
   97GLOH    C2 9530   0.538   4.645   0.403 -0.0163  0.1269 -0.4531
   97GLOH   H04 9531   0.592   4.719   0.343 -0.4884 -0.8829 -2.1464
   97GLOH    O2 9532   0.478   4.546   0.322 -0.7355  0.2321  0.2854
   97GLOH   H05 9533   0.467   4.467   0.377 -0.2166 -2.1827 -2.9186
   97GLOH    C3 9534   0.434   4.728   0.481  0.0075 -0.3517  0.0958
   97GLOH   H06 9535   0.390   4.672   0.563 -0.1779  1.6914  1.4201
   97GLOH   H07 9536   0.354   4.748   0.409  0.8703 -0.7765 -0.9890
   97GLOH    O3 9537   0.484   4.846   0.545 -0.1758  0.0646  0.5513
   97GLOH   H01 9538   0.401   4.887   0.575 -1.6941 -2.7795  0.4755
   98GLOH   H03 9539   1.387   6.803   3.764  0.7155 -2.2276  2.7419
   98GLOH    O1 9540   1.301   6.758   3.764 -0.2911 -0.4764 -0.0601
   98GLOH    C1 9541   1.272   6.723   3.624 -0.1457  0.6908 -0.6866
   98GLOH   H02 9542   1.187   6.779   3.584 -2.0396 -2.7386 -1.7754
   98GLOH   H08 9543   1.249   6.616   3.616 -1.1985  0.8740 -0.2644
   98GLOH    C2 9544   1.396   6.744   3.529  0.2311  0.2201 -0.4647
   98GLOH   H04 9545   1.467   6.669   3.567  0.5193  0.3046 -0.8334
   98GLOH    O2 9546   1.360   6.692   3.401  0.2353 -0.2098 -0.0851
   98GLOH   H05 9547   1.278   6.733   3.368 -0.1913 -0.0064  1.2205
   98GLOH    C3 9548   1.447   6.886   3.531 -0.3641  0.2162 -0.7861
   98GLOH   H06 9549   1.397   6.954   3.461 -0.6526  1.8728  0.9735
   98GLOH   H07 9550   1.547   6.877   3.488  0.4536 -2.9189  1.6457
   98GLOH    O3 9551   1.454   6.942   3.668  0.0268  0.0417  0.1412
   98GLOH   H01 9552   1.496   7.030   3.666 -0.1057  0.3690  5.5115
   99GLOH   H03 9553   3.199   6.335   0.640  1.5225 -3.8968 -0.3389
   99GLOH    O1 9554   3.142   6.328   0.562  0.8810 -0.1263 -0.3071
   99GLOH    C1 9555   3.096   6.195   0.542 -0.6788 -0.1286  0.6654
   99GLOH   H02 9556   3.182   6.131   0.564 -0.0303 -0.6064 -2.9525
   99GLOH   H08 9557   3.095   6.189   0.433  1.2570  0.0262  0.6177
   99GLOH    C2 9558   2.960   6.168   0.605 -0.1017  0.5074 -0.7763
   99GLOH   H04 9559   2.934   6.068   0.568  0.4688  0.0314  0.0788
   99GLOH    O2 9560   2.976   6.165   0.748 -0.4533  0.1335 -0.9575
   99GLOH   H05 9561   3.035   6.094   0.778  0.2555  2.0477  2.5292
   99GLOH    C3 9562   2.855   6.264   0.564 -0.1626 -0.1993  0.4186
   99GLOH   H06 9563   2.896   6.363   0.588  1.2592 -0.3834 -1.1458
   99GLOH   H07 9564   2.759   6.244   0.611 -0.2473  0.3542  0.4878
   99GLOH    O3 9565   2.830   6.258   0.421 -0.3929  0.5087  0.2469
   99GLOH   H01 9566   2.789   6.338   0.382 -1.2081  1.0290  2.1363
  100GLOH   H03 9567   3.681   7.481   3.304 -0.2497 -1.8958  1.8151
  100GLOH    O1 9568   3.618   7.540   3.350  0.0081 -0.0011 -0.1449
  100GLOH    C1 9569   3.637   7.528   3.492  0.3988  0.7325 -0.3854
  100GLOH   H02 9570   3.567   7.458   3.537  0.3545 -0.3055 -2.0220
  100GLOH   H08 9571   3.615   7.624   3.539 -1.3357  1.5187 -2.7169
  100GLOH    C2 9572   3.782   7.493   3.524  0.7197  0.2812  0.0338
  100GLOH   H04 9573   3.808   7.405   3.464 -2.6687 -0.8834  0.1615
  100GLOH    O2 9574   3.870   7.602   3.485  0.2384  0.1804 -0.6725
  100GLOH   H05 9575   3.960   7.565   3.479  0.8311  1.7148 -1.5342
  100GLOH    C3 9576   3.802   7.456   3.670 -0.0369 -0.5106  0.5882
  100GLOH   H06 9577   3.765   7.536   3.735  0.9873 -0.1486  0.7374
  100GLOH   H07 9578   3.909   7.448   3.691  0.3577 -0.3175 -1.2494
  100GLOH    O3 9579   3.739   7.331   3.702  0.3269  0.1925  0.0075
  100GLOH   H01 9580   3.690   7.347   3.785 -1.5439  0.6278 -1.1599
  101GLOH   H03 9581   2.837   8.862   0.851  1.4244 -4.1390 -1.4869
  101GLOH    O1 9582   2.838   8.902   0.762 -0.3179 -0.3642  0.1036
  101GLOH    C1 9583   2.715   8.860   0.691 -0.2458 -0.2142  0.9262
  101GLOH   H02 9584   2.707   8.753   0.677 -3.3099  0.1711 -0.6561
  101GLOH   H08 9585   2.723   8.911   0.595  1.5535 -0.3255  0.9883
  101GLOH    C2 9586   2.577   8.919   0.744 -0.6880  0.4363  0.3508
  101GLOH   H04 9587   2.566   8.870   0.842  0.0815 -1.7300 -0.6186
  101GLOH    O2 9588   2.580   9.063   0.754 -0.3462  0.3656 -0.3969
  101GLOH   H05 9589   2.518   9.111   0.696  0.7086 -0.1608 -2.0214
  101GLOH    C3 9590   2.473   8.871   0.649  1.0479 -0.8609 -0.5440
  101GLOH   H06 9591   2.495   8.916   0.552 -0.4905 -0.4046 -0.6974
  101GLOH   H07 9592   2.381   8.918   0.684  1.4918 -0.7056  0.4253
  101GLOH    O3 9593   2.456   8.731   0.647 -0.2128  0.0227 -0.5979
  101GLOH   H01 9594   2.442   8.701   0.556  0.4153 -0.9571 -0.3773
  102GLOH   H03 9595   7.506   0.462   4.894  0.4470 -0.4056  0.1110
  102GLOH    O1 9596   7.562   0.382   4.900  0.1579 -0.6017  0.2321
  102GLOH    C1 9597   7.493   0.273   4.966  0.0425 -0.0222  0.2641
  102GLOH   H02 9598   7.559   0.187   4.955 -0.0778  0.1460 -2.0528
  102GLOH   H08 9599   7.399   0.242   4.921 -0.5695  0.2654  1.3417
  102GLOH    C2 9600   7.479   0.304   5.118 -0.0242 -1.1169  0.3285
  102GLOH   H04 9601   7.569   0.355   5.157 -1.7534  1.6266  0.8624
  102GLOH    O2 9602   7.380   0.414   5.126 -0.2202  0.0215 -0.0873
  102GLOH   H05 9603   7.421   0.478   5.186  3.9842 -2.4874 -0.0656
  102GLOH    C3 9604   7.440   0.181   5.193  0.7418  0.4027 -0.6593
  102GLOH   H06 9605   7.339   0.153   5.165  1.0508 -0.4721 -0.9356
  102GLOH   H07 9606   7.422   0.197   5.299 -0.4998  1.3213 -0.9968
  102GLOH    O3 9607   7.526   0.067   5.178 -0.2606 -0.1515  0.3887
  102GLOH   H01 9608   7.595   0.071   5.247  0.9458  2.8416 -0.8905
  103GLOH   H03 9609   9.593   5.213   3.310 -0.1209  0.9092 -0.5317
  103GLOH    O1 9610   9.510   5.260   3.331 -0.1182  0.5174  0.3563
  103GLOH    C1 9611   9.407   5.167   3.388  0.0608 -0.3382 -0.1407
  103GLOH   H02 9612   9.416   5.064   3.352  0.9543 -0.4542  0.4050
  103GLOH   H08 9613   9.305   5.195   3.363 -0.3441 -0.2708  1.5928
  103GLOH    C2 9614   9.401   5.152   3.544 -0.0992  0.5922 -0.2199
  103GLOH   H04 9615   9.361   5.243   3.589  0.5979  1.3607 -1.1277
  103GLOH    O2 9616   9.313   5.041   3.571 -0.5495  0.2503 -0.6489
  103GLOH   H05 9617   9.221   5.061   3.547  0.0144  1.6729 -1.7044
  103GLOH    C3 9618   9.552   5.138   3.596  0.2691  0.5257 -0.2523
  103GLOH   H06 9619   9.599   5.232   3.567  0.3505 -0.0969 -2.2154
  103GLOH   H07 9620   9.603   5.058   3.542 -0.8986  0.9239 -1.9763
  103GLOH    O3 9621   9.564   5.124   3.743 -0.0044  0.1401 -0.0099
  103GLOH   H01 9622   9.529   5.037   3.769  0.9243  0.6926  3.2881
  104GLOH   H03 9623   4.263   7.033   1.984 -2.0603 -1.8318 -0.4990
  104GLOH    O1 9624   4.297   7.000   1.899  0.2515 -0.5008 -0.1270
  104GLOH    C1 9625   4.192   6.979   1.804 -0.2459  0.3881  0.3058
  104GLOH   H02 9626   4.101   6.953   1.858 -0.9377  0.0387 -1.0071
  104GLOH   H08 9627   4.224   6.892   1.748  0.1840 -0.0475  1.2111
  104GLOH    C2 9628   4.176   7.098   1.711  0.8394 -0.1762  0.5274
  104GLOH   H04 9629   4.106   7.082   1.628  1.5025  1.3767 -0.3508
  104GLOH    O2 9630   4.134   7.215   1.785 -0.4602  0.4056 -0.6550
  104GLOH   H05 9631   4.048   7.200   1.827  0.6106  1.0199  1.8505
  104GLOH    C3 9632   4.303   7.135   1.636 -0.3406  0.4630 -0.2718
  104GLOH   H06 9633   4.378   7.152   1.713  0.5209  0.2360 -1.0585
  104GLOH   H07 9634   4.289   7.224   1.575  0.1207 -0.5024 -1.8263
  104GLOH    O3 9635   4.364   7.037   1.549 -0.1575  0.5075 -0.0967
  104GLOH   H01 9636   4.288   6.982   1.523 -0.3978 -0.3619  2.3560
  105GLOH   H03 9637   1.778   1.462   4.371 -0.8058  0.5449  0.8766
  105GLOH    O1 9638   1.722   1.383   4.382 -0.1093 -0.1013 -0.1277
  105GLOH    C1 9639   1.638   1.394   4.494 -0.2860  0.4291 -0.3336
  105GLOH   H02 9640   1.574   1.307   4.486 -1.1129  1.0360 -0.4188
  105GLOH   H08 9641   1.579   1.482   4.468 -0.0735  0.3853 -0.9656
  105GLOH    C2 9642   1.697   1.405   4.635  0.2682 -0.3006  0.3976
  105GLOH   H04 9643   1.783   1.473   4.648  0.6089 -0.3068 -1.6441
  105GLOH    O2 9644   1.599   1.443   4.732  0.6778 -0.1071  0.2494
  105GLOH   H05 9645   1.640   1.432   4.819 -0.0368  2.0595  0.8916
  105GLOH    C3 9646   1.765   1.274   4.667  0.2737  0.2498  0.7348
  105GLOH   H06 9647   1.693   1.195   4.689  0.4195 -1.0877 -3.1782
  105GLOH   H07 9648   1.828   1.272   4.756 -0.0075 -0.7120  0.9121
  105GLOH    O3 9649   1.863   1.240   4.562 -0.9476  0.7859  0.1574
  105GLOH   H01 9650   1.829   1.270   4.475 -1.5714  1.4460  0.6221
  106GLOH   H03 9651   4.126   3.111   0.538 -0.3847  0.6195  0.6188
  106GLOH    O1 9652   4.071   3.056   0.596  0.0206 -0.7956 -0.3264
  106GLOH    C1 9653   4.129   3.076   0.729  0.3203 -0.6185  0.0073
  106GLOH   H02 9654   4.144   3.180   0.760  0.5036 -0.2421 -1.3055
  106GLOH   H08 9655   4.229   3.034   0.719  0.9159  1.0095 -1.1662
  106GLOH    C2 9656   4.051   3.001   0.838  0.7704  0.9110 -0.4131
  106GLOH   H04 9657   4.068   2.893   0.821 -1.3999  0.7168 -1.4936
  106GLOH    O2 9658   4.097   3.038   0.969 -0.0865 -0.2179  0.0480
  106GLOH   H05 9659   4.161   2.973   1.002 -0.3966 -0.3780  0.3426
  106GLOH    C3 9660   3.899   3.023   0.827 -0.0825  0.6690 -0.4465
  106GLOH   H06 9661   3.873   3.127   0.849  0.0921  0.8368 -1.0086
  106GLOH   H07 9662   3.858   2.962   0.907  0.5945  0.0595 -0.5612
  106GLOH    O3 9663   3.841   2.982   0.700 -0.2666  0.2272 -0.2832
  106GLOH   H01 9664   3.885   3.034   0.631  2.7129 -0.9932  0.5816
  107GLOH   H03 9665   8.268   2.861   4.707  0.7305 -3.7393 -0.4769
  107GLOH    O1 9666   8.184   2.858   4.657  0.2230  0.4010 -0.0592
  107GLOH    C1 9667   8.147   3.001   4.676  0.4134  0.7244  0.6898
  107GLOH   H02 9668   8.215   3.064   4.619 -1.3374  1.0157 -1.1209
  107GLOH   H08 9669   8.140   3.036   4.779  0.2937  0.6658  0.7012
  107GLOH    C2 9670   8.002   3.015   4.615  0.5777  0.2078 -0.5114
  107GLOH   H04 9671   8.008   2.954   4.523  1.8411 -0.2186 -0.1548
  107GLOH    O2 9672   7.910   2.950   4.701  0.0943  0.0812 -0.1499
  107GLOH   H05 9673   7.913   2.854   4.684 -1.0024  0.0801 -0.3890
  107GLOH    C3 9674   7.955   3.162   4.588  0.3159 -0.8195 -0.4656
  107GLOH   H06 9675   7.918   3.196   4.685  2.2028  1.5063 -0.4864
  107GLOH   H07 9676   7.873   3.160   4.516  0.5626  0.5060 -0.8104
  107GLOH    O3 9677   8.053   3.257   4.538 -0.5129  0.3461  0.0754
  107GLOH   H01 9678   8.124   3.267   4.603  0.4985  3.9604 -1.4970
  108GLOH   H03 9679   4.126   3.168   4.014 -1.5583 -0.7079 -0.6317
  108GLOH    O1 9680   4.124   3.162   4.111  0.5175 -0.1773 -0.5199
  108GLOH    C1 9681   4.135   3.025   4.139 -0.7325 -0.2821 -0.3044
  108GLOH   H02 9682   4.204   2.972   4.073 -1.0498  1.5245 -2.1356
  108GLOH   H08 9683   4.038   2.981   4.117 -0.6766  0.3819 -1.8939
  108GLOH    C2 9684   4.178   2.992   4.289 -0.1026 -0.1436  0.0002
  108GLOH   H04 9685   4.163   2.883   4.300 -0.1282 -0.4058 -2.3413
  108GLOH    O2 9686   4.317   3.022   4.322  0.3068  0.3320  0.1358
  108GLOH   H05 9687   4.368   2.940   4.329 -0.4862 -0.1572  0.3142
  108GLOH    C3 9688   4.092   3.068   4.390  0.4589 -0.4197  0.7616
  108GLOH   H06 9689   4.119   3.174   4.393 -0.8710 -0.0567  0.3468
  108GLOH   H07 9690   4.125   3.029   4.486 -0.2673 -0.4119  1.0223
  108GLOH    O3 9691   3.952   3.043   4.374 -0.0494  0.3363 -0.0617
  108GLOH   H01 9692   3.933   2.977   4.444  0.3370  0.6655  0.3631
  109GLOH   H03 9693   4.532   2.937   5.412  2.4103 -0.0525 -3.1605
  109GLOH    O1 9694   4.474   3.005   5.374 -0.1540 -0.2028  0.2444
  109GLOH    C1 9695   4.546   3.127   5.409  0.7463  0.2867  0.3854
  109GLOH   H02 9696   4.556   3.146   5.516  0.9627  0.6847  0.2932
  109GLOH   H08 9697   4.492   3.212   5.367 -1.4982 -1.0082  0.5479
  109GLOH    C2 9698   4.689   3.127   5.358 -0.2086  1.1249 -0.3708
  109GLOH   H04 9699   4.684   3.103   5.251  0.7338  0.4219 -0.2617
  109GLOH    O2 9700   4.759   3.256   5.361 -0.4311 -0.3836  0.4369
  109GLOH   H05 9701   4.716   3.331   5.316 -0.7024  0.2032  1.6456
  109GLOH    C3 9702   4.760   3.021   5.445  0.2649  0.5720 -0.6422
  109GLOH   H06 9703   4.765   3.064   5.545 -0.8624 -0.3288 -0.2030
  109GLOH   H07 9704   4.862   3.002   5.411 -0.4172 -3.2485 -0.7880
  109GLOH    O3 9705   4.688   2.894   5.457  0.0109 -0.1176  0.3792
  109GLOH   H01 9706   4.736   2.828   5.511 -1.0620 -0.7831  0.5299
  110GLOH   H03 9707   6.541   9.195   3.643  0.3754  0.0689 -1.3745
  110GLOH    O1 9708   6.450   9.191   3.610 -0.2110  0.0867  0.1921
  110GLOH    C1 9709   6.379   9.254   3.714 -0.0492  0.1960  0.6386
  110GLOH   H02 9710   6.398   9.362   3.716  0.6594  0.0505  1.6820
  110GLOH   H08 9711   6.413   9.211   3.808 -3.1280 -3.1565  0.2843
  110GLOH    C2 9712   6.230   9.220   3.697 -0.0414  0.1637  0.4806
  110GLOH   H04 9713   6.215   9.112   3.684  0.7161  0.0842  0.2825
  110GLOH    O2 9714   6.158   9.262   3.812  0.0920  0.0397 -0.4707
  110GLOH   H05 9715   6.103   9.192   3.853 -0.3929  0.7149  0.0606
  110GLOH    C3 9716   6.170   9.297   3.572  0.1326  0.0724  0.5522
  110GLOH   H06 9717   6.165   9.403   3.596 -0.6534 -0.0972  1.1493
  110GLOH   H07 9718   6.073   9.252   3.555 -1.4838  2.3301  3.3703
  110GLOH    O3 9719   6.254   9.263   3.460 -0.1557 -0.1337  0.5489
  110GLOH   H01 9720   6.340   9.251   3.505  0.1975 -0.5346 -0.2270
  111GLOH   H03 9721   5.628   4.228   5.371 -1.3487 -1.7640 -0.1996
  111GLOH    O1 9722   5.560   4.295   5.352  0.0639 -0.1864  0.2616
  111GLOH    C1 9723   5.629   4.423   5.379  0.3110 -0.2372  0.1283
  111GLOH   H02 9724   5.562   4.507   5.359  0.1452 -1.1354 -3.4244
  111GLOH   H08 9725   5.708   4.426   5.304  0.9094  1.1611  0.8025
  111GLOH    C2 9726   5.703   4.450   5.512 -0.2806 -0.2169 -0.0961
  111GLOH   H04 9727   5.773   4.367   5.534  0.9528  1.0200  0.6989
  111GLOH    O2 9728   5.785   4.564   5.519 -0.1196 -0.0159  0.2907
  111GLOH   H05 9729   5.809   4.588   5.610 -0.5177  0.5219  0.2575
  111GLOH    C3 9730   5.608   4.432   5.627  0.2540 -0.1984 -0.6122
  111GLOH   H06 9731   5.517   4.485   5.600 -0.3766 -2.2923 -2.7700
  111GLOH   H07 9732   5.646   4.479   5.718 -1.8763  0.6975 -0.1481
  111GLOH    O3 9733   5.563   4.298   5.662 -0.2741  0.4046  0.4535
  111GLOH   H01 9734   5.585   4.234   5.592  2.0287  1.1899  0.4264
  112GLOH   H03 9735   7.592   2.160   5.637  1.0887 -0.0462  0.6276
  112GLOH    O1 9736   7.638   2.232   5.683  0.6121  0.8047 -0.2005
  112GLOH    C1 9737   7.558   2.293   5.791  0.1244  0.3240  0.4492
  112GLOH   H02 9738   7.457   2.311   5.755  0.7677 -0.4589 -1.8620
  112GLOH   H08 9739   7.602   2.389   5.817 -2.4507  1.5331  0.5120
  112GLOH    C2 9740   7.541   2.209   5.916  0.0746  0.1111  0.2001
  112GLOH   H04 9741   7.466   2.260   5.979 -0.0150 -1.5198  1.4703
  112GLOH    O2 9742   7.492   2.072   5.895 -0.1408  0.4876 -0.7299
  112GLOH   H05 9743   7.519   2.034   5.810 -0.3538  0.9404 -1.0016
  112GLOH    C3 9744   7.667   2.210   6.000 -0.7173  0.8946  1.0757
  112GLOH   H06 9745   7.748   2.190   5.930  0.3184 -0.3215  2.5773
  112GLOH   H07 9746   7.661   2.133   6.077  2.1709 -0.2605  0.2135
  112GLOH    O3 9747   7.695   2.337   6.061 -0.0176 -0.0713 -0.3169
  112GLOH   H01 9748   7.789   2.336   6.087  0.2353 -1.0074 -1.2541
  113GLOH   H03 9749   8.852   1.695   4.699  1.7328 -0.2688  1.4759
  113GLOH    O1 9750   8.802   1.714   4.780  0.0653  0.3003  0.3299
  113GLOH    C1 9751   8.902   1.724   4.885 -0.9930  0.2219 -0.0828
  113GLOH   H02 9752   8.850   1.755   4.976 -0.8100 -1.2768  0.5493
  113GLOH   H08 9753   8.974   1.803   4.864 -1.3381  0.4023 -0.5920
  113GLOH    C2 9754   8.980   1.597   4.906 -0.2054  0.0205 -0.9298
  113GLOH   H04 9755   8.907   1.515   4.897 -0.0790 -0.1339 -0.5657
  113GLOH    O2 9756   9.072   1.568   4.794 -0.0328  0.3757 -0.1643
  113GLOH   H05 9757   9.019   1.612   4.725 -1.1532 -0.7748 -0.0465
  113GLOH    C3 9758   9.049   1.599   5.046  0.4317  0.0773 -0.0551
  113GLOH   H06 9759   9.122   1.679   5.043  0.1679  0.3875  1.1750
  113GLOH   H07 9760   9.106   1.508   5.067  0.1889 -0.4494 -1.6657
  113GLOH    O3 9761   8.948   1.611   5.147  0.0190 -0.1582 -0.2334
  113GLOH   H01 9762   8.890   1.534   5.135 -1.1922  0.9452 -1.6206
  114GLOH   H03 9763   4.490   9.638   0.699  1.5579  0.0234  0.0845
  114GLOH    O1 9764   4.475   9.721   0.748  0.1861 -0.0622 -0.1537
  114GLOH    C1 9765   4.516   9.682   0.880 -0.0918 -0.4075  0.3389
  114GLOH   H02 9766   4.439   9.620   0.926 -0.3766 -0.9668 -0.8760
  114GLOH   H08 9767   4.543   9.768   0.942 -0.9418  0.3340 -0.3006
  114GLOH    C2 9768   4.635   9.591   0.877  0.5248  0.4967  0.4060
  114GLOH   H04 9769   4.707   9.638   0.808  0.2453  0.5927  0.1790
  114GLOH    O2 9770   4.699   9.573   1.007 -0.7165  0.1374  0.6846
  114GLOH   H05 9771   4.737   9.658   1.036 -0.8302  0.4937 -0.1779
  114GLOH    C3 9772   4.590   9.452   0.818  0.8117 -0.8399  0.2479
  114GLOH   H06 9773   4.516   9.404   0.882 -1.3469 -0.6920 -2.0979
  114GLOH   H07 9774   4.680   9.391   0.812  1.5815  0.4139 -1.2896
  114GLOH    O3 9775   4.535   9.478   0.683  0.1483 -0.5746  0.0163
  114GLOH   H01 9776   4.541   9.393   0.634 -1.1454 -1.2112  0.9146
  115GLOH   H03 9777   5.411   7.976   1.860  2.3787 -0.7294  1.0458
  115GLOH    O1 9778   5.472   8.010   1.792  0.2516  0.6639 -0.2210
  115GLOH    C1 9779   5.418   8.137   1.735  0.4957  0.5645  1.1171
  115GLOH   H02 9780   5.442   8.223   1.798 -0.7556  1.4430  0.4200
  115GLOH   H08 9781   5.309   8.132   1.728  0.5617 -0.8580  0.9247
  115GLOH    C2 9782   5.463   8.162   1.588 -0.3057  0.4171 -0.4050
  115GLOH   H04 9783   5.415   8.091   1.519  1.4991 -1.3298  0.0756
  115GLOH    O2 9784   5.433   8.297   1.539  0.3513  0.1200  0.3232
  115GLOH   H05 9785   5.425   8.354   1.618 -0.4909  1.5588 -0.7822
  115GLOH    C3 9786   5.613   8.143   1.585 -0.1486  0.3308 -0.2080
  115GLOH   H06 9787   5.668   8.221   1.638  0.8580 -1.5022  1.5376
  115GLOH   H07 9788   5.644   8.154   1.482  3.5003 -0.0601  0.7723
  115GLOH    O3 9789   5.652   8.014   1.629 -0.2099 -0.0493  0.3295
  115GLOH   H01 9790   5.589   7.989   1.699 -1.6341  1.1442 -0.5011
  116GLOH   H03 9791   8.948   7.499   4.495 -0.4907  1.1926  0.9490
  116GLOH    O1 9792   8.883   7.469   4.429  0.2046  0.0494  0.7623
  116GLOH    C1 9793   8.760   7.543   4.430 -1.4021 -0.1161  0.8064
  116GLOH   H02 9794   8.726   7.554   4.534  1.8262  0.8463  1.8028
  116GLOH   H08 9795   8.689   7.493   4.364 -0.4409 -1.5738  0.8613
  116GLOH    C2 9796   8.782   7.686   4.383 -0.1484 -0.1003  0.1529
  116GLOH   H04 9797   8.689   7.740   4.403 -0.0011 -0.4701  1.8923
  116GLOH    O2 9798   8.883   7.757   4.455  0.1340  0.7766  0.2873
  116GLOH   H05 9799   8.850   7.770   4.545 -3.2737 -1.5696 -0.4998
  116GLOH    C3 9800   8.822   7.704   4.233  0.3060 -0.5352  1.1267
  116GLOH   H06 9801   8.912   7.645   4.216  1.0980  0.9226  0.2158
  116GLOH   H07 9802   8.840   7.809   4.212 -0.6246 -0.7421 -0.8903
  116GLOH    O3 9803   8.714   7.670   4.146 -0.2724 -0.0399  0.0777
  116GLOH   H01 9804   8.711   7.731   4.070 -0.2704  1.0204  0.9127
  117GLOH   H03 9805   0.594   1.635   4.858  0.2093 -1.4340  1.7095
  117GLOH    O1 9806   0.673   1.580   4.843  0.5092 -0.5515 -0.0210
  117GLOH    C1 9807   0.737   1.567   4.969 -0.3098  0.0314 -0.1354
  117GLOH   H02 9808   0.841   1.539   4.957 -1.1134 -3.1768 -0.1466
  117GLOH   H08 9809   0.682   1.484   5.013 -0.6670  1.2542  1.7948
  117GLOH    C2 9810   0.727   1.689   5.063  0.0040 -0.1013 -0.3609
  117GLOH   H04 9811   0.634   1.743   5.042  0.5987  1.2224  0.3296
  117GLOH    O2 9812   0.724   1.640   5.199 -0.2787 -0.3018 -0.0436
  117GLOH   H05 9813   0.808   1.665   5.241  0.9297  0.4339 -2.7680
  117GLOH    C3 9814   0.835   1.793   5.050 -0.0627 -0.3476 -0.2800
  117GLOH   H06 9815   0.935   1.754   5.070  0.4698  0.0029 -2.2224
  117GLOH   H07 9816   0.816   1.873   5.122  1.4310 -0.2100 -0.0413
  117GLOH    O3 9817   0.825   1.856   4.923  0.0835  0.6703  0.2090
  117GLOH   H01 9818   0.899   1.918   4.933  0.9312 -0.3954  0.6696
  118GLOH   H03 9819   5.441   4.718   0.574  1.1517  1.7046  0.6624
  118GLOH    O1 9820   5.413   4.771   0.497 -0.2580 -0.0093 -0.0535
  118GLOH    C1 9821   5.444   4.708   0.378 -0.0619 -0.2137 -0.3292
  118GLOH   H02 9822   5.547   4.721   0.344 -0.2431 -0.1099 -0.8464
  118GLOH   H08 9823   5.386   4.758   0.300 -0.0711 -1.3603 -1.0536
  118GLOH    C2 9824   5.392   4.563   0.364 -0.1585 -0.5138 -0.2260
  118GLOH   H04 9825   5.324   4.534   0.446  0.5412 -3.5592 -0.6435
  118GLOH    O2 9826   5.321   4.541   0.240  0.4468  0.2544 -0.4449
  118GLOH   H05 9827   5.268   4.461   0.253  1.3800 -0.1049  1.3834
  118GLOH    C3 9828   5.516   4.476   0.347 -0.5834 -0.8124 -0.3534
  118GLOH   H06 9829   5.579   4.518   0.268 -0.6353  2.0007  1.0528
  118GLOH   H07 9830   5.491   4.375   0.315  2.0877 -1.9033  0.8257
  118GLOH    O3 9831   5.603   4.475   0.461 -0.5787  0.4691 -0.4936
  118GLOH   H01 9832   5.570   4.425   0.537  1.7574 -0.8176 -0.2688
  119GLOH   H03 9833   6.387   9.228   2.615 -1.3507  1.5288  0.1856
  119GLOH    O1 9834   6.462   9.272   2.658 -0.0167 -0.4184 -0.0898
  119GLOH    C1 9835   6.594   9.219   2.628  0.4159 -0.9258  0.2232
  119GLOH   H02 9836   6.616   9.234   2.522 -1.7093  2.3545  0.1504
  119GLOH   H08 9837   6.587   9.112   2.645  1.8292 -0.7921  1.7837
  119GLOH    C2 9838   6.713   9.278   2.710 -0.3614  0.2766  0.9277
  119GLOH   H04 9839   6.674   9.299   2.811  1.0115 -1.0899  1.7694
  119GLOH    O2 9840   6.828   9.191   2.721  0.4265  0.1654 -0.1590
  119GLOH   H05 9841   6.850   9.170   2.628  0.9844  1.0258 -0.2297
  119GLOH    C3 9842   6.780   9.406   2.651  0.6752 -0.7740  0.1973
  119GLOH   H06 9843   6.818   9.391   2.550  0.7778 -0.6575  0.2173
  119GLOH   H07 9844   6.873   9.426   2.705 -0.1722  0.1492  1.3505
  119GLOH    O3 9845   6.684   9.514   2.666 -0.5392 -0.2867  0.7181
  119GLOH   H01 9846   6.621   9.527   2.592  0.6298  0.1965 -0.2105
  120GLOH   H03 9847   3.141   1.337   4.679  0.3466 -2.6084 -1.8269
  120GLOH    O1 9848   3.164   1.410   4.618 -0.7418 -0.8054 -0.1407
  120GLOH    C1 9849   3.159   1.537   4.685  0.0366 -0.2767  0.0745
  120GLOH   H02 9850   3.082   1.525   4.761 -0.9879 -4.3028 -1.5018
  120GLOH   H08 9851   3.136   1.626   4.626  1.7380 -1.1765 -2.0133
  120GLOH    C2 9852   3.288   1.552   4.765 -0.1909  0.6823 -0.3727
  120GLOH   H04 9853   3.289   1.457   4.819  0.1390 -0.5913 -2.5566
  120GLOH    O2 9854   3.408   1.564   4.676 -0.4055 -0.5779  0.1267
  120GLOH   H05 9855   3.421   1.478   4.632  0.9033 -0.2930 -0.0679
  120GLOH    C3 9856   3.273   1.670   4.863 -0.6175  0.3504 -0.5558
  120GLOH   H06 9857   3.265   1.766   4.812  0.0800 -0.5778 -2.4925
  120GLOH   H07 9858   3.360   1.671   4.928 -1.3838  0.5193  0.4682
  120GLOH    O3 9859   3.161   1.653   4.949  0.1086  0.4362  0.2965
  120GLOH   H01 9860   3.150   1.740   4.990 -0.4677 -0.0034  1.0998
  121ACOH    H4 9861   5.313   1.746   3.656  0.9893  0.1881  0.0707
  121ACOH    O2 9862   5.352   1.834   3.654  0.7085  0.3101 -0.0781
  121ACOH    C2 9863   5.263   1.921   3.608 -0.2016 -0.5953  1.2475
  121ACOH    O1 9864   5.147   1.928   3.638  0.4194 -0.0444  0.1028
  121ACOH    C1 9865   5.326   2.049   3.569 -0.5001  0.3861  0.5535
  121ACOH    H1 9866   5.306   2.067   3.463  0.7967 -1.2254  0.0169
  121ACOH    H2 9867   5.435   2.045   3.575 -0.6346 -1.5728  2.0806
  121ACOH    H3 9868   5.305   2.133   3.635  3.4696  0.1968  2.2057
  122ACOH    H4 9869   3.535   7.065   4.941  0.5797 -0.9085  1.3983
  122ACOH    O2 9870   3.550   6.998   4.873  0.1708  0.3396  0.0440
  122ACOH    C2 9871   3.539   7.057   4.755 -0.0456  0.4960 -0.0641
  122ACOH    O1 9872   3.529   7.177   4.740  0.2489  0.2113 -0.1015
  122ACOH    C1 9873   3.533   6.954   4.654  1.0285  0.4828  0.1773
  122ACOH    H1 9874   3.483   6.862   4.684 -2.7649  1.4838 -2.6787
  122ACOH    H2 9875   3.628   6.923   4.610 -0.4326  0.7305 -3.3676
  122ACOH    H3 9876   3.472   6.988   4.569 -0.0364 -4.0577 -1.0325
  123ACOH    H4 9877   6.094   6.893   2.105  0.2923  1.0990  0.1201
  123ACOH    O2 9878   6.161   6.890   2.175 -0.1146  0.4487  0.4870
  123ACOH    C2 9879   6.095   6.870   2.290 -0.2027 -0.5631 -0.6249
  123ACOH    O1 9880   5.989   6.812   2.312  0.0533 -0.4096 -0.0078
  123ACOH    C1 9881   6.204   6.875   2.389 -0.2561 -0.5293 -0.2297
  123ACOH    H1 9882   6.162   6.902   2.486  0.8416 -1.5344  0.5584
  123ACOH    H2 9883   6.270   6.957   2.362  1.5539 -2.7833 -2.9995
  123ACOH    H3 9884   6.267   6.787   2.405  0.9210  0.4638  0.7481
  124ACOH    H4 9885   5.219   5.630   1.113 -0.6900 -0.7798 -0.7333
  124ACOH    O2 9886   5.300   5.585   1.082  0.2417  0.0410  0.4933
  124ACOH    C2 9887   5.257   5.531   0.964  0.4176  0.4341  0.1287
  124ACOH    O1 9888   5.163   5.570   0.900 -1.1067  0.3614  0.0723
  124ACOH    C1 9889   5.367   5.450   0.907  0.0076  0.3452 -0.4866
  124ACOH    H1 9890   5.345   5.343   0.901 -0.4899  0.4123  0.0438
  124ACOH    H2 9891   5.459   5.465   0.964  0.7598 -1.5894 -1.1318
  124ACOH    H3 9892   5.379   5.481   0.804  1.2234  0.1629 -0.4137
  125ACOH    H4 9893   1.917   0.568   0.256  0.7932  1.7149 -0.2152
  125ACOH    O2 9894   1.855   0.638   0.283  0.1493  1.0990 -0.0806
  125ACOH    C2 9895   1.877   0.670   0.410  0.4819 -0.1606 -0.1002
  125ACOH    O1 9896   1.973   0.639   0.477  0.3301 -0.0341 -0.2301
  125ACOH    C1 9897   1.763   0.747   0.465  0.7358 -0.1481 -0.6416
  125ACOH    H1 9898   1.761   0.841   0.410 -0.5442  1.2731  1.7925
  125ACOH    H2 9899   1.785   0.764   0.570 -2.4570  0.9688 -0.1177
  125ACOH    H3 9900   1.672   0.687   0.460  0.0293  0.9073 -0.4089
  126ACOH    H4 9901   4.809   6.125   0.926 -0.4542  0.2674 -0.0387
  126ACOH    O2 9902   4.761   6.199   0.886 -0.2227  0.5536  0.2139
  126ACOH    C2 9903   4.700   6.151   0.771  0.0440  0.6960  0.0067
  126ACOH    O1 9904   4.659   6.037   0.757 -0.3323  0.0255  0.5051
  126ACOH    C1 9905   4.652   6.265   0.684 -0.6804 -0.4757 -0.1688
  126ACOH    H1 9906   4.591   6.224   0.603  1.4656 -2.8926 -0.6111
  126ACOH    H2 9907   4.742   6.311   0.642 -0.7760  1.0606  1.2559
  126ACOH    H3 9908   4.601   6.340   0.744  0.6989  0.9769 -0.7755
  127ACOH    H4 9909   0.721   4.315   1.091  1.4388  2.8424 -0.0765
  127ACOH    O2 9910   0.634   4.348   1.118  0.4832  0.0775  0.3628
  127ACOH    C2 9911   0.671   4.448   1.193 -0.3092  0.8292 -0.1782
  127ACOH    O1 9912   0.775   4.510   1.188 -0.1432  0.3327 -0.3993
  127ACOH    C1 9913   0.550   4.504   1.257 -0.1233 -0.0758  0.0577
  127ACOH    H1 9914   0.588   4.562   1.341 -0.6893 -1.6713  1.4374
  127ACOH    H2 9915   0.490   4.427   1.304  0.7995  0.2464  1.7913
  127ACOH    H3 9916   0.487   4.566   1.192 -0.6711 -0.6632  0.0262
  128ACOH    H4 9917   8.270   7.629   0.142  1.2318  1.8264  0.6888
  128ACOH    O2 9918   8.195   7.622   0.204  1.0454 -0.8122  0.2240
  128ACOH    C2 9919   8.152   7.749   0.212  0.0053 -0.2076  0.3563
  128ACOH    O1 9920   8.180   7.836   0.130  0.1228 -0.2464  0.0584
  128ACOH    C1 9921   8.053   7.761   0.326 -0.1095 -0.3067  0.7679
  128ACOH    H1 9922   8.031   7.867   0.344 -2.5294 -0.5031 -0.7000
  128ACOH    H2 9923   8.085   7.713   0.419  2.0815 -0.7850 -0.2276
  128ACOH    H3 9924   7.959   7.720   0.288  0.8709  0.2719 -2.4262
  129ACOH    H4 9925   6.781   5.128   5.179  1.7310 -5.3809  1.1374
  129ACOH    O2 9926   6.686   5.107   5.182  0.3636 -0.0821 -0.2171
  129ACOH    C2 9927   6.624   5.222   5.184  0.4637 -1.0771  0.1952
  129ACOH    O1 9928   6.660   5.336   5.156  1.2679  0.2478  0.7144
  129ACOH    C1 9929   6.478   5.195   5.201 -0.5150  0.2773 -0.2337
  129ACOH    H1 9930   6.414   5.265   5.148 -1.0309 -0.7422 -0.9572
  129ACOH    H2 9931   6.450   5.187   5.306 -0.5594  2.2302 -0.0759
  129ACOH    H3 9932   6.467   5.102   5.146 -1.2099  0.1306  0.1459
  130ACOH    H4 9933   4.427   1.432   0.919  0.6196 -2.4846  0.2116
  130ACOH    O2 9934   4.344   1.401   0.879 -0.0308 -0.0192 -0.4423
  130ACOH    C2 9935   4.375   1.291   0.809 -0.7877 -0.3663 -0.4252
  130ACOH    O1 9936   4.483   1.241   0.791 -0.1207  0.5967 -0.4508
  130ACOH    C1 9937   4.247   1.263   0.733 -0.9054 -0.0723  0.2957
  130ACOH    H1 9938   4.257   1.296   0.630  0.6651 -2.0017 -0.1968
  130ACOH    H2 9939   4.170   1.323   0.782 -1.3805 -0.8506  0.4971
  130ACOH    H3 9940   4.221   1.158   0.736  1.6148 -0.7378 -0.1526
  131ACOH    H4 9941   5.700   9.114   0.930  3.0003 -1.9082  1.9444
  131ACOH    O2 9942   5.758   9.122   0.852  0.8897  0.3433  0.5389
  131ACOH    C2 9943   5.815   9.007   0.844 -0.1771 -0.1606  0.2101
  131ACOH    O1 9944   5.808   8.910   0.918  0.8360 -0.4479  0.2925
  131ACOH    C1 9945   5.898   9.006   0.716  0.2571  0.3225 -0.2000
  131ACOH    H1 9946   5.960   9.095   0.718 -0.2204  0.6739 -0.7960
  131ACOH    H2 9947   5.823   9.003   0.637 -0.5761 -2.7609  0.6382
  131ACOH    H3 9948   5.956   8.914   0.711  1.1412  0.7081  2.3076
  132ACOH    H4 9949   4.401   7.772   5.120  0.7333  0.6486  0.3672
  132ACOH    O2 9950   4.437   7.732   5.201 -0.0609  0.3560  0.5862
  132ACOH    C2 9951   4.335   7.685   5.270  0.5437  0.1447  0.3401
  132ACOH    O1 9952   4.226   7.644   5.228 -0.1966 -0.0114 -0.1989
  132ACOH    C1 9953   4.375   7.674   5.409  0.0109  0.1535 -0.0233
  132ACOH    H1 9954   4.463   7.729   5.442 -0.9469  0.3033  2.3964
  132ACOH    H2 9955   4.385   7.567   5.428 -1.9300 -0.1022 -0.3365
  132ACOH    H3 9956   4.294   7.708   5.474 -0.2549  0.4706 -0.5165
  133ACOH    H4 9957   5.191   6.459   1.387 -0.4596  1.1197  1.0186
  133ACOH    O2 9958   5.288   6.472   1.386 -0.3641  0.3550 -0.5955
  133ACOH    C2 9959   5.351   6.366   1.440  0.1440  0.4425 -0.3294
  133ACOH    O1 9960   5.305   6.256   1.438  0.1326  0.3397  0.2587
  133ACOH    C1 9961   5.491   6.403   1.472 -0.0442  0.0478 -0.2356
  133ACOH    H1 9962   5.558   6.318   1.485 -0.2651  0.1763  1.9721
  133ACOH    H2 9963   5.493   6.463   1.563  0.2742 -2.1612  1.2507
  133ACOH    H3 9964   5.528   6.459   1.386 -0.9875 -1.8067 -1.8777
  134ACOH    H4 9965   6.989   4.972   5.369 -0.1248 -1.3173  0.4357
  134ACOH    O2 9966   7.073   4.955   5.324 -0.4099  0.0621 -0.6290
  134ACOH    C2 9967   7.122   4.845   5.379 -0.5769 -0.0470  0.3262
  134ACOH    O1 9968   7.069   4.766   5.460 -0.2862  0.0410  0.5508
  134ACOH    C1 9969   7.255   4.820   5.318  0.1952 -0.1498  0.0504
  134ACOH    H1 9970   7.267   4.903   5.248 -0.2078 -0.2776 -0.1722
  134ACOH    H2 9971   7.259   4.724   5.267  0.5820 -1.0002  1.6472
  134ACOH    H3 9972   7.332   4.838   5.394  2.0407  0.8659 -2.0006
  135ACOH    H4 9973   6.196   4.853   0.115 -1.5816  1.7494  1.3464
  135ACOH    O2 9974   6.239   4.933   0.080 -0.2030  0.5127  0.2026
  135ACOH    C2 9975   6.361   4.965   0.145 -0.6164 -0.8077  0.0423
  135ACOH    O1 9976   6.415   4.925   0.246 -0.2036  0.2110  0.8929
  135ACOH    C1 9977   6.429   5.067   0.062  0.3923 -1.1174 -0.1444
  135ACOH    H1 9978   6.414   5.159   0.118 -1.2598 -1.1719 -0.4482
  135ACOH    H2 9979   6.384   5.076  -0.037 -0.3848  0.2807  0.3216
  135ACOH    H3 9980   6.536   5.053   0.053  0.6272  0.5037  0.0876
  136ACOH    H4 9981   5.426   1.270   0.811 -0.6027 -1.6370 -0.6750
  136ACOH    O2 9982   5.513   1.249   0.771 -0.0983 -0.3129 -0.2864
  136ACOH    C2 9983   5.496   1.144   0.692  0.0385  0.3502 -0.2393
  136ACOH    O1 9984   5.388   1.088   0.661  0.2172 -0.4860 -0.3868
  136ACOH    C1 9985   5.621   1.087   0.628 -0.2177 -0.1423 -0.4519
  136ACOH    H1 9986   5.694   1.048   0.698 -1.0783 -3.0634 -1.0837
  136ACOH    H2 9987   5.675   1.158   0.566 -1.8963  0.4254 -1.3166
  136ACOH    H3 9988   5.591   0.998   0.571 -1.3527  0.1622 -0.3471
  137ACOH    H4 9989   7.507   9.250   0.269 -0.9927  0.1386  1.0344
  137ACOH    O2 9990   7.425   9.277   0.226 -0.6972 -0.0812  0.3216
  137ACOH    C2 9991   7.444   9.404   0.190  0.3497 -0.1498 -0.3493
  137ACOH    O1 9992   7.553   9.456   0.171  0.2574  0.5939 -0.0553
  137ACOH    C1 9993   7.322   9.471   0.150 -0.3912 -0.8665  0.2973
  137ACOH    H1 9994   7.241   9.399   0.139 -2.7060  1.4763  1.2884
  137ACOH    H2 9995   7.337   9.504   0.048  0.1096  0.2317  0.7186
  137ACOH    H3 9996   7.294   9.546   0.224 -2.1582 -0.5111 -0.7016
  138ACOH    H4 9997   4.664   6.519   1.395 -2.0456 -1.4045 -1.3103
  138ACOH    O2 9998   4.636   6.607   1.365  0.4852  0.0817  0.4511
  138ACOH    C2 9999   4.672   6.689   1.468  0.8962 -0.4801  0.0208
  138ACOH    O110000   4.749   6.667   1.561 -0.4870  0.3857 -0.5823
  138ACOH    C110001   4.612   6.824   1.452  0.0384 -0.2214  0.4503
  138ACOH    H110002   4.686   6.903   1.441 -1.4576  1.2398  0.7908
  138ACOH    H210003   4.556   6.848   1.542  3.3337  0.8270  2.3191
  138ACOH    H310004   4.548   6.835   1.365  0.1006  0.2796  0.4658
  139ACOH    H410005   7.295   5.813   5.508  0.6672 -0.7044  0.4207
  139ACOH    O210006   7.299   5.894   5.562 -0.0866 -0.5663  0.2757
  139ACOH    C210007   7.393   5.977   5.505  0.1316  0.3206 -0.7140
  139ACOH    O110008   7.428   5.977   5.391  0.1044 -0.2346 -0.3280
  139ACOH    C110009   7.396   6.089   5.598 -0.4464  0.0512 -0.0427
  139ACOH    H110010   7.477   6.155   5.565 -0.9797  0.7479  0.0360
  139ACOH    H210011   7.431   6.049   5.693  0.5083 -2.5036 -1.3995
  139ACOH    H310012   7.301   6.141   5.611  0.3735  1.5367  0.1905
  140ACOH    H410013   9.718   9.522   1.184 -0.1535  0.0073 -0.4680
  140ACOH    O210014   9.678   9.436   1.164 -0.2597  0.0458 -0.4175
  140ACOH    C210015   9.607   9.448   1.052  0.1854 -0.1945 -0.3738
  140ACOH    O110016   9.636   9.519   0.958  0.0978  0.1945  0.4780
  140ACOH    C110017   9.498   9.345   1.050 -0.0248  0.6520  0.2854
  140ACOH    H110018   9.481   9.313   1.153 -1.0810  2.2852  0.6531
  140ACOH    H210019   9.518   9.259   0.987 -2.3365  0.4274 -0.2012
  140ACOH    H310020   9.402   9.384   1.016  0.6265  1.2091 -0.9341
  141ACOH    H410021   4.390   6.225   0.898  0.4551  0.4758 -0.0098
  141ACOH    O210022   4.442   6.302   0.924  0.1711  0.5649  0.3079
  141ACOH    C210023   4.523   6.263   1.018  0.0963 -0.1253  0.2246
  141ACOH    O110024   4.510   6.166   1.093  0.5769 -0.1552 -0.8041
  141ACOH    C110025   4.607   6.379   1.058 -0.1756  0.4577 -0.1760
  141ACOH    H110026   4.540   6.466   1.055 -1.7889 -0.7649 -0.3145
  141ACOH    H210027   4.691   6.401   0.992  1.6091 -0.5780  1.7090
  141ACOH    H310028   4.642   6.376   1.161 -0.3003 -1.5736 -0.1807
  142ACOH    H410029   7.224   8.258   4.390 -0.9419  1.0209  0.0763
  142ACOH    O210030   7.152   8.195   4.406  0.1136 -0.1715  0.1771
  142ACOH    C210031   7.091   8.170   4.288 -0.5005  0.5953  0.0288
  142ACOH    O110032   7.094   8.246   4.191 -0.6795  0.2061 -0.5408
  142ACOH    C110033   7.002   8.047   4.294 -0.2031  0.3189  0.0759
  142ACOH    H110034   7.064   7.959   4.277 -0.7473  0.3156 -1.9778
  142ACOH    H210035   6.925   8.053   4.218  2.2821  2.0188 -2.3942
  142ACOH    H310036   6.956   8.038   4.393 -0.5284  1.2272  0.0065
  143ACOH    H410037   4.617   2.828   4.083  1.1904 -3.1049  1.0595
  143ACOH    O210038   4.706   2.865   4.095  0.2780 -0.5258  0.0901
  143ACOH    C210039   4.760   2.795   4.199  0.0354  0.2059 -0.5269
  143ACOH    O110040   4.707   2.707   4.261 -0.3827 -0.2825 -0.2036
  143ACOH    C110041   4.901   2.840   4.202 -0.2981 -0.2073  0.3493
  143ACOH    H110042   4.955   2.792   4.121  0.5665 -0.0420  0.8275
  143ACOH    H210043   4.953   2.808   4.291  0.1489 -0.7856 -0.1152
  143ACOH    H310044   4.899   2.949   4.192 -0.7951 -0.0546  1.9374
  144ACOH    H410045   0.744   8.230   1.949  0.6825  2.2426  0.4503
  144ACOH    O210046   0.834   8.192   1.942 -0.3114 -0.1036 -0.0909
  144ACOH    C210047   0.819   8.087   1.861 -0.9377 -0.7640  0.2921
  144ACOH    O110048   0.730   8.075   1.780  0.2603 -0.5090 -0.1858
  144ACOH    C110049   0.948   8.004   1.864 -0.0409 -0.4771  0.4010
  144ACOH    H110050   0.979   7.976   1.763 -2.9610  1.4182 -1.0786
  144ACOH    H210051   0.913   7.913   1.913 -2.0739 -0.6167 -1.2225
  144ACOH    H310052   1.027   8.050   1.923  0.0283  0.0356 -0.0849
  145ACOH    H410053   3.610   1.146   0.475 -0.4384  0.3876 -0.0940
  145ACOH    O210054   3.545   1.140   0.547  0.1754 -0.0983  0.4171
  145ACOH    C210055   3.469   1.032   0.519 -0.2741 -0.1427 -0.5963
  145ACOH    O110056   3.505   0.937   0.450  0.1811 -0.3090  0.4895
  145ACOH    C110057   3.361   1.031   0.618  0.4243 -0.5315  0.2402
  145ACOH    H110058   3.356   0.932   0.664  0.7611 -1.5788 -1.8955
  145ACOH    H210059   3.271   1.039   0.558  0.2004 -2.1479  0.3507
  145ACOH    H310060   3.351   1.113   0.689 -1.3439 -0.5344  0.0061
  146ACOH    H410061   7.878   3.324   3.747 -1.3542 -0.1284  0.7637
  146ACOH    O210062   7.848   3.232   3.738  0.2646 -0.5357 -0.6047
  146ACOH    C210063   7.938   3.152   3.796 -0.4950  0.4124  0.2567
  146ACOH    O110064   8.051   3.185   3.821 -0.7678  0.2037  0.1849
  146ACOH    C110065   7.902   3.014   3.764  0.1362  0.0921 -0.2874
  146ACOH    H110066   7.801   2.992   3.798 -0.1173  2.4857  0.5716
  146ACOH    H210067   7.969   2.938   3.804  0.3439  0.4344  0.0031
  146ACOH    H310068   7.907   2.995   3.656  2.0846  2.2809 -0.6280
  147ACOH    H410069   1.038   8.274   2.147 -1.8769 -1.8963  0.0567
  147ACOH    O210070   1.071   8.192   2.188  0.2123 -1.1098 -0.0203
  147ACOH    C210071   1.179   8.168   2.111 -0.6659 -1.5074 -0.5913
  147ACOH    O110072   1.217   8.235   2.021 -0.5760  0.2013 -0.0188
  147ACOH    C110073   1.240   8.035   2.138  1.7192 -0.1631  0.2170
  147ACOH    H110074   1.153   7.970   2.141  2.0205 -0.5660  0.1709
  147ACOH    H210075   1.292   8.043   2.233 -1.4752  1.8187  1.8974
  147ACOH    H310076   1.312   7.998   2.066 -0.8276 -0.2385 -2.3850
  148ACOH    H410077   5.113   1.597   4.656 -1.1052  0.8715 -1.0535
  148ACOH    O210078   5.180   1.665   4.635  0.0519 -0.1855 -0.8860
  148ACOH    C210079   5.111   1.778   4.638  0.3059 -0.1609 -1.0220
  148ACOH    O110080   4.992   1.795   4.669  0.0269 -0.1940  0.2104
  148ACOH    C110081   5.200   1.895   4.611 -0.3540 -0.6736 -0.0416
  148ACOH    H110082   5.154   1.951   4.529 -1.9273 -0.1514  1.1712
  148ACOH    H210083   5.298   1.853   4.587  0.2328  0.0179  1.1542
  148ACOH    H310084   5.201   1.948   4.706 -0.3756  0.8176 -0.8642
  149ACOH    H410085   7.107   3.516   0.298 -1.0448 -0.3033 -1.7759
  149ACOH    O210086   7.049   3.466   0.357 -0.0687  0.2900 -0.2940
  149ACOH    C210087   7.115   3.351   0.390  0.0836  0.1394  0.4057
  149ACOH    O110088   7.207   3.304   0.326 -0.4533  0.4266 -0.2271
  149ACOH    C110089   7.045   3.270   0.494  0.1372 -0.5410  0.3732
  149ACOH    H110090   7.120   3.227   0.560  1.4634  0.6429 -0.3095
  149ACOH    H210091   6.993   3.189   0.443 -2.7015  1.5985 -0.2377
  149ACOH    H310092   6.970   3.324   0.552 -0.2606 -1.2986  0.5654
  150ACOH    H410093   6.967   2.249   2.986  1.2006  1.6884  0.5154
  150ACOH    O210094   7.040   2.210   2.936  0.1582 -0.0958  0.3736
  150ACOH    C210095   7.146   2.281   2.968  0.3871  0.5098  0.3336
  150ACOH    O110096   7.144   2.398   2.994  0.2375  0.0684  0.4695
  150ACOH    C110097   7.268   2.208   2.929 -0.1787  0.8273 -0.4776
  150ACOH    H110098   7.268   2.230   2.822 -0.0553  0.8431 -0.4754
  150ACOH    H210099   7.251   2.102   2.947 -0.5231  0.7072 -1.4811
  150ACOH    H310100   7.361   2.254   2.962 -0.1664  0.2791  0.2528
  151ACOH    H410101   4.123   1.428   4.592  0.1861  0.3117  1.2810
  151ACOH    O210102   4.168   1.512   4.612  0.0914  0.7001 -0.1022
  151ACOH    C210103   4.291   1.486   4.663  0.0962  1.0925 -0.3677
  151ACOH    O110104   4.355   1.565   4.728 -0.9888 -0.0486  0.1636
  151ACOH    C110105   4.315   1.345   4.672  0.9052 -0.6489  0.7613
  151ACOH    H110106   4.374   1.309   4.756  2.0412 -0.5759  0.0137
  151ACOH    H210107   4.362   1.329   4.575 -0.3430  0.2158 -0.0027
  151ACOH    H310108   4.222   1.288   4.673  0.9572 -0.7227  1.6264
  152ACOH    H410109   1.509   5.524   3.883  0.6210 -1.3480 -0.2104
  152ACOH    O210110   1.587   5.508   3.939  0.6557 -0.0146  0.1416
  152ACOH    C210111   1.691   5.513   3.854  0.1021 -0.3521  0.3480
  152ACOH    O110112   1.687   5.526   3.735  0.2902 -0.2251 -0.4398
  152ACOH    C110113   1.824   5.497   3.918 -0.3041 -0.2365  0.1931
  152ACOH    H110114   1.847   5.391   3.930 -0.6078 -0.7289 -3.1222
  152ACOH    H210115   1.830   5.551   4.012 -0.9589  2.0144 -1.0350
  152ACOH    H310116   1.897   5.541   3.849  1.4666 -0.9101  1.5815
  153ACOH    H410117   1.534   8.225   2.745  0.1006 -1.0117 -0.0653
  153ACOH    O210118   1.471   8.243   2.673 -0.1207 -0.2689  0.3160
  153ACOH    C210119   1.545   8.200   2.565 -0.2353 -0.5277 -0.4465
  153ACOH    O110120   1.665   8.175   2.568 -0.4777 -0.3403  0.0099
  153ACOH    C110121   1.472   8.224   2.441  0.8708 -0.1161 -0.1249
  153ACOH    H110122   1.370   8.186   2.454  0.4407  1.1288  0.2568
  153ACOH    H210123   1.521   8.176   2.357  0.9938  0.0646 -0.1569
  153ACOH    H310124   1.461   8.332   2.430  0.1731 -0.1364  0.3003
  154ACOH    H410125   5.127   4.807   0.483 -2.5149  0.0891  0.6285
  154ACOH    O210126   5.103   4.760   0.401  0.2625 -0.3426 -0.0130
  154ACOH    C210127   4.984   4.800   0.357  0.0705 -0.4634 -0.0558
  154ACOH    O110128   4.908   4.869   0.426  0.5719  0.2959 -0.0885
  154ACOH    C110129   4.953   4.733   0.227 -0.1060  0.1042 -0.3054
  154ACOH    H110130   4.983   4.793   0.141 -0.2680 -0.1147 -0.5161
  154ACOH    H210131   4.847   4.715   0.209 -0.4453  3.9330 -2.7045
  154ACOH    H310132   5.007   4.639   0.215 -0.7223 -0.3965  0.7007
  155ACOH    H410133   7.030   1.624   3.935 -2.1483  1.3456 -0.6551
  155ACOH    O210134   7.031   1.704   3.990  0.3250  0.5333  0.5702
  155ACOH    C210135   6.908   1.768   3.981  0.0687  0.0451  0.4822
  155ACOH    O110136   6.800   1.713   3.982 -0.8262  0.5031 -0.3315
  155ACOH    C110137   6.921   1.909   4.017 -0.1509  0.5669  0.2471
  155ACOH    H110138   6.914   1.927   4.125 -0.1234 -2.0058  0.7058
  155ACOH    H210139   6.833   1.956   3.973 -0.4830 -1.4519 -1.2941
  155ACOH    H310140   7.008   1.945   3.962  1.0805  0.5685  2.1293
  156ACOH    H410141   4.946   4.559   4.225 -0.4639  0.2010 -0.1517
  156ACOH    O210142   4.982   4.640   4.185  0.1382 -0.0471 -0.1227
  156ACOH    C210143   4.949   4.631   4.053 -0.1663 -0.0218  0.9012
  156ACOH    O110144   4.885   4.543   3.999 -0.0674  0.5264 -0.5388
  156ACOH    C110145   5.001   4.752   3.983  0.6553 -0.3294 -0.1457
  156ACOH    H110146   5.008   4.740   3.875 -0.9310  2.0134 -0.5580
  156ACOH    H210147   5.103   4.769   4.016  1.1991 -2.8126 -0.4482
  156ACOH    H310148   4.951   4.847   4.005  2.8446  0.4879  1.4736
  157ACOH    H410149   5.159   3.323   3.024 -0.5524 -0.4230  0.1289
  157ACOH    O210150   5.196   3.302   3.112 -0.1769 -0.0936  0.0476
  157ACOH    C210151   5.193   3.171   3.108 -0.1142  0.3299  0.7539
  157ACOH    O110152   5.100   3.098   3.080 -0.5616  0.0812 -0.3711
  157ACOH    C110153   5.288   3.125   3.208 -0.1287  0.5052 -0.3239
  157ACOH    H110154   5.318   3.021   3.192 -1.8322 -0.1122  0.4105
  157ACOH    H210155   5.248   3.134   3.309  1.6338  0.1214  0.4392
  157ACOH    H310156   5.378   3.187   3.204  1.3887 -1.5689  0.6057
  158ACOH    H410157   7.444   2.491   0.512  0.0410  0.6215  0.8385
  158ACOH    O210158   7.387   2.412   0.516  0.5238  0.2484  0.3958
  158ACOH    C210159   7.433   2.338   0.621  0.5995 -0.0025  0.0685
  158ACOH    O110160   7.465   2.393   0.727 -0.8341  0.4332  0.2068
  158ACOH    C110161   7.368   2.199   0.617 -0.2663  0.2008  0.4104
  158ACOH    H110162   7.418   2.127   0.682  0.2216 -1.0207 -1.2765
  158ACOH    H210163   7.365   2.165   0.513 -0.2669 -0.7325  0.7105
  158ACOH    H310164   7.269   2.226   0.653 -0.4980  0.3336 -0.3033
  159ACOH    H410165   8.899   4.547   1.517  0.2968  1.9906 -1.0150
  159ACOH    O210166   8.921   4.596   1.598 -0.1153  0.0891  0.2916
  159ACOH    C210167   8.937   4.721   1.563 -0.1145  0.3288  0.3753
  159ACOH    O110168   9.013   4.758   1.475 -0.1231 -0.0431 -0.0091
  159ACOH    C110169   8.930   4.798   1.683  0.0373 -0.4894 -0.3560
  159ACOH    H110170   8.984   4.747   1.763 -0.2468 -0.9277 -0.4453
  159ACOH    H210171   8.827   4.809   1.718  0.5438 -0.8966  1.3127
  159ACOH    H310172   8.966   4.900   1.667  0.4212 -0.5337  0.1944
  160ACOH    H410173   0.060   2.978   1.750  0.3395 -0.4660 -2.7279
  160ACOH    O210174  -0.031   2.955   1.778  0.6785  0.3858 -0.8434
  160ACOH    C210175  -0.108   3.066   1.770 -1.2642  0.6054 -0.6099
  160ACOH    O110176  -0.084   3.160   1.698 -0.3104 -0.5408 -0.5349
  160ACOH    C110177  -0.246   3.039   1.823  0.1049 -0.2222  0.1455
  160ACOH    H110178  -0.246   3.004   1.926  0.2480  0.9923  0.5722
  160ACOH    H210179  -0.299   2.967   1.760 -2.4152  2.4731 -0.9540
  160ACOH    H310180  -0.314   3.124   1.821 -1.8060 -1.6433  3.1014
  161ACOH    H410181   6.514   2.117   2.212  0.5363  2.5060  0.4146
  161ACOH    O210182   6.595   2.116   2.158  0.2863 -0.4026 -0.0099
  161ACOH    C210183   6.604   2.000   2.088  0.6228  0.0653 -0.7465
  161ACOH    O110184   6.516   1.919   2.080  0.1604 -1.0385  0.7439
  161ACOH    C110185   6.727   1.979   2.024 -0.6737  0.1349 -0.5828
  161ACOH    H110186   6.817   1.989   2.086 -0.3331 -2.8325 -0.5339
  161ACOH    H210187   6.732   2.051   1.943  1.9959 -0.7998 -1.2985
  161ACOH    H310188   6.736   1.884   1.973  1.9777 -0.3345  0.6763
  162ACOH    H410189   5.892   0.785   0.666 -2.1414  2.7804 -1.0826
  162ACOH    O210190   5.839   0.709   0.637  0.2297  0.3094  0.7327
  162ACOH    C210191   5.900   0.634   0.540  0.4313 -0.3764  0.7617
  162ACOH    O110192   6.010   0.645   0.486  0.0061  0.2807  0.5860
  162ACOH    C110193   5.795   0.540   0.498 -0.4255 -0.6345 -0.2798
  162ACOH    H110194   5.701   0.595   0.492 -0.5880 -1.0768 -2.2782
  162ACOH    H210195   5.788   0.465   0.577 -1.9787  0.0501  0.2446
  162ACOH    H310196   5.819   0.496   0.401 -0.0154 -0.5947 -0.1963
  163ACOH    H410197   8.081   3.785   4.026 -0.6059 -0.2548  1.4159
  163ACOH    O210198   8.020   3.858   4.008  0.1691  0.1156  0.2618
  163ACOH    C210199   7.969   3.827   3.891 -0.1081  0.3910  0.1481
  163ACOH    O110200   8.016   3.763   3.802 -0.2051  0.2683 -0.5823
  163ACOH    C110201   7.863   3.927   3.864  0.0456  0.6661 -0.0766
  163ACOH    H110202   7.904   4.027   3.855 -0.6878  0.9086 -0.7976
  163ACOH    H210203   7.787   3.926   3.942  0.2552 -1.4918  0.1433
  163ACOH    H310204   7.810   3.902   3.772 -0.3625  1.1039  0.0379
  164ACOH    H410205   0.039   3.609   1.661  2.6759 -0.8899  0.1020
  164ACOH    O210206   0.053   3.655   1.577 -0.6991  0.5026  0.2575
  164ACOH    C210207  -0.056   3.645   1.502 -0.6767 -0.2197  0.0809
  164ACOH    O110208  -0.144   3.563   1.515  0.8410  0.0550  0.0466
  164ACOH    C110209  -0.051   3.730   1.380  0.2043 -0.0103 -0.0559
  164ACOH    H110210  -0.085   3.830   1.405 -1.6581 -0.1111 -2.0925
  164ACOH    H210211  -0.119   3.690   1.305  0.1926 -1.0806  0.5153
  164ACOH    H310212   0.050   3.730   1.338 -0.3687  0.0101 -1.4493
  165ACOH    H410213   8.151   4.198   3.868 -0.5422 -0.9548  0.2287
  165ACOH    O210214   8.136   4.148   3.786 -0.4798 -0.5982 -0.0023
  165ACOH    C210215   8.185   4.210   3.675  0.3379 -0.2829 -0.1463
  165ACOH    O110216   8.217   4.327   3.671  0.3308 -0.5870  0.0817
  165ACOH    C110217   8.175   4.130   3.550 -0.2521  0.4191 -0.6107
  165ACOH    H110218   8.095   4.172   3.488 -2.0441 -0.7491  0.8440
  165ACOH    H210219   8.164   4.026   3.582  0.9052 -0.1047 -1.8700
  165ACOH    H310220   8.272   4.144   3.502 -0.6440  0.9461 -1.2571
  166ACOH    H410221   6.726   7.614   1.898  1.1998 -2.2787 -1.2266
  166ACOH    O210222   6.736   7.555   1.974 -0.2445 -0.5293  0.4029
  166ACOH    C210223   6.716   7.430   1.933 -0.0325 -0.1429  0.4466
  166ACOH    O110224   6.668   7.404   1.823 -0.1278 -0.2544 -0.5632
  166ACOH    C110225   6.715   7.335   2.047  0.0500 -0.1322  0.3458
  166ACOH    H110226   6.693   7.235   2.011 -0.0302 -0.8790  2.4129
  166ACOH    H210227   6.641   7.371   2.119 -0.5667  0.2511 -0.4824
  166ACOH    H310228   6.818   7.328   2.083  0.0979 -1.8294 -0.0835
  167ACOH    H410229   5.760   8.755   0.990  1.5767 -0.8940 -2.1406
  167ACOH    O210230   5.738   8.662   1.007  0.3970 -0.1976  0.4041
  167ACOH    C210231   5.660   8.657   1.115 -0.3289 -0.5552  0.1138
  167ACOH    O110232   5.605   8.748   1.179 -0.3492 -0.0293  0.3714
  167ACOH    C110233   5.647   8.522   1.167 -0.4147  0.1442 -0.0690
  167ACOH    H110234   5.546   8.515   1.205 -0.1097 -0.7988  0.5824
  167ACOH    H210235   5.719   8.514   1.248 -0.7220  1.1199  0.3009
  167ACOH    H310236   5.672   8.444   1.095  0.9265 -0.2412  0.7973
  168ACOH    H410237   3.637   7.765   4.458  0.7728  2.9211  2.1988
  168ACOH    O210238   3.692   7.712   4.518 -0.2020 -0.6597  0.1083
  168ACOH    C210239   3.688   7.757   4.637  0.6816 -0.8993  0.0423
  168ACOH    O110240   3.634   7.860   4.672  0.5445  0.1013  0.1181
  168ACOH    C110241   3.777   7.685   4.729  0.1565 -0.1869 -0.2413
  168ACOH    H110242   3.865   7.746   4.750  0.4646 -1.1661  1.3761
  168ACOH    H210243   3.793   7.583   4.693 -1.1697 -0.2063 -0.8104
  168ACOH    H310244   3.723   7.687   4.824 -0.6294  1.7184 -0.6971
  169ACOH    H410245   7.528   2.726   1.171 -0.7457  2.8303  0.5661
  169ACOH    O210246   7.442   2.682   1.172  0.5366  0.2548  0.0535
  169ACOH    C210247   7.341   2.763   1.128 -0.4935 -0.3786 -0.2092
  169ACOH    O110248   7.343   2.881   1.141  0.2690 -0.0939 -0.2186
  169ACOH    C110249   7.219   2.684   1.123 -0.4295  0.3628  0.1150
  169ACOH    H110250   7.211   2.627   1.031  0.9008 -2.1814  1.5203
  169ACOH    H210251   7.133   2.752   1.121 -1.1054 -0.4823  0.1578
  169ACOH    H310252   7.203   2.629   1.216  1.5669  0.0066  0.2768
  170ACOH    H410253   5.085   2.675   3.880 -1.9571 -0.1385  0.3022
  170ACOH    O210254   5.079   2.761   3.924  0.0138  0.0283  0.2827
  170ACOH    C210255   5.102   2.866   3.838 -0.3256  1.0365 -0.5228
  170ACOH    O110256   5.107   2.850   3.719 -0.1325  0.0236  0.3452
  170ACOH    C110257   5.075   2.994   3.907  0.6629  0.7653  0.3662
  170ACOH    H110258   4.968   3.006   3.923  0.8026  0.8487  1.2734
  170ACOH    H210259   5.117   3.079   3.853 -0.0384  0.7759 -0.1684
  170ACOH    H310260   5.126   2.984   4.004 -2.3948 -0.7976  1.8774
  171ACOH    H410261   5.673   2.903   2.280 -0.3371 -1.1679 -1.5915
  171ACOH    O210262   5.671   2.981   2.222 -0.4477  0.0281 -0.0219
  171ACOH    C210263   5.683   2.945   2.092 -0.2492  0.3464  0.5125
  171ACOH    O110264   5.754   2.853   2.057 -0.1661 -0.1089  0.2613
  171ACOH    C110265   5.646   3.059   2.007 -0.1155 -0.2628 -0.2934
  171ACOH    H110266   5.735   3.078   1.946 -1.4553  1.0455 -1.8838
  171ACOH    H210267   5.626   3.145   2.072 -1.0367 -0.1570 -0.7172
  171ACOH    H310268   5.560   3.038   1.944  0.1440 -2.6231  0.0834
  172ACOH    H410269   7.539   4.789   4.855 -0.3075 -1.4899 -2.6075
  172ACOH    O210270   7.457   4.840   4.851  0.5045  0.2251  0.9125
  172ACOH    C210271   7.377   4.775   4.944  0.1214 -0.5836  0.2939
  172ACOH    O110272   7.415   4.675   5.005 -0.1174  0.5963  0.2993
  172ACOH    C110273   7.238   4.819   4.947 -0.6206  0.3681  0.0807
  172ACOH    H110274   7.195   4.763   4.864 -2.0144  1.4979  0.0334
  172ACOH    H210275   7.231   4.926   4.932 -1.5064  0.2237 -0.5559
  172ACOH    H310276   7.183   4.788   5.036 -0.1358  3.0676  1.3500
  173ACOH    H410277   3.958   2.166   0.468  0.9661  2.5607 -0.9731
  173ACOH    O210278   3.939   2.117   0.387 -0.4795  0.1062  0.7497
  173ACOH    C210279   4.021   2.169   0.290  0.5427 -0.2557 -0.2082
  173ACOH    O110280   4.079   2.269   0.282 -0.0847 -0.4956 -0.8354
  173ACOH    C110281   4.028   2.076   0.175  0.0175 -0.3999  0.2086
  173ACOH    H110282   3.968   1.986   0.189 -1.2089  0.4301  0.3398
  173ACOH    H210283   4.126   2.031   0.156  0.6767  0.7446  0.8115
  173ACOH    H310284   3.998   2.133   0.087 -0.8013 -0.6696  0.3108
  174ACOH    H410285   5.045   2.108   0.619  0.0872 -1.3221 -0.2630
  174ACOH    O210286   5.121   2.107   0.679 -0.4653  0.3088  0.4965
  174ACOH    C210287   5.141   2.234   0.710  0.4653  0.7700 -0.4212
  174ACOH    O110288   5.078   2.331   0.669  0.5426 -0.6125 -0.5342
  174ACOH    C110289   5.241   2.253   0.819 -0.3473 -0.0859 -0.3236
  174ACOH    H110290   5.200   2.314   0.899  1.5151  1.1788 -0.2836
  174ACOH    H210291   5.327   2.304   0.775  0.6743 -0.3850  1.2664
  174ACOH    H310292   5.283   2.160   0.857  0.6889  0.7993  0.7341
  175ACOH    H410293   4.680   7.431   3.660 -0.7979  1.7628  1.7422
  175ACOH    O210294   4.762   7.389   3.692 -0.4875  0.4825 -0.6705
  175ACOH    C210295   4.755   7.411   3.829  0.3058 -0.0473  0.0148
  175ACOH    O110296   4.655   7.434   3.891 -0.0864 -0.7979 -0.4855
  175ACOH    C110297   4.880   7.377   3.903  0.3690  0.3946  0.3226
  175ACOH    H110298   4.960   7.445   3.874  0.3425 -0.0602 -0.8407
  175ACOH    H210299   4.917   7.282   3.863 -1.0525 -0.5867  1.2582
  175ACOH    H310300   4.869   7.367   4.011 -0.3970 -2.5319  0.0219
  176ACOH    H410301   8.355   7.158   5.511 -0.9673  2.1946  0.3909
  176ACOH    O210302   8.282   7.110   5.553  0.0455 -0.0477 -0.2928
  176ACOH    C210303   8.289   6.982   5.524 -0.1620 -0.3741  0.0905
  176ACOH    O110304   8.385   6.923   5.488 -0.7546  0.4844 -0.0401
  176ACOH    C110305   8.168   6.906   5.571  0.1689  0.1871  0.2465
  176ACOH    H110306   8.196   6.821   5.634 -0.8988 -0.8560 -0.6700
  176ACOH    H210307   8.108   6.865   5.490  2.7107 -0.6928 -1.2422
  176ACOH    H310308   8.102   6.971   5.629  0.4562 -0.0778  0.8760
  177ACOH    H410309   8.075   7.074   1.440 -0.0034 -0.6734 -0.8173
  177ACOH    O210310   8.016   7.088   1.363 -0.3917 -0.0558 -0.4093
  177ACOH    C210311   7.952   7.200   1.401 -1.2250 -0.4579  0.1353
  177ACOH    O110312   7.914   7.248   1.504  0.0072 -0.1448  0.7806
  177ACOH    C110313   7.902   7.252   1.271 -0.5989 -0.6238 -0.0834
  177ACOH    H110314   7.823   7.327   1.280  0.0558 -0.0502  0.9771
  177ACOH    H210315   7.868   7.181   1.196 -0.3369 -1.2960  0.4396
  177ACOH    H310316   7.987   7.305   1.227 -0.3259 -0.8906  0.1273
  178ACOH    H410317   5.526   3.737   1.137  0.5704 -2.3829 -0.0418
  178ACOH    O210318   5.466   3.719   1.211  0.5675 -0.0867  0.5450
  178ACOH    C210319   5.525   3.622   1.280  0.2504  0.6509  0.6034
  178ACOH    O110320   5.611   3.548   1.233 -0.0211 -0.0038 -0.5901
  178ACOH    C110321   5.448   3.582   1.399 -0.5903  0.1232 -0.0118
  178ACOH    H110322   5.391   3.665   1.441 -1.6024 -1.0329  0.9506
  178ACOH    H210323   5.516   3.550   1.478 -1.0068  1.1985  0.7920
  178ACOH    H310324   5.383   3.495   1.384 -1.5710  1.0732 -1.3202
  179ACOH    H410325   2.847   0.150   5.431  1.5608  0.8532 -1.8439
  179ACOH    O210326   2.780   0.148   5.361 -0.4499  0.2518  0.0373
  179ACOH    C210327   2.834   0.210   5.252 -0.2581 -0.3248 -0.5233
  179ACOH    O110328   2.930   0.284   5.247  0.3069  0.0961 -0.0183
  179ACOH    C110329   2.749   0.182   5.134  0.1094 -0.1318  0.2322
  179ACOH    H110330   2.774   0.248   5.052 -1.4296  1.1679  0.7740
  179ACOH    H210331   2.647   0.193   5.171 -0.0648  1.6581 -0.7386
  179ACOH    H310332   2.753   0.079   5.099 -1.5139  0.6099 -2.2357
  180ACOH    H410333   4.747   5.667   2.532 -1.0472  0.5384 -1.7297
  180ACOH    O210334   4.652   5.684   2.544 -0.8038  0.7110  0.1557
  180ACOH    C210335   4.592   5.595   2.468  0.5423  0.0291  0.2602
  180ACOH    O110336   4.640   5.518   2.385 -0.4824 -0.1800  0.0767
  180ACOH    C110337   4.445   5.626   2.477 -0.1483  0.4613  0.1337
  180ACOH    H110338   4.426   5.716   2.419  0.2258 -0.1350 -0.9277
  180ACOH    H210339   4.419   5.653   2.579  0.3022 -0.8323  0.5995
  180ACOH    H310340   4.378   5.547   2.440 -1.1316 -0.0233  2.8108
  181ACOH    H410341   6.983   8.194   1.468  1.5091 -1.6862  0.7983
  181ACOH    O210342   6.941   8.125   1.414 -0.4629 -0.0154  0.1153
  181ACOH    C210343   6.837   8.060   1.473 -0.4657  0.0818 -0.0619
  181ACOH    O110344   6.774   8.113   1.562 -0.0608  0.2196 -0.6999
  181ACOH    C110345   6.832   7.921   1.432  0.5194 -0.5059 -0.0110
  181ACOH    H110346   6.786   7.911   1.334 -1.4285  0.9280  0.7398
  181ACOH    H210347   6.773   7.864   1.504 -1.6204  1.0469 -0.4983
  181ACOH    H310348   6.930   7.874   1.422  1.5853  1.5725  0.3902
  182ACOH    H410349   1.151   1.316   4.898 -1.1306 -2.7168  3.0843
  182ACOH    O210350   1.169   1.379   4.970 -0.9359  0.5190  0.2793
  182ACOH    C210351   1.185   1.501   4.918 -0.1904  0.2022 -0.0378
  182ACOH    O110352   1.105   1.533   4.827 -0.1883  0.1850 -0.1112
  182ACOH    C110353   1.231   1.602   5.014  0.5183 -0.1180 -0.1198
  182ACOH    H110354   1.257   1.551   5.106  2.4689  3.1713  1.2333
  182ACOH    H210355   1.156   1.675   5.041  2.7220  0.9354  3.5139
  182ACOH    H310356   1.318   1.654   4.974  1.5378  0.5686  2.9350
  183ACOH    H410357   7.786   3.037   1.889 -0.5311 -0.0447  1.1702
  183ACOH    O210358   7.737   2.958   1.917 -0.5098 -0.4139  0.1683
  183ACOH    C210359   7.735   2.937   2.051 -0.2871  0.4127 -0.6302
  183ACOH    O110360   7.827   2.955   2.127  0.8574 -0.5836 -0.1255
  183ACOH    C110361   7.620   2.852   2.085 -0.4486  0.4450  0.3826
  183ACOH    H110362   7.616   2.763   2.022 -1.4567  1.8302 -1.5756
  183ACOH    H210363   7.530   2.911   2.068 -0.3385  0.2814 -0.8242
  183ACOH    H310364   7.622   2.824   2.190  0.0911 -2.1613 -0.2756
  184ACOH    H410365   7.116   3.748   0.708  1.8665  1.4305  0.7252
  184ACOH    O210366   7.065   3.775   0.787  0.1375 -0.2160  0.2020
  184ACOH    C210367   7.104   3.903   0.811  0.1001 -0.4782  0.6125
  184ACOH    O110368   7.201   3.954   0.765  0.4208 -0.3952  0.1183
  184ACOH    C110369   7.041   3.960   0.937 -0.2988 -0.1814 -0.0160
  184ACOH    H110370   6.941   3.922   0.959 -0.7819  0.4040 -1.1507
  184ACOH    H210371   7.024   4.067   0.929  1.8012  0.2683  1.2097
  184ACOH    H310372   7.105   3.945   1.024 -0.2239 -0.5097 -0.1259
  185ACOH    H410373   8.943   1.735   3.919  1.7641  1.5373 -0.5597
  185ACOH    O210374   8.880   1.794   3.874  0.6418  0.9555  0.2170
  185ACOH    C210375   8.944   1.849   3.768 -0.5782  0.3552 -0.3552
  185ACOH    O110376   9.059   1.825   3.729  0.4157  0.9432 -0.7002
  185ACOH    C110377   8.856   1.948   3.696 -0.6052 -0.2984 -0.5089
  185ACOH    H110378   8.906   2.045   3.702 -0.5011 -0.4282  0.7514
  185ACOH    H210379   8.764   1.942   3.753 -1.0153  1.1158 -1.0014
  185ACOH    H310380   8.842   1.923   3.591 -1.3595 -0.4583 -0.3731
  186ACOH    H410381   4.749   4.441   2.193  1.0605 -0.5773  1.4167
  186ACOH    O210382   4.756   4.505   2.265 -0.5732  0.4179  0.7214
  186ACOH    C210383   4.880   4.555   2.265 -0.4688  0.3064  0.0403
  186ACOH    O110384   4.967   4.538   2.178 -0.8078  0.0810 -0.2076
  186ACOH    C110385   4.902   4.661   2.369  0.6756  0.5262  0.3208
  186ACOH    H110386   4.994   4.634   2.421  0.2060 -0.9595  0.4103
  186ACOH    H210387   4.820   4.666   2.441 -1.0527  0.8034 -1.6134
  186ACOH    H310388   4.905   4.763   2.332  0.8604  0.0891 -0.9076
  187ACOH    H410389   7.325   2.946   5.409 -2.2890 -0.5362  1.6750
  187ACOH    O210390   7.375   2.870   5.445 -0.0214  0.2537  0.3005
  187ACOH    C210391   7.305   2.812   5.541 -0.2418  0.1600 -0.8603
  187ACOH    O110392   7.198   2.848   5.590  0.1310  0.1980  1.2376
  187ACOH    C110393   7.356   2.680   5.575  1.1294  0.3897 -0.0626
  187ACOH    H110394   7.461   2.686   5.601  1.3534 -0.8691 -0.6055
  187ACOH    H210395   7.355   2.619   5.484 -0.5581 -1.6535  1.2750
  187ACOH    H310396   7.297   2.641   5.658 -2.8406 -0.8135 -3.2964
  188ACOH    H410397   4.894   0.876   0.071 -0.8583  1.0330  0.6658
  188ACOH    O210398   4.969   0.912   0.121 -0.0908  0.5457 -0.1158
  188ACOH    C210399   5.019   1.004   0.034 -0.6281 -0.6904 -0.0232
  188ACOH    O110400   4.957   1.065  -0.056  0.4955 -0.4609  0.1445
  188ACOH    C110401   5.154   1.048   0.089 -0.3250  0.1498  0.1506
  188ACOH    H110402   5.147   1.155   0.107  0.1137  0.5468 -1.9153
  188ACOH    H210403   5.229   1.031   0.012 -0.4537  1.5577 -0.2938
  188ACOH    H310404   5.186   0.991   0.176  4.4346  0.7596 -1.0623
  189ACOH    H410405   4.219   6.175   2.761 -1.6365  2.3129 -2.5483
  189ACOH    O210406   4.169   6.227   2.826 -0.0627  0.4708  0.2725
  189ACOH    C210407   4.197   6.354   2.802 -0.4953 -0.2695 -0.2751
  189ACOH    O110408   4.246   6.401   2.699  0.0854 -0.6511  0.3412
  189ACOH    C110409   4.132   6.432   2.913  0.3104  0.3654 -0.0828
  189ACOH    H110410   4.027   6.403   2.915  1.0574 -2.4944 -0.8430
  189ACOH    H210411   4.139   6.540   2.899 -3.9366  0.6132 -1.0948
  189ACOH    H310412   4.176   6.403   3.009 -2.3181 -3.7904 -0.0337
  190ACOH    H410413   8.245   8.825   0.527 -0.7003 -0.1959 -1.2260
  190ACOH    O210414   8.224   8.910   0.485  0.1425  0.4028 -0.4603
  190ACOH    C210415   8.209   8.881   0.355  0.0145  0.0662 -0.1473
  190ACOH    O110416   8.222   8.779   0.292  0.7469  0.4675  0.1792
  190ACOH    C110417   8.184   9.004   0.272 -0.0132  0.4982  0.7453
  190ACOH    H110418   8.094   9.063   0.289  0.0626  0.2034  2.2493
  190ACOH    H210419   8.168   8.975   0.169  2.1045 -2.4164  1.1630
  190ACOH    H310420   8.270   9.071   0.288 -0.5415  1.0596  1.2914
  191ACOH    H410421   4.092   6.872   3.394 -0.2924 -0.5799  0.4999
  191ACOH    O210422   4.160   6.822   3.346 -0.4444 -0.3159  0.0041
  191ACOH    C210423   4.216   6.914   3.257  0.1864 -0.1048  0.5673
  191ACOH    O110424   4.162   7.016   3.220  0.3259 -0.1694  0.3448
  191ACOH    C110425   4.341   6.858   3.199  0.5080 -0.3043  0.2257
  191ACOH    H110426   4.403   6.825   3.282 -0.7417 -0.3385  1.1587
  191ACOH    H210427   4.398   6.920   3.130 -0.7105  1.2424  0.5720
  191ACOH    H310428   4.308   6.773   3.140  3.0126 -2.3619  1.6911
  192ACOH    H410429   7.434   1.199   1.471 -0.1148  0.5878 -0.4833
  192ACOH    O210430   7.492   1.266   1.512  0.4704  0.0632 -0.4604
  192ACOH    C210431   7.547   1.334   1.415  1.1382 -0.8971 -0.2876
  192ACOH    O110432   7.525   1.330   1.299  0.0136  0.2820 -0.2668
  192ACOH    C110433   7.627   1.441   1.478 -0.0937  0.1800  0.1405
  192ACOH    H110434   7.674   1.410   1.572  1.3577 -2.8988 -1.5416
  192ACOH    H210435   7.568   1.531   1.493 -0.7076 -0.0368 -0.9611
  192ACOH    H310436   7.703   1.474   1.407  0.0286  0.6504  0.4839
  193ACOH    H410437   1.268   1.136   1.288  1.4030  2.4961 -0.3386
  193ACOH    O210438   1.286   1.133   1.383  0.2545  0.6651 -0.1586
  193ACOH    C210439   1.386   1.227   1.395 -0.8975  0.3549 -0.0342
  193ACOH    O110440   1.412   1.317   1.320  0.6555 -0.2751  0.2981
  193ACOH    C110441   1.452   1.200   1.528  0.1455 -0.2302  0.6363
  193ACOH    H110442   1.432   1.288   1.589 -1.3331  0.0285 -0.1950
  193ACOH    H210443   1.560   1.210   1.519  0.0943 -0.8227 -0.6773
  193ACOH    H310444   1.436   1.106   1.580  1.0911 -1.5581 -1.4356
  194ACOH    H410445   5.254   5.605   2.011 -0.3159  2.2596  1.3053
  194ACOH    O210446   5.326   5.651   1.965  0.3375  0.0180  0.0129
  194ACOH    C210447   5.359   5.756   2.046 -0.4517 -0.9251  0.2170
  194ACOH    O110448   5.314   5.799   2.150 -0.2524  0.2956  0.4641
  194ACOH    C110449   5.497   5.797   2.011 -0.3092  0.0316 -1.2075
  194ACOH    H110450   5.525   5.894   2.051 -0.3628 -0.6061  0.4195
  194ACOH    H210451   5.497   5.808   1.903  1.1483  0.8310 -1.1399
  194ACOH    H310452   5.561   5.711   2.032 -2.7365 -0.9719  2.6593
  195ACOH    H410453   7.671   2.893   3.375  1.2687  1.0444  0.0311
  195ACOH    O210454   7.589   2.944   3.386  0.6212  0.1116 -0.4284
  195ACOH    C210455   7.622   3.072   3.352 -0.0787  0.7488  0.0171
  195ACOH    O110456   7.737   3.118   3.355  0.3099  0.5689  0.8833
  195ACOH    C110457   7.503   3.156   3.337 -0.6167 -0.0331 -0.2063
  195ACOH    H110458   7.417   3.119   3.393  1.0272 -0.8695  1.8429
  195ACOH    H210459   7.485   3.144   3.230  0.3555 -3.4255 -0.0547
  195ACOH    H310460   7.517   3.264   3.345  1.7178 -0.3303  0.1353
  196ACOH    H410461   9.014   9.569   5.249 -0.8031  0.4686  2.7916
  196ACOH    O210462   9.075   9.523   5.310  1.2227 -0.9759 -0.2103
  196ACOH    C210463   9.023   9.560   5.431 -0.7286  0.9358 -0.4203
  196ACOH    O110464   8.948   9.649   5.470  0.2935 -0.1953 -0.6377
  196ACOH    C110465   9.081   9.464   5.531 -0.3606 -0.6694  0.0023
  196ACOH    H110466   9.008   9.384   5.548 -0.3541 -0.7327 -0.2663
  196ACOH    H210467   9.092   9.523   5.622 -2.0608  1.0456 -0.8606
  196ACOH    H310468   9.175   9.417   5.502 -0.4959 -0.7740 -0.2680
  197ACOH    H410469   8.490   4.029   2.737 -1.3204 -2.6786 -2.1658
  197ACOH    O210470   8.418   4.086   2.703 -0.0142  0.3198 -0.1216
  197ACOH    C210471   8.310   4.079   2.781  0.1914 -0.1496 -0.2959
  197ACOH    O110472   8.305   4.031   2.894  0.6468 -0.5018  0.5200
  197ACOH    C110473   8.182   4.120   2.708  0.2270  0.0107  0.3144
  197ACOH    H110474   8.105   4.139   2.782  1.2596 -1.3109  1.7572
  197ACOH    H210475   8.150   4.039   2.643 -2.7710  0.4091  1.2211
  197ACOH    H310476   8.198   4.212   2.651  0.6228  0.7424  1.6018
  198ACOH    H410477   5.325   8.326   1.404  1.5409  0.9754 -0.8740
  198ACOH    O210478   5.262   8.309   1.332  0.8404 -0.6394  0.0933
  198ACOH    C210479   5.134   8.316   1.373  0.5442 -0.8036  0.6504
  198ACOH    O110480   5.094   8.334   1.488  0.5121 -0.3325  0.1174
  198ACOH    C110481   5.043   8.334   1.257  0.4850 -0.5232 -0.3575
  198ACOH    H110482   5.086   8.279   1.174  2.0153  0.0032  0.0540
  198ACOH    H210483   5.041   8.437   1.223 -0.8745  0.2687  1.9994
  198ACOH    H310484   4.941   8.305   1.279  0.6502 -0.8325  0.0152
  199ACOH    H410485   2.851   8.430   1.225 -0.0645 -1.3667 -1.9745
  199ACOH    O210486   2.922   8.373   1.258  0.2039  0.4813  0.8459
  199ACOH    C210487   2.909   8.337   1.389  0.2464 -0.5981  0.1625
  199ACOH    O110488   2.866   8.408   1.475 -0.0483  0.1703 -0.2840
  199ACOH    C110489   2.973   8.206   1.417 -0.0807  0.1964 -0.8294
  199ACOH    H110490   3.081   8.207   1.401  0.2091  2.2429  0.9502
  199ACOH    H210491   2.927   8.123   1.362 -3.5583  1.7825 -0.4358
  199ACOH    H310492   2.954   8.182   1.522  1.6851 -1.4135 -0.8460
  200ACOH    H410493   4.019   5.832   3.993 -0.7588 -1.0025 -1.0833
  200ACOH    O210494   4.077   5.754   3.998 -0.1221 -0.4616  0.2158
  200ACOH    C210495   4.040   5.678   4.108  0.0404 -0.1126  0.3249
  200ACOH    O110496   3.937   5.693   4.173 -0.2695  0.1384 -0.1466
  200ACOH    C110497   4.111   5.546   4.107 -0.6119 -0.1528  0.4048
  200ACOH    H110498   4.201   5.534   4.047  0.3853 -1.8928  2.2033
  200ACOH    H210499   4.040   5.470   4.073  0.1938 -1.1793  1.0075
  200ACOH    H310500   4.136   5.525   4.211 -0.8944  2.2176  0.9776
  201ACOH    H410501   7.872   7.957   1.951 -0.8822  1.1669  0.8960
  201ACOH    O210502   7.885   8.021   1.880 -0.2380 -0.4993 -0.5208
  201ACOH    C210503   7.783   7.988   1.793 -0.5358 -0.4127  0.3712
  201ACOH    O110504   7.719   7.882   1.786 -0.0076 -0.6187  0.3646
  201ACOH    C110505   7.783   8.080   1.677  0.4129 -0.2020 -0.0189
  201ACOH    H110506   7.773   8.186   1.701 -1.2493  0.6065 -3.9307
  201ACOH    H210507   7.698   8.050   1.616  1.1480  0.5837 -1.4578
  201ACOH    H310508   7.879   8.068   1.625  0.3815  2.8346 -0.8529
  202ACOH    H410509   7.013   5.667   4.490 -1.1480  0.5315 -0.8087
  202ACOH    O210510   6.975   5.675   4.579 -0.3013  0.5112 -0.4362
  202ACOH    C210511   7.072   5.676   4.672  0.9783 -0.1057  0.1295
  202ACOH    O110512   7.185   5.702   4.656 -0.1744 -0.0608 -0.0646
  202ACOH    C110513   7.016   5.629   4.807  0.0123 -0.2614  0.2528
  202ACOH    H110514   6.953   5.545   4.780 -1.1686  0.9015 -0.6709
  202ACOH    H210515   6.948   5.707   4.841 -0.9590 -0.5929 -0.9007
  202ACOH    H310516   7.085   5.599   4.886 -1.0204  0.0086  1.2667
  203ACOH    H410517   6.971   3.374   5.310  0.5378  0.0636 -1.3966
  203ACOH    O210518   6.902   3.306   5.302  0.1629  0.3414 -0.6433
  203ACOH    C210519   6.934   3.206   5.391 -0.1565 -0.6707 -0.3424
  203ACOH    O110520   7.039   3.203   5.449 -0.4380 -0.7939 -0.0251
  203ACOH    C110521   6.829   3.105   5.399  0.4147  0.7741  0.2209
  203ACOH    H110522   6.730   3.145   5.418 -0.3623 -2.0170  2.2979
  203ACOH    H210523   6.846   3.044   5.487 -0.0186 -0.3004 -0.4280
  203ACOH    H310524   6.832   3.040   5.311  1.0926  1.5476 -0.3495
  204ACOH    H410525   4.593   8.085   0.889 -2.2356  0.1437  0.6885
  204ACOH    O210526   4.541   8.051   0.814 -0.4738 -0.0929 -0.4509
  204ACOH    C210527   4.541   8.149   0.725 -0.1710 -0.5798  0.3746
  204ACOH    O110528   4.598   8.253   0.742 -0.3558  0.0204  0.0664
  204ACOH    C110529   4.505   8.098   0.589  0.4390  0.2331  0.3412
  204ACOH    H110530   4.593   8.055   0.542 -0.0836 -1.0968  0.5806
  204ACOH    H210531   4.471   8.183   0.529 -1.3782  0.0770  1.1171
  204ACOH    H310532   4.432   8.018   0.592  0.7184  0.0093  4.0332
  205ACOH    H410533   6.758   5.140   5.473 -0.6905 -0.4404 -2.5074
  205ACOH    O210534   6.686   5.205   5.477  0.2504  0.5321 -0.1166
  205ACOH    C210535   6.744   5.328   5.490  0.2579 -0.8732  0.3641
  205ACOH    O110536   6.860   5.353   5.500 -0.3681  0.9005  0.7861
  205ACOH    C110537   6.643   5.436   5.485  0.3321  0.3630 -0.7386
  205ACOH    H110538   6.690   5.507   5.416  1.6702  0.3151  0.1087
  205ACOH    H210539   6.635   5.477   5.586 -1.1579  1.8641 -1.4414
  205ACOH    H310540   6.548   5.394   5.452  1.1951 -0.8367 -1.7360
  206ACOH    H410541   7.388   3.022   5.046  1.3551  1.4220 -0.2412
  206ACOH    O210542   7.322   3.063   4.988  0.4549  0.0148 -0.2431
  206ACOH    C210543   7.322   3.190   5.008  0.2117 -0.2529  0.3681
  206ACOH    O110544   7.345   3.243   5.115 -0.6392  0.0457 -0.8881
  206ACOH    C110545   7.248   3.269   4.902 -0.3192  0.8462 -0.5581
  206ACOH    H110546   7.167   3.321   4.953 -0.2226 -0.5702  1.1292
  206ACOH    H210547   7.202   3.197   4.835  0.6442 -0.9752  0.6841
  206ACOH    H310548   7.313   3.341   4.852  0.3304  1.1516  0.6903
  207ACOH    H410549   6.576   4.647   0.871 -0.1004 -2.4620  1.4025
  207ACOH    O210550   6.668   4.659   0.900 -0.1581 -0.0312  0.6955
  207ACOH    C210551   6.716   4.759   0.833 -0.5801 -0.5291 -0.4388
  207ACOH    O110552   6.668   4.839   0.754  0.1048 -0.5523  0.6067
  207ACOH    C110553   6.863   4.758   0.854  0.2092  0.0850  0.2333
  207ACOH    H110554   6.904   4.661   0.823 -1.1015 -0.0717 -1.0751
  207ACOH    H210555   6.874   4.762   0.962 -0.3822 -0.3792  0.3138
  207ACOH    H310556   6.917   4.839   0.806 -0.5495 -0.5548 -1.7566
  208ACOH    H410557   7.315   1.397   0.646  1.2300  1.6869 -0.9456
  208ACOH    O210558   7.229   1.429   0.678  0.4367 -0.7494 -0.5558
  208ACOH    C210559   7.144   1.323   0.667  0.1516  0.4882 -0.0599
  208ACOH    O110560   7.171   1.203   0.668  0.1942  0.4858  0.1634
  208ACOH    C110561   7.003   1.365   0.671  0.3503  0.1492 -0.3250
  208ACOH    H110562   7.001   1.473   0.663 -0.9539  0.0010 -2.3735
  208ACOH    H210563   6.945   1.328   0.756  0.8081  1.6776  0.6684
  208ACOH    H310564   6.948   1.327   0.585 -0.0057  0.4440 -0.2291
  209ACOH    H410565   7.439   4.912   0.566 -0.7222  0.0246  0.1200
  209ACOH    O210566   7.431   4.888   0.661 -0.1731 -0.1142  0.1305
  209ACOH    C210567   7.304   4.863   0.686 -0.0860  0.2985  0.0729
  209ACOH    O110568   7.234   4.806   0.606 -0.6543 -0.2850  0.5329
  209ACOH    C110569   7.279   4.859   0.831 -0.4667 -0.3114  0.1089
  209ACOH    H110570   7.359   4.805   0.881 -0.0372 -0.9184 -1.1959
  209ACOH    H210571   7.178   4.820   0.846 -0.3721 -0.5718  0.0773
  209ACOH    H310572   7.285   4.963   0.862  1.4826 -0.5600  0.6256
  210ACOH    H410573   5.274   5.212   0.172  0.0446  1.6349  0.3221
  210ACOH    O210574   5.332   5.220   0.095 -0.0897  0.0788  0.0504
  210ACOH    C210575   5.254   5.173  -0.000 -0.1205 -0.6088  0.1036
  210ACOH    O110576   5.138   5.136   0.002 -1.0395  0.4006 -0.2265
  210ACOH    C110577   5.312   5.205  -0.123  0.3516 -0.0385  1.0041
  210ACOH    H110578   5.419   5.222  -0.122  0.7364 -2.3077  2.2438
  210ACOH    H210579   5.266   5.290  -0.174  0.3323 -0.5600  0.1361
  210ACOH    H310580   5.291   5.118  -0.185 -0.2008 -1.2983  2.9143
  211ACOH    H410581   8.995   4.605   4.259  0.2812  0.0619  0.3671
  211ACOH    O210582   9.055   4.636   4.328  0.2544  0.3963  0.2452
  211ACOH    C210583   9.069   4.546   4.425 -0.6056  0.1993  0.1193
  211ACOH    O110584   8.988   4.457   4.445 -0.2822 -0.1673 -0.1311
  211ACOH    C110585   9.173   4.591   4.522  0.4305  0.3643  1.1191
  211ACOH    H110586   9.213   4.503   4.573 -1.3210 -0.6425  0.8052
  211ACOH    H210587   9.128   4.651   4.600  0.7903  0.0342  1.5799
  211ACOH    H310588   9.258   4.636   4.471  0.2011 -0.8261 -0.3736
  212ACOH    H410589   4.521   3.333   4.833 -1.2772  0.2688  0.0526
  212ACOH    O210590   4.525   3.250   4.783  0.0548  0.2140  0.2355
  212ACOH    C210591   4.441   3.264   4.681 -0.0852 -0.3774  0.1714
  212ACOH    O110592   4.425   3.374   4.634  0.4441 -0.0056  0.1980
  212ACOH    C110593   4.432   3.138   4.603  0.1023 -0.1908  0.5551
  212ACOH    H110594   4.527   3.085   4.603  0.8503  1.0852 -1.8892
  212ACOH    H210595   4.401   3.163   4.502  0.3540  0.6165  0.6693
  212ACOH    H310596   4.351   3.076   4.641  0.3169  0.6381  2.4174
  213ACOH    H410597   6.400   6.776   3.927  1.5957 -0.8211 -2.0939
  213ACOH    O210598   6.316   6.768   3.879  0.0563 -0.0868  0.3368
  213ACOH    C210599   6.317   6.646   3.816  0.2075 -0.3505 -0.2187
  213ACOH    O110600   6.402   6.560   3.834 -0.1298  0.6558 -0.5150
  213ACOH    C110601   6.188   6.631   3.739 -0.3226  0.5778  0.0294
  213ACOH    H110602   6.110   6.688   3.791 -1.1156  0.6405 -1.2054
  213ACOH    H210603   6.158   6.527   3.748 -1.4257  1.0876  2.7625
  213ACOH    H310604   6.197   6.662   3.635 -0.9325 -0.7334 -0.4250
  214ACOH    H410605   5.584   1.854   3.998  1.3905 -1.0412 -0.5569
  214ACOH    O210606   5.626   1.873   4.084  0.1021 -0.0123 -0.1305
  214ACOH    C210607   5.572   1.792   4.183 -0.5994  0.0911  0.3665
  214ACOH    O110608   5.472   1.728   4.161 -0.1534  0.6680  0.2159
  214ACOH    C110609   5.633   1.812   4.322 -0.0354 -0.7317  0.1607
  214ACOH    H110610   5.578   1.756   4.398 -0.3616 -1.1840 -0.4058
  214ACOH    H210611   5.627   1.918   4.346 -1.0783 -0.4258 -1.4094
  214ACOH    H310612   5.737   1.778   4.317  0.4282  0.8300 -1.4035
  215ACOH    H410613   3.066   9.942   5.084  0.8342 -3.0975 -2.0128
  215ACOH    O210614   3.104  10.001   5.017  0.7745 -0.7983 -0.0734
  215ACOH    C210615   3.011  10.023   4.916  0.1894  0.0420  0.1488
  215ACOH    O110616   2.918   9.948   4.889 -0.7022  0.2499 -0.3261
  215ACOH    C110617   3.045  10.144   4.847  0.0643  0.4807  0.0264
  215ACOH    H110618   3.114  10.211   4.898 -0.8049  2.3070 -1.1739
  215ACOH    H210619   2.956  10.197   4.814 -2.0362 -2.1870  1.1630
  215ACOH    H310620   3.105  10.114   4.761  0.1402 -1.6808  0.8040
  216ACOH    H410621   6.851   4.964   0.286  0.8883  0.0535 -2.8193
  216ACOH    O210622   6.780   5.027   0.269 -0.2223 -0.3041  0.1820
  216ACOH    C210623   6.814   5.114   0.172  1.0519 -0.0399 -0.2524
  216ACOH    O110624   6.849   5.080   0.062 -0.2313 -0.5615  0.4228
  216ACOH    C110625   6.751   5.245   0.187  0.3416 -0.1096 -0.1800
  216ACOH    H110626   6.820   5.327   0.169  1.0429 -0.5252  0.6021
  216ACOH    H210627   6.716   5.268   0.288 -0.2938  0.5108 -0.5383
  216ACOH    H310628   6.672   5.250   0.111 -1.4724 -0.2694  1.6357
  217ACOH    H410629   4.056   8.322   2.623 -1.3793 -0.6706 -0.0052
  217ACOH    O210630   4.040   8.382   2.698  0.0809  0.0687 -0.2665
  217ACOH    C210631   4.086   8.503   2.673 -1.3566  0.6994  0.3244
  217ACOH    O110632   4.076   8.563   2.565 -0.2227  0.1270  0.4255
  217ACOH    C110633   4.090   8.596   2.793  0.2772 -0.0163 -0.0081
  217ACOH    H110634   4.016   8.676   2.785 -1.7874 -2.1068 -3.1001
  217ACOH    H210635   4.192   8.625   2.816 -0.0245  0.1206  1.1883
  217ACOH    H310636   4.059   8.537   2.880  2.2794  0.3092  0.9531
  218ACOH    H410637   9.707   1.603   4.451  1.0315  0.4314 -1.8445
  218ACOH    O210638   9.649   1.680   4.441  0.2849  0.0593 -0.4084
  218ACOH    C210639   9.562   1.667   4.550  0.9071 -0.5177  0.5363
  218ACOH    O110640   9.548   1.570   4.626 -0.4029  0.2355  0.3082
  218ACOH    C110641   9.464   1.780   4.547  0.1694  0.7044  0.2511
  218ACOH    H110642   9.413   1.777   4.450 -0.7019 -2.4171  0.7498
  218ACOH    H210643   9.515   1.876   4.557 -0.0963  1.0626 -1.5036
  218ACOH    H310644   9.385   1.772   4.621  1.4520 -1.3721  1.4455
  219ACOH    H410645   5.891   8.107   4.169 -0.6228 -0.5497  0.2027
  219ACOH    O210646   5.898   8.080   4.262 -0.0565  0.2444  0.3938
  219ACOH    C210647   5.770   8.107   4.313 -0.1888 -0.6337 -0.4411
  219ACOH    O110648   5.681   8.170   4.258  0.4515 -0.2653 -0.0416
  219ACOH    C110649   5.775   8.045   4.451 -0.2736 -0.0996 -0.2661
  219ACOH    H110650   5.676   8.027   4.494 -1.1794  2.7527 -1.0460
  219ACOH    H210651   5.841   8.099   4.519  0.5676 -2.1607  0.5716
  219ACOH    H310652   5.810   7.943   4.438 -1.2150 -0.3739 -0.6968
  220ACOH    H410653   9.517   8.867   4.635  2.3442  0.0524 -2.4919
  220ACOH    O210654   9.486   8.780   4.604  0.2339 -0.1848  0.0815
  220ACOH    C210655   9.575   8.695   4.653  0.2374  0.8995 -0.6847
  220ACOH    O110656   9.639   8.707   4.756  0.5159 -0.2709 -0.3026
  220ACOH    C110657   9.561   8.563   4.581 -0.2564  0.3638 -0.6401
  220ACOH    H110658   9.474   8.514   4.625  0.4166 -1.4321 -1.2400
  220ACOH    H210659   9.658   8.517   4.603 -1.4150 -1.0090  1.7371
  220ACOH    H310660   9.549   8.575   4.473  0.5710 -0.8666 -0.8843
  221ACOH    H410661   7.010   2.138   3.739 -1.0962 -0.3296  3.6749
  221ACOH    O210662   6.920   2.168   3.720 -0.3479 -0.0378  0.1350
  221ACOH    C210663   6.931   2.274   3.642  0.1050 -0.3063 -0.3213
  221ACOH    O110664   7.013   2.368   3.647 -0.5323  0.1707  0.5124
  221ACOH    C110665   6.806   2.303   3.586 -0.3621 -0.3666 -0.5113
  221ACOH    H110666   6.745   2.223   3.544 -0.0127 -0.4239 -0.9077
  221ACOH    H210667   6.802   2.391   3.521 -0.3251 -0.6183 -0.8554
  221ACOH    H310668   6.751   2.324   3.677 -2.0306 -0.6849 -1.4144
  222ACOH    H410669   3.772   6.370   0.953  1.3266  0.3459 -1.9120
  222ACOH    O210670   3.842   6.401   1.013  0.0153 -0.4521  0.0922
  222ACOH    C210671   3.946   6.315   1.005  0.1695 -0.3830  0.1114
  222ACOH    O110672   3.928   6.196   1.030  0.3698  0.2170 -0.3206
  222ACOH    C110673   4.073   6.378   1.056 -0.0617  0.2773  0.1101
  222ACOH    H110674   4.088   6.481   1.021 -0.9344  0.0486 -0.9743
  222ACOH    H210675   4.162   6.318   1.040  0.4732  0.5695  1.8577
  222ACOH    H310676   4.062   6.390   1.164  0.7193 -1.9665  0.4462
  223ACOH    H410677   9.834   9.302   0.920  1.2350 -0.1592 -1.4639
  223ACOH    O210678   9.769   9.230   0.920  0.0912  0.8433  0.0649
  223ACOH    C210679   9.784   9.155   1.031  0.7373 -0.3369  0.1024
  223ACOH    O110680   9.862   9.189   1.118  0.5090 -0.5240  0.0863
  223ACOH    C110681   9.696   9.031   1.033 -0.6180 -0.5886  0.0375
  223ACOH    H110682   9.640   9.019   0.940 -1.6281 -2.2601  0.8345
  223ACOH    H210683   9.634   9.034   1.122  1.0913  0.9670  1.2139
  223ACOH    H310684   9.754   8.940   1.048 -0.8688 -0.5617  1.1776
  224ACOH    H410685   5.812   9.330   4.751  1.9361 -1.2238  0.0769
  224ACOH    O210686   5.859   9.406   4.790 -0.2116  0.0772  0.2063
  224ACOH    C210687   5.797   9.524   4.776  0.5285  0.4434 -0.9807
  224ACOH    O110688   5.678   9.529   4.761 -0.2286 -0.6284  0.0056
  224ACOH    C110689   5.882   9.645   4.803 -0.4681  0.6492  0.0479
  224ACOH    H110690   5.928   9.628   4.900 -0.2359 -0.9213 -0.3332
  224ACOH    H210691   5.822   9.735   4.814 -3.5366 -1.3733  0.5463
  224ACOH    H310692   5.955   9.648   4.722 -0.7536  3.3084 -0.1702
  225ACOH    H410693   5.976   6.984   3.399  0.3312 -2.8595  1.0929
  225ACOH    O210694   5.906   7.008   3.462  0.2047  0.4953 -0.1944
  225ACOH    C210695   5.890   6.894   3.530  1.0676  0.5124 -0.0482
  225ACOH    O110696   5.945   6.788   3.508 -0.1523 -0.2876 -0.7334
  225ACOH    C110697   5.776   6.903   3.623  1.1910  0.2255 -0.0634
  225ACOH    H110698   5.828   6.895   3.719 -0.2963 -0.4601  0.6930
  225ACOH    H210699   5.699   6.828   3.608  1.6482 -0.3923  0.6311
  225ACOH    H310700   5.734   7.002   3.603  3.2997  1.4138  1.1242
  226ACOH    H410701   5.455   0.739   0.512  0.0271 -1.4431  0.6430
  226ACOH    O210702   5.407   0.737   0.428  0.0006  0.6544  0.5847
  226ACOH    C210703   5.283   0.710   0.452  0.3924  0.7967 -0.0256
  226ACOH    O110704   5.228   0.686   0.557 -0.1942  0.4854 -0.1918
  226ACOH    C110705   5.204   0.716   0.329  0.0435 -0.5124  0.2452
  226ACOH    H110706   5.201   0.618   0.280  2.5393 -0.5247  0.0601
  226ACOH    H210707   5.249   0.788   0.260  1.1343 -1.1788  0.2616
  226ACOH    H310708   5.102   0.753   0.340  0.0589 -0.1831 -0.6401
  227ACOH    H410709   7.080   7.213   2.708  1.4485  0.8884  2.2963
  227ACOH    O210710   7.060   7.127   2.749 -0.0316 -0.0879 -0.2872
  227ACOH    C210711   7.177   7.059   2.728  0.0761  0.7179  0.2009
  227ACOH    O110712   7.288   7.100   2.743 -0.5597 -0.6808 -0.1187
  227ACOH    C110713   7.151   6.915   2.745 -0.0814  0.8479  0.6116
  227ACOH    H110714   7.052   6.907   2.790 -1.3575  2.3851 -1.8268
  227ACOH    H210715   7.230   6.870   2.806  1.3344  1.3366 -0.8332
  227ACOH    H310716   7.167   6.868   2.648 -0.6694 -1.7995  1.7650
  228ACOH    H410717   7.087   5.675   4.272  0.3418 -0.0908  2.0005
  228ACOH    O210718   7.015   5.628   4.317 -0.4046  0.1245  1.0310
  228ACOH    C210719   7.022   5.505   4.264  0.1892  0.7200  0.2734
  228ACOH    O110720   7.098   5.469   4.176  0.2346 -0.5647 -0.0960
  228ACOH    C110721   6.899   5.441   4.316 -0.4423 -0.1230 -0.4358
  228ACOH    H110722   6.885   5.341   4.274 -0.7631  0.1778 -1.0606
  228ACOH    H210723   6.806   5.496   4.298 -1.7142 -2.0386  0.0789
  228ACOH    H310724   6.910   5.429   4.423  0.1691 -0.3429 -0.5253
  229ACOH    H410725   2.952   1.569   0.124  2.1051 -0.3256  0.7041
  229ACOH    O210726   2.977   1.623   0.048 -0.3833 -0.0659  0.0278
  229ACOH    C210727   2.880   1.627  -0.042  0.0617  0.2111 -0.4115
  229ACOH    O110728   2.774   1.563  -0.032 -0.4750  0.0170  0.0282
  229ACOH    C110729   2.909   1.723  -0.151  0.1677  0.0220  0.3430
  229ACOH    H110730   3.000   1.690  -0.200  0.2398  1.5733 -0.6026
  229ACOH    H210731   2.935   1.819  -0.107 -1.0035  0.9839 -1.0078
  229ACOH    H310732   2.836   1.729  -0.232  0.2683 -2.4828  0.0351
  230ACOH    H410733   1.248   6.304   2.368  0.0158 -1.6574 -1.5198
  230ACOH    O210734   1.181   6.261   2.424  0.4751 -0.2061  0.2237
  230ACOH    C210735   1.180   6.134   2.380 -0.2603 -0.3057  0.1274
  230ACOH    O110736   1.284   6.080   2.336  0.3758 -0.3510 -0.4008
  230ACOH    C110737   1.071   6.062   2.453 -0.5674  0.1625  1.0066
  230ACOH    H110738   0.976   6.111   2.433 -1.0990 -0.4748  1.9054
  230ACOH    H210739   1.089   6.055   2.560 -2.5220 -0.1139  1.3371
  230ACOH    H310740   1.063   5.961   2.412  0.6469 -0.0099  1.1919
  231ACOH    H410741   2.250   1.733   3.302 -1.6920  2.1108  1.7955
  231ACOH    O210742   2.337   1.776   3.308 -0.2499 -0.3605 -0.2758
  231ACOH    C210743   2.338   1.861   3.417  0.1019 -0.0249 -0.2424
  231ACOH    O110744   2.246   1.909   3.474 -0.0025  0.4479  0.1703
  231ACOH    C110745   2.476   1.890   3.461 -0.0224 -0.2249 -0.2274
  231ACOH    H110746   2.535   1.910   3.371 -1.1135 -0.2066 -0.9416
  231ACOH    H210747   2.518   1.803   3.510 -1.1330  0.1608  1.4344
  231ACOH    H310748   2.489   1.976   3.527  3.4849  0.5919 -1.8540
  232ACOH    H410749   0.555   7.153   0.851  1.2890 -0.6320  2.8001
  232ACOH    O210750   0.639   7.144   0.804 -0.1969  0.2551 -0.1605
  232ACOH    C210751   0.725   7.210   0.882  0.6776  0.1907 -0.2432
  232ACOH    O110752   0.708   7.289   0.973 -0.3545 -0.1330 -0.1513
  232ACOH    C110753   0.857   7.191   0.824  0.0138 -0.2190  0.5051
  232ACOH    H110754   0.894   7.088   0.831  2.3478  0.6861  1.6843
  232ACOH    H210755   0.936   7.253   0.864 -0.7412  0.0041  1.6804
  232ACOH    H310756   0.849   7.212   0.717  0.0418  0.5581  0.6553
  233ACOH    H410757   7.002   1.283   0.276 -0.2561 -0.4311  1.6815
  233ACOH    O210758   6.934   1.234   0.226  0.0699  0.6483  0.1628
  233ACOH    C210759   6.930   1.279   0.098  0.1555 -0.8186  0.9541
  233ACOH    O110760   6.966   1.392   0.063  0.4017 -0.2738 -0.3908
  233ACOH    C110761   6.834   1.187   0.024 -0.8272 -0.0530  0.1299
  233ACOH    H110762   6.769   1.143   0.099  0.0083 -1.4829  0.0283
  233ACOH    H210763   6.889   1.111  -0.031 -1.0957 -1.5059  1.8467
  233ACOH    H310764   6.778   1.250  -0.046 -1.5669 -0.5925  0.2414
  234ACOH    H410765   5.336   3.689   2.401 -0.3365 -0.7482 -0.8085
  234ACOH    O210766   5.400   3.648   2.340  0.4838 -0.5656 -0.0903
  234ACOH    C210767   5.363   3.520   2.339 -0.3191 -0.1437  0.0493
  234ACOH    O110768   5.268   3.475   2.399  0.3851  0.5739 -0.1776
  234ACOH    C110769   5.458   3.427   2.269 -0.3935 -0.2851  0.2113
  234ACOH    H110770   5.417   3.421   2.168  2.3174  0.7412 -1.0010
  234ACOH    H210771   5.471   3.330   2.316  3.2221  0.5027  0.9715
  234ACOH    H310772   5.553   3.480   2.267 -0.7694  0.4642  1.6367
  235ACOH    H410773   7.034   8.865   1.593  2.3007 -0.8425 -2.1261
  235ACOH    O210774   7.004   8.773   1.602 -0.2978  0.1544 -0.0708
  235ACOH    C210775   6.881   8.784   1.651 -0.9535  0.1561  0.2260
  235ACOH    O110776   6.809   8.880   1.659  0.4875 -0.1275 -0.2950
  235ACOH    C110777   6.838   8.648   1.687  0.1379 -0.1085  0.1284
  235ACOH    H110778   6.744   8.621   1.639 -0.0192  0.4090  0.1356
  235ACOH    H210779   6.814   8.646   1.793  1.8600 -2.1682  0.4937
  235ACOH    H310780   6.912   8.576   1.653  0.1844 -0.2113  0.4537
  236ACOH    H410781   3.787   3.478   3.190 -1.2786  0.8185 -0.0851
  236ACOH    O210782   3.767   3.474   3.285  0.2083  0.0688  0.2232
  236ACOH    C210783   3.676   3.565   3.307 -0.2483 -0.6167  0.1177
  236ACOH    O110784   3.626   3.654   3.241 -0.1623 -0.1391  0.1798
  236ACOH    C110785   3.646   3.564   3.450 -0.0244 -0.5340  0.0734
  236ACOH    H110786   3.542   3.539   3.467  0.0794 -1.3595 -0.4763
  236ACOH    H210787   3.665   3.661   3.496  0.7443 -0.2396 -0.8490
  236ACOH    H310788   3.705   3.485   3.497  0.1490  0.6787  1.9812
  237ACOH    H410789   5.732   5.288   0.777  0.2864 -0.1569  0.8448
  237ACOH    O210790   5.817   5.243   0.765  0.1587 -0.2034  0.0958
  237ACOH    C210791   5.826   5.141   0.838 -0.0309 -0.4673 -0.2233
  237ACOH    O110792   5.731   5.097   0.903  0.4853  0.1761  0.0422
  237ACOH    C110793   5.952   5.062   0.817  0.5888  0.3373  0.2703
  237ACOH    H110794   5.987   5.099   0.721 -0.5095  3.4340  0.9865
  237ACOH    H210795   5.922   4.958   0.808 -0.5486  0.7386 -0.7133
  237ACOH    H310796   6.023   5.073   0.899 -0.2054 -0.2367  1.0547
  238ACOH    H410797   5.605   7.984   2.276 -0.8354  0.3518 -1.4566
  238ACOH    O210798   5.602   8.078   2.298 -0.2625  0.0990 -0.2667
  238ACOH    C210799   5.585   8.079   2.433  0.1945 -0.4740  0.3694
  238ACOH    O110800   5.541   7.984   2.495  0.4559 -0.1120  0.3351
  238ACOH    C110801   5.550   8.221   2.464 -0.1233  0.3397 -0.2019
  238ACOH    H110802   5.627   8.282   2.417 -2.3284  1.2798 -2.6997
  238ACOH    H210803   5.574   8.239   2.569  0.9721 -0.2799 -0.3362
  238ACOH    H310804   5.449   8.250   2.437 -0.4131 -0.0050  0.4966
  239ACOH    H410805   7.544   6.037   2.744 -0.4952 -0.4020 -1.2323
  239ACOH    O210806   7.505   5.974   2.806  0.3924  0.1229 -0.1371
  239ACOH    C210807   7.520   5.854   2.751 -0.3971  0.3443 -0.6440
  239ACOH    O110808   7.574   5.814   2.651  0.7943 -0.2639  0.1956
  239ACOH    C110809   7.458   5.752   2.835 -0.1605 -0.5602 -0.3538
  239ACOH    H110810   7.464   5.658   2.779 -1.3212  0.8153 -2.8983
  239ACOH    H210811   7.352   5.769   2.856 -0.5163 -0.7972 -1.8388
  239ACOH    H310812   7.525   5.751   2.921 -0.6255  0.4074  0.0254
  240ACOH    H410813   4.627   4.009   3.434 -0.6261 -1.1023 -2.0046
  240ACOH    O210814   4.643   4.099   3.401  0.1025 -0.4186  0.1223
  240ACOH    C210815   4.675   4.085   3.272  0.0694  0.0025 -0.1839
  240ACOH    O110816   4.673   3.990   3.203  0.0119 -0.3123  0.4035
  240ACOH    C110817   4.706   4.218   3.223 -0.1618 -0.4751 -0.1130
  240ACOH    H110818   4.784   4.257   3.288 -1.0113 -0.6662  1.0313
  240ACOH    H210819   4.627   4.291   3.245 -0.7038 -1.4735  1.3137
  240ACOH    H310820   4.732   4.227   3.117  0.9649  2.0730  0.3519
  241ACOH    H410821   9.438   1.892   2.384 -1.8302  0.2518 -2.1783
  241ACOH    O210822   9.421   1.799   2.406  0.6283  0.1138 -0.6300
  241ACOH    C210823   9.453   1.722   2.297  0.7405  0.0249 -0.0717
  241ACOH    O110824   9.509   1.758   2.199 -0.3243 -0.2993  0.6914
  241ACOH    C110825   9.399   1.586   2.308  0.3734 -0.1819  0.1210
  241ACOH    H110826   9.443   1.529   2.390  1.9757 -0.0409 -0.6371
  241ACOH    H210827   9.412   1.530   2.215  0.0078  1.7787 -1.1437
  241ACOH    H310828   9.293   1.591   2.334  0.7882  1.7382  1.5502
  242ACOH    H410829   7.816   2.352   4.133  0.2340  2.3179  0.5658
  242ACOH    O210830   7.764   2.386   4.058 -0.3929 -0.0459 -0.0971
  242ACOH    C210831   7.772   2.518   4.081  0.3801  0.2337  0.3700
  242ACOH    O110832   7.798   2.576   4.188  0.4960 -0.1403  0.3349
  242ACOH    C110833   7.752   2.607   3.961 -0.4203 -0.4595  0.1615
  242ACOH    H110834   7.781   2.545   3.877 -0.4052  0.0286 -0.1972
  242ACOH    H210835   7.803   2.704   3.960 -1.4987  0.1218 -2.1883
  242ACOH    H310836   7.645   2.631   3.959 -0.5501 -1.0590 -0.2640
  243ACOH    H410837   7.456   6.409   3.332  0.6398  1.6856  0.4433
  243ACOH    O210838   7.387   6.436   3.268  0.2864  0.2240  0.1974
  243ACOH    C210839   7.455   6.423   3.152  0.6417  0.1299 -0.1984
  243ACOH    O110840   7.566   6.375   3.129  0.9718  0.4925  0.1457
  243ACOH    C110841   7.370   6.477   3.042  0.3383 -0.0493 -0.1925
  243ACOH    H110842   7.432   6.551   2.993  1.6268  0.1641  1.6901
  243ACOH    H210843   7.276   6.517   3.078  0.9491  0.5103  0.8159
  243ACOH    H310844   7.364   6.394   2.972  0.6944 -0.8306  0.6797
  244ACOH    H410845   5.314   2.616   0.866 -0.6938 -0.1598  1.8075
  244ACOH    O210846   5.390   2.627   0.926  0.6790 -0.6769  0.2232
  244ACOH    C210847   5.336   2.662   1.047  0.4549 -0.4476 -0.1873
  244ACOH    O110848   5.229   2.719   1.069  0.0456  0.2237 -0.0873
  244ACOH    C110849   5.438   2.658   1.155  0.3880  0.0722  0.7561
  244ACOH    H110850   5.410   2.731   1.232 -0.0832  1.2138 -0.4742
  244ACOH    H210851   5.536   2.690   1.119  1.1194 -1.2600  1.5351
  244ACOH    H310852   5.445   2.556   1.193 -0.5280 -1.3079 -2.6023
  245ACOH    H410853   8.184   7.867   1.585 -1.2032  0.7036 -0.3339
  245ACOH    O210854   8.131   7.791   1.556  0.0684 -0.2630 -0.2077
  245ACOH    C210855   8.109   7.697   1.650 -0.8951  0.2869  0.1898
  245ACOH    O110856   8.137   7.701   1.769 -0.0982 -0.1718 -0.3427
  245ACOH    C110857   8.028   7.594   1.584 -0.2441  0.2931 -0.8286
  245ACOH    H110858   7.924   7.622   1.566 -1.7408  0.7294  6.7544
  245ACOH    H210859   8.024   7.502   1.642  1.3109  2.9258  3.7425
  245ACOH    H310860   8.080   7.573   1.491  1.5417 -0.0860  0.2452
  246ACOH    H410861   5.145   4.365   2.429 -1.4351  1.6736 -1.2793
  246ACOH    O210862   5.222   4.425   2.438 -0.3694  0.2087 -0.4166
  246ACOH    C210863   5.214   4.483   2.559  0.4736 -0.1577 -0.2093
  246ACOH    O110864   5.115   4.476   2.631  0.1509 -0.0030  0.9235
  246ACOH    C110865   5.316   4.591   2.559 -0.6338 -0.3744  0.0445
  246ACOH    H110866   5.340   4.603   2.665 -2.4337 -2.3264  0.6973
  246ACOH    H210867   5.274   4.685   2.522  3.3049  1.2482 -0.5759
  246ACOH    H310868   5.406   4.567   2.502 -0.2004  1.5918 -0.1505
  247ACOH    H410869   5.728   7.853   1.657 -2.5265  0.1745 -0.1139
  247ACOH    O210870   5.725   7.757   1.673  0.3549  0.0295 -0.1082
  247ACOH    C210871   5.806   7.724   1.776 -0.8277 -0.1583 -0.0351
  247ACOH    O110872   5.890   7.800   1.823 -0.0214 -0.8237  0.0783
  247ACOH    C110873   5.804   7.578   1.808  0.3118  0.4821  0.3476
  247ACOH    H110874   5.904   7.535   1.798 -0.5154 -0.9915 -2.1566
  247ACOH    H210875   5.743   7.531   1.731  0.1489  0.2348  0.6293
  247ACOH    H310876   5.771   7.561   1.910 -1.5734  0.7846 -0.1834
  248ACOH    H410877   5.610   5.808   1.349 -0.0298 -0.7709  3.4898
  248ACOH    O210878   5.694   5.852   1.369  0.2147  0.3779  0.2414
  248ACOH    C210879   5.696   5.887   1.500 -0.4214 -0.1427 -0.3948
  248ACOH    O110880   5.606   5.872   1.579 -0.0169 -0.0859  0.1946
  248ACOH    C110881   5.834   5.920   1.544  0.1933 -0.2133 -0.2406
  248ACOH    H110882   5.854   5.903   1.650  1.2756 -1.1711 -0.5836
  248ACOH    H210883   5.846   6.026   1.523  0.0957  0.1113  1.3189
  248ACOH    H310884   5.908   5.861   1.489  0.0775 -1.4850  0.9265
  249ACOH    H410885   7.787   5.686   3.311 -2.2768  0.7214  2.1858
  249ACOH    O210886   7.739   5.624   3.255  0.1909  0.7030 -0.0074
  249ACOH    C210887   7.832   5.538   3.198 -0.9265 -0.7375  0.4036
  249ACOH    O110888   7.954   5.544   3.225  1.0288  0.1107 -0.1602
  249ACOH    C110889   7.764   5.419   3.139 -0.4031  0.2180 -0.2003
  249ACOH    H110890   7.832   5.335   3.123 -1.3050 -0.5943  0.1611
  249ACOH    H210891   7.716   5.444   3.045  0.1274  1.8688 -0.0449
  249ACOH    H310892   7.699   5.375   3.214  1.1429 -0.7870  0.5928
  250ACOH    H410893   5.556   9.230   1.107  0.3032 -0.5088 -0.5593
  250ACOH    O210894   5.545   9.318   1.067  0.4705 -0.2460 -0.0293
  250ACOH    C210895   5.413   9.349   1.072  1.0256  0.6081 -1.1745
  250ACOH    O110896   5.317   9.273   1.077  0.0965  0.2694  0.2075
  250ACOH    C110897   5.394   9.490   1.035  0.2952  0.3991  0.1719
  250ACOH    H110898   5.303   9.536   1.075  0.5072  1.7856 -0.8787
  250ACOH    H210899   5.408   9.506   0.928 -1.2482 -2.1614 -0.4659
  250ACOH    H310900   5.474   9.541   1.089  0.3341  0.8080 -0.2686
  251ACOH    H410901   0.307   7.387   5.206  0.4456 -0.4248  0.4443
  251ACOH    O210902   0.338   7.475   5.232  0.2128 -0.2858  0.2520
  251ACOH    C210903   0.264   7.575   5.174  0.1843  0.2671 -1.3762
  251ACOH    O110904   0.154   7.560   5.124 -0.0211  0.8258 -0.4475
  251ACOH    C110905   0.324   7.705   5.217 -0.4186  0.1667 -0.1730
  251ACOH    H110906   0.415   7.730   5.162  0.5378  0.0451  1.3119
  251ACOH    H210907   0.343   7.688   5.323  0.6265 -1.9699 -0.6659
  251ACOH    H310908   0.254   7.786   5.201  1.2210  1.7001  0.2412
  252ACOH    H410909   9.920   7.917   5.343 -2.0964  0.9953 -0.0061
  252ACOH    O210910   9.922   7.928   5.440  0.3350 -0.2204  0.1298
  252ACOH    C210911  10.047   7.941   5.485  0.6140  0.8774  0.4351
  252ACOH    O110912  10.143   7.961   5.415 -0.5597 -0.2409 -0.9214
  252ACOH    C110913  10.039   7.968   5.625  0.3484 -0.0921 -0.1902
  252ACOH    H110914  10.133   7.961   5.679 -0.3693 -1.1079  0.9706
  252ACOH    H210915   9.974   7.896   5.676 -0.5295  1.4550  0.8927
  252ACOH    H310916   9.997   8.067   5.638 -0.4925 -0.2037 -1.8357
  253ACOH    H410917   1.630   4.655   5.623 -0.1689  1.8218  0.7948
  253ACOH    O210918   1.686   4.677   5.547 -0.6662 -0.2252 -0.1776
  253ACOH    C210919   1.773   4.765   5.591  0.0302 -0.2193 -0.1268
  253ACOH    O110920   1.839   4.752   5.691 -0.2957 -0.0019  0.2975
  253ACOH    C110921   1.788   4.882   5.505  0.2474  0.0670 -0.2622
  253ACOH    H110922   1.895   4.890   5.483  0.1969 -0.3891 -0.6746
  253ACOH    H210923   1.756   4.975   5.551  0.1789 -1.5650  3.1500
  253ACOH    H310924   1.728   4.864   5.415 -0.4567 -0.7788  0.3727
  254ACOH    H410925   9.855   4.078   0.313 -3.5591 -3.1178 -0.4739
  254ACOH    O210926   9.847   4.101   0.219  0.1509  0.3779 -0.0587
  254ACOH    C210927   9.754   4.192   0.205  0.3812 -0.2693  0.3761
  254ACOH    O110928   9.732   4.271   0.300 -0.0743 -0.3840  0.1860
  254ACOH    C110929   9.712   4.224   0.070 -0.1667  0.2401 -0.8210
  254ACOH    H110930   9.758   4.318   0.041  0.1630 -0.1791 -1.6581
  254ACOH    H210931   9.605   4.244   0.079  0.0849  1.2453  0.1093
  254ACOH    H310932   9.726   4.151  -0.009 -0.5911 -0.0748 -0.6120
  255ACOH    H410933   9.369   4.163   1.380  0.0436 -0.0170  1.7995
  255ACOH    O210934   9.341   4.088   1.435 -1.0239 -0.5536  0.5606
  255ACOH    C210935   9.208   4.051   1.436 -0.2089  0.0193  0.6909
  255ACOH    O110936   9.174   3.974   1.522  0.3793  0.4534  0.5322
  255ACOH    C110937   9.111   4.144   1.369 -0.0257  0.3251 -1.0232
  255ACOH    H110938   9.146   4.191   1.278  1.7132 -1.6730 -1.4290
  255ACOH    H210939   9.081   4.225   1.437  1.8862 -0.9333  1.3918
  255ACOH    H310940   9.020   4.090   1.345  0.6780 -1.9284  1.2051
  256ACOH    H410941   3.852   7.043   1.602  1.1483 -0.5148 -1.2664
  256ACOH    O210942   3.829   6.954   1.633  0.1188  0.0129 -0.4998
  256ACOH    C210943   3.863   6.867   1.537  0.1973 -1.1227  0.4109
  256ACOH    O110944   3.893   6.891   1.423  0.0977 -0.2777 -0.1433
  256ACOH    C110945   3.820   6.731   1.570 -0.1537  0.0482  0.2748
  256ACOH    H110946   3.879   6.691   1.652 -0.9272  0.0431  0.8372
  256ACOH    H210947   3.830   6.668   1.482  1.1322  0.3078  0.2185
  256ACOH    H310948   3.712   6.735   1.586 -0.8031 -1.4348 -3.3335
  257ACOH    H410949   8.575   7.662   0.682 -1.3358 -1.9621  1.0549
  257ACOH    O210950   8.519   7.739   0.700  0.6585 -0.2664  0.2232
  257ACOH    C210951   8.417   7.745   0.600  0.0474  0.2921 -0.1800
  257ACOH    O110952   8.333   7.835   0.598 -0.0211  0.0570  0.2607
  257ACOH    C110953   8.415   7.630   0.503  0.7248  0.7829  0.5707
  257ACOH    H110954   8.312   7.609   0.476  1.8541 -0.7623 -2.8434
  257ACOH    H210955   8.454   7.539   0.549 -1.2920  0.1323  1.0242
  257ACOH    H310956   8.458   7.663   0.408 -1.7399 -0.7963 -1.1693
  258ACOH    H410957   5.086   3.914   3.105 -1.2937  1.9114 -1.1861
  258ACOH    O210958   5.151   3.909   3.034 -0.1859  0.3536 -0.0977
  258ACOH    C210959   5.135   3.786   2.986  0.3223 -0.3060 -0.6702
  258ACOH    O110960   5.064   3.703   3.037 -0.3298 -0.0184 -0.2564
  258ACOH    C110961   5.228   3.760   2.869 -0.0230  0.0396 -0.4281
  258ACOH    H110962   5.278   3.663   2.875 -1.7637 -0.9247 -1.3591
  258ACOH    H210963   5.298   3.842   2.852  0.9386 -0.0257  2.9288
  258ACOH    H310964   5.172   3.754   2.776  1.0238 -1.7967 -0.9814
  259ACOH    H410965   7.842   6.131   5.423  0.0573 -0.0284 -0.2311
  259ACOH    O210966   7.779   6.178   5.367 -0.5554 -0.2086  0.2999
  259ACOH    C210967   7.697   6.246   5.454 -0.5882  0.5910 -0.0675
  259ACOH    O110968   7.704   6.242   5.574  0.1387  0.3640 -0.4838
  259ACOH    C110969   7.585   6.312   5.380  0.1702  0.4795  0.5250
  259ACOH    H110970   7.530   6.227   5.339 -2.4223 -0.1546  4.9992
  259ACOH    H210971   7.627   6.383   5.309  0.7487  0.0071  0.3935
  259ACOH    H310972   7.518   6.364   5.449 -1.2359 -0.5471 -0.0370
  260ACOH    H410973   5.337   7.547   1.680  0.3649 -1.5991  0.8533
  260ACOH    O210974   5.270   7.493   1.634 -0.1360 -0.2298 -0.0679
  260ACOH    C210975   5.167   7.582   1.632  0.1825  0.1686  0.0879
  260ACOH    O110976   5.131   7.647   1.727  0.0791  0.3669 -0.6170
  260ACOH    C110977   5.075   7.551   1.518  0.3232  0.1912 -0.0866
  260ACOH    H110978   5.134   7.491   1.448  0.6538  0.4982 -0.0731
  260ACOH    H210979   5.047   7.647   1.474 -0.6742  0.2337  0.6479
  260ACOH    H310980   4.987   7.499   1.555  0.3770 -0.0028 -0.2335
  261ACOH    H410981   3.926   5.179   1.308  1.1766  0.4579 -1.8659
  261ACOH    O210982   3.988   5.105   1.294  0.5799 -0.3493 -0.2993
  261ACOH    C210983   4.106   5.155   1.327 -0.4884  0.2547  0.1930
  261ACOH    O110984   4.127   5.273   1.349  0.8610  0.2440 -0.1008
  261ACOH    C110985   4.215   5.058   1.319 -0.6639  0.4270  0.2659
  261ACOH    H110986   4.168   4.969   1.361 -0.9442  0.2999 -0.3123
  261ACOH    H210987   4.288   5.086   1.395 -0.0432  0.5754 -0.3749
  261ACOH    H310988   4.260   5.049   1.221  0.8244 -1.3646  1.0883
  262ACOH    H410989   4.601   8.760   0.905 -1.5010 -1.0074  1.6389
  262ACOH    O210990   4.650   8.687   0.865 -0.3374  0.6281  0.0107
  262ACOH    C210991   4.751   8.653   0.936  0.1403 -0.2864  0.0045
  262ACOH    O110992   4.771   8.705   1.044  0.3875 -0.2283 -0.6275
  262ACOH    C110993   4.833   8.548   0.875  0.4041 -0.1853 -0.1236
  262ACOH    H110994   4.898   8.501   0.949  0.8286 -0.4706 -0.6741
  262ACOH    H210995   4.885   8.589   0.789  0.6433  0.1712  0.1894
  262ACOH    H310996   4.765   8.472   0.836 -1.0222  1.5573 -1.1282
  263ACOH    H410997   7.508   3.345   1.422 -0.1296  0.0900  1.0453
  263ACOH    O210998   7.422   3.300   1.431 -0.3269  0.2754  0.1707
  263ACOH    C210999   7.411   3.277   1.561  0.4579  0.6353 -0.3081
  263ACOH    O111000   7.495   3.296   1.647 -0.6039 -0.1684  0.1128
  263ACOH    C111001   7.272   3.236   1.599  0.0009  0.4492  0.2387
  263ACOH    H111002   7.204   3.266   1.520  1.1735 -1.8090 -1.6953
  263ACOH    H211003   7.235   3.292   1.684  1.0002 -1.8401  2.2273
  263ACOH    H311004   7.268   3.130   1.623 -1.3428  0.4602  0.0685
  264ACOH    H411005   8.015   9.000   5.630 -1.1544 -0.3692 -1.1335
  264ACOH    O211006   7.947   9.056   5.670 -0.2882 -0.0952  0.0062
  264ACOH    C211007   7.830   9.010   5.614  0.5398  0.1547 -0.0540
  264ACOH    O111008   7.822   8.929   5.527  0.5973  0.0790 -0.0680
  264ACOH    C111009   7.717   9.074   5.682  0.2537  0.2086  0.5823
  264ACOH    H111010   7.665   9.135   5.609  1.2663  0.4580  0.0578
  264ACOH    H211011   7.734   9.130   5.774 -1.2211 -1.3904  1.8675
  264ACOH    H311012   7.642   8.997   5.700 -1.0836  1.0689 -1.1777
  265ACOH    H411013   5.097   6.484   2.525  0.7628  0.0857  0.5565
  265ACOH    O211014   5.159   6.494   2.450  0.0403  0.1268 -0.0451
  265ACOH    C211015   5.227   6.607   2.482 -0.0260  0.8737  0.5722
  265ACOH    O111016   5.204   6.669   2.583 -0.0057  0.0717 -0.8510
  265ACOH    C111017   5.356   6.628   2.414  0.8173 -0.7527 -0.4337
  265ACOH    H111018   5.365   6.551   2.337  1.9898 -0.3208 -0.7276
  265ACOH    H211019   5.433   6.617   2.490  0.2864  0.7199  0.3260
  265ACOH    H311020   5.361   6.724   2.363  1.9260  0.6808  2.3008
  266ACOH    H411021   5.287   4.803   2.307 -1.6573  0.7296 -1.6044
  266ACOH    O211022   5.348   4.878   2.303  0.1156 -0.5446  0.4241
  266ACOH    C211023   5.269   4.970   2.248  0.5155 -0.8787  0.3761
  266ACOH    O111024   5.145   4.986   2.259 -0.5301 -0.1587  0.1645
  266ACOH    C111025   5.345   5.092   2.197  0.2137  0.0476  0.5681
  266ACOH    H111026   5.389   5.128   2.291  1.0588  1.3523 -0.3137
  266ACOH    H211027   5.274   5.168   2.164  0.8838  0.7849  0.8133
  266ACOH    H311028   5.431   5.066   2.136  0.6290  0.4370  0.9846
  267ACOH    H411029   4.445   3.564   3.468 -1.1305 -2.5366 -0.9590
  267ACOH    O211030   4.418   3.539   3.558  0.1376 -0.2471  0.0888
  267ACOH    C211031   4.492   3.433   3.580  0.0602  0.9562  0.2041
  267ACOH    O111032   4.595   3.394   3.530 -0.3980 -0.6200  0.0765
  267ACOH    C111033   4.462   3.376   3.707  0.4920  0.8339 -0.0775
  267ACOH    H111034   4.497   3.434   3.793 -1.4144 -0.2123  1.4342
  267ACOH    H211035   4.510   3.279   3.719 -0.9601  0.2512  1.1681
  267ACOH    H311036   4.355   3.361   3.721  0.9335 -1.8318  0.6406
  268ACOH    H411037   4.727   2.194   3.444  1.6697  1.3237 -0.2445
  268ACOH    O211038   4.768   2.138   3.376 -0.0290  0.3113 -0.4439
  268ACOH    C211039   4.783   2.018   3.422 -0.3253 -0.3695  0.3436
  268ACOH    O111040   4.719   1.970   3.516 -0.0660  0.9366 -0.6530
  268ACOH    C111041   4.851   1.948   3.312  0.0253 -0.5504  0.2027
  268ACOH    H111042   4.824   1.842   3.310  2.3790 -1.2318 -4.3409
  268ACOH    H211043   4.956   1.944   3.341 -0.0710 -1.1170  0.4861
  268ACOH    H311044   4.845   1.995   3.214  2.3806  0.5892  0.5636
  269ACOH    H411045   8.388   0.247   1.886 -0.7024  0.8038  0.2728
  269ACOH    O211046   8.321   0.222   1.952  0.2828 -0.5187  0.8203
  269ACOH    C211047   8.228   0.323   1.950 -0.0661  0.4432 -0.4227
  269ACOH    O111048   8.233   0.424   1.879 -0.2000 -0.1267 -0.3524
  269ACOH    C111049   8.120   0.293   2.048 -0.3247  0.1024 -0.1886
  269ACOH    H111050   8.142   0.210   2.115 -1.3913 -0.0835 -0.0530
  269ACOH    H211051   8.022   0.276   2.003 -0.5226 -1.9789  0.9614
  269ACOH    H311052   8.120   0.381   2.112  1.4410  0.0271 -0.0628
  270ACOH    H411053   6.435   4.596   0.723  2.0468 -1.2116  0.9425
  270ACOH    O211054   6.420   4.648   0.805 -0.1308 -0.5276  0.1472
  270ACOH    C211055   6.302   4.712   0.805  0.2234  0.5297  0.0448
  270ACOH    O111056   6.219   4.708   0.718 -0.4625 -0.3546  0.0913
  270ACOH    C111057   6.298   4.814   0.915 -0.7875 -0.2231 -0.2532
  270ACOH    H111058   6.223   4.783   0.988 -1.0223  0.7894 -0.0582
  270ACOH    H211059   6.280   4.914   0.876  0.3037  0.2039  0.3266
  270ACOH    H311060   6.394   4.816   0.966 -0.3491  2.5314 -1.1077
  271ACOH    H411061   2.041   9.715   5.273 -1.0267 -0.8606  0.9000
  271ACOH    O211062   1.970   9.780   5.257  0.4137  0.5635  0.1896
  271ACOH    C211063   1.862   9.710   5.233  0.2986 -0.4198  0.2548
  271ACOH    O111064   1.862   9.608   5.169 -0.2084 -0.4696  0.3834
  271ACOH    C111065   1.734   9.769   5.279  0.7739  0.1524 -0.1694
  271ACOH    H111066   1.656   9.693   5.283  0.9542 -0.0162  0.1018
  271ACOH    H211067   1.699   9.841   5.204  2.9384 -0.4505 -1.8295
  271ACOH    H311068   1.730   9.814   5.378 -1.7804  0.4198 -0.3608
  272ACOH    H411069   9.865   2.259   1.279  0.3716  0.3323  0.1564
  272ACOH    O211070   9.887   2.334   1.337  0.3260 -0.0223  0.6365
  272ACOH    C211071   9.846   2.441   1.259  0.2807  0.3894  0.1903
  272ACOH    O111072   9.795   2.434   1.146  0.5593 -0.2633 -0.7949
  272ACOH    C111073   9.873   2.572   1.323  0.2590  0.1431  0.2113
  272ACOH    H111074   9.789   2.600   1.387  0.2818 -0.2642  0.4171
  272ACOH    H211075   9.867   2.650   1.247 -2.2979 -1.1768 -1.0139
  272ACOH    H311076   9.969   2.574   1.376  0.5021  1.4385 -0.2579
  273ACOH    H411077   9.009   2.391   0.664 -0.3374 -0.5517 -2.6913
  273ACOH    O211078   9.093   2.439   0.652 -0.0116 -0.2921  0.1472
  273ACOH    C211079   9.198   2.378   0.714 -0.1522  0.1247 -0.4829
  273ACOH    O111080   9.297   2.443   0.740  0.0153  0.0837 -0.3599
  273ACOH    C111081   9.174   2.249   0.780 -0.0751 -0.4372  0.7761
  273ACOH    H111082   9.147   2.269   0.884  0.9041  1.1101  0.7543
  273ACOH    H211083   9.264   2.188   0.785  1.3817  1.5635 -0.4040
  273ACOH    H311084   9.089   2.209   0.725  0.0926 -1.1311  1.0262
  274ACOH    H411085   7.507   3.243   2.092 -1.1347  0.1434 -1.2026
  274ACOH    O211086   7.455   3.162   2.103  0.0430 -0.4127  0.3330
  274ACOH    C211087   7.392   3.153   2.223 -0.4665  0.3154  0.4651
  274ACOH    O111088   7.444   3.181   2.331 -0.3376  0.6924  0.7401
  274ACOH    C111089   7.280   3.055   2.205 -0.7343  0.1014 -0.4661
  274ACOH    H111090   7.232   3.075   2.109 -1.4393 -0.5627 -0.2532
  274ACOH    H211091   7.204   3.054   2.283 -2.3692 -0.8657 -2.0361
  274ACOH    H311092   7.329   2.957   2.209  1.0445  0.9661 -0.6573
  275ACOH    H411093   5.225   8.699   5.489  0.3256  1.1117  0.1480
  275ACOH    O211094   5.277   8.716   5.568  0.6503 -0.2980  0.2488
  275ACOH    C211095   5.244   8.621   5.660 -0.8142 -0.0997  0.2513
  275ACOH    O111096   5.151   8.545   5.648 -0.2984 -0.3510  0.1209
  275ACOH    C111097   5.316   8.629   5.789  0.6114 -0.4420  0.3268
  275ACOH    H111098   5.420   8.642   5.759  0.0683  0.5210 -1.2245
  275ACOH    H211099   5.306   8.532   5.837 -1.2335 -0.4920 -0.1373
  275ACOH    H311100   5.279   8.710   5.851 -1.7559 -0.9913 -0.3046
  276ACOH    H411101   3.939   5.324   3.871  1.3383 -1.2915  0.0771
  276ACOH    O211102   3.969   5.327   3.779  0.0484  0.1606 -0.3068
  276ACOH    C211103   4.013   5.206   3.727 -0.0749 -0.0219  0.3398
  276ACOH    O111104   4.016   5.103   3.790  0.1027 -0.6733 -0.1363
  276ACOH    C111105   4.024   5.216   3.575 -0.2437  0.0073  0.3240
  276ACOH    H111106   4.040   5.323   3.566 -1.5494  0.1547 -0.2794
  276ACOH    H211107   3.924   5.201   3.533  0.5142  1.4038 -2.0870
  276ACOH    H311108   4.095   5.145   3.532 -0.3574  0.1653 -0.1260
  277ACOH    H411109   8.442   0.729   2.829  0.0562 -0.7375  0.4646
  277ACOH    O211110   8.491   0.708   2.748  0.4373  0.1694  0.4592
  277ACOH    C211111   8.440   0.783   2.645 -0.2285 -0.1267  0.3060
  277ACOH    O111112   8.362   0.876   2.650  0.2249  0.0573  0.2056
  277ACOH    C111113   8.492   0.735   2.516 -0.3641 -0.3858 -0.2347
  277ACOH    H111114   8.405   0.706   2.457 -1.0170 -0.8846  0.9565
  277ACOH    H211115   8.552   0.647   2.537 -2.0837 -0.8476  2.9493
  277ACOH    H311116   8.544   0.816   2.464 -0.0341  0.4425  1.3743
  278ACOH    H411117   3.356   9.416   3.582  0.2508 -0.5664 -1.1179
  278ACOH    O211118   3.265   9.393   3.556 -0.3038  0.2166  0.0634
  278ACOH    C211119   3.282   9.298   3.460 -0.3304  0.3819  0.5044
  278ACOH    O111120   3.381   9.232   3.429 -0.2397  0.1361 -1.0963
  278ACOH    C111121   3.163   9.274   3.374  0.1791 -0.3610 -0.3545
  278ACOH    H111122   3.072   9.326   3.404  1.4185  1.3066  0.6116
  278ACOH    H211123   3.142   9.168   3.359  3.5839 -1.0719 -0.5854
  278ACOH    H311124   3.185   9.314   3.275 -0.3236  2.6640  0.7014
  279ACOH    H411125   6.974   1.763   3.594 -0.2761  0.8682 -0.9209
  279ACOH    O211126   6.903   1.793   3.653 -0.0015 -0.0034 -0.1267
  279ACOH    C211127   6.832   1.881   3.578  0.8549 -0.5067 -0.5346
  279ACOH    O111128   6.849   1.916   3.464  0.0535 -0.3108  0.0886
  279ACOH    C111129   6.713   1.928   3.655 -0.3894 -0.2382  0.4735
  279ACOH    H111130   6.696   1.877   3.749 -1.1657  0.6242  0.8134
  279ACOH    H211131   6.627   1.918   3.587  0.0616  0.5985 -0.2294
  279ACOH    H311132   6.719   2.035   3.674  1.7977  0.0530 -1.6845
  280ACOH    H411133   5.495   4.936   0.960  0.6136  1.3479  0.5484
  280ACOH    O211134   5.522   4.911   1.050 -0.3293 -0.1104  0.4454
  280ACOH    C211135   5.575   4.782   1.050  0.3516 -0.1752 -1.1698
  280ACOH    O111136   5.592   4.705   0.953  0.1239  0.1005 -0.0994
  280ACOH    C111137   5.630   4.743   1.178 -0.1490 -0.3956 -0.5229
  280ACOH    H111138   5.568   4.773   1.263  0.8924 -0.5795  0.3100
  280ACOH    H211139   5.725   4.797   1.176 -0.8556  0.9034 -0.0485
  280ACOH    H311140   5.653   4.637   1.179 -0.0507 -0.3905 -1.4741
  281ACOH    H411141   6.569   2.165   2.948  0.0325  0.6883  0.1761
  281ACOH    O211142   6.610   2.171   2.860 -0.2799 -0.1487 -0.0249
  281ACOH    C211143   6.709   2.260   2.870 -0.8891 -0.8325 -0.2317
  281ACOH    O111144   6.741   2.313   2.975  0.0645 -0.0374  0.1084
  281ACOH    C111145   6.766   2.288   2.737  0.0236  0.0502 -0.2238
  281ACOH    H111146   6.850   2.357   2.746 -1.5262  1.6715  2.6625
  281ACOH    H211147   6.697   2.329   2.663 -0.6360  0.6618  0.7126
  281ACOH    H311148   6.806   2.196   2.697 -1.1318 -0.5452 -0.0424
  282ACOH    H411149   1.922   4.470   3.657 -2.1384 -1.9335  1.0074
  282ACOH    O211150   1.935   4.502   3.748  0.0998 -0.3966  0.2024
  282ACOH    C211151   1.821   4.573   3.767 -0.0145  0.0009  0.1139
  282ACOH    O111152   1.729   4.583   3.692  0.3396 -0.4418 -0.1744
  282ACOH    C111153   1.812   4.624   3.904  0.0550 -0.1179 -0.0102
  282ACOH    H111154   1.910   4.666   3.925  0.0239  0.4856 -1.0204
  282ACOH    H211155   1.798   4.534   3.963 -0.6739 -0.3632 -0.5541
  282ACOH    H311156   1.729   4.693   3.919  0.3527 -0.0925  1.5802
  283ACOH    H411157   3.394   6.564   0.180  0.1726 -1.1370  1.1680
  283ACOH    O211158   3.478   6.526   0.147  0.2502 -0.4392  0.5525
  283ACOH    C211159   3.507   6.407   0.194  0.5879  0.3346 -0.1639
  283ACOH    O111160   3.441   6.350   0.281  0.1955 -0.2382  0.5240
  283ACOH    C111161   3.623   6.357   0.120 -0.5237 -0.6664  0.0413
  283ACOH    H111162   3.695   6.439   0.126 -0.2045 -0.8005 -1.7347
  283ACOH    H211163   3.597   6.343   0.015  1.1056  1.6374 -0.7097
  283ACOH    H311164   3.664   6.270   0.170  0.1120 -0.2435  0.2554
  284ACOH    H411165   6.743   4.331   5.272 -1.8621 -2.1433  0.9554
  284ACOH    O211166   6.673   4.352   5.208 -0.2065  0.2347 -0.1446
  284ACOH    C211167   6.582   4.421   5.272  0.8632  0.1964  0.4348
  284ACOH    O111168   6.579   4.464   5.387 -0.1832  0.4176 -0.1869
  284ACOH    C111169   6.478   4.465   5.170  0.1417  0.1634 -0.0806
  284ACOH    H111170   6.531   4.545   5.118 -0.7555 -0.1660 -1.5386
  284ACOH    H211171   6.387   4.500   5.219 -0.7910 -0.1541 -1.5780
  284ACOH    H311172   6.459   4.383   5.101 -2.8618  1.2160 -0.5608
  285ACOH    H411173   7.679   7.501   4.924 -0.1708 -0.0046  0.2373
  285ACOH    O211174   7.585   7.506   4.949 -0.2370  0.5156 -0.1108
  285ACOH    C211175   7.525   7.554   4.838 -0.2283  0.4225  0.1970
  285ACOH    O111176   7.579   7.578   4.732 -0.0548 -0.5021 -0.0080
  285ACOH    C111177   7.379   7.578   4.858  0.0084 -0.3803 -0.2451
  285ACOH    H111178   7.352   7.652   4.933 -1.2250 -1.9298  0.8915
  285ACOH    H211179   7.342   7.482   4.896 -2.7247  0.4989 -0.5666
  285ACOH    H311180   7.327   7.593   4.763 -1.7818  1.9179  1.0378
  286ACOH    H411181   0.334   0.609   1.313  0.4192  2.2860  0.1969
  286ACOH    O211182   0.259   0.605   1.374  0.4032  0.2486  0.0991
  286ACOH    C211183   0.239   0.738   1.397  0.0777 -0.2606  0.3538
  286ACOH    O111184   0.296   0.830   1.344 -0.6300  0.3849 -0.0920
  286ACOH    C111185   0.109   0.772   1.457  0.0898 -0.0415  0.2925
  286ACOH    H111186   0.022   0.722   1.414  0.2063  1.1590 -1.3970
  286ACOH    H211187   0.084   0.877   1.441 -2.5349 -0.5468  0.8147
  286ACOH    H311188   0.106   0.754   1.565  2.1529  1.2026  0.5751
  287ACOH    H411189   3.556   5.641   2.368  0.0404 -1.4099  0.5412
  287ACOH    O211190   3.566   5.685   2.453 -0.1664 -0.0257 -0.1422
  287ACOH    C211191   3.694   5.718   2.460 -0.2185  0.6969  0.1059
  287ACOH    O111192   3.789   5.693   2.391 -0.0891  0.2256  0.4041
  287ACOH    C111193   3.715   5.808   2.575  0.0919  0.0141 -0.2854
  287ACOH    H111194   3.812   5.858   2.575 -0.4248  1.0232 -0.4895
  287ACOH    H211195   3.696   5.750   2.665  1.3686 -1.2862 -0.8301
  287ACOH    H311196   3.634   5.881   2.566 -1.0399 -1.0083  1.2778
  288ACOH    H411197   5.720   3.855   0.779  1.5206  1.3649  0.1253
  288ACOH    O211198   5.765   3.799   0.845 -0.3622 -0.2858  0.0530
  288ACOH    C211199   5.717   3.824   0.966 -0.3628  0.4780 -0.1054
  288ACOH    O111200   5.602   3.839   1.001 -0.1746  0.2297  1.4026
  288ACOH    C111201   5.828   3.790   1.065 -0.2322  0.0054  0.5012
  288ACOH    H111202   5.830   3.682   1.081 -0.4873 -0.1909 -0.7574
  288ACOH    H211203   5.818   3.846   1.158 -0.2268  2.2025 -0.7654
  288ACOH    H311204   5.919   3.829   1.019 -1.1030  1.5234 -0.0010
  289ACOH    H411205   2.518   8.536   1.985 -1.0658  0.2250 -0.2463
  289ACOH    O211206   2.587   8.556   1.920 -0.6325 -0.1907  0.0863
  289ACOH    C211207   2.697   8.584   1.991  0.3851  0.2080  0.0183
  289ACOH    O111208   2.691   8.622   2.110  0.3377 -0.1003  0.0953
  289ACOH    C111209   2.815   8.593   1.901  0.5506  0.2683  0.4206
  289ACOH    H111210   2.901   8.617   1.963 -0.2560  0.9607  1.2853
  289ACOH    H211211   2.790   8.669   1.827 -0.5961 -0.9796 -0.5145
  289ACOH    H311212   2.835   8.495   1.856  0.9051  0.2157  0.6937
  290ACOH    H411213   4.452   7.651   4.281 -0.2953 -0.7292 -1.4972
  290ACOH    O211214   4.488   7.574   4.328 -0.4860 -0.1055 -0.2902
  290ACOH    C211215   4.479   7.588   4.461  0.1951 -0.3124 -0.0896
  290ACOH    O111216   4.450   7.692   4.520  0.2514 -0.2119  0.6182
  290ACOH    C111217   4.544   7.472   4.528 -0.2575 -0.4900  0.2060
  290ACOH    H111218   4.547   7.496   4.635 -0.3422  2.9306 -0.5108
  290ACOH    H211219   4.642   7.465   4.483 -0.8944  2.6248 -1.8020
  290ACOH    H311220   4.495   7.375   4.514  0.2448 -0.7110 -0.0042
  291ACOH    H411221   8.166   5.636   1.815 -2.2195 -0.4035 -1.1194
  291ACOH    O211222   8.159   5.543   1.842  0.3282 -0.2357  0.3455
  291ACOH    C211223   8.266   5.515   1.914  0.2086 -0.7915  0.0024
  291ACOH    O111224   8.332   5.597   1.975 -0.0004  0.1854 -0.8164
  291ACOH    C111225   8.254   5.375   1.958  0.3307 -0.4719 -0.2473
  291ACOH    H111226   8.296   5.362   2.058  1.9994  0.6762 -0.7684
  291ACOH    H211227   8.306   5.317   1.882  1.8976  0.5821  0.0068
  291ACOH    H311228   8.151   5.339   1.957 -0.3326  1.4223 -2.0840
  292ACOH    H411229   5.224   2.419   1.577  1.1890 -0.7763 -0.4274
  292ACOH    O211230   5.220   2.323   1.564 -0.0386 -0.7341 -0.3472
  292ACOH    C211231   5.290   2.271   1.667  0.9159 -0.1494 -0.6921
  292ACOH    O111232   5.307   2.327   1.772  0.3427  0.2296  0.3142
  292ACOH    C111233   5.344   2.131   1.654  0.0893 -0.3618  0.3703
  292ACOH    H111234   5.419   2.110   1.730  0.0816 -1.0498  0.1852
  292ACOH    H211235   5.381   2.110   1.554  0.7541 -1.2678  0.8005
  292ACOH    H311236   5.272   2.052   1.677  0.2180 -0.2965  1.0186
  293ACOH    H411237   7.919   3.738   2.671 -2.5012 -1.0013 -1.0643
  293ACOH    O211238   7.960   3.755   2.584  0.4530 -0.2845  0.4138
  293ACOH    C211239   8.027   3.647   2.545 -0.0163  0.5599 -0.9554
  293ACOH    O111240   8.027   3.547   2.613  0.4116  0.7806  0.0154
  293ACOH    C111241   8.100   3.676   2.421 -0.2657  0.1260  0.2617
  293ACOH    H111242   8.154   3.770   2.425 -1.4597  0.8107  0.4970
  293ACOH    H211243   8.021   3.696   2.349 -0.0794  0.0528  0.0369
  293ACOH    H311244   8.163   3.592   2.392 -0.7809 -0.1727  0.0007
  294ACOH    H411245   5.076   3.789   2.053 -0.0881 -1.2807  0.0690
  294ACOH    O211246   5.048   3.837   1.973  0.5448 -0.1598  0.5188
  294ACOH    C211247   5.112   3.958   1.975 -0.6455 -0.7934  0.1302
  294ACOH    O111248   5.166   4.006   2.071  0.0189 -0.6111 -0.6474
  294ACOH    C111249   5.067   4.046   1.865 -0.1007  0.2623 -0.2293
  294ACOH    H111250   5.008   3.995   1.789  0.6932 -1.7085  0.4603
  294ACOH    H211251   5.149   4.102   1.818  0.2687  0.7284  0.9320
  294ACOH    H311252   5.008   4.119   1.922  0.4023 -0.9341  1.8673
  295ACOH    H411253   4.512   7.100   1.464  1.2104 -0.7891 -1.9386
  295ACOH    O211254   4.582   7.167   1.468  0.7380 -0.3689  0.2033
  295ACOH    C211255   4.542   7.281   1.408 -0.0279 -0.9288 -0.1649
  295ACOH    O111256   4.434   7.299   1.349 -0.1850 -0.0570  0.0383
  295ACOH    C111257   4.653   7.376   1.403 -0.1375  0.0239  0.4482
  295ACOH    H111258   4.633   7.477   1.439  1.2656  0.6064 -0.3598
  295ACOH    H211259   4.684   7.378   1.299  0.9097 -1.1264  0.7157
  295ACOH    H311260   4.739   7.335   1.457 -1.0223 -0.2685  1.6560
  296ACOH    H411261   7.953   5.098   0.888  1.7616 -1.9030 -1.3609
  296ACOH    O211262   7.963   5.065   0.979 -0.4755  0.1934 -0.3135
  296ACOH    C211263   8.009   4.941   0.954 -0.3041 -0.2547  0.1596
  296ACOH    O111264   8.059   4.896   0.851  0.2290  0.0301  0.7614
  296ACOH    C111265   8.008   4.858   1.077  0.0555 -0.2341  0.1832
  296ACOH    H111266   8.006   4.753   1.048  2.0442 -0.3511  0.4052
  296ACOH    H211267   7.910   4.878   1.122 -0.7185 -2.3381 -0.5404
  296ACOH    H311268   8.086   4.883   1.149 -2.0715  1.6127  1.9447
  297ACOH    H411269   5.060   7.519   3.700  0.8361  0.2515  1.8030
  297ACOH    O211270   5.097   7.434   3.669 -0.2794  0.1998  0.5612
  297ACOH    C211271   5.210   7.406   3.743 -0.2617 -0.2488 -0.1018
  297ACOH    O111272   5.263   7.470   3.828 -0.1903  0.5320  1.0070
  297ACOH    C111273   5.265   7.278   3.708 -0.4386 -0.0979 -0.1556
  297ACOH    H111274   5.187   7.203   3.720 -0.2896 -0.1755  0.3552
  297ACOH    H211275   5.355   7.246   3.761  0.0583 -0.8828 -1.4455
  297ACOH    H311276   5.292   7.274   3.603  2.0801 -1.5699  0.5128
  298ACOH    H411277   5.145   4.134   3.489 -1.4620 -2.5671  0.1683
  298ACOH    O211278   5.173   4.112   3.398 -0.3391  0.2400 -0.2026
  298ACOH    C211279   5.309   4.113   3.397  0.6627  0.0695 -0.8356
  298ACOH    O111280   5.373   4.159   3.490 -0.7788 -0.1553 -0.4862
  298ACOH    C111281   5.365   4.082   3.266 -0.0221  0.2706  0.2892
  298ACOH    H111282   5.469   4.049   3.275 -0.8233 -1.9812  1.6730
  298ACOH    H211283   5.369   4.176   3.210 -1.8927 -1.0771 -2.1339
  298ACOH    H311284   5.300   4.006   3.224 -0.4852  1.2908 -0.8943
  299ACOH    H411285   3.651   8.598   2.744  1.8862  0.7209 -0.0496
  299ACOH    O211286   3.663   8.528   2.678 -0.9846  0.4617 -0.3642
  299ACOH    C211287   3.570   8.429   2.695  0.0668  0.3188  0.1986
  299ACOH    O111288   3.490   8.425   2.790 -0.0073  0.5186 -0.5289
  299ACOH    C111289   3.577   8.328   2.589 -0.1526  0.4643  0.6471
  299ACOH    H111290   3.677   8.283   2.590 -0.0092  0.7572 -0.0623
  299ACOH    H211291   3.579   8.373   2.490  0.2795 -0.8197  0.0636
  299ACOH    H311292   3.504   8.248   2.594  1.1327 -0.6554  1.9364
  300ACOH    H411293   4.764   4.720   2.667 -1.2673  1.4469  2.4762
  300ACOH    O211294   4.855   4.720   2.701 -0.1485 -0.9222 -0.3139
  300ACOH    C211295   4.897   4.842   2.673  0.5161  0.4161 -0.6930
  300ACOH    O111296   4.848   4.925   2.598 -0.6829 -0.9750  0.1021
  300ACOH    C111297   5.043   4.837   2.716  0.0146  0.2712 -0.4734
  300ACOH    H111298   5.048   4.784   2.812 -1.4692  1.8922  0.5204
  300ACOH    H211299   5.085   4.937   2.725 -0.7272  0.6409 -1.0715
  300ACOH    H311300   5.096   4.783   2.638  0.9941  0.4516  0.0649
  301ACOH    H411301   7.687   3.658   4.072 -1.2946  0.6858  0.4077
  301ACOH    O211302   7.662   3.590   4.007  0.3926  0.1475  0.2908
  301ACOH    C211303   7.726   3.479   4.045  1.3360 -0.3093 -0.0054
  301ACOH    O111304   7.812   3.474   4.133  0.1255  0.1852 -0.3567
  301ACOH    C111305   7.684   3.373   3.955 -0.0528  0.1811 -0.2946
  301ACOH    H111306   7.578   3.349   3.964 -0.3082  1.7228  0.9530
  301ACOH    H211307   7.743   3.283   3.976  1.2988  0.6679 -1.9173
  301ACOH    H311308   7.698   3.408   3.853 -1.1431  0.0459 -0.4939
  302ACOH    H411309   7.844   1.212   2.217 -0.7031  0.5036  1.4193
  302ACOH    O211310   7.912   1.280   2.230 -0.2258  0.3563 -0.2276
  302ACOH    C211311   8.030   1.231   2.187 -0.2984  0.1739 -1.0323
  302ACOH    O111312   8.038   1.126   2.129  0.0425 -0.3132  0.3363
  302ACOH    C111313   8.157   1.296   2.243  1.4404 -0.2825  0.3489
  302ACOH    H111314   8.150   1.289   2.352 -1.3857  1.5326  0.3491
  302ACOH    H211315   8.147   1.402   2.220  0.9532  0.2767  2.9430
  302ACOH    H311316   8.254   1.262   2.207  1.5972 -0.0843  0.5857
  303ACOH    H411317   2.525   1.538   1.711 -0.6382  0.5397  0.3849
  303ACOH    O211318   2.466   1.578   1.645 -0.1757 -0.0265 -0.3732
  303ACOH    C211319   2.497   1.525   1.528  0.0190  0.6113  0.2549
  303ACOH    O111320   2.593   1.458   1.504 -0.3828  0.5256  0.0324
  303ACOH    C111321   2.395   1.554   1.417  0.5104 -0.0892 -0.1901
  303ACOH    H111322   2.430   1.511   1.323 -2.3187 -0.4120 -1.1368
  303ACOH    H211323   2.382   1.661   1.400  1.0752 -0.6680 -4.7477
  303ACOH    H311324   2.303   1.508   1.453 -0.0817  0.4252 -1.0351
  304ACOH    H411325   5.338   4.254   3.664 -0.1328 -1.1713  0.5499
  304ACOH    O211326   5.292   4.279   3.745 -0.1756 -0.7040  0.3824
  304ACOH    C211327   5.166   4.242   3.743  0.4565 -0.3770 -0.1898
  304ACOH    O111328   5.110   4.191   3.648  0.0202  0.3971 -0.0964
  304ACOH    C111329   5.098   4.254   3.878  0.3544  0.6245  0.0218
  304ACOH    H111330   5.167   4.291   3.954 -1.6613  0.2691  2.0767
  304ACOH    H211331   5.055   4.158   3.905  3.2496 -0.7323 -0.0879
  304ACOH    H311332   5.013   4.323   3.869 -1.3042 -1.0123  2.3928
  305ACOH    H411333   9.484   2.977   1.316 -0.9346 -0.4536 -2.0763
  305ACOH    O211334   9.572   2.980   1.277  0.2078 -0.4595  0.3869
  305ACOH    C211335   9.554   3.032   1.153 -0.5614  0.5619 -0.5922
  305ACOH    O111336   9.444   3.037   1.103 -0.3697 -0.0562  0.0765
  305ACOH    C111337   9.682   3.050   1.082  0.5829 -0.4871 -0.4094
  305ACOH    H111338   9.763   3.091   1.141 -1.3182  3.5354 -0.4330
  305ACOH    H211339   9.679   3.094   0.982  0.0964  0.0025 -0.1849
  305ACOH    H311340   9.706   2.945   1.062  1.3223  0.1064 -2.8369
  306ACOH    H411341   8.476   1.002   3.588  1.8086  0.1516 -0.5881
  306ACOH    O211342   8.437   0.990   3.500  0.4672  0.5081 -0.0560
  306ACOH    C211343   8.392   1.111   3.465 -0.9393 -0.1050 -0.0842
  306ACOH    O111344   8.385   1.215   3.529 -0.0876 -0.0139  0.1509
  306ACOH    C111345   8.332   1.102   3.328  0.4710 -0.0110 -0.1961
  306ACOH    H111346   8.247   1.169   3.317 -1.5041 -1.7954  3.4841
  306ACOH    H211347   8.304   1.001   3.297  0.5013  0.3321 -1.3514
  306ACOH    H311348   8.406   1.136   3.255  1.0244  0.7076  0.6978
  307ACOH    H411349   0.204   8.457   4.490 -1.4451 -0.5588 -0.9694
  307ACOH    O211350   0.184   8.407   4.572 -0.6536  0.2830 -0.2476
  307ACOH    C211351   0.129   8.484   4.666  0.4459 -0.3539  0.2238
  307ACOH    O111352   0.066   8.587   4.646  0.6111 -0.0269  0.0407
  307ACOH    C111353   0.109   8.402   4.790 -0.6426 -0.0599 -0.0558
  307ACOH    H111354   0.089   8.299   4.760 -0.5688  0.1321 -0.7603
  307ACOH    H211355   0.025   8.439   4.848 -1.3527  1.2493 -1.8731
  307ACOH    H311356   0.201   8.409   4.848 -0.9619  1.4064  0.2932
  308ACOH    H411357   3.913   5.029   2.938  1.1539  0.6355  0.7021
  308ACOH    O211358   3.876   4.972   3.007  0.3872  0.3510  0.0615
  308ACOH    C211359   3.890   4.849   2.949 -0.0769  0.3448 -0.2245
  308ACOH    O111360   3.921   4.821   2.838 -0.0430 -0.4160  0.7177
  308ACOH    C111361   3.873   4.744   3.054  0.8923 -0.8580  0.3776
  308ACOH    H111362   3.971   4.697   3.057  0.6247 -1.3301  2.9963
  308ACOH    H211363   3.806   4.671   3.009 -0.9165  0.2075  1.2729
  308ACOH    H311364   3.842   4.779   3.152 -1.0630 -0.1702 -0.4544
  309ACOH    H411365   6.058   7.630   4.480  0.8620 -1.4326  2.8943
  309ACOH    O211366   6.093   7.706   4.529  0.3936  0.7129  0.0342
  309ACOH    C211367   6.157   7.792   4.454  0.0014  0.3056 -0.4324
  309ACOH    O111368   6.189   7.767   4.340  0.5993 -0.2096 -0.3823
  309ACOH    C111369   6.177   7.925   4.515  0.2381 -0.4449  0.0375
  309ACOH    H111370   6.156   7.927   4.622  0.4897  0.7360  0.0702
  309ACOH    H211371   6.112   7.998   4.465  0.8470  0.0259 -0.0729
  309ACOH    H311372   6.273   7.972   4.497 -0.7831  0.7405 -2.5551
  310ACOH    H411373   0.181   9.007   4.706 -1.3054  0.6719 -0.7783
  310ACOH    O211374   0.170   9.080   4.770  0.2437  0.2321  0.0125
  310ACOH    C211375   0.201   9.010   4.888  0.8581 -0.5049  0.0248
  310ACOH    O111376   0.284   8.915   4.884  0.3606  0.0971 -0.1011
  310ACOH    C111377   0.164   9.077   5.010  0.9439  0.4451 -0.2326
  310ACOH    H111378   0.103   9.164   4.984 -1.3806 -1.8244 -2.6895
  310ACOH    H211379   0.247   9.105   5.075  0.6817 -1.6433  1.0460
  310ACOH    H311380   0.098   9.012   5.067  0.2734  1.1364 -0.2071
  311ACOH    H411381   5.118   1.962   1.406  1.0489 -0.4089 -0.5270
  311ACOH    O211382   5.103   2.055   1.379 -0.2033 -0.3421  0.3595
  311ACOH    C211383   5.205   2.062   1.286  0.4898  0.2345 -0.4823
  311ACOH    O111384   5.312   2.004   1.301  0.7604 -0.1845 -0.1357
  311ACOH    C111385   5.197   2.184   1.203  0.4006  0.7976 -0.5794
  311ACOH    H111386   5.097   2.188   1.160  0.6927  0.3265 -1.3072
  311ACOH    H211387   5.275   2.183   1.127  2.0123  1.5881  1.0137
  311ACOH    H311388   5.209   2.274   1.263  2.0509  0.7323 -0.7807
  312ACOH    H411389   0.114   2.248   4.455 -0.7890  3.0709 -0.4162
  312ACOH    O211390   0.064   2.254   4.538  0.2349 -0.7702  0.6071
  312ACOH    C211391   0.057   2.134   4.593  0.4028  0.8162 -1.5231
  312ACOH    O111392   0.078   2.027   4.543  0.5430 -0.3762 -0.0687
  312ACOH    C111393  -0.005   2.129   4.728 -0.2387 -0.1916 -0.3827
  312ACOH    H111394   0.052   2.190   4.798  0.5222 -0.6841 -0.5618
  312ACOH    H211395  -0.015   2.028   4.768 -0.9290 -0.0664 -0.2405
  312ACOH    H311396  -0.107   2.166   4.723 -0.1598  0.1374  0.4259
  313ACOH    H411397   4.816   9.141   0.091 -0.7342 -0.3115  0.1369
  313ACOH    O211398   4.851   9.058   0.128  0.2685 -0.2567 -0.6692
  313ACOH    C211399   4.915   8.991   0.034  1.3893 -0.2318  0.2813
  313ACOH    O111400   4.881   8.986  -0.080  0.1279  0.3399 -0.4119
  313ACOH    C111401   5.031   8.911   0.084 -0.3387  0.1426 -0.2897
  313ACOH    H111402   5.094   8.994   0.117 -1.8187  0.9901  0.4756
  313ACOH    H211403   5.082   8.851   0.010  0.1432 -2.9978  2.4641
  313ACOH    H311404   4.991   8.846   0.162 -2.0276 -1.5637 -2.5423
  314ACOH    H411405   3.766   4.392   0.937 -0.1846  0.0752  0.2240
  314ACOH    O211406   3.819   4.439   1.004 -0.1020  0.6589 -0.2418
  314ACOH    C211407   3.803   4.372   1.121 -0.0184 -0.3415  0.4143
  314ACOH    O111408   3.789   4.254   1.121  0.1377  0.5814  0.7411
  314ACOH    C111409   3.855   4.454   1.235 -0.4618  0.2388  0.6905
  314ACOH    H111410   3.800   4.437   1.327  0.1795  1.7322  1.3726
  314ACOH    H211411   3.852   4.560   1.211 -2.1498 -0.3002 -1.6490
  314ACOH    H311412   3.960   4.428   1.247  0.0828  1.9731 -0.1342
  315ACOH    H411413   7.816   8.515   5.354 -2.5197 -0.7720 -0.6020
  315ACOH    O211414   7.812   8.418   5.354 -0.1763 -0.9144  0.4562
  315ACOH    C211415   7.804   8.367   5.229  0.0031  0.5770 -0.4567
  315ACOH    O111416   7.834   8.433   5.135  0.0101  1.0246  0.0072
  315ACOH    C111417   7.805   8.217   5.224 -0.1467  0.4720 -0.7880
  315ACOH    H111418   7.708   8.190   5.264 -0.6438 -0.0348 -2.2984
  315ACOH    H211419   7.884   8.172   5.285 -3.5164 -1.1149  2.5768
  315ACOH    H311420   7.811   8.192   5.118 -0.8207  1.4644 -1.0639
  316ACOH    H411421   5.113   2.586   2.791 -0.4540  0.2386 -0.1673
  316ACOH    O211422   5.190   2.640   2.815  0.1346 -0.5166 -0.3059
  316ACOH    C211423   5.140   2.770   2.800 -0.2295  0.1926  0.5628
  316ACOH    O111424   5.035   2.810   2.751  0.0047  0.3612 -0.6182
  316ACOH    C111425   5.242   2.863   2.840 -0.1862 -0.4540 -0.3329
  316ACOH    H111426   5.223   2.954   2.784 -1.2164 -0.4630 -0.0088
  316ACOH    H211427   5.339   2.825   2.808  0.1193  1.6390 -2.0208
  316ACOH    H311428   5.240   2.869   2.949  1.0936 -1.6744 -0.2337
  317ACOH    H411429   3.010   0.466   1.877 -0.0786  0.7596 -0.7499
  317ACOH    O211430   3.105   0.463   1.861  0.0108  0.2133 -0.1354
  317ACOH    C211431   3.154   0.384   1.957  0.0444  0.4350  0.3681
  317ACOH    O111432   3.118   0.392   2.074  0.0176 -0.0341 -0.1078
  317ACOH    C111433   3.283   0.338   1.909  0.3732 -0.6785 -0.1513
  317ACOH    H111434   3.282   0.252   1.842  0.6114 -0.5080 -0.3728
  317ACOH    H211435   3.346   0.317   1.996  0.6833 -1.3682 -0.5401
  317ACOH    H311436   3.329   0.422   1.857 -0.5787 -0.0583 -0.0077
  318ACOH    H411437   7.934   5.071   1.348 -0.0719 -0.3301 -0.0412
  318ACOH    O211438   7.841   5.070   1.320 -0.0107 -0.5950 -0.2331
  318ACOH    C211439   7.824   5.171   1.234 -0.1730  0.4997  0.0018
  318ACOH    O111440   7.907   5.259   1.219 -0.1147 -0.3541  0.0853
  318ACOH    C111441   7.678   5.187   1.203 -0.1857 -0.1760  0.2376
  318ACOH    H111442   7.638   5.241   1.290 -0.8703 -1.8780  1.0079
  318ACOH    H211443   7.632   5.089   1.193  0.2678 -0.6306  2.3540
  318ACOH    H311444   7.679   5.248   1.113  1.3714 -2.2773 -1.2305
  319ACOH    H411445   3.624   6.725   3.621 -0.0447 -0.0951 -1.0129
  319ACOH    O211446   3.658   6.636   3.602  0.1015 -0.2629  0.0201
  319ACOH    C211447   3.795   6.645   3.623 -0.3507 -0.5407  0.4319
  319ACOH    O111448   3.864   6.736   3.669  0.0094 -0.2219 -0.0561
  319ACOH    C111449   3.845   6.511   3.601  0.2169  0.3946 -0.7597
  319ACOH    H111450   3.954   6.508   3.608  0.1169 -2.0444  0.0811
  319ACOH    H211451   3.823   6.474   3.501 -2.0936 -0.3034 -0.0254
  319ACOH    H311452   3.798   6.444   3.673  2.5721 -0.8152 -0.2911
  320ACOH    H411453   0.592   6.497   4.394  1.9882 -1.2119  0.0864
  320ACOH    O211454   0.589   6.497   4.492  0.0084  0.4900  0.0551
  320ACOH    C211455   0.543   6.620   4.540  0.1618 -0.0327  0.6019
  320ACOH    O111456   0.526   6.722   4.475 -0.9078 -0.6693 -0.3198
  320ACOH    C111457   0.537   6.634   4.688  0.1730  0.5317  0.4361
  320ACOH    H111458   0.457   6.568   4.724  0.5332  0.6345  1.4364
  320ACOH    H211459   0.509   6.736   4.711  0.9428  0.3884  2.0484
  320ACOH    H311460   0.635   6.618   4.732 -0.0812 -0.3621  0.7030
  321ACOH    H411461   6.898   6.721   4.666  1.3643 -2.8455 -2.1972
  321ACOH    O211462   6.819   6.673   4.697 -0.1421  0.4722 -0.6777
  321ACOH    C211463   6.821   6.557   4.624  0.5739 -0.0708  0.3628
  321ACOH    O111464   6.880   6.537   4.519 -0.3955  0.1600 -0.1756
  321ACOH    C111465   6.714   6.468   4.672 -0.3172 -1.0607 -0.1046
  321ACOH    H111466   6.744   6.403   4.755 -0.7314 -0.2270  0.7012
  321ACOH    H211467   6.678   6.407   4.588  1.1747 -1.0663 -0.7450
  321ACOH    H311468   6.625   6.519   4.709 -0.6710 -1.9824  0.3459
  322ACOH    H411469   3.675   8.592   5.441  0.0916  1.9809  1.6141
  322ACOH    O211470   3.708   8.550   5.522  0.3452 -0.3993  0.3201
  322ACOH    C211471   3.757   8.429   5.494  0.5704  0.3784  1.2814
  322ACOH    O111472   3.799   8.398   5.382  0.0934 -0.7330 -0.0661
  322ACOH    C111473   3.764   8.338   5.614 -1.2888 -0.2977  0.1781
  322ACOH    H111474   3.681   8.361   5.682 -1.3136  0.9831 -0.2817
  322ACOH    H211475   3.858   8.352   5.667 -0.8563  0.2106 -0.7157
  322ACOH    H311476   3.748   8.234   5.585  0.3397 -0.3302 -0.6236
  323ACOH    H411477   5.733   3.480   1.121 -0.3540 -0.2622  0.3624
  323ACOH    O211478   5.803   3.437   1.069 -0.2922 -0.2784  0.4590
  323ACOH    C211479   5.738   3.402   0.959  0.0670  0.3382 -0.5526
  323ACOH    O111480   5.623   3.430   0.928 -0.3012  0.7230 -0.1414
  323ACOH    C111481   5.821   3.313   0.876 -0.3681  1.1472 -0.7270
  323ACOH    H111482   5.752   3.237   0.840 -0.3269 -0.3398  2.2103
  323ACOH    H211483   5.910   3.270   0.921 -1.2531 -1.3545 -1.2788
  323ACOH    H311484   5.854   3.372   0.790 -1.2403  2.1341 -0.4018
  324ACOH    H411485   8.815   5.797   4.627  1.6368  0.3053  0.5950
  324ACOH    O211486   8.833   5.703   4.613  0.1969 -0.0173  0.8117
  324ACOH    C211487   8.964   5.694   4.641 -0.8357  0.4975 -0.0757
  324ACOH    O111488   9.021   5.773   4.713  0.2004 -0.9210  0.1416
  324ACOH    C111489   9.012   5.554   4.602  0.1248 -0.4883  0.2368
  324ACOH    H111490   8.956   5.510   4.519  0.9623  1.2475 -1.3069
  324ACOH    H211491   8.994   5.492   4.689 -0.1877 -2.4904 -1.2060
  324ACOH    H311492   9.117   5.552   4.573  0.5372  0.2745  1.6621
  325ACOH    H411493   7.857   5.821   0.890  1.7202  0.8866  1.9324
  325ACOH    O211494   7.819   5.770   0.964 -0.3617 -0.1847  0.1775
  325ACOH    C211495   7.739   5.670   0.912  0.3577 -0.0595 -0.3445
  325ACOH    O111496   7.730   5.644   0.793 -0.2354  0.2832 -0.3402
  325ACOH    C111497   7.682   5.587   1.023  0.4795 -0.0216 -0.0327
  325ACOH    H111498   7.575   5.610   1.032  0.1326 -1.0446 -1.4523
  325ACOH    H211499   7.733   5.615   1.115 -1.9683 -0.0656  1.4101
  325ACOH    H311500   7.710   5.483   1.006  2.9524  0.4980  0.6569
  326ACOH    H411501   3.758   4.087   1.452 -1.4745 -2.1080  1.8176
  326ACOH    O211502   3.785   4.133   1.534  0.3585  0.2650 -0.0402
  326ACOH    C211503   3.675   4.119   1.609  0.0305  0.8177 -0.1293
  326ACOH    O111504   3.567   4.068   1.580 -0.4580 -0.4076 -0.7280
  326ACOH    C111505   3.700   4.168   1.751  0.1200 -0.7588  0.3642
  326ACOH    H111506   3.780   4.107   1.793 -0.8866 -2.0547  0.4304
  326ACOH    H211507   3.609   4.162   1.812  1.1468 -1.1047  1.9078
  326ACOH    H311508   3.727   4.273   1.746 -0.6107 -0.5474  0.7513
  327ACOH    H411509   5.266   3.788   1.710  0.7300 -0.0675 -0.2203
  327ACOH    O211510   5.300   3.755   1.795  0.1806  0.4060  0.1921
  327ACOH    C211511   5.295   3.626   1.784  0.0647  0.8140  0.0564
  327ACOH    O111512   5.266   3.565   1.682 -0.6594 -0.1733 -0.4048
  327ACOH    C111513   5.348   3.563   1.910 -0.1130  0.1484 -0.3621
  327ACOH    H111514   5.319   3.458   1.919  1.0415 -0.1766 -0.3432
  327ACOH    H211515   5.321   3.625   1.996  0.2638 -0.8639  0.5033
  327ACOH    H311516   5.457   3.570   1.915 -0.2105  2.8511 -1.2690
  328ACOH    H411517   7.508   8.790   1.234 -2.1797 -0.1898 -0.2639
  328ACOH    O211518   7.510   8.693   1.225 -0.8047 -0.2187  0.2383
  328ACOH    C211519   7.607   8.674   1.131 -0.1993 -0.2210  0.2800
  328ACOH    O111520   7.667   8.765   1.073  0.8412 -0.3045  0.3362
  328ACOH    C111521   7.636   8.533   1.098 -0.6521  0.7432 -0.4658
  328ACOH    H111522   7.689   8.480   1.177 -0.3199 -0.1925 -1.3024
  328ACOH    H211523   7.701   8.524   1.012 -0.5834  1.5436 -0.4945
  328ACOH    H311524   7.541   8.482   1.080 -1.3358  0.9544  2.2804
  329ACOH    H411525   0.648   3.160   3.308 -0.0902 -2.4725  0.8225
  329ACOH    O211526   0.743   3.150   3.291  0.1494  0.1257  0.4412
  329ACOH    C211527   0.783   3.050   3.373 -0.1875 -0.0110  0.3552
  329ACOH    O111528   0.714   2.964   3.423 -0.2202  0.1973  0.4289
  329ACOH    C111529   0.932   3.049   3.391  0.2801  0.5569  0.4935
  329ACOH    H111530   0.968   3.119   3.466 -2.8609  1.0930  1.5599
  329ACOH    H211531   0.983   3.052   3.295 -1.7037  0.9209 -0.5643
  329ACOH    H311532   0.949   2.947   3.427  0.2876  0.0617 -0.8670
  330ACOH    H411533   8.038   6.168   1.899  0.0931  0.0682 -0.5830
  330ACOH    O211534   7.975   6.094   1.893  0.0478 -0.0094  0.6083
  330ACOH    C211535   8.047   5.984   1.884 -0.0340 -0.0230 -0.3834
  330ACOH    O111536   8.160   5.983   1.845  0.1371  0.3293 -0.0898
  330ACOH    C111537   7.969   5.853   1.888 -0.4365 -0.3021 -0.9115
  330ACOH    H111538   8.005   5.781   1.962 -0.0580 -0.1888 -0.9876
  330ACOH    H211539   7.985   5.807   1.791 -1.4431 -0.7232 -0.8891
  330ACOH    H311540   7.865   5.875   1.911 -0.1537 -1.5787  1.9157
  331ACOH    H411541   7.674   4.418   4.587 -0.0888 -1.5532 -0.1489
  331ACOH    O211542   7.602   4.482   4.599  0.9260 -0.4169  0.0009
  331ACOH    C211543   7.606   4.559   4.495 -0.6440 -0.2585  0.2382
  331ACOH    O111544   7.631   4.518   4.385 -0.8741  0.1345 -0.0983
  331ACOH    C111545   7.538   4.688   4.525  0.6028 -0.3527  0.4588
  331ACOH    H111546   7.446   4.681   4.466  0.1158  0.2511  1.1371
  331ACOH    H211547   7.604   4.769   4.495  0.2389 -0.0489  0.4750
  331ACOH    H311548   7.510   4.697   4.630  0.2395 -1.8607  0.5011
  332ACOH    H411549   5.507   5.967   1.694 -3.0688 -0.0457 -0.0488
  332ACOH    O211550   5.495   6.053   1.737  0.2209 -0.0426  1.0490
  332ACOH    C211551   5.361   6.065   1.740  0.3169  0.4222  0.0887
  332ACOH    O111552   5.287   5.977   1.701  0.1839 -0.3941 -0.5837
  332ACOH    C111553   5.323   6.200   1.777  1.1078  0.2539  0.3661
  332ACOH    H111554   5.379   6.218   1.869  1.5750 -2.4436  0.6358
  332ACOH    H211555   5.216   6.213   1.797  0.9379 -0.1550 -0.2729
  332ACOH    H311556   5.351   6.258   1.689 -0.3440 -1.3725 -1.2063
  333ACOH    H411557   4.948   5.931   0.611  0.3180 -1.0208 -0.8378
  333ACOH    O211558   4.897   5.990   0.554  0.2703 -0.4093 -0.1809
  333ACOH    C211559   4.839   5.913   0.457 -0.2979  0.6893  0.1210
  333ACOH    O111560   4.855   5.795   0.439  0.0990  0.1969 -0.3669
  333ACOH    C111561   4.735   5.984   0.383  0.1109 -0.2426 -0.3806
  333ACOH    H111562   4.661   5.912   0.348 -1.8371  0.9512  1.1879
  333ACOH    H211563   4.776   6.045   0.303  1.0703 -0.3156  0.0469
  333ACOH    H311564   4.688   6.058   0.447 -0.2668  1.7785 -2.9336
  334ACOH    H411565   6.250   0.574   5.151 -1.5675  0.1642 -0.1366
  334ACOH    O211566   6.258   0.523   5.233 -0.3057 -0.0299 -0.3628
  334ACOH    C211567   6.369   0.566   5.295 -0.2725  0.0781  1.2612
  334ACOH    O111568   6.455   0.637   5.247  0.2578  0.1130  0.1936
  334ACOH    C111569   6.376   0.515   5.431 -1.1779 -0.4110  0.4257
  334ACOH    H111570   6.283   0.465   5.455 -1.7846  1.5268  2.2395
  334ACOH    H211571   6.392   0.593   5.506 -2.9573 -1.0787  1.5172
  334ACOH    H311572   6.462   0.448   5.431 -0.8817 -0.0564  2.1430
  335ACOH    H411573   0.699   7.459   3.360  0.4826  0.9049  0.0164
  335ACOH    O211574   0.608   7.444   3.391  0.3093  0.5795 -0.6288
  335ACOH    C211575   0.567   7.338   3.330  0.2141 -0.2870 -0.1715
  335ACOH    O111576   0.610   7.304   3.222  0.0119  0.0553  0.0158
  335ACOH    C111577   0.431   7.313   3.372 -0.3596  0.4395 -0.2281
  335ACOH    H111578   0.412   7.206   3.376 -2.3075  0.8289  1.4048
  335ACOH    H211579   0.356   7.354   3.304  0.2160 -0.3091 -1.3241
  335ACOH    H311580   0.411   7.356   3.470 -0.7073  1.8432 -0.8974
  336ACOH    H411581   4.705   5.266   5.037 -0.1677 -0.4573  0.7103
  336ACOH    O211582   4.782   5.320   5.062  0.1388 -0.5172 -0.0905
  336ACOH    C211583   4.884   5.242   5.085 -0.2592  0.5603 -0.2632
  336ACOH    O111584   4.874   5.118   5.079  0.1031 -0.2030 -0.0515
  336ACOH    C111585   5.007   5.318   5.129  0.2560 -0.2730  0.4199
  336ACOH    H111586   5.083   5.265   5.187  2.0856  0.6325 -1.0889
  336ACOH    H211587   4.975   5.412   5.174 -1.2419 -0.0535 -1.0787
  336ACOH    H311588   5.058   5.349   5.038  2.1996  1.6999  2.1013
  337ACOH    H411589   5.770   3.081   0.563  0.7849  1.9754  0.7351
  337ACOH    O211590   5.830   3.043   0.628 -0.2283 -0.4144  0.3337
  337ACOH    C211591   5.780   2.935   0.681 -0.2310 -0.6610 -0.5916
  337ACOH    O111592   5.675   2.872   0.657 -0.4812  0.0314 -0.4779
  337ACOH    C111593   5.877   2.884   0.775  0.1169 -0.0674 -0.8178
  337ACOH    H111594   5.838   2.794   0.821 -0.7248  0.4036 -0.5898
  337ACOH    H211595   5.906   2.952   0.856 -0.0093 -0.8525 -0.1007
  337ACOH    H311596   5.964   2.851   0.720  0.0223 -0.6993 -0.5899
  338ACOH    H411597   1.854   7.863   3.476  0.6694 -0.6764 -0.3590
  338ACOH    O211598   1.902   7.813   3.545  0.2312 -0.2204  0.2740
  338ACOH    C211599   1.996   7.893   3.599 -0.2747  0.5085 -0.4862
  338ACOH    O111600   2.021   8.012   3.579 -0.1980 -0.5586 -0.7237
  338ACOH    C111601   2.086   7.813   3.680  0.2087  0.2599 -0.2608
  338ACOH    H111602   2.187   7.822   3.642  0.4175 -1.7678 -0.2372
  338ACOH    H211603   2.050   7.710   3.675 -0.3814  0.5020 -1.3559
  338ACOH    H311604   2.083   7.841   3.786  1.5968 -1.8293  0.3450
  339ACOH    H411605   5.382   9.945   0.995 -0.6102 -1.7539 -0.6993
  339ACOH    O211606   5.353   9.969   0.905 -0.8639  0.3533 -0.0759
  339ACOH    C211607   5.411  10.089   0.874 -0.4794 -0.0200 -0.5594
  339ACOH    O111608   5.456  10.159   0.961 -0.3817 -0.2812 -0.3480
  339ACOH    C111609   5.380  10.127   0.735  0.0531 -0.5251 -0.2542
  339ACOH    H111610   5.467  10.178   0.693  0.8469  0.3649  2.3800
  339ACOH    H211611   5.293  10.191   0.751  0.0969  0.2170 -2.6822
  339ACOH    H311612   5.357  10.038   0.676 -0.5178 -0.8742  0.4935
  340ACOH    H411613   4.107   8.154   0.655 -1.0194 -1.5666 -0.0689
  340ACOH    O211614   4.136   8.097   0.728  0.5093 -0.3318  0.3300
  340ACOH    C211615   4.086   7.972   0.713  0.1380 -1.0173  0.0761
  340ACOH    O111616   4.009   7.937   0.626 -0.0397  0.2095  0.1295
  340ACOH    C111617   4.135   7.871   0.814  0.0890  0.7388  0.1596
  340ACOH    H111618   4.209   7.912   0.882  0.6741 -2.3873  1.4717
  340ACOH    H211619   4.183   7.787   0.764 -0.3955  0.2560  0.5074
  340ACOH    H311620   4.046   7.852   0.874  0.5383 -0.1848  0.5306
  341ACOH    H411621   6.940   1.443   4.192 -1.9614 -2.3207  0.8053
  341ACOH    O211622   6.868   1.508   4.192  0.4602  0.4402  0.5480
  341ACOH    C211623   6.913   1.591   4.283 -0.0443  0.2915 -0.0347
  341ACOH    O111624   7.025   1.598   4.338 -0.2062 -0.2858 -0.2787
  341ACOH    C111625   6.807   1.679   4.324  0.3292 -0.4716 -0.6747
  341ACOH    H111626   6.854   1.777   4.311 -1.0778  0.4094  0.8002
  341ACOH    H211627   6.786   1.658   4.429  0.2147 -0.7367 -0.7521
  341ACOH    H311628   6.711   1.682   4.273 -0.0257 -1.4861 -0.0762
  342ACOH    H411629   3.577   8.200   2.284  0.3797  0.5678 -0.1633
  342ACOH    O211630   3.510   8.239   2.225  0.0367  0.0346 -0.1223
  342ACOH    C211631   3.384   8.199   2.260 -0.1312  0.1385 -0.0439
  342ACOH    O111632   3.353   8.149   2.363  0.8758 -0.4002 -0.3686
  342ACOH    C111633   3.286   8.241   2.160  0.0275  0.1486  0.1493
  342ACOH    H111634   3.214   8.162   2.140 -0.1452  0.0068  1.3119
  342ACOH    H211635   3.329   8.259   2.061 -2.3588 -1.2877 -1.1945
  342ACOH    H311636   3.244   8.334   2.199  1.1599  0.7668 -0.0682
  343ACOH    H411637   5.906   5.042   1.267 -2.6691 -1.7628  1.1525
  343ACOH    O211638   5.981   5.014   1.322 -0.4918 -0.4703 -1.0605
  343ACOH    C211639   6.080   4.962   1.254  0.0753 -0.2724  0.6926
  343ACOH    O111640   6.080   4.947   1.132 -0.0567 -0.1890  0.4162
  343ACOH    C111641   6.181   4.901   1.334  0.3600 -0.1115 -0.1513
  343ACOH    H111642   6.279   4.946   1.314  0.2467  0.3955  0.3862
  343ACOH    H211643   6.186   4.797   1.302  1.7979  0.3203 -1.3895
  343ACOH    H311644   6.160   4.895   1.441  1.7388  0.6759  0.1791
  344ACOH    H411645   7.698   6.393   2.655  0.8252  0.3220 -1.7667
  344ACOH    O211646   7.604   6.411   2.637  0.3592 -0.0127  0.2683
  344ACOH    C211647   7.528   6.296   2.624 -0.1666  0.0002 -0.0615
  344ACOH    O111648   7.569   6.185   2.637 -0.2472 -0.0885  0.8393
  344ACOH    C111649   7.399   6.340   2.576 -0.2254 -0.0211 -0.3188
  344ACOH    H111650   7.342   6.371   2.664  2.9018  3.0906  0.6880
  344ACOH    H211651   7.340   6.262   2.529 -1.0293  0.5884 -0.3382
  344ACOH    H311652   7.411   6.423   2.507  3.1306  1.9806  2.4899
  345ACOH    H411653   4.354   5.307   5.176  1.3256 -2.3818 -2.6494
  345ACOH    O211654   4.360   5.372   5.103  0.4265  0.1083 -0.5978
  345ACOH    C211655   4.233   5.400   5.056 -0.0327  0.8368  0.7901
  345ACOH    O111656   4.135   5.358   5.107  0.5033 -0.2184  0.3797
  345ACOH    C111657   4.243   5.485   4.936 -0.4330 -0.3302 -0.0292
  345ACOH    H111658   4.308   5.570   4.958  1.6531 -2.3358  1.8936
  345ACOH    H211659   4.143   5.523   4.919 -0.8154 -1.0158  0.6436
  345ACOH    H311660   4.278   5.426   4.851  1.7384  0.4182  0.3164
  346ACOH    H411661   9.709   7.632   3.149  1.4261 -0.3495 -0.8122
  346ACOH    O211662   9.730   7.544   3.184  0.0960 -0.3087  0.1322
  346ACOH    C211663   9.773   7.465   3.082  0.4401 -0.2184  0.3000
  346ACOH    O111664   9.793   7.508   2.972  0.6594 -0.1799 -0.9671
  346ACOH    C111665   9.825   7.336   3.126  0.2915  0.0878  0.4577
  346ACOH    H111666   9.900   7.302   3.055  0.1748  2.4235 -0.8390
  346ACOH    H211667   9.740   7.267   3.127  1.8006 -1.8188 -0.5812
  346ACOH    H311668   9.861   7.340   3.228  0.5433 -0.3288  0.3827
  347ACOH    H411669   4.433   0.237   3.016  1.4456 -0.0813  0.9948
  347ACOH    O211670   4.380   0.259   3.095  0.0621 -0.0299  0.0593
  347ACOH    C211671   4.430   0.357   3.171 -0.1966 -0.3217  0.1002
  347ACOH    O111672   4.522   0.420   3.127  0.1955 -0.2302  0.4024
  347ACOH    C111673   4.334   0.409   3.270  0.0693  0.3719 -0.7101
  347ACOH    H111674   4.389   0.475   3.338 -1.4602  1.3250 -0.3883
  347ACOH    H211675   4.285   0.332   3.330 -0.5862  1.4728  0.1813
  347ACOH    H311676   4.258   0.471   3.225 -0.5406  0.5269  0.5006
  348ACOH    H411677   6.547   7.272   1.859 -0.3455  1.3929  0.9648
  348ACOH    O211678   6.501   7.191   1.887  0.1140  0.6142 -0.5022
  348ACOH    C211679   6.402   7.227   1.966 -0.3337 -0.2872  0.1836
  348ACOH    O111680   6.378   7.341   1.994 -0.2021 -0.4112  0.1306
  348ACOH    C111681   6.350   7.117   2.047 -0.6830  0.0549 -0.2740
  348ACOH    H111682   6.365   7.021   1.999 -2.2706  0.9486 -2.6361
  348ACOH    H211683   6.242   7.129   2.054 -0.4887  1.1457  1.0633
  348ACOH    H311684   6.391   7.117   2.148  0.1083 -1.4653 -0.5803
  349ACOH    H411685   5.543   6.630   1.766  1.2139  0.2651 -1.1834
  349ACOH    O211686   5.614   6.564   1.779  0.6815  0.0371  0.6939
  349ACOH    C211687   5.560   6.469   1.854 -0.3065  0.1112  0.0556
  349ACOH    O111688   5.451   6.456   1.907  0.0399  0.1813  0.1616
  349ACOH    C111689   5.650   6.352   1.849 -0.3568  0.8988 -0.4993
  349ACOH    H111690   5.616   6.296   1.762  1.2888  1.3823 -1.4685
  349ACOH    H211691   5.643   6.280   1.931  2.7968  0.8061 -0.2556
  349ACOH    H311692   5.756   6.369   1.831  0.1412 -1.5600 -0.0687
  350ACOH    H411693   7.668   2.301   1.114  0.9176  1.8156  0.7295
  350ACOH    O211694   7.588   2.338   1.155 -0.3813  0.2334 -0.3123
  350ACOH    C211695   7.620   2.392   1.271 -0.3510  0.2910  0.6496
  350ACOH    O111696   7.731   2.416   1.319 -0.2864 -0.4217  0.0421
  350ACOH    C111697   7.502   2.414   1.358  0.8461  0.4273 -0.2036
  350ACOH    H111698   7.492   2.336   1.433 -1.7545  2.2954  1.4666
  350ACOH    H211699   7.415   2.415   1.291  0.5820  0.9082  0.1503
  350ACOH    H311700   7.496   2.509   1.410  1.0175  0.4211 -0.1737
  351ACOH    H411701   7.921   5.811   2.415  0.8053  2.3063  0.0360
  351ACOH    O211702   7.984   5.779   2.349 -0.2774  0.2010 -0.0013
  351ACOH    C211703   8.044   5.669   2.391  0.1560  0.0334 -0.2399
  351ACOH    O111704   8.029   5.615   2.497  0.1466  0.1059 -0.2539
  351ACOH    C111705   8.126   5.607   2.282  0.0106  0.7325  0.2542
  351ACOH    H111706   8.062   5.575   2.200  0.5771  4.0972 -1.5728
  351ACOH    H211707   8.191   5.534   2.329 -0.9572 -0.7752 -0.7127
  351ACOH    H311708   8.190   5.683   2.238 -0.2569  1.5883  1.3226
  352ACOH    H411709   5.111   3.919   1.297 -1.1435  0.7943  1.4434
  352ACOH    O211710   5.081   3.995   1.243  0.0834  0.2609 -0.0267
  352ACOH    C211711   5.060   4.094   1.329  0.9217  0.0434 -0.7547
  352ACOH    O111712   5.083   4.103   1.448  0.0419 -0.7430 -0.1822
  352ACOH    C111713   4.995   4.202   1.254 -0.2666  0.0597 -0.4245
  352ACOH    H111714   4.982   4.193   1.146 -1.1766  0.3028 -0.3367
  352ACOH    H211715   5.041   4.300   1.270 -0.6404  0.1053  0.3890
  352ACOH    H311716   4.896   4.207   1.299  0.5404 -0.4540  1.4511
  353ACOH    H411717   5.944   8.276   1.720  3.6293  1.6272  2.1872
  353ACOH    O211718   5.952   8.356   1.664 -0.1257  0.5135 -0.1561
  353ACOH    C211719   6.057   8.432   1.689 -0.7418 -0.2785  0.3079
  353ACOH    O111720   6.156   8.409   1.756  0.1749  0.4156  0.1047
  353ACOH    C111721   6.024   8.567   1.631  0.3740 -0.4527  0.3685
  353ACOH    H111722   5.963   8.628   1.696  2.4821  4.3711 -1.9255
  353ACOH    H211723   5.973   8.563   1.534  0.7639  0.8375  0.0966
  353ACOH    H311724   6.112   8.630   1.619 -1.0235  1.1010 -2.1627
  354ACOH    H411725   9.941   7.264   0.857 -1.4680 -0.0176  0.9159
  354ACOH    O211726   9.911   7.172   0.869  0.1084 -0.6797  0.0500
  354ACOH    C211727   9.795   7.158   0.799  0.5186  0.4525  0.5650
  354ACOH    O111728   9.751   7.233   0.712 -0.1975 -0.1447  0.6778
  354ACOH    C111729   9.734   7.025   0.829 -0.0926 -0.1644  0.7554
  354ACOH    H111730   9.674   7.037   0.919 -1.3587 -1.6580  0.1486
  354ACOH    H211731   9.815   6.955   0.851 -0.1834 -0.5425 -0.1062
  354ACOH    H311732   9.680   6.993   0.740  2.1779 -1.1827 -0.3002
  355ACOH    H411733   5.394   5.839   1.321  0.5553 -1.8506  2.6468
  355ACOH    O211734   5.469   5.809   1.269 -0.1348  0.7010  0.0595
  355ACOH    C211735   5.470   5.852   1.141  0.0554  0.3899  0.0231
  355ACOH    O111736   5.392   5.932   1.092 -0.2398  0.2311  0.1749
  355ACOH    C111737   5.582   5.785   1.063  0.0451  0.0343 -0.2415
  355ACOH    H111738   5.546   5.694   1.014  0.3952 -0.9389  1.2554
  355ACOH    H211739   5.658   5.747   1.131 -0.7496  1.8412  1.7137
  355ACOH    H311740   5.616   5.858   0.990 -1.1755 -0.9731 -1.8265
  356ACOH    H411741   5.023   2.294   3.691  1.1938  0.0638  1.1916
  356ACOH    O211742   5.098   2.341   3.650  0.1778  0.6987  0.0541
  356ACOH    C211743   5.117   2.461   3.713 -0.2749  0.8643  0.1591
  356ACOH    O111744   5.053   2.506   3.804  0.6331  0.0672  1.0285
  356ACOH    C111745   5.227   2.533   3.642  0.1916  0.6208 -0.3747
  356ACOH    H111746   5.322   2.482   3.652  0.8048  1.8273  0.1106
  356ACOH    H211747   5.233   2.631   3.690 -3.5077  0.1355  1.2356
  356ACOH    H311748   5.206   2.542   3.535 -1.8121  0.6063 -0.0053
  357ACOH    H411749   7.823   2.725   1.578 -1.4976 -2.9904 -0.5855
  357ACOH    O211750   7.740   2.770   1.601  0.2399  0.0817 -0.0436
  357ACOH    C211751   7.735   2.888   1.529  0.7255 -0.8527 -0.7591
  357ACOH    O111752   7.830   2.933   1.471 -0.0340  0.6841 -0.1035
  357ACOH    C111753   7.601   2.952   1.532 -0.5253 -0.7106 -0.8539
  357ACOH    H111754   7.544   2.930   1.442 -1.8661  0.7322 -0.3757
  357ACOH    H211755   7.616   3.058   1.551  0.6256 -1.2212  1.2430
  357ACOH    H311756   7.550   2.913   1.620  0.0159  0.3307 -0.0715
  358ACOH    H411757   8.138   7.623   0.882  1.6195 -0.5626 -1.0052
  358ACOH    O211758   8.075   7.659   0.818  0.2231  0.0314  0.6509
  358ACOH    C211759   8.056   7.785   0.847 -0.0295  0.1655 -0.8150
  358ACOH    O111760   8.093   7.849   0.942  0.3043  0.0850  0.1829
  358ACOH    C111761   7.972   7.845   0.742 -0.3424  0.1037 -0.1824
  358ACOH    H111762   7.868   7.831   0.772  0.4054 -1.8325  1.6198
  358ACOH    H211763   7.987   7.792   0.649  0.2140  1.8955 -1.1420
  358ACOH    H311764   8.001   7.950   0.731  0.1289 -0.2479 -2.5485
  359ACOH    H411765   6.473   2.291   3.496 -0.0996 -1.9446  0.5457
  359ACOH    O211766   6.470   2.341   3.579 -0.0377 -0.2724 -0.4264
  359ACOH    C211767   6.418   2.255   3.670  0.2401 -0.5310  0.1592
  359ACOH    O111768   6.387   2.139   3.648  0.5149 -0.4236  0.8185
  359ACOH    C111769   6.404   2.330   3.799  0.5619 -0.1727 -0.1542
  359ACOH    H111770   6.503   2.359   3.835  0.5475 -0.0479 -0.2132
  359ACOH    H211771   6.347   2.269   3.868  1.5849 -0.2893  0.5950
  359ACOH    H311772   6.351   2.423   3.777  0.2137 -0.5014 -0.7182
  360ACOH    H411773   7.145   2.712   3.622 -1.7115 -2.2245 -1.7426
  360ACOH    O211774   7.094   2.792   3.603  0.5472 -0.1903  0.2908
  360ACOH    C211775   7.187   2.888   3.617 -0.7290 -0.0702 -0.5574
  360ACOH    O111776   7.310   2.874   3.631  0.0738  0.2006  0.2340
  360ACOH    C111777   7.112   3.016   3.625 -0.5202 -0.3335  0.1723
  360ACOH    H111778   7.146   3.085   3.547 -1.1637 -0.1082  0.0868
  360ACOH    H211779   7.118   3.051   3.728  0.0469 -1.0897  0.4002
  360ACOH    H311780   7.006   2.998   3.610 -0.1714 -1.7699 -0.6889
  361ACOH    H411781   7.630   3.309   4.884  0.4594  0.8508  0.4026
  361ACOH    O211782   7.563   3.248   4.850  0.1771  1.0728  0.5529
  361ACOH    C211783   7.601   3.206   4.726 -0.3074  0.6410  0.4032
  361ACOH    O111784   7.660   3.270   4.643 -0.2669 -0.5988  0.1565
  361ACOH    C111785   7.502   3.100   4.689  0.4579 -0.4113  0.3787
  361ACOH    H111786   7.485   3.041   4.779 -3.0068 -0.8159 -0.4686
  361ACOH    H211787   7.525   3.051   4.595  0.6901 -1.3865  0.9356
  361ACOH    H311788   7.404   3.147   4.684  1.2473  1.1675 -0.6976
  362ACOH    H411789   8.071   6.711   4.934  1.3600 -0.0833 -0.0156
  362ACOH    O211790   8.056   6.624   4.974 -0.4744  0.0951 -0.2735
  362ACOH    C211791   7.938   6.582   4.928 -0.2680 -0.1898 -1.0507
  362ACOH    O111792   7.885   6.624   4.826  0.4804  0.2401 -0.1460
  362ACOH    C111793   7.907   6.452   4.995  0.2437  0.4656  0.0579
  362ACOH    H111794   7.957   6.366   4.952  0.1914  0.8789 -0.8455
  362ACOH    H211795   7.800   6.435   4.980 -0.0125  0.8580  1.4311
  362ACOH    H311796   7.940   6.453   5.098  0.6261  3.7418 -0.0264
  363ACOH    H411797   8.359   4.679   2.756  2.2058  0.3930 -1.3920
  363ACOH    O211798   8.325   4.641   2.673 -1.0423 -0.2700  0.1579
  363ACOH    C211799   8.334   4.510   2.698  0.7003 -0.1316 -0.5357
  363ACOH    O111800   8.357   4.458   2.806  0.1660 -0.2744  0.4036
  363ACOH    C111801   8.308   4.428   2.578  0.2760 -1.0405 -0.3585
  363ACOH    H111802   8.201   4.420   2.557  0.0707  2.7506 -1.1527
  363ACOH    H211803   8.352   4.330   2.592  1.5015 -0.2362  1.8347
  363ACOH    H311804   8.351   4.473   2.489 -2.8444  1.4699 -0.6888
  364ACOH    H411805   4.903   3.025   1.708 -1.8834 -1.1914  0.4495
  364ACOH    O211806   4.944   2.939   1.725 -0.2974 -0.5620 -0.0850
  364ACOH    C211807   4.846   2.851   1.758 -0.0319  0.0384  0.3478
  364ACOH    O111808   4.736   2.884   1.797 -0.3419 -0.0075 -0.0795
  364ACOH    C111809   4.875   2.712   1.726 -0.2203 -0.1064 -0.2794
  364ACOH    H111810   4.813   2.666   1.649  0.4542  2.8843 -2.7397
  364ACOH    H211811   4.871   2.655   1.819  1.0463  0.7115  0.2903
  364ACOH    H311812   4.977   2.704   1.690 -0.5173 -0.6091 -1.0240
  365ACOH    H411813   6.093   7.149   2.624 -1.0774  1.4705  1.0758
  365ACOH    O211814   6.009   7.120   2.586 -0.1492 -0.0610  0.1358
  365ACOH    C211815   6.016   7.155   2.457  0.6978  0.4542 -0.3684
  365ACOH    O111816   6.115   7.198   2.403  0.0590  0.1678 -0.1461
  365ACOH    C111817   5.881   7.156   2.389 -0.1369 -0.3013  0.4842
  365ACOH    H111818   5.809   7.094   2.441 -1.9554  0.1807 -1.4092
  365ACOH    H211819   5.885   7.125   2.285 -1.8100  3.3181 -0.7529
  365ACOH    H311820   5.849   7.260   2.386 -0.9779 -0.5873 -0.7326
  366ACOH    H411821   4.306   8.359   3.172  0.3713  0.4868  0.1102
  366ACOH    O211822   4.257   8.350   3.255  0.5204 -0.0223  0.1470
  366ACOH    C211823   4.126   8.374   3.235  0.3326  0.0344 -0.3623
  366ACOH    O111824   4.085   8.400   3.124  0.3577  0.3631 -0.5375
  366ACOH    C111825   4.039   8.366   3.356  0.6222 -0.4154 -0.3102
  366ACOH    H111826   3.982   8.460   3.360 -0.2885 -1.0047  0.9161
  366ACOH    H211827   4.102   8.354   3.444 -0.8462  0.5840  0.9160
  366ACOH    H311828   3.968   8.284   3.343 -0.4029  0.5256 -0.8275
  367ACOH    H411829   9.444   8.444   3.599 -0.6898  0.4760 -0.1834
  367ACOH    O211830   9.457   8.497   3.679  0.0352  0.0931 -0.0426
  367ACOH    C211831   9.401   8.618   3.654  0.1663  0.1158 -0.3191
  367ACOH    O111832   9.350   8.654   3.554 -0.1534 -0.3505 -0.0719
  367ACOH    C111833   9.449   8.706   3.765  0.3770 -0.5074 -0.4492
  367ACOH    H111834   9.517   8.776   3.716 -0.2180  0.5159  0.1532
  367ACOH    H211835   9.502   8.648   3.840  0.5800 -1.9001 -1.6421
  367ACOH    H311836   9.366   8.755   3.816 -2.1028 -4.5945 -0.3688
  368ACOH    H411837   0.909   8.678   5.344  0.9819 -0.8963  1.7811
  368ACOH    O211838   0.822   8.657   5.383 -0.2550 -0.2611 -0.4857
  368ACOH    C211839   0.791   8.743   5.484 -0.4721 -0.7541 -0.4365
  368ACOH    O111840   0.713   8.717   5.573  0.1210  0.4301  0.6715
  368ACOH    C111841   0.856   8.872   5.481 -0.2874 -0.0384  0.0245
  368ACOH    H111842   0.930   8.883   5.560 -0.6079  0.3212  0.2793
  368ACOH    H211843   0.787   8.956   5.483  0.8494  0.8814  0.6231
  368ACOH    H311844   0.894   8.884   5.379 -2.2239 -2.5139 -1.0414
  369ACOH    H411845   7.292   9.021   0.920  0.2510 -2.6174 -0.8790
  369ACOH    O211846   7.268   8.981   1.005 -0.2725  0.0478  0.3013
  369ACOH    C211847   7.195   9.074   1.068 -0.4317  0.0236 -0.0977
  369ACOH    O111848   7.169   9.183   1.030  0.3530 -0.1545  0.2946
  369ACOH    C111849   7.155   9.036   1.203  0.5807  0.0659  0.2861
  369ACOH    H111850   7.048   9.016   1.212  0.2992  0.8734 -1.1365
  369ACOH    H211851   7.182   9.118   1.270 -0.6479 -1.0305  2.1570
  369ACOH    H311852   7.214   8.952   1.238 -0.4376 -0.5350  0.5738
  370ACOH    H411853   3.116   9.563   5.195 -0.2044  1.3776  0.2182
  370ACOH    O211854   3.117   9.539   5.289 -0.3761  0.6193  0.0289
  370ACOH    C211855   3.231   9.484   5.318 -0.2327  0.1118  0.0974
  370ACOH    O111856   3.316   9.451   5.242 -0.7787  0.2830  0.0582
  370ACOH    C111857   3.238   9.435   5.457 -0.0260  0.3430 -0.2953
  370ACOH    H111858   3.339   9.433   5.498 -0.6884  1.7680  1.4642
  370ACOH    H211859   3.207   9.331   5.456  1.1742 -0.0224 -0.9225
  370ACOH    H311860   3.171   9.494   5.520 -0.4309 -1.4089  0.9362
  371ACOH    H411861   5.400   9.097   5.126  2.9184 -0.2221  0.6892
  371ACOH    O211862   5.371   9.075   5.216 -0.6876 -0.2543 -0.4025
  371ACOH    C211863   5.254   9.011   5.210 -0.6171 -0.3074  0.1979
  371ACOH    O111864   5.192   8.974   5.110 -0.2204 -0.4812  0.4161
  371ACOH    C111865   5.209   8.979   5.342  0.0961 -0.1523 -0.1235
  371ACOH    H111866   5.184   9.067   5.401 -0.5905 -0.5396  0.1783
  371ACOH    H211867   5.289   8.922   5.388  3.1015  2.4402 -1.9649
  371ACOH    H311868   5.123   8.911   5.335 -1.4610  1.4547  2.4119
  372ACOH    H411869   5.537   2.519   2.616 -0.4323  0.5112 -1.2476
  372ACOH    O211870   5.621   2.471   2.607 -0.2392  0.5213  0.4002
  372ACOH    C211871   5.693   2.497   2.718  0.9715  0.5216  0.2032
  372ACOH    O111872   5.651   2.523   2.829 -0.1114  0.3179 -0.0619
  372ACOH    C111873   5.833   2.470   2.694  0.5220 -0.1049 -0.5517
  372ACOH    H111874   5.887   2.464   2.788 -3.2760 -1.6765  1.6563
  372ACOH    H211875   5.869   2.552   2.633  0.6150  0.9660  0.9184
  372ACOH    H311876   5.828   2.371   2.647  0.5874 -0.8671  1.0051
  373ACOH    H411877   7.960   5.945   1.486 -1.6156  0.3760 -0.5550
  373ACOH    O211878   7.996   6.019   1.537 -0.6106 -0.5762  0.1239
  373ACOH    C211879   7.983   6.129   1.463 -0.9027  0.4164  0.0040
  373ACOH    O111880   7.936   6.147   1.350  0.0944 -0.3377 -0.1562
  373ACOH    C111881   8.031   6.242   1.544  0.1859 -0.0050  0.3295
  373ACOH    H111882   8.038   6.211   1.648 -1.4535  0.4231  0.5852
  373ACOH    H211883   7.958   6.323   1.542  0.1454 -0.0609 -1.0457
  373ACOH    H311884   8.124   6.286   1.508 -0.6382  0.5643 -1.1734
  374ACOH    H411885   7.047   6.778   3.187  0.0383 -0.0320  0.5707
  374ACOH    O211886   6.958   6.789   3.225 -0.1143  0.0235  0.1947
  374ACOH    C211887   6.925   6.912   3.167 -0.0471 -0.1733  0.1153
  374ACOH    O111888   6.934   6.931   3.045  0.2009  0.3546  0.4049
  374ACOH    C111889   6.829   6.971   3.253  0.2830  0.7284  0.2427
  374ACOH    H111890   6.828   7.080   3.254 -0.5210  0.7190  1.3583
  374ACOH    H211891   6.841   6.940   3.357 -1.8814  1.6190  0.7884
  374ACOH    H311892   6.725   6.939   3.240 -0.3158  2.1807  1.3224
  375ACOH    H411893   1.677   9.446   4.395  1.0025  2.2270 -1.5536
  375ACOH    O211894   1.620   9.430   4.317 -0.5308 -0.1810 -0.0124
  375ACOH    C211895   1.551   9.537   4.291  0.6338  0.5053  0.8534
  375ACOH    O111896   1.544   9.634   4.366 -0.1265  0.0892 -0.6882
  375ACOH    C111897   1.484   9.516   4.157 -0.1778  0.0534 -0.5454
  375ACOH    H111898   1.376   9.519   4.170  0.1847  2.2225  2.7034
  375ACOH    H211899   1.500   9.416   4.118 -1.0235 -0.1152 -0.4518
  375ACOH    H311900   1.515   9.600   4.094 -2.7405  0.3483 -1.4530
  376ACOH    H411901   7.084   5.276   4.677  0.5364  0.3169 -0.2101
  376ACOH    O211902   6.989   5.256   4.681  0.5266  0.3595 -0.2266
  376ACOH    C211903   6.958   5.213   4.806 -0.2139 -0.2138  0.4446
  376ACOH    O111904   7.039   5.185   4.892 -0.6401  0.1198  0.0044
  376ACOH    C111905   6.812   5.201   4.822  0.1378 -0.2907  0.7685
  376ACOH    H111906   6.768   5.145   4.740 -0.1942  0.4965  0.3984
  376ACOH    H211907   6.769   5.301   4.828 -0.9599 -0.8831  3.2721
  376ACOH    H311908   6.793   5.152   4.917 -0.8296 -0.6604  0.3880
  377ACOH    H411909   7.660   6.924   5.477 -1.2458  0.2216 -0.5454
  377ACOH    O211910   7.626   7.002   5.524 -0.1456  0.4947 -0.1773
  377ACOH    C211911   7.656   6.968   5.647  0.1543 -0.4447 -0.8004
  377ACOH    O111912   7.693   6.864   5.704  0.1218 -1.0311 -0.9027
  377ACOH    C111913   7.603   7.078   5.732 -0.1642  0.1237  0.0726
  377ACOH    H111914   7.674   7.111   5.808  0.1567  0.2316 -0.2663
  377ACOH    H211915   7.509   7.047   5.777 -1.5535 -1.1684 -3.4772
  377ACOH    H311916   7.579   7.172   5.681  2.6229 -0.0401 -1.6534
  378ACOH    H411917   5.117   1.521   5.332 -1.3223  1.0365  1.2613
  378ACOH    O211918   5.111   1.449   5.397  0.4336 -0.1301  0.1861
  378ACOH    C211919   5.099   1.508   5.518  0.2838 -0.2284 -0.0253
  378ACOH    O111920   5.111   1.623   5.542 -0.0377  0.2851  0.4211
  378ACOH    C111921   5.066   1.417   5.630  0.3797  0.5576  1.3517
  378ACOH    H111922   4.959   1.417   5.652  0.2294 -0.9478  0.6894
  378ACOH    H211923   5.100   1.456   5.725 -1.2766  1.7779  1.4650
  378ACOH    H311924   5.083   1.311   5.610 -0.1498  0.2547  2.4845
  379ACOH    H411925   4.794   1.460   4.285  0.0654  3.0530  2.3462
  379ACOH    O211926   4.861   1.504   4.230  0.3585  0.1108  0.2119
  379ACOH    C211927   4.956   1.546   4.317 -1.0941  0.0333 -0.4634
  379ACOH    O111928   4.956   1.531   4.437 -0.5079 -0.7112  0.0789
  379ACOH    C111929   5.061   1.620   4.246 -0.3911  0.4023 -0.9162
  379ACOH    H111930   5.015   1.715   4.217 -1.1267  0.6364  0.9774
  379ACOH    H211931   5.097   1.569   4.157  1.6583 -2.0634  1.2504
  379ACOH    H311932   5.145   1.649   4.308  0.3983  0.6326 -2.0704
  380ACOH    H411933   4.870   7.100   1.750  0.3797  0.2313  0.2541
  380ACOH    O211934   4.965   7.116   1.764  0.7509 -1.0493 -0.6982
  380ACOH    C211935   4.976   7.252   1.782 -0.1378 -0.2746  0.4876
  380ACOH    O111936   4.902   7.334   1.727 -0.3648  0.5166 -0.2379
  380ACOH    C111937   5.109   7.279   1.843 -0.1100 -0.4877  0.0756
  380ACOH    H111938   5.189   7.292   1.770  2.0195  0.0082  2.4263
  380ACOH    H211939   5.141   7.188   1.892  1.5854 -0.4767 -0.9889
  380ACOH    H311940   5.105   7.360   1.916 -0.7735 -0.0479 -0.4385
  381ACOH    H411941   9.514   1.948   4.207 -2.6280 -1.1533  0.2090
  381ACOH    O211942   9.467   2.032   4.213 -0.9503 -0.1391 -0.5041
  381ACOH    C211943   9.337   2.017   4.246 -0.7385  0.0930 -0.2633
  381ACOH    O111944   9.283   1.911   4.246  0.2657 -0.0041  0.0940
  381ACOH    C111945   9.275   2.140   4.293  0.1651 -0.2557 -0.1902
  381ACOH    H111946   9.171   2.139   4.326 -0.3531  0.9364 -1.7403
  381ACOH    H211947   9.277   2.220   4.219 -1.9021 -0.7008 -0.7840
  381ACOH    H311948   9.324   2.179   4.382  0.4320  1.0321 -0.8871
  382ACOH    H411949   5.266   4.505   0.092 -1.2816  0.0451 -0.6359
  382ACOH    O211950   5.261   4.489  -0.004 -1.0066 -0.0400 -0.6369
  382ACOH    C211951   5.173   4.579  -0.059  0.2214 -0.0273  0.2289
  382ACOH    O111952   5.147   4.686  -0.009 -0.1703  0.4841 -0.0657
  382ACOH    C111953   5.131   4.551  -0.199  0.1320  0.0610 -0.2529
  382ACOH    H111954   5.068   4.636  -0.224  0.5149  0.1152 -1.0534
  382ACOH    H211955   5.097   4.448  -0.209 -0.0784  0.1810 -0.7988
  382ACOH    H311956   5.222   4.563  -0.259  0.9125 -0.6029  0.7845
  383ACOH    H411957   5.994   0.315   0.852  0.1621  0.5824 -0.6537
  383ACOH    O211958   6.085   0.283   0.835  0.0332 -0.2456  0.1733
  383ACOH    C211959   6.138   0.383   0.765 -0.6595 -0.4745 -0.0973
  383ACOH    O111960   6.100   0.497   0.764 -0.2037 -0.0591  0.1903
  383ACOH    C111961   6.273   0.346   0.722  0.4619 -0.2084 -0.0972
  383ACOH    H111962   6.283   0.239   0.703 -0.7846 -0.1882 -0.9319
  383ACOH    H211963   6.346   0.374   0.798  1.8640 -3.3131 -0.2447
  383ACOH    H311964   6.300   0.416   0.644  0.1370  0.3396  0.2775
  384ACOH    H411965   7.403   1.460   5.020 -0.8494 -1.1470 -0.7966
  384ACOH    O211966   7.360   1.433   5.103  0.0391  0.5519  0.2537
  384ACOH    C211967   7.436   1.480   5.205 -0.7335  0.0177  0.0426
  384ACOH    O111968   7.520   1.567   5.203 -0.2571 -0.1884 -0.2049
  384ACOH    C111969   7.393   1.412   5.326  0.1349  0.1925 -0.2066
  384ACOH    H111970   7.457   1.450   5.406 -0.3123 -0.0809  0.2776
  384ACOH    H211971   7.401   1.303   5.325 -0.1556  0.1749 -1.9332
  384ACOH    H311972   7.294   1.447   5.354  0.7270  0.5513  1.4560
  385ACOH    H411973   6.100   8.907   1.642  2.1702 -2.2078 -2.5030
  385ACOH    O211974   6.020   8.875   1.597 -0.0450 -0.7530  0.2487
  385ACOH    C211975   5.932   8.960   1.643 -0.0114  0.5907 -0.4009
  385ACOH    O111976   5.948   9.061   1.708 -0.1507  0.8912  0.2374
  385ACOH    C111977   5.803   8.921   1.592 -0.3977  0.3272  0.1847
  385ACOH    H111978   5.773   8.821   1.623 -0.0702  0.5227  1.1750
  385ACOH    H211979   5.801   8.918   1.483 -3.6363 -2.3162  0.2520
  385ACOH    H311980   5.727   8.991   1.627 -1.2687 -0.8774  0.7196
  386ACOH    H411981   4.015   8.878   2.495  0.0604  0.2370  1.8569
  386ACOH    O211982   4.112   8.877   2.486 -0.1304  0.1897 -0.6960
  386ACOH    C211983   4.164   8.925   2.603 -0.1792 -0.0347  0.7275
  386ACOH    O111984   4.111   8.990   2.691  0.2005 -0.0768 -0.3488
  386ACOH    C111985   4.315   8.902   2.608 -0.3326  0.5388  0.1100
  386ACOH    H111986   4.364   8.929   2.701 -2.1837 -0.2100  1.3129
  386ACOH    H211987   4.362   8.961   2.529  1.1872 -0.3259  0.3523
  386ACOH    H311988   4.334   8.796   2.595  0.6302  0.4551  2.0109
  387ACOH    H411989   9.125   7.977   0.943 -0.0005  0.0870  0.0707
  387ACOH    O211990   9.064   7.960   0.870  0.4953 -0.1965 -0.2807
  387ACOH    C211991   9.129   7.882   0.790  0.3604  0.5076  0.3162
  387ACOH    O111992   9.239   7.827   0.796 -0.3408 -0.3655 -0.0239
  387ACOH    C111993   9.048   7.859   0.669 -0.0528 -0.2228  0.7210
  387ACOH    H111994   9.024   7.754   0.653  0.6804 -0.1790 -0.8122
  387ACOH    H211995   9.117   7.877   0.587  0.9400 -0.6630  1.4510
  387ACOH    H311996   8.968   7.931   0.655  1.5349  1.5407  0.4891
  388ACOH    H411997   4.363   3.224   5.112  2.4358  2.7681  0.2127
  388ACOH    O211998   4.441   3.172   5.085  0.3287 -0.4567  0.1604
  388ACOH    C211999   4.404   3.054   5.025 -0.5943 -0.4042  0.2670
  388ACOH    O112000   4.299   3.027   4.970 -0.4453 -0.2260 -0.4694
  388ACOH    C112001   4.528   2.964   5.018 -0.2922 -0.2004 -0.1130
  388ACOH    H112002   4.511   2.868   4.968 -0.3516 -0.1562 -0.1769
  388ACOH    H212003   4.568   2.937   5.116  0.6176 -0.3868 -0.5249
  388ACOH    H312004   4.600   3.033   4.974  0.9750 -0.7208  1.0691
  389ACOH    H412005   6.543   6.916   2.515 -1.0076 -0.3070  0.0073
  389ACOH    O212006   6.509   6.871   2.436 -0.0448 -0.1866 -0.4833
  389ACOH    C212007   6.571   6.926   2.332 -0.1713 -0.1919  0.3965
  389ACOH    O112008   6.648   7.019   2.325 -0.8284 -0.2675 -0.2465
  389ACOH    C112009   6.559   6.819   2.233 -0.2702 -0.2941 -0.3349
  389ACOH    H112010   6.453   6.797   2.218 -0.8689  2.3523 -0.3026
  389ACOH    H212011   6.613   6.731   2.266  1.6226  0.9416 -0.0430
  389ACOH    H312012   6.595   6.857   2.138 -0.0102  2.9013  0.9499
  390ACOH    H412013   4.202   7.416   0.989 -0.7546 -1.2933 -0.1436
  390ACOH    O212014   4.191   7.430   0.894 -0.1174 -0.0142 -0.0416
  390ACOH    C212015   4.058   7.446   0.870 -0.2307 -0.1005 -0.0170
  390ACOH    O112016   3.982   7.445   0.962  0.4858 -0.4025 -0.2521
  390ACOH    C112017   4.033   7.444   0.729  0.0630  0.7764  0.1380
  390ACOH    H112018   3.927   7.443   0.705  0.6720 -2.3318 -2.9087
  390ACOH    H212019   4.074   7.350   0.689  1.5783  1.5065 -0.0730
  390ACOH    H312020   4.073   7.530   0.675  0.6289 -0.1918 -1.0119
  391ACOH    H412021   2.722   9.196   0.789 -0.7781  0.7316  1.5681
  391ACOH    O212022   2.820   9.196   0.792 -0.6990 -0.0252 -0.4458
  391ACOH    C212023   2.873   9.175   0.672  0.1336  0.2757 -0.4279
  391ACOH    O112024   2.806   9.169   0.574 -0.4480 -0.0955  0.0014
  391ACOH    C112025   3.018   9.166   0.677  0.2938 -0.4798 -0.2307
  391ACOH    H112026   3.074   9.208   0.593  0.8965 -0.1830  0.3118
  391ACOH    H212027   3.054   9.064   0.690  0.5940 -0.1528  1.7276
  391ACOH    H312028   3.056   9.226   0.760 -1.1049  0.6245 -0.3680
  392ACOH    H412029   8.034   2.865   4.009 -1.4648  1.9175 -2.6796
  392ACOH    O212030   7.996   2.924   4.076  0.3145 -0.3157  0.4619
  392ACOH    C212031   8.087   2.956   4.170  0.1674  0.8687  0.1752
  392ACOH    O112032   8.180   2.882   4.206 -0.1822  0.0942  0.2200
  392ACOH    C112033   8.063   3.084   4.228  0.3700  0.0902  0.0692
  392ACOH    H112034   7.987   3.071   4.305 -1.2320  2.1391 -1.1227
  392ACOH    H212035   8.019   3.153   4.156 -0.8347 -0.1022  0.6257
  392ACOH    H312036   8.159   3.125   4.261  0.8470 -1.8623  1.1662
  393ACOH    H412037   5.818   7.111   1.945  0.6215 -0.2717  1.8357
  393ACOH    O212038   5.759   7.034   1.949  0.3631 -0.1981 -0.0274
  393ACOH    C212039   5.836   6.924   1.965 -0.3920 -0.7195  0.1334
  393ACOH    O112040   5.955   6.918   1.985  0.6883  0.1910 -0.0780
  393ACOH    C112041   5.748   6.805   1.961 -0.3563  0.6038 -0.1878
  393ACOH    H112042   5.643   6.830   1.973 -0.3175  0.2693  0.8527
  393ACOH    H212043   5.769   6.728   2.035  1.0903  1.8722  0.7560
  393ACOH    H312044   5.760   6.746   1.870 -1.1975 -1.4091  0.9808
  394ACOH    H412045   8.139   4.975   3.408  0.7605 -1.0220 -0.8657
  394ACOH    O212046   8.062   4.921   3.434 -0.0309 -0.0948 -1.2707
  394ACOH    C212047   8.116   4.804   3.481  0.9902 -0.0417 -0.2916
  394ACOH    O112048   8.234   4.775   3.490  0.2522  0.4366  0.9306
  394ACOH    C112049   8.010   4.732   3.552  0.5367  0.5769  0.0912
  394ACOH    H112050   8.014   4.765   3.656  0.9140  0.6518  0.0567
  394ACOH    H212051   8.045   4.629   3.539  0.9540  0.6900  0.3061
  394ACOH    H312052   7.908   4.742   3.516  0.1104  3.6675  2.0273
  395ACOH    H412053   0.355   6.361   5.580 -0.2876  0.2217 -1.6105
  395ACOH    O212054   0.355   6.457   5.597 -0.0938  0.0382 -0.4951
  395ACOH    C212055   0.475   6.501   5.640  0.1254 -0.0556  0.1238
  395ACOH    O112056   0.588   6.456   5.619  0.1727  0.3591  0.2654
  395ACOH    C112057   0.468   6.640   5.700 -0.0955 -0.2561  0.3441
  395ACOH    H112058   0.414   6.625   5.793 -1.4278  0.2610 -0.3279
  395ACOH    H212059   0.407   6.705   5.637  0.1664  0.6621  1.0273
  395ACOH    H312060   0.567   6.685   5.715  0.3412 -1.1279  0.1285
  396ACOH    H412061   4.329   3.168   4.253  0.3979  0.1540 -2.5702
  396ACOH    O212062   4.354   3.262   4.252 -0.3645  0.4142  0.2692
  396ACOH    C212063   4.394   3.273   4.126 -0.0318  0.5867 -0.4752
  396ACOH    O112064   4.449   3.193   4.047 -0.1117  0.1915 -0.8761
  396ACOH    C112065   4.380   3.415   4.096 -0.2643 -0.5223 -0.0216
  396ACOH    H112066   4.281   3.455   4.120  0.2605 -0.2876  1.8551
  396ACOH    H212067   4.409   3.440   3.994 -1.3099  1.9399  0.2506
  396ACOH    H312068   4.455   3.467   4.155  0.6641 -0.8378 -0.9172
  397ACOH    H412069   5.448   5.798   0.640  0.1535  1.0712  0.1688
  397ACOH    O212070   5.497   5.816   0.558  0.1143 -0.4960 -0.2023
  397ACOH    C212071   5.505   5.694   0.501 -0.2552 -0.7850  0.0667
  397ACOH    O112072   5.491   5.590   0.553  0.2302 -0.4091  0.1141
  397ACOH    C112073   5.559   5.704   0.363  0.2682  0.0808 -0.5566
  397ACOH    H112074   5.665   5.680   0.357  0.2860 -0.2376  0.7646
  397ACOH    H212075   5.538   5.807   0.336 -1.5634 -0.2691 -0.5665
  397ACOH    H312076   5.494   5.642   0.300  0.5429  1.3543 -2.1098
  398ACOH    H412077   4.226   7.508   4.669  3.5508  0.7754  0.3733
  398ACOH    O212078   4.261   7.441   4.608  0.8873 -1.0023  0.7331
  398ACOH    C212079   4.158   7.376   4.550  0.1530  0.5729 -0.2574
  398ACOH    O112080   4.040   7.402   4.551 -0.0776  0.4450  0.3202
  398ACOH    C112081   4.203   7.258   4.475  0.4898 -0.2868  0.4735
  398ACOH    H112082   4.248   7.304   4.387 -1.8483 -2.0400 -1.7500
  398ACOH    H212083   4.120   7.200   4.433 -0.0048  1.2229 -0.7067
  398ACOH    H312084   4.279   7.198   4.525  0.8834 -0.1683  0.0241
  399ACOH    H412085   1.894   3.586   2.900 -0.5566  0.7310 -0.7873
  399ACOH    O212086   1.867   3.587   2.993 -0.0858  0.7287 -0.6499
  399ACOH    C212087   1.781   3.687   3.005  0.3290 -0.0111 -0.0640
  399ACOH    O112088   1.738   3.760   2.917  0.0353 -0.0666 -0.0645
  399ACOH    C112089   1.735   3.695   3.143 -0.1010  0.3293 -0.5993
  399ACOH    H112090   1.794   3.635   3.212 -0.3756  1.0985  0.3194
  399ACOH    H212091   1.632   3.662   3.155 -0.2050  0.9591  0.3187
  399ACOH    H312092   1.731   3.799   3.176 -0.6501  0.6458 -1.6521
  400ACOH    H412093   0.880   7.746   2.106 -1.0719 -0.1847  0.0091
  400ACOH    O212094   0.871   7.825   2.161  0.3776 -0.4104  0.5914
  400ACOH    C212095   0.749   7.880   2.128  0.6399  0.1460 -0.7752
  400ACOH    O112096   0.662   7.828   2.062  0.0497 -0.1026  0.0167
  400ACOH    C112097   0.735   8.018   2.185 -0.1283 -0.2086  0.3529
  400ACOH    H112098   0.828   8.074   2.177  0.1381 -0.8212 -1.0378
  400ACOH    H212099   0.706   8.010   2.290 -1.2160 -3.0022 -0.1207
  400ACOH    H312100   0.661   8.077   2.132 -2.0294 -3.9336 -1.2914
  401ACOH    H412101   5.755   3.625   5.594 -0.0592  0.7960 -0.6500
  401ACOH    O212102   5.682   3.572   5.557  0.3527 -0.3383  0.1286
  401ACOH    C212103   5.587   3.666   5.524 -0.6181 -1.2190  0.2922
  401ACOH    O112104   5.614   3.786   5.519  0.2723 -0.1341 -0.2079
  401ACOH    C112105   5.453   3.611   5.505  0.0045  0.5539 -0.7379
  401ACOH    H112106   5.405   3.642   5.412 -0.9785 -1.8691 -1.0846
  401ACOH    H212107   5.391   3.648   5.586 -0.7436  1.0450 -1.5243
  401ACOH    H312108   5.454   3.502   5.513  0.7173  0.7173  1.4992
  402ACOH    H412109   1.425   1.444   0.764  0.1499  1.9941  0.9203
  402ACOH    O212110   1.522   1.436   0.762  0.0212  0.3580 -0.1633
  402ACOH    C212111   1.558   1.457   0.634  0.2569 -0.1900  0.2308
  402ACOH    O112112   1.483   1.473   0.541  0.9255  0.3612  0.2947
  402ACOH    C112113   1.705   1.463   0.615 -0.2555 -0.3676 -0.3012
  402ACOH    H112114   1.757   1.383   0.562  0.2655 -0.8619  0.9360
  402ACOH    H212115   1.740   1.468   0.718 -1.7568  0.8635  0.1599
  402ACOH    H312116   1.735   1.555   0.565  0.7198 -1.7269 -2.3159
  403ACOH    H412117   4.440   4.767   1.540  1.1486  0.3790  0.1333
  403ACOH    O212118   4.477   4.712   1.470  0.2848  0.0362 -0.0611
  403ACOH    C212119   4.606   4.693   1.500 -0.4242 -0.5917  0.7148
  403ACOH    O112120   4.669   4.739   1.598  0.5909  0.1246  0.1935
  403ACOH    C112121   4.658   4.588   1.407  0.5020  0.1131 -0.1094
  403ACOH    H112122   4.693   4.502   1.465 -1.1399 -0.7074 -0.3221
  403ACOH    H212123   4.744   4.622   1.349  1.0314 -0.0401  0.5688
  403ACOH    H312124   4.582   4.551   1.338  0.2947  0.0854  0.1325
  404ACOH    H412125   6.255   6.536   3.403  0.9684  1.1160 -1.9225
  404ACOH    O212126   6.334   6.542   3.460 -0.2428  0.3248 -0.1132
  404ACOH    C212127   6.407   6.641   3.411  0.3102 -0.3367  0.5391
  404ACOH    O112128   6.360   6.734   3.348  0.3877 -0.2365 -0.1772
  404ACOH    C112129   6.549   6.643   3.457 -0.2896 -0.6826 -0.3660
  404ACOH    H112130   6.550   6.701   3.549  1.6290  0.4130 -1.0462
  404ACOH    H212131   6.608   6.700   3.386  1.0454 -1.4150  0.1350
  404ACOH    H312132   6.595   6.545   3.469 -1.1219 -0.8543  1.7345
  405ACOH    H412133   7.231   7.119   2.235 -0.2117 -2.3773  0.9510
  405ACOH    O212134   7.140   7.147   2.252  0.1931 -0.2052 -0.1844
  405ACOH    C212135   7.111   7.088   2.369 -0.1363 -1.3455 -0.1775
  405ACOH    O112136   7.183   7.006   2.421 -0.2803 -0.2669  0.1770
  405ACOH    C112137   6.969   7.082   2.389  0.5666 -0.1107 -0.4341
  405ACOH    H112138   6.930   7.179   2.419 -0.4537 -1.4161  2.7411
  405ACOH    H212139   6.944   7.014   2.472  0.7373 -0.4925 -0.6920
  405ACOH    H312140   6.932   7.044   2.294  3.6678 -0.3479 -1.5734
  406ACOH    H412141   5.694   2.389   3.323  3.6910 -1.4728  2.6380
  406ACOH    O212142   5.719   2.480   3.302 -0.4739 -0.7589  0.1985
  406ACOH    C212143   5.798   2.456   3.194  0.6198 -0.2803 -0.1068
  406ACOH    O112144   5.824   2.351   3.140  0.0452  0.3392  0.5783
  406ACOH    C112145   5.831   2.592   3.147  0.0734 -0.4737  0.4591
  406ACOH    H112146   5.900   2.637   3.218 -1.7922  0.7352  1.5513
  406ACOH    H212147   5.740   2.653   3.143 -0.5735 -1.4557 -0.0629
  406ACOH    H312148   5.868   2.573   3.047 -2.4371 -1.7845 -0.2628
  407SOL     OW12149   4.723   4.013   2.516  0.1712  0.0360  0.2729
  407SOL    HW112150   4.635   3.978   2.485  1.0002 -2.4383  0.5616
  407SOL    HW212151   4.766   4.065   2.442 -1.3882  1.0086  0.0350
  408SOL     OW12152   9.118   6.445   3.307 -0.0144 -0.1280  1.3680
  408SOL    HW112153   9.201   6.488   3.271  0.3179 -2.6468 -1.0648
  408SOL    HW212154   9.140   6.394   3.390  1.0102 -1.2065  0.4520
  409SOL     OW12155   3.613   1.828   0.272 -0.4746  0.1739 -0.1482
  409SOL    HW112156   3.562   1.763   0.328  0.8386 -1.2277 -0.5482
  409SOL    HW212157   3.648   1.901   0.330 -2.5986  0.9569  0.1886
  410SOL     OW12158   1.521   2.430   0.113  0.0468  0.0781 -0.2741
  410SOL    HW112159   1.508   2.529   0.101 -1.5230  0.1766  1.9120
  410SOL    HW212160   1.455   2.381   0.056  1.7707  0.2365 -2.4538
  411SOL     OW12161   1.319   5.789   4.099  0.3675 -0.1570 -0.0344
  411SOL    HW112162   1.249   5.779   4.170  0.8538 -0.2153  0.4395
  411SOL    HW212163   1.409   5.773   4.139  0.7672  1.3202 -0.3178
  412SOL     OW12164   3.682   4.245   3.320  0.2820 -0.4206 -0.2521
  412SOL    HW112165   3.722   4.336   3.308 -0.1238 -0.5020 -2.3641
  412SOL    HW212166   3.606   4.233   3.256  0.5526 -2.3695 -0.2442
  413SOL     OW12167   0.864   8.063   2.825  0.0171  0.6432  0.6603
  413SOL    HW112168   0.832   8.071   2.731  2.5639  1.1143 -0.1864
  413SOL    HW212169   0.878   8.154   2.863 -1.0164  0.4540  1.5258
  414SOL     OW12170   0.941   2.952   3.871 -0.7032 -0.3601  0.7464
  414SOL    HW112171   1.009   2.993   3.811 -0.1758 -2.8404 -0.4356
  414SOL    HW212172   0.850   2.980   3.843 -0.2939  1.2130  0.9484
  415SOL     OW12173   2.778   7.010   4.000 -0.1743  0.4504 -0.6566
  415SOL    HW112174   2.751   7.013   4.096  1.3680  0.8669 -0.2217
  415SOL    HW212175   2.701   6.979   3.944 -1.2680  0.8134  0.6372
  416SOL     OW12176   2.714   8.424   5.378 -0.2604 -0.0518 -0.2666
  416SOL    HW112177   2.718   8.513   5.425 -0.8030 -1.0140  1.6401
  416SOL    HW212178   2.805   8.383   5.377 -0.3286 -0.2338  0.3872
  417SOL     OW12179   6.276   8.447   2.306 -0.0721  0.3991 -0.0060
  417SOL    HW112180   6.372   8.475   2.314  0.1187 -0.3963  0.5084
  417SOL    HW212181   6.266   8.384   2.229 -0.0851  0.0452  0.2869
  418SOL     OW12182   1.556   3.849   3.431  0.5287  0.0464  0.4473
  418SOL    HW112183   1.491   3.894   3.369 -0.0625  0.0073  1.0336
  418SOL    HW212184   1.549   3.889   3.522  1.1055 -0.1728  0.5867
  419SOL     OW12185   4.914   8.138   3.223  0.1173  0.3048  0.0314
  419SOL    HW112186   4.974   8.068   3.262  0.2102 -0.2594 -1.1080
  419SOL    HW212187   4.967   8.221   3.207  0.5053 -0.0459 -0.5560
  420SOL     OW12188   1.389   3.765   1.472  0.3270  0.0644  0.0138
  420SOL    HW112189   1.320   3.700   1.441  2.2822 -1.0167 -2.3077
  420SOL    HW212190   1.404   3.834   1.401  1.9111  0.0277  0.2898
  421SOL     OW12191   0.657   1.417   2.637 -0.8549 -0.3415  0.0520
  421SOL    HW112192   0.598   1.394   2.715 -2.6395 -1.5433 -1.6070
  421SOL    HW212193   0.707   1.335   2.609 -2.0258 -0.5460 -1.5353
  422SOL     OW12194   2.223   2.992   5.607  0.1880 -0.0609 -0.1210
  422SOL    HW112195   2.200   2.897   5.586  2.0366 -0.3058 -1.1131
  422SOL    HW212196   2.187   3.052   5.536 -0.8772 -0.0132  0.4450
  423SOL     OW12197   0.968   0.313   2.202  0.0156 -0.1464 -0.4095
  423SOL    HW112198   1.004   0.221   2.186  1.5569 -0.0754  2.3878
  423SOL    HW212199   1.034   0.366   2.254 -1.6764  1.9502 -0.3352
  424SOL     OW12200   9.505   9.420   0.422  0.1294 -0.1328 -0.3735
  424SOL    HW112201   9.427   9.464   0.466  0.8537  1.4096 -0.6106
  424SOL    HW212202   9.507   9.443   0.325  0.5437 -0.6518 -0.4925
  425SOL     OW12203   9.232   8.412   4.375 -0.7640  0.4129 -0.0752
  425SOL    HW112204   9.326   8.392   4.348 -0.5509  3.1012 -1.5514
  425SOL    HW212205   9.171   8.394   4.298 -1.1891  0.6342  0.2093
  426SOL     OW12206   2.396   6.818   1.510 -0.5075  0.1253  0.6517
  426SOL    HW112207   2.318   6.866   1.551 -0.7322 -0.7414  1.2562
  426SOL    HW212208   2.463   6.797   1.581 -1.1683 -1.9124  0.6975
  427SOL     OW12209   8.181   3.646   3.115 -0.5628 -0.0687 -0.2863
  427SOL    HW112210   8.261   3.590   3.132  0.4830  1.3436 -0.4699
  427SOL    HW212211   8.182   3.680   3.021 -1.7576 -0.6392 -0.5138
  428SOL     OW12212   8.143   6.376   0.542  0.0504 -0.2720  0.5600
  428SOL    HW112213   8.047   6.353   0.562  0.1603 -1.4327 -0.2085
  428SOL    HW212214   8.161   6.362   0.444  0.6972  1.0855  0.4685
  429SOL     OW12215   0.255   1.472   5.013  0.0883  0.5639  0.2443
  429SOL    HW112216   0.159   1.498   5.005 -0.4276 -1.3382  0.2320
  429SOL    HW212217   0.273   1.436   5.104  0.2153 -1.4181 -0.5526
  430SOL     OW12218   2.553   6.297   5.401 -0.5434  0.1983 -0.0190
  430SOL    HW112219   2.584   6.228   5.466 -0.2220  1.1959  0.8908
  430SOL    HW212220   2.618   6.373   5.399 -1.5882  1.1104 -0.0065
  431SOL     OW12221   1.965   1.509   2.178  0.4312  0.4117  0.4273
  431SOL    HW112222   1.990   1.429   2.233  0.2414 -0.6839 -1.0322
  431SOL    HW212223   1.993   1.593   2.225  2.1190 -0.5782  1.2455
  432SOL     OW12224   1.805   0.830   3.611  0.1244 -0.0925 -0.4862
  432SOL    HW112225   1.866   0.755   3.584  0.0140 -2.0519  4.1323
  432SOL    HW212226   1.859   0.902   3.655 -0.4873 -0.4055  0.7921
  433SOL     OW12227   5.329   1.948   2.942  0.3049  0.5532  0.0641
  433SOL    HW112228   5.311   1.965   2.845  1.3671 -1.6176 -0.5394
  433SOL    HW212229   5.280   1.866   2.971 -0.1506  1.2911  1.4199
  434SOL     OW12230   2.579   9.139   2.610  0.3028 -0.4262 -0.2440
  434SOL    HW112231   2.671   9.141   2.650 -0.0194  0.4081  0.4787
  434SOL    HW212232   2.586   9.124   2.512  1.1320 -2.0342  0.0452
  435SOL     OW12233   9.041   0.870   0.421 -0.2108 -0.5570 -0.7563
  435SOL    HW112234   9.050   0.802   0.349  2.3763 -0.5530 -0.4789
  435SOL    HW212235   9.028   0.823   0.509  0.9496 -0.7117 -0.6531
  436SOL     OW12236   7.602   1.443   0.981  0.5414  0.1598 -0.5237
  436SOL    HW112237   7.606   1.353   1.024  0.1828 -0.0926 -1.0227
  436SOL    HW212238   7.508   1.476   0.981  0.5042  0.0458 -1.3550
  437SOL     OW12239   8.162   8.580   4.482 -0.3330  0.4514 -0.0630
  437SOL    HW112240   8.238   8.516   4.470 -2.0613 -1.7043  0.0036
  437SOL    HW212241   8.150   8.635   4.400  0.7701  0.1909 -0.3976
  438SOL     OW12242   0.934   2.264   0.113 -0.0052  0.5483 -0.3718
  438SOL    HW112243   0.873   2.277   0.191 -0.6556  0.9568 -0.9414
  438SOL    HW212244   0.963   2.352   0.077 -0.6789  0.3962 -1.3302
  439SOL     OW12245   4.924   4.298   1.689 -0.2668 -0.2920  0.4004
  439SOL    HW112246   4.943   4.356   1.769 -0.7137  1.4073 -0.7116
  439SOL    HW212247   5.003   4.298   1.629  0.1867 -1.8269  0.9746
  440SOL     OW12248   2.856   4.350   5.423 -0.1131 -0.1587  0.2093
  440SOL    HW112249   2.894   4.432   5.380 -0.2501 -0.0511  0.2908
  440SOL    HW212250   2.805   4.297   5.356 -1.7563  0.8776  0.6273
  441SOL     OW12251   5.967   1.692   2.742 -0.2584 -0.2644  0.0545
  441SOL    HW112252   5.886   1.730   2.786  0.6308 -0.1168  1.5945
  441SOL    HW212253   6.006   1.760   2.680  0.1912  0.6390  1.3076
  442SOL     OW12254   3.797   6.318   2.691 -0.4272 -0.2816 -0.4346
  442SOL    HW112255   3.774   6.410   2.659 -0.3466 -0.1628 -0.1495
  442SOL    HW212256   3.864   6.277   2.629  2.0174  1.0948  1.2262
  443SOL     OW12257   4.677   0.975   2.006 -0.2974 -0.3462 -0.9346
  443SOL    HW112258   4.762   1.024   1.985 -1.1947  0.7190 -2.1315
  443SOL    HW212259   4.619   0.973   1.925 -1.0090 -1.9249 -0.3975
  444SOL     OW12260   4.256   1.366   2.813 -0.1542  0.1543  0.4288
  444SOL    HW112261   4.326   1.376   2.883  0.3738  0.4266 -0.1356
  444SOL    HW212262   4.266   1.439   2.745  0.5902 -1.2410 -1.0053
  445SOL     OW12263   0.496   5.198   3.978 -0.0660  0.1465 -0.3676
  445SOL    HW112264   0.558   5.230   3.906 -0.0707  0.1114 -0.3874
  445SOL    HW212265   0.525   5.108   4.010 -0.2107  0.0531 -0.4999
  446SOL     OW12266   1.652   3.782   4.756  0.2640  0.0539  0.0805
  446SOL    HW112267   1.744   3.745   4.745 -0.1480 -0.5952 -1.4580
  446SOL    HW212268   1.585   3.708   4.744 -0.4228  0.2553  2.5284
  447SOL     OW12269   2.608   9.824   0.826 -0.3543  0.5637  0.7515
  447SOL    HW112270   2.687   9.884   0.813 -0.5757  0.6877 -0.0574
  447SOL    HW212271   2.639   9.733   0.851  0.0867  0.3692 -0.4885
  448SOL     OW12272   1.653   3.513   0.456  0.3698 -0.1200  0.0589
  448SOL    HW112273   1.712   3.465   0.392  0.7337 -0.7255  0.8424
  448SOL    HW212274   1.560   3.518   0.419  1.3841  2.9238 -2.2671
  449SOL     OW12275   3.551   5.464   2.690 -0.2224  0.4269 -0.4960
  449SOL    HW112276   3.464   5.478   2.642 -0.5343  0.8499  0.1791
  449SOL    HW212277   3.619   5.429   2.626 -1.6159 -2.4886 -0.4293
  450SOL     OW12278   2.718   9.219   5.574 -0.1258  0.1268  0.4750
  450SOL    HW112279   2.634   9.223   5.629 -1.4139 -2.3205 -1.2132
  450SOL    HW212280   2.775   9.143   5.604 -0.1120 -0.2782 -0.5677
  451SOL     OW12281   8.709   0.713   4.851 -0.1163 -0.0613 -0.5880
  451SOL    HW112282   8.710   0.614   4.834 -0.0845 -0.0337 -0.7507
  451SOL    HW212283   8.661   0.732   4.936 -3.0446  0.0241 -2.1992
  452SOL     OW12284   2.931   8.549   5.546 -0.3601 -0.1137  0.2134
  452SOL    HW112285   2.947   8.460   5.503 -0.5379 -0.0539  0.0244
  452SOL    HW212286   3.010   8.574   5.601  0.2075  0.1852 -0.7301
  453SOL     OW12287   7.009   1.681   2.475 -0.9129  0.2998 -0.5135
  453SOL    HW112288   7.074   1.660   2.402 -0.1738  0.0697  0.2008
  453SOL    HW212289   7.041   1.640   2.561 -0.4913  2.6391  0.4749
  454SOL     OW12290   7.270   8.563   4.092 -0.3551 -0.3408  0.2158
  454SOL    HW112291   7.209   8.598   4.022 -0.2231 -0.4777  0.0330
  454SOL    HW212292   7.363   8.557   4.056  0.0437  1.2622  0.9560
  455SOL     OW12293   2.747   3.328   5.057 -0.3924  0.5960 -0.4163
  455SOL    HW112294   2.671   3.383   5.091 -1.2118  0.3350 -1.7955
  455SOL    HW212295   2.712   3.243   5.018  0.6703  0.1388 -0.3999
  456SOL     OW12296   8.879   0.081   3.742 -0.0403 -0.4474  0.0602
  456SOL    HW112297   8.907   0.025   3.664  1.1855 -0.7087  0.6774
  456SOL    HW212298   8.951   0.148   3.762 -0.7910  0.2780  0.3407
  457SOL     OW12299   5.409   2.604   2.630  0.4977 -0.1315  0.2784
  457SOL    HW112300   5.374   2.604   2.723  0.3993  3.0336  0.2798
  457SOL    HW212301   5.339   2.640   2.568  1.1719 -0.6113 -0.7792
  458SOL     OW12302   4.925   1.598   3.922 -0.4591 -0.5854 -0.4524
  458SOL    HW112303   4.885   1.683   3.887  0.0596 -0.2818 -0.3128
  458SOL    HW212304   5.024   1.609   3.931 -0.0748 -2.0087 -2.7003
  459SOL     OW12305   1.723   7.815   2.716  0.6194 -0.6208  0.3210
  459SOL    HW112306   1.806   7.797   2.664  0.8116  0.3377  0.2837
  459SOL    HW212307   1.646   7.827   2.653  0.7887  0.2067  0.2606
  460SOL     OW12308   8.337   9.675   4.542  0.1730  0.2787  0.1188
  460SOL    HW112309   8.329   9.684   4.641 -0.3044 -1.4592  0.2529
  460SOL    HW212310   8.415   9.616   4.520 -0.9907 -1.0443 -0.4721
  461SOL     OW12311   3.160   6.104   0.171  0.4086  0.6414  0.0591
  461SOL    HW112312   3.254   6.123   0.197  1.1564 -0.5404 -1.7187
  461SOL    HW212313   3.121   6.183   0.125  1.1233  0.4880 -0.8092
  462SOL     OW12314   1.667   7.263   0.444 -0.1094 -0.3826 -0.0968
  462SOL    HW112315   1.714   7.309   0.369  0.9268  0.9764  1.3534
  462SOL    HW212316   1.715   7.178   0.466 -1.0298 -1.3210 -1.6472
  463SOL     OW12317   7.074   6.941   4.143  0.2318  0.3449 -0.3728
  463SOL    HW112318   7.011   6.946   4.221 -0.9607  0.0214 -1.3017
  463SOL    HW212319   7.136   7.020   4.146  1.2310 -0.4704  1.7600
  464SOL     OW12320   1.109   3.394   1.208  0.1740 -0.2985  0.3351
  464SOL    HW112321   1.021   3.432   1.236 -0.7686 -2.1475  0.0030
  464SOL    HW212322   1.105   3.367   1.112  0.7150 -1.4156  0.6082
  465SOL     OW12323   8.414   4.447   5.306  0.3428  0.3140 -0.0352
  465SOL    HW112324   8.437   4.361   5.260  0.9564  0.5396 -0.1550
  465SOL    HW212325   8.360   4.504   5.244 -0.2763 -0.0875  0.1328
  466SOL     OW12326   8.777   6.645   4.597 -0.4752 -0.0288  0.4976
  466SOL    HW112327   8.794   6.605   4.687  0.3964  0.4955  0.5682
  466SOL    HW212328   8.857   6.631   4.539 -0.9448 -0.1586 -0.1230
  467SOL     OW12329   2.106   0.004   3.839  0.0703  0.5664  0.5753
  467SOL    HW112330   2.073   0.022   3.931  2.5065  2.8560  1.0466
  467SOL    HW212331   2.062   0.067   3.774  1.1128  1.4866  0.7450
  468SOL     OW12332   1.772   4.944   2.275  0.1610 -0.0073 -0.1231
  468SOL    HW112333   1.710   4.933   2.197 -0.6837 -2.6828  0.8987
  468SOL    HW212334   1.866   4.954   2.241 -0.1409 -1.6502 -1.4847
  469SOL     OW12335   1.658   2.924   4.387 -0.3166 -0.1091  0.6127
  469SOL    HW112336   1.602   2.882   4.315  2.4826 -1.5635 -0.7993
  469SOL    HW212337   1.617   2.905   4.476 -2.8190  0.0987 -0.4370
  470SOL     OW12338   7.244   8.046   3.637 -0.3999  0.2172  0.8088
  470SOL    HW112339   7.206   8.011   3.551  0.1694 -1.5298  1.2452
  470SOL    HW212340   7.211   8.138   3.653 -0.8392  0.4034 -1.0885
  471SOL     OW12341   2.775   9.362   1.039 -0.0534 -0.4423 -0.2683
  471SOL    HW112342   2.701   9.309   1.081  0.1067 -0.0456  0.5284
  471SOL    HW212343   2.856   9.304   1.028 -0.3367 -0.7533 -0.7236
  472SOL     OW12344   4.311   0.348   0.380  0.0318 -0.5000 -0.3173
  472SOL    HW112345   4.340   0.359   0.475  0.0692 -0.4108 -0.3384
  472SOL    HW212346   4.381   0.299   0.329  1.1098  1.5387 -0.8610
  473SOL     OW12347   4.723   6.318   2.400  0.3211 -0.5251  0.2705
  473SOL    HW112348   4.821   6.299   2.404  0.5486  0.6037  0.1508
  473SOL    HW212349   4.697   6.374   2.478  0.2253  1.1698 -0.9517
  474SOL     OW12350   7.313   9.995   2.228  0.3359 -0.3397  0.1320
  474SOL    HW112351   7.217  10.022   2.234  0.2093 -0.5889 -0.7189
  474SOL    HW212352   7.369  10.074   2.204  0.4494 -0.0242  1.3843
  475SOL     OW12353   9.363   9.736   2.400  0.6900  0.5818  0.2483
  475SOL    HW112354   9.305   9.719   2.479 -0.4803 -0.1593 -0.7586
  475SOL    HW212355   9.421   9.815   2.417  0.6105  0.2789  1.9322
  476SOL     OW12356   9.219   9.767   4.271  0.5601  0.3617  0.7761
  476SOL    HW112357   9.238   9.777   4.368  4.1157 -0.9446  0.3121
  476SOL    HW212358   9.222   9.670   4.246 -0.9780  0.6255 -0.5229
  477SOL     OW12359   5.970   9.049   2.367 -0.4238 -0.2077  0.0267
  477SOL    HW112360   5.939   9.031   2.461  1.2081  1.1281  0.8488
  477SOL    HW212361   6.038   8.980   2.341 -2.5641 -1.9600 -1.0526
  478SOL     OW12362   1.824   5.913   4.396  0.6793  0.4143 -0.0462
  478SOL    HW112363   1.811   5.853   4.475  1.3631  1.3297  0.7866
  478SOL    HW212364   1.912   5.894   4.353 -0.6646 -1.6349 -1.9925
  479SOL     OW12365   0.861   9.605   5.117 -0.6710 -0.0225 -0.2841
  479SOL    HW112366   0.870   9.513   5.078 -0.0474 -0.6175  1.2185
  479SOL    HW212367   0.913   9.670   5.062  0.3870 -0.8865 -0.3275
  480SOL     OW12368   2.019   6.841   1.201  0.8300  0.3354  0.0286
  480SOL    HW112369   1.985   6.839   1.295  0.3040 -0.0856 -0.1618
  480SOL    HW212370   2.108   6.885   1.198  0.2005  1.6572  0.5170
  481SOL     OW12371   9.866   4.437   5.349  0.0746 -0.6934  0.6487
  481SOL    HW112372   9.903   4.453   5.441  0.5711 -1.4685  0.5891
  481SOL    HW212373   9.767   4.452   5.350  0.1884  0.0410  1.1314
  482SOL     OW12374   4.814   1.168   4.096 -0.0206  0.2963 -0.1428
  482SOL    HW112375   4.730   1.158   4.150 -0.1297 -0.0764 -0.3882
  482SOL    HW212376   4.823   1.092   4.032  0.1430  0.7087 -0.6154
  483SOL     OW12377   0.693   3.276   0.712 -0.4717  0.3626 -0.8034
  483SOL    HW112378   0.651   3.258   0.623 -0.9617  0.9439 -0.6871
  483SOL    HW212379   0.712   3.373   0.722 -2.0429  0.5618  0.4430
  484SOL     OW12380   4.391   1.256   1.969 -0.0970  0.5111 -0.3231
  484SOL    HW112381   4.295   1.274   1.951  0.0060  1.7523  0.2694
  484SOL    HW212382   4.443   1.341   1.959  0.5475  0.4027  1.8196
  485SOL     OW12383   9.707   1.711   1.040 -0.0295 -0.2198  0.5866
  485SOL    HW112384   9.745   1.802   1.057 -1.5324  0.5004  0.1830
  485SOL    HW212385   9.611   1.710   1.069 -0.3944 -1.2879 -0.6376
  486SOL     OW12386   8.805   3.471   1.134 -0.7663 -0.4953  0.2884
  486SOL    HW112387   8.741   3.534   1.090  1.6482  1.1604 -0.9427
  486SOL    HW212388   8.851   3.415   1.064 -0.1554 -0.9926  1.0749
  487SOL     OW12389   9.700   1.161   4.109  0.3558 -0.6644 -0.1136
  487SOL    HW112390   9.788   1.204   4.129  0.4891  0.0613 -2.1982
  487SOL    HW212391   9.696   1.073   4.156  1.5063  0.0386  1.3517
  488SOL     OW12392   1.141   9.527   5.624  0.3093  0.5632 -0.2137
  488SOL    HW112393   1.103   9.616   5.649 -1.4149 -0.3499  0.4843
  488SOL    HW212394   1.092   9.455   5.672  0.8684 -0.8557 -1.7241
  489SOL     OW12395   9.179   3.253   2.278  0.1338  0.8729  0.1841
  489SOL    HW112396   9.160   3.331   2.217 -3.1495 -1.0277 -1.3441
  489SOL    HW212397   9.115   3.254   2.354  0.5193  0.0569  0.5185
  490SOL     OW12398   3.742   4.853   5.520  0.1025 -0.4948  0.4961
  490SOL    HW112399   3.838   4.834   5.501 -0.0064 -0.8071  0.2502
  490SOL    HW212400   3.735   4.935   5.576  0.4434  0.3222 -0.6455
  491SOL     OW12401   6.090   7.207   4.099  0.5565  0.2932  0.2464
  491SOL    HW112402   6.055   7.242   4.012  0.3715  0.9548  0.5808
  491SOL    HW212403   6.180   7.166   4.085  0.4260  0.1880 -0.2962
  492SOL     OW12404   3.852   8.723   5.263  0.0906 -0.3536 -0.6582
  492SOL    HW112405   3.871   8.760   5.172 -0.7165  0.5799 -0.4647
  492SOL    HW212406   3.755   8.696   5.268  0.0372 -0.0494  0.0371
  493SOL     OW12407   2.410   8.089   2.866 -0.2921 -0.3877 -0.6204
  493SOL    HW112408   2.357   8.172   2.877  0.0645  0.0768 -2.2604
  493SOL    HW212409   2.441   8.081   2.771  2.3450 -0.7579  0.2074
  494SOL     OW12410   1.228   6.305   3.004  0.3864  0.5910 -0.0077
  494SOL    HW112411   1.272   6.322   3.092 -2.4948 -0.2851  1.6624
  494SOL    HW212412   1.254   6.376   2.939  0.5552  2.7175  2.3161
  495SOL     OW12413   1.641   6.131   4.365 -0.0312  0.1077 -0.1542
  495SOL    HW112414   1.722   6.073   4.375 -0.2053  0.0712  1.0201
  495SOL    HW212415   1.586   6.098   4.287  0.9508 -0.0097 -0.8040
  496SOL     OW12416   7.997   6.143   0.296 -0.1095  0.0886 -0.5563
  496SOL    HW112417   7.914   6.192   0.269 -0.9001 -1.1160 -0.3303
  496SOL    HW212418   8.004   6.140   0.396 -0.8230 -1.5041 -0.5425
  497SOL     OW12419   2.764   0.924   0.380  0.3314  0.1059  0.0958
  497SOL    HW112420   2.753   0.910   0.479  1.0917 -0.0325  0.1645
  497SOL    HW212421   2.860   0.913   0.356  0.1844  0.4082 -0.6224
  498SOL     OW12422   4.616   9.248   2.100 -0.2907 -0.1350 -0.0180
  498SOL    HW112423   4.688   9.270   2.034 -0.8665 -0.1101 -0.6440
  498SOL    HW212424   4.545   9.195   2.055 -0.5978 -0.2786  0.6344
  499SOL     OW12425   9.887   8.768   4.491 -0.3509 -0.3782  0.2550
  499SOL    HW112426   9.867   8.864   4.509  0.9740  0.3460 -2.0264
  499SOL    HW212427   9.957   8.736   4.555  2.3147  1.3843 -1.7499
  500SOL     OW12428   1.237   4.211   3.378  0.2290  0.0630  0.3578
  500SOL    HW112429   1.280   4.294   3.342  2.0305 -1.4401 -1.0403
  500SOL    HW212430   1.160   4.185   3.320  0.8659 -0.3216 -0.3149
  501SOL     OW12431   8.904   8.625   1.464 -0.4164  0.1748 -0.0841
  501SOL    HW112432   8.976   8.635   1.396  0.1011 -1.0224  0.2780
  501SOL    HW212433   8.930   8.675   1.547  0.9635 -1.9502  0.7877
  502SOL     OW12434   9.760   6.594   1.219  0.2067  0.0291 -0.2280
  502SOL    HW112435   9.748   6.553   1.309  1.7960  2.0977  0.9618
  502SOL    HW212436   9.722   6.532   1.149 -1.6964 -1.2766  1.8776
  503SOL     OW12437   9.280   0.071   4.055  0.3483 -0.5819  0.4390
  503SOL    HW112438   9.190   0.112   4.069  1.5296  2.3230 -0.1857
  503SOL    HW212439   9.325   0.058   4.144  1.0581  2.0998  0.5055
  504SOL     OW12440   1.620   6.044   5.551  0.7290  0.5152 -0.4493
  504SOL    HW112441   1.604   5.946   5.558 -0.6983  0.6479 -1.5122
  504SOL    HW212442   1.601   6.075   5.458  4.3779  1.2832 -0.9927
  505SOL     OW12443   5.054   1.308   0.781 -0.5011 -0.2342  0.2299
  505SOL    HW112444   4.975   1.278   0.834 -0.2976 -1.0689  0.0738
  505SOL    HW212445   5.072   1.241   0.708  0.6007 -0.2671  0.5280
  506SOL     OW12446   9.651   4.590   0.125 -0.6376  0.1847 -0.5030
  506SOL    HW112447   9.610   4.663   0.071  1.7281  1.5356 -0.5565
  506SOL    HW212448   9.643   4.504   0.075 -0.6176  0.9846 -1.9151
  507SOL     OW12449   0.596   8.543   3.878  0.0504 -0.3396 -0.3387
  507SOL    HW112450   0.665   8.478   3.909 -0.7861  0.3171  3.0633
  507SOL    HW212451   0.592   8.621   3.941 -2.4911  0.5331 -1.4862
  508SOL     OW12452   3.782   1.496   3.347  0.1855  0.5198  0.0317
  508SOL    HW112453   3.860   1.473   3.405 -0.2311  1.0667  0.8175
  508SOL    HW212454   3.766   1.422   3.282  1.8024  0.7307 -0.6122
  509SOL     OW12455   2.175   3.324   0.961  0.0222 -0.2722 -0.6815
  509SOL    HW112456   2.175   3.265   0.880  2.0730 -0.1891 -0.7669
  509SOL    HW212457   2.270   3.340   0.991 -0.4865  2.8415 -0.5656
  510SOL     OW12458   3.941   8.756   3.295  0.1001 -0.1359 -0.4475
  510SOL    HW112459   4.027   8.717   3.330  0.2518 -0.0874 -0.7632
  510SOL    HW212460   3.957   8.794   3.204  0.4394  2.4485  0.6390
  511SOL     OW12461   0.122   9.783   4.449 -0.4755  0.2149  0.4664
  511SOL    HW112462   0.215   9.815   4.427 -0.2799 -1.1665 -0.7697
  511SOL    HW212463   0.127   9.710   4.518 -0.6896  0.4610  0.7467
  512SOL     OW12464   8.403   6.834   4.316  0.0248  0.0323  0.2881
  512SOL    HW112465   8.335   6.765   4.340 -0.5718  0.0917 -1.2167
  512SOL    HW212466   8.479   6.830   4.382 -1.2158 -0.3109  1.7315
  513SOL     OW12467   0.965   6.499   2.106  0.4317 -0.5305 -0.6246
  513SOL    HW112468   0.947   6.402   2.096 -0.2487 -0.4682 -0.0311
  513SOL    HW212469   0.907   6.537   2.178 -0.5122  0.6358 -1.9535
  514SOL     OW12470   4.903   3.016   3.319 -0.1252  0.2077 -0.3047
  514SOL    HW112471   4.809   2.982   3.322 -0.1330 -0.0751 -2.8075
  514SOL    HW212472   4.905   3.106   3.275  0.7228  0.4149  0.1488
  515SOL     OW12473   9.165   5.078   2.923  0.5478  0.0472 -0.2969
  515SOL    HW112474   9.077   5.077   2.971  1.6564  0.0528  1.8198
  515SOL    HW212475   9.209   5.167   2.936  1.1340 -0.1620 -0.8242
  516SOL     OW12476   9.787   7.907   2.813 -0.5025  0.0055  0.2396
  516SOL    HW112477   9.742   7.818   2.805 -1.7253  0.7603 -1.5830
  516SOL    HW212478   9.767   7.962   2.732  2.5513  0.9125  0.0369
  517SOL     OW12479   0.622   4.947   5.293 -0.2241  0.1455  0.1401
  517SOL    HW112480   0.571   4.890   5.358 -0.9736  0.3912 -0.2372
  517SOL    HW212481   0.601   5.043   5.309  1.1411  0.3470  0.8604
  518SOL     OW12482   1.284   1.748   1.388  0.0801  0.5594  0.0109
  518SOL    HW112483   1.333   1.751   1.475 -1.4658 -0.6501  0.9574
  518SOL    HW212484   1.239   1.659   1.378  0.6944  0.4672 -2.2953
  519SOL     OW12485   3.215   2.665   0.563 -0.1086  0.1660  0.1204
  519SOL    HW112486   3.278   2.609   0.616 -0.4303  0.2096  0.5490
  519SOL    HW212487   3.146   2.705   0.624  0.3247  1.3125 -0.1255
  520SOL     OW12488   9.752   6.883   4.205 -0.0609  0.5295 -0.0177
  520SOL    HW112489   9.794   6.941   4.275 -1.9114 -0.1058  1.6346
  520SOL    HW212490   9.762   6.787   4.230 -4.1056  0.3899  1.4096
  521SOL     OW12491   1.703   6.839   4.206  0.0314  0.0719  0.1473
  521SOL    HW112492   1.696   6.901   4.128 -1.2819  0.4713  0.5664
  521SOL    HW212493   1.612   6.823   4.244  0.2956 -2.3090 -0.1051
  522SOL     OW12494   0.481   0.353   4.387 -0.4006  0.4710  0.4017
  522SOL    HW112495   0.462   0.260   4.357 -0.0494  0.1702  1.1166
  522SOL    HW212496   0.396   0.394   4.422 -1.1683  1.3347 -2.3159
  523SOL     OW12497   0.748   8.805   1.137 -0.5255 -0.4239  0.0847
  523SOL    HW112498   0.722   8.755   1.220  1.0635  0.2693  1.0325
  523SOL    HW212499   0.813   8.751   1.084  0.3908  0.1734  0.5817
  524SOL     OW12500   9.271   0.029   3.785  0.1894 -0.2232 -0.4438
  524SOL    HW112501   9.242   0.066   3.874 -0.8474  0.8928 -1.2211
  524SOL    HW212502   9.357   0.071   3.757  0.4350 -0.4602 -0.0452
  525SOL     OW12503   0.177   1.149   4.818 -0.2884 -0.3254 -0.7724
  525SOL    HW112504   0.161   1.118   4.912  0.8363 -1.1193 -0.8281
  525SOL    HW212505   0.139   1.082   4.754  3.3575 -2.4069 -0.9099
  526SOL     OW12506   2.178   8.948   5.548 -0.2712 -0.8934  0.3590
  526SOL    HW112507   2.254   8.919   5.490  0.2831 -1.8312  1.5278
  526SOL    HW212508   2.098   8.890   5.529 -0.5066 -0.3319 -0.4007
  527SOL     OW12509   1.373   9.102   2.134 -0.1272  0.1039 -0.3984
  527SOL    HW112510   1.336   9.013   2.160 -0.1909  0.3627  0.3994
  527SOL    HW212511   1.469   9.108   2.163 -0.1292  0.3062 -0.4327
  528SOL     OW12512   4.108   5.026   0.488  0.0113 -0.1963 -0.5101
  528SOL    HW112513   4.012   5.001   0.485 -0.2634  0.8758 -0.8953
  528SOL    HW212514   4.148   5.017   0.397 -0.2129  1.2139 -0.7564
  529SOL     OW12515   6.109   6.977   3.293  0.0010  0.5605  0.0904
  529SOL    HW112516   6.120   6.924   3.209 -0.4607  0.8442 -0.1493
  529SOL    HW212517   6.199   7.003   3.328  0.1638  1.6307 -1.0818
  530SOL     OW12518   8.506   5.120   5.279 -0.1153  0.9375 -0.0605
  530SOL    HW112519   8.522   5.170   5.363  0.1280 -0.1008  0.5238
  530SOL    HW212520   8.477   5.183   5.207 -1.3248  1.6915  1.0675
  531SOL     OW12521   8.426   8.495   2.843  0.0275 -0.3612  0.0720
  531SOL    HW112522   8.401   8.588   2.815  1.5096  0.1266  0.3141
  531SOL    HW212523   8.357   8.431   2.811 -1.2230  0.8732  0.2391
  532SOL     OW12524   1.631   9.127   3.319  0.3148  0.4602 -0.2403
  532SOL    HW112525   1.650   9.080   3.232  0.2553 -1.2481  0.6456
  532SOL    HW212526   1.718   9.153   3.361  0.4610 -1.0194  0.4080
  533SOL     OW12527   0.056   7.688   2.814 -0.0301  0.4738  0.2111
  533SOL    HW112528   0.119   7.610   2.815  1.1191  1.3946  0.9857
  533SOL    HW212529  -0.015   7.673   2.746  2.0707  0.2228 -1.9758
  534SOL     OW12530   7.574   1.913   3.232 -0.1109 -0.2199 -0.3844
  534SOL    HW112531   7.567   1.954   3.323  1.2297  1.4452 -1.0124
  534SOL    HW212532   7.671   1.904   3.206 -0.4407 -1.7944 -1.1600
  535SOL     OW12533   2.665   9.839   0.311  0.2958 -0.2468  0.3193
  535SOL    HW112534   2.592   9.770   0.316  1.5556 -1.6204  0.2737
  535SOL    HW212535   2.751   9.797   0.337  0.9764  1.5301  0.9894
  536SOL     OW12536   8.217   7.011   0.452  0.3061  0.0970  0.2155
  536SOL    HW112537   8.236   7.038   0.546 -0.1950  2.9441 -0.4805
  536SOL    HW212538   8.298   7.024   0.395  0.1786 -0.2706 -0.0617
  537SOL     OW12539   8.385   1.580   2.304  0.6180  0.2155  0.6746
  537SOL    HW112540   8.325   1.507   2.269 -1.1748  0.3458  3.3872
  537SOL    HW212541   8.470   1.579   2.252 -0.8980 -1.2733 -1.9575
  538SOL     OW12542   3.450   5.699   1.833 -0.1148 -0.1614  0.4991
  538SOL    HW112543   3.550   5.689   1.834 -0.1681 -0.9442 -0.6630
  538SOL    HW212544   3.408   5.609   1.818 -1.0261  0.0312  1.8817
  539SOL     OW12545   4.323   3.441   2.802  0.2570  0.1441  0.3593
  539SOL    HW112546   4.268   3.522   2.781 -0.9418 -1.0881 -1.5543
  539SOL    HW212547   4.412   3.449   2.758  0.1508  0.4613  0.1963
  540SOL     OW12548   6.833   8.933   3.494  0.8971  0.3272 -0.2551
  540SOL    HW112549   6.744   8.892   3.512  0.6900  0.2375 -1.4625
  540SOL    HW212550   6.898   8.862   3.467  0.5422  0.7666 -2.3325
  541SOL     OW12551   1.033   7.883   4.405  0.1366  0.0096 -0.2640
  541SOL    HW112552   0.949   7.856   4.357  0.5028 -0.9626 -0.3689
  541SOL    HW212553   1.095   7.805   4.410  1.3149  0.8932 -0.7630
  542SOL     OW12554   5.957   7.505   2.209 -0.5548 -0.2536 -0.3291
  542SOL    HW112555   5.862   7.490   2.181 -0.5384 -1.4890  0.2850
  542SOL    HW212556   6.018   7.473   2.137 -0.4930 -4.1320  1.3316
  543SOL     OW12557   0.364   6.379   1.462  0.1174 -0.2271  0.1098
  543SOL    HW112558   0.320   6.428   1.387 -0.1602  1.8748  1.5926
  543SOL    HW212559   0.451   6.341   1.430  0.4382  1.3992 -1.0499
  544SOL     OW12560   2.936   4.415   1.687  0.2042  0.1924  0.2572
  544SOL    HW112561   2.838   4.432   1.677 -0.2658 -2.3742  0.3895
  544SOL    HW212562   2.969   4.459   1.771 -1.0519  0.1399  0.7910
  545SOL     OW12563   9.200   6.822   2.136 -0.5735 -0.2030 -0.2053
  545SOL    HW112564   9.277   6.760   2.153 -1.4202 -1.6008 -1.3362
  545SOL    HW212565   9.232   6.904   2.090 -0.0398 -1.6821 -2.5490
  546SOL     OW12566   5.428   1.499   2.293  0.1495 -1.0875 -0.2918
  546SOL    HW112567   5.444   1.400   2.293  0.1428 -1.0951 -1.2912
  546SOL    HW212568   5.470   1.540   2.374 -1.3011 -2.1370  1.0315
  547SOL     OW12569   7.616   7.694   2.839  0.6335  0.0234  0.3952
  547SOL    HW112570   7.628   7.627   2.765  0.4706  0.6950 -0.2383
  547SOL    HW212571   7.519   7.716   2.848  0.6820  0.1268  0.6481
  548SOL     OW12572   0.364   3.893   0.379  0.0631 -0.0764  0.1189
  548SOL    HW112573   0.321   3.972   0.335 -0.7844 -1.5312 -1.7580
  548SOL    HW212574   0.315   3.872   0.464 -0.9299  0.2155 -0.3728
  549SOL     OW12575   0.005   3.648   2.420  0.2386 -0.2138 -0.7346
  549SOL    HW112576  -0.051   3.570   2.447 -0.2021  0.7996  1.3663
  549SOL    HW212577   0.045   3.631   2.329 -1.1080 -2.1793 -0.9804
  550SOL     OW12578   9.154   4.057   3.195  0.1280  0.3885 -0.7776
  550SOL    HW112579   9.231   4.074   3.257 -0.4135  0.4871 -0.1216
  550SOL    HW212580   9.176   4.092   3.104  0.5585  1.1264 -0.3975
  551SOL     OW12581   4.029   7.947   1.556 -0.1140 -0.3141  0.1237
  551SOL    HW112582   3.989   7.971   1.645 -1.3471 -0.9548 -0.2442
  551SOL    HW212583   4.075   8.027   1.518 -1.7550  0.6968  0.1969
  552SOL     OW12584   2.299   2.546   2.015  0.3358  0.0214 -0.5905
  552SOL    HW112585   2.265   2.624   1.962 -0.4198  0.6943  0.8737
  552SOL    HW212586   2.224   2.503   2.065  1.0198 -0.6957 -0.1627
  553SOL     OW12587   1.681   1.693   1.250 -0.2794 -0.2259 -0.2628
  553SOL    HW112588   1.714   1.785   1.232  0.6906 -0.5264 -0.0386
  553SOL    HW212589   1.735   1.652   1.324 -0.7087 -0.9740 -0.3580
  554SOL     OW12590   8.484   5.449   2.233 -0.3917 -0.0214  0.4275
  554SOL    HW112591   8.534   5.495   2.160 -1.7673  1.7563  0.5742
  554SOL    HW212592   8.465   5.354   2.206  0.8085  0.0522 -0.6869
  555SOL     OW12593   7.582   9.111   0.629  0.0357 -0.6812 -0.1900
  555SOL    HW112594   7.675   9.140   0.652  0.9756 -0.7090 -3.6640
  555SOL    HW212595   7.560   9.027   0.679  1.9718 -0.7796  0.5356
  556SOL     OW12596   1.032   7.406   2.828 -0.9833 -0.5963  0.2762
  556SOL    HW112597   1.115   7.374   2.873 -1.2055 -0.5522  0.7291
  556SOL    HW212598   1.007   7.496   2.864  0.0643  0.4358 -1.5550
  557SOL     OW12599   5.594   0.858   1.038  0.2587 -0.1709 -0.1910
  557SOL    HW112600   5.537   0.887   0.961  1.4285  0.6597 -0.7622
  557SOL    HW212601   5.589   0.758   1.047  0.8123 -0.3683 -1.9132
  558SOL     OW12602   2.513   7.778   1.367  0.6447  0.1654  0.4565
  558SOL    HW112603   2.595   7.792   1.421  2.0126  0.1588 -1.5639
  558SOL    HW212604   2.475   7.687   1.385  1.2794  0.0315  1.1177
  559SOL     OW12605   2.263   9.128   3.938 -0.1610 -0.3431  0.0995
  559SOL    HW112606   2.201   9.145   4.014 -0.4162 -0.3708 -0.1043
  559SOL    HW212607   2.292   9.032   3.940  1.7468  0.2316  1.6021
  560SOL     OW12608   3.263   5.443   1.067  0.2518 -0.3178  0.0998
  560SOL    HW112609   3.180   5.409   1.111 -1.0727  1.9338 -0.6082
  560SOL    HW212610   3.254   5.434   0.968  1.5425 -1.5358  0.0700
  561SOL     OW12611   9.023   8.735   0.406  0.3314 -0.5431  0.3295
  561SOL    HW112612   8.984   8.645   0.422 -1.7127 -0.1869 -2.3912
  561SOL    HW212613   9.114   8.726   0.365  1.7685 -1.3210  3.4596
  562SOL     OW12614   3.870   9.962   0.762  0.2294  0.3793 -0.3665
  562SOL    HW112615   3.956   9.934   0.806  0.5386  1.4476 -0.2850
  562SOL    HW212616   3.795   9.906   0.799  1.0783 -1.5477 -1.4888
  563SOL     OW12617   2.611   4.674   3.521 -0.2014 -0.0997  0.2193
  563SOL    HW112618   2.586   4.613   3.596 -1.4745 -0.3529 -0.3896
  563SOL    HW212619   2.560   4.648   3.439 -0.4430  1.5075 -0.1601
  564SOL     OW12620   3.228   8.523   4.868 -0.5000  0.3099 -0.1373
  564SOL    HW112621   3.254   8.559   4.958 -0.8250  0.6378 -0.1729
  564SOL    HW212622   3.203   8.599   4.808  1.2771  0.2138 -1.0245
  565SOL     OW12623   8.745   5.947   4.661  0.5517 -0.2137 -0.2604
  565SOL    HW112624   8.799   6.001   4.596  1.7177 -0.1200  0.7530
  565SOL    HW212625   8.649   5.948   4.634  1.0551 -0.4537 -2.1679
  566SOL     OW12626   4.996   1.445   4.691  0.3080  0.1719  0.1976
  566SOL    HW112627   4.943   1.459   4.608 -0.2242  1.2043  0.6914
  566SOL    HW212628   4.981   1.353   4.726 -0.5702  0.2097 -0.0831
  567SOL     OW12629   9.364   5.688   2.632 -0.6848 -0.2699 -0.5393
  567SOL    HW112630   9.294   5.656   2.696  0.7569 -0.0335  1.1929
  567SOL    HW212631   9.419   5.610   2.603  0.5016  0.0553  0.8030
  568SOL     OW12632   8.730   5.031   1.217 -0.0279  0.1757  0.3610
  568SOL    HW112633   8.634   5.019   1.189  0.2738 -1.6129  0.0520
  568SOL    HW212634   8.781   4.947   1.198  1.2209  0.5122  2.1110
  569SOL     OW12635   8.610   1.774   0.757 -0.0147 -0.3076 -0.1952
  569SOL    HW112636   8.681   1.839   0.730  0.0561  0.0196  0.7398
  569SOL    HW212637   8.618   1.691   0.704  0.3245  0.1923 -0.9307
  570SOL     OW12638   1.738   3.465   4.288 -0.2081 -0.1973  0.4585
  570SOL    HW112639   1.690   3.502   4.367  3.0095  0.4169  2.2136
  570SOL    HW212640   1.686   3.485   4.204 -3.4517 -0.4870  2.3224
  571SOL     OW12641   1.347   1.664   5.540  0.4244  0.2447 -0.3641
  571SOL    HW112642   1.324   1.571   5.509 -0.9001  0.2387  0.6134
  571SOL    HW212643   1.397   1.659   5.626  1.7403  0.3862 -1.1013
  572SOL     OW12644   1.056   6.737   3.838 -0.1018 -0.3555  0.1363
  572SOL    HW112645   1.150   6.746   3.808 -0.1846  0.7907  0.1940
  572SOL    HW212646   1.038   6.643   3.866  0.3610 -1.1248 -2.0733
  573SOL     OW12647   0.697   0.857   3.245  0.1269  0.3722  0.5105
  573SOL    HW112648   0.746   0.901   3.320 -2.0419  0.2030  2.0910
  573SOL    HW212649   0.666   0.927   3.180  0.0899  0.7587  0.9384
  574SOL     OW12650   8.848   6.931   3.332 -0.0406 -0.3591  0.1196
  574SOL    HW112651   8.799   6.964   3.251  0.3002 -1.7520 -0.6649
  574SOL    HW212652   8.782   6.896   3.398 -0.2025 -0.9733 -0.3603
  575SOL     OW12653   3.433   3.641   3.918 -0.2586  0.5067 -0.0171
  575SOL    HW112654   3.408   3.678   4.007 -1.8348 -1.3303  0.3242
  575SOL    HW212655   3.532   3.629   3.913  0.2207  3.7785  0.2091
  576SOL     OW12656   9.727   9.747   1.733  0.2003 -0.4443 -0.0438
  576SOL    HW112657   9.802   9.681   1.738  0.2626 -0.3738 -0.0276
  576SOL    HW212658   9.653   9.718   1.793 -0.6828 -1.6349 -1.6838
  577SOL     OW12659   7.128   1.241   5.004 -0.2608 -0.0889  0.7714
  577SOL    HW112660   7.202   1.289   5.051 -0.4655  0.2897  0.7126
  577SOL    HW212661   7.109   1.155   5.051 -0.9124  0.5929  1.7790
  578SOL     OW12662   0.475   3.310   0.137 -0.2692 -0.1950 -0.2904
  578SOL    HW112663   0.448   3.395   0.182  0.7793 -0.1123  0.2143
  578SOL    HW212664   0.562   3.278   0.177 -1.4810 -2.3701  0.6814
  579SOL     OW12665   6.990   4.231   0.338  0.1452  0.6350  0.3801
  579SOL    HW112666   6.897   4.240   0.374 -0.7662 -3.4176 -0.7460
  579SOL    HW212667   6.991   4.257   0.242 -0.2605 -1.0116 -0.0901
  580SOL     OW12668   9.156   5.482   0.506 -0.8962  0.6817 -0.0243
  580SOL    HW112669   9.137   5.489   0.408  0.4739  0.8061 -0.3019
  580SOL    HW212670   9.197   5.393   0.526 -1.3084  0.6012  0.4591
  581SOL     OW12671   9.374   4.554   5.239  0.0477 -0.2340  1.2020
  581SOL    HW112672   9.292   4.498   5.223  1.3929 -1.7668 -0.4123
  581SOL    HW212673   9.354   4.649   5.215 -0.9914 -0.7594 -0.0929
  582SOL     OW12674   0.341   3.935   4.904 -0.5272  0.0350 -0.5378
  582SOL    HW112675   0.406   3.966   4.973 -0.4352 -0.5403 -0.3639
  582SOL    HW212676   0.389   3.920   4.818 -0.9269  2.3270 -1.1754
  583SOL     OW12677   3.170   3.933   2.058  0.1037  0.4308  0.0630
  583SOL    HW112678   3.135   3.980   2.139  1.3952 -0.4002  1.1130
  583SOL    HW212679   3.239   3.866   2.085 -0.1364 -0.5328 -1.6295
  584SOL     OW12680   3.128   5.291   2.041  0.1494  0.5939  0.1622
  584SOL    HW112681   3.077   5.328   1.963  0.2467 -2.8794 -1.6208
  584SOL    HW212682   3.064   5.269   2.115 -0.2666  1.2640  0.0082
  585SOL     OW12683   9.791   9.204   5.073  0.4111  0.6771 -0.2844
  585SOL    HW112684   9.797   9.129   5.007  0.3672  0.8280 -0.4596
  585SOL    HW212685   9.773   9.289   5.024  1.2336  0.9289 -0.1664
  586SOL     OW12686   8.774   5.148   3.864  0.6846 -0.3099  0.1535
  586SOL    HW112687   8.863   5.140   3.910  0.3496 -0.7152  0.7298
  586SOL    HW212688   8.767   5.237   3.820  1.2959 -0.1980  0.2834
  587SOL     OW12689   2.343   8.340   2.254 -0.3481 -0.2589  0.0944
  587SOL    HW112690   2.397   8.423   2.267 -1.7670  0.7977 -0.6529
  587SOL    HW212691   2.359   8.304   2.162 -0.7582 -0.0497 -0.0607
  588SOL     OW12692   0.753   2.884   3.071 -0.4931 -0.4508  0.5210
  588SOL    HW112693   0.835   2.875   3.014 -1.3232  0.0222 -0.7848
  588SOL    HW212694   0.758   2.821   3.148  1.1138 -0.3976  0.4739
  589SOL     OW12695   9.417   8.725   1.541  0.3308 -0.8198 -0.3196
  589SOL    HW112696   9.327   8.689   1.565 -0.7806  1.4584 -0.8661
  589SOL    HW212697   9.488   8.658   1.563 -1.4396 -2.3704  0.7524
  590SOL     OW12698   4.343   4.773   4.926  0.5929  0.1497  0.3063
  590SOL    HW112699   4.411   4.751   4.996  0.1515  1.3047  1.1038
  590SOL    HW212700   4.253   4.783   4.969  0.4464  1.5707 -0.3272
  591SOL     OW12701   7.014   0.091   1.311  0.2015 -0.2022  0.0938
  591SOL    HW112702   6.954   0.139   1.375  0.7484  0.5688  0.0453
  591SOL    HW212703   6.999   0.126   1.218 -0.0051 -0.7323 -0.0707
  592SOL     OW12704   1.223   9.040   3.045 -0.3400 -0.3279 -0.4986
  592SOL    HW112705   1.149   9.100   3.075 -0.2597 -0.0551 -0.8452
  592SOL    HW212706   1.279   9.013   3.124  1.2721  2.2767 -0.7006
  593SOL     OW12707   8.944   7.585   5.182 -0.1143  0.1231  0.8266
  593SOL    HW112708   8.946   7.607   5.280  1.9528 -0.3372  0.9009
  593SOL    HW212709   9.035   7.597   5.143 -0.7928 -0.2907 -0.9146
  594SOL     OW12710   5.849   9.271   3.303 -0.4381  0.0696 -0.1201
  594SOL    HW112711   5.836   9.339   3.230 -0.0071  0.0722 -0.1958
  594SOL    HW212712   5.935   9.223   3.288 -0.2520  0.2096  0.5034
  595SOL     OW12713   4.843   5.306   2.351  0.2918 -0.1719  0.0990
  595SOL    HW112714   4.801   5.221   2.383 -0.2042 -0.0037 -0.1127
  595SOL    HW212715   4.779   5.382   2.363  1.3494  0.4839  1.8945
  596SOL     OW12716   3.813   4.961   4.260 -0.7627  0.0853  0.1724
  596SOL    HW112717   3.902   5.007   4.264 -0.6373 -0.1552  0.1396
  596SOL    HW212718   3.793   4.937   4.165 -0.8814  0.1755  0.1749
  597SOL     OW12719   1.492   4.897   0.751 -0.1686  0.2860  0.0938
  597SOL    HW112720   1.577   4.949   0.757  0.9505 -1.6533  1.3955
  597SOL    HW212721   1.424   4.936   0.813  0.0178  1.3283 -0.3447
  598SOL     OW12722   0.340   6.453   0.387  0.5304 -0.1744  0.1490
  598SOL    HW112723   0.316   6.549   0.375  0.1600 -0.1004  1.4278
  598SOL    HW212724   0.275   6.410   0.450  0.4844 -1.3519 -0.6844
  599SOL     OW12725   3.310   3.273   0.055 -0.6274  0.8425 -0.1390
  599SOL    HW112726   3.378   3.339   0.023 -0.9630  1.2024 -0.1074
  599SOL    HW212727   3.237   3.265  -0.013 -1.2029  1.4085  0.4022
  600SOL     OW12728   1.449   9.350   2.068  0.0218  0.3061 -0.3257
  600SOL    HW112729   1.542   9.364   2.101 -0.5083  0.2499  1.2056
  600SOL    HW212730   1.417   9.260   2.095  0.0733 -0.2954 -2.2011
  601SOL     OW12731   1.558   8.286   4.142 -0.2705 -0.0224 -0.4296
  601SOL    HW112732   1.602   8.252   4.059  1.1531  0.1983  0.2038
  601SOL    HW212733   1.494   8.218   4.177 -0.4056 -0.3726 -1.3571
  602SOL     OW12734   0.067   7.986   2.933  0.4488 -0.0999  0.3176
  602SOL    HW112735   0.013   7.906   2.958  1.9987 -1.5348 -0.7781
  602SOL    HW212736   0.164   7.963   2.940  0.9113  1.0285 -1.9946
  603SOL     OW12737   2.637   4.157   1.003  0.3715  0.2705  0.4888
  603SOL    HW112738   2.580   4.130   0.925  0.1637 -1.9837  1.3781
  603SOL    HW212739   2.732   4.164   0.974 -0.0801  2.4800 -0.6330
  604SOL     OW12740   4.100   2.856   2.604  0.2992 -0.1439 -0.3158
  604SOL    HW112741   4.043   2.861   2.522  2.0306  1.2388 -1.4944
  604SOL    HW212742   4.052   2.805   2.676 -2.4407  1.1310 -1.1881
  605SOL     OW12743   4.157   4.417   0.718 -0.0099 -0.2531 -0.1179
  605SOL    HW112744   4.061   4.434   0.697 -0.5302 -0.9293  1.6509
  605SOL    HW212745   4.164   4.357   0.798  1.8791 -0.7945 -0.6624
  606SOL     OW12746   5.359   3.743   0.839 -0.2377 -0.0491 -0.1157
  606SOL    HW112747   5.383   3.727   0.743  0.1088 -0.0051 -0.0341
  606SOL    HW212748   5.440   3.772   0.890 -0.4538  0.0720  0.1598
  607SOL     OW12749   9.534   6.790   4.743 -0.3816 -0.5657 -0.0099
  607SOL    HW112750   9.631   6.767   4.731  0.4092  0.7492  3.2408
  607SOL    HW212751   9.499   6.831   4.659  2.5202  1.1125 -0.4793
  608SOL     OW12752   4.878   1.063   5.180  0.6530 -0.3583 -0.0910
  608SOL    HW112753   4.878   1.157   5.214  1.4716 -0.3431 -0.1187
  608SOL    HW212754   4.959   1.048   5.122 -0.3206 -0.5973 -1.4258
  609SOL     OW12755   0.874   1.350   4.785  0.4250  0.3117  0.5053
  609SOL    HW112756   0.932   1.431   4.785  0.9748 -0.0723 -0.4309
  609SOL    HW212757   0.778   1.377   4.791  0.5486  1.0782 -0.7305
  610SOL     OW12758   3.296   7.177   4.331 -0.3222 -0.2169  0.2290
  610SOL    HW112759   3.304   7.161   4.429  0.2034  1.0869  0.4028
  610SOL    HW212760   3.259   7.269   4.314  0.7086  0.0188 -0.8017
  611SOL     OW12761   6.981   0.941   5.421  0.4455 -0.8322 -0.4256
  611SOL    HW112762   7.052   0.871   5.428  0.4810 -0.7767 -0.2186
  611SOL    HW212763   6.894   0.904   5.453  1.0823  0.1126  2.6176
  612SOL     OW12764   1.791   0.059   1.694  0.4249  0.8858 -1.0464
  612SOL    HW112765   1.890   0.044   1.706 -0.3990 -2.2397  3.1320
  612SOL    HW212766   1.764   0.140   1.746  0.2880 -0.2908  0.7645
  613SOL     OW12767   8.863   2.699   4.086 -0.4699  0.6801 -0.5186
  613SOL    HW112768   8.919   2.665   4.161 -2.3101  0.0412  0.5891
  613SOL    HW212769   8.896   2.660   4.000  1.0628  0.6885  0.0510
  614SOL     OW12770   8.526   1.394   4.263 -0.3680  0.7391 -0.5804
  614SOL    HW112771   8.532   1.384   4.362 -1.4979 -0.6494 -0.6477
  614SOL    HW212772   8.465   1.471   4.241 -1.2761  0.1207 -0.2202
  615SOL     OW12773   1.518   2.920   5.254 -0.1119  0.7680  0.0399
  615SOL    HW112774   1.587   2.977   5.300  1.8734 -0.9610 -0.6995
  615SOL    HW212775   1.511   2.833   5.301 -1.2192  0.6270 -0.3868
  616SOL     OW12776   9.865   3.096   4.349  0.3330 -0.3549 -0.0245
  616SOL    HW112777   9.834   3.131   4.261 -0.9149  0.5784  0.7712
  616SOL    HW212778   9.834   3.157   4.422  1.6684 -0.9111  1.0354
  617SOL     OW12779   3.216   0.303   1.186 -0.2051 -0.4586 -0.5804
  617SOL    HW112780   3.125   0.312   1.225 -0.7738 -0.7954 -1.7960
  617SOL    HW212781   3.273   0.380   1.215 -0.5329 -0.8370  1.0768
  618SOL     OW12782   9.375   4.137   3.339  0.3026  0.3296 -0.6738
  618SOL    HW112783   9.400   4.227   3.304  1.1275  0.0438 -0.8272
  618SOL    HW212784   9.457   4.081   3.349 -0.1082 -0.1176  0.2345
  619SOL     OW12785   7.504   8.332   1.746 -0.3072 -0.0538 -0.2265
  619SOL    HW112786   7.416   8.380   1.745 -0.0081  0.4893 -0.7134
  619SOL    HW212787   7.573   8.390   1.789 -0.1504 -0.4210  0.0217
  620SOL     OW12788   4.465   0.211   2.846 -0.3717 -0.2875  0.1262
  620SOL    HW112789   4.401   0.170   2.782 -0.4495  0.2843 -0.1616
  620SOL    HW212790   4.558   0.189   2.819 -0.4004  0.0942 -0.2726
  621SOL     OW12791   8.415   3.182   4.942 -0.5697  0.4627 -0.1050
  621SOL    HW112792   8.482   3.203   5.013 -0.0038  1.4235 -0.9221
  621SOL    HW212793   8.459   3.180   4.853 -0.8721 -2.8127 -0.2448
  622SOL     OW12794   1.334   0.408   4.128  0.5949  0.2663  0.4654
  622SOL    HW112795   1.327   0.468   4.207  1.2611  1.8594 -0.6562
  622SOL    HW212796   1.283   0.448   4.051 -1.8862 -2.3199  0.6826
  623SOL     OW12797   0.488   6.285   3.221  0.3425 -0.9096  0.3813
  623SOL    HW112798   0.535   6.210   3.175  2.2805  0.3378  0.2816
  623SOL    HW212799   0.417   6.247   3.281 -0.0196 -2.7047 -1.1339
  624SOL     OW12800   1.251   4.914   0.188  0.2827 -0.2313  0.2844
  624SOL    HW112801   1.151   4.923   0.189  0.3004 -0.0441  0.3919
  624SOL    HW212802   1.279   4.864   0.107  0.1331  0.0970  0.0288
  625SOL     OW12803   2.042   3.516   0.023  0.0746  0.2916  0.5078
  625SOL    HW112804   2.036   3.453  -0.055 -0.5229 -1.0015  1.5669
  625SOL    HW212805   1.982   3.594   0.008  0.8248  0.6221 -0.8314
  626SOL     OW12806   2.968   5.729   4.224 -0.6370 -0.3723 -0.4321
  626SOL    HW112807   2.923   5.644   4.253  1.0652 -1.1865 -0.0619
  626SOL    HW212808   2.907   5.781   4.165 -2.3527 -1.0312  0.7315
  627SOL     OW12809   2.154   1.734   4.127 -0.1213  0.5409 -0.0870
  627SOL    HW112810   2.064   1.775   4.107 -0.0738  1.8066  2.1075
  627SOL    HW212811   2.224   1.805   4.123  0.8720 -0.5116 -2.1176
  628SOL     OW12812   2.112   1.662   3.287 -0.1789  0.1620 -0.1499
  628SOL    HW112813   2.068   1.679   3.375  1.2499 -2.4991  1.1524
  628SOL    HW212814   2.063   1.588   3.240 -0.5042  1.0892 -1.2816
  629SOL     OW12815   8.120   2.123   0.064 -0.3153 -0.4433 -0.2661
  629SOL    HW112816   8.140   2.059   0.138  0.3423  1.3791  1.1643
  629SOL    HW212817   8.034   2.171   0.083  0.2438  0.5860 -0.2554
  630SOL     OW12818   1.683   1.139   4.947 -0.6876 -0.2117  0.0962
  630SOL    HW112819   1.660   1.233   4.973 -1.6563 -0.3041 -0.4005
  630SOL    HW212820   1.749   1.102   5.013 -1.4319  0.3113  1.1590
  631SOL     OW12821   8.017   1.059   3.442  0.3210  0.4455 -0.2797
  631SOL    HW112822   8.026   0.999   3.363  0.6837  0.3994 -0.2035
  631SOL    HW212823   7.996   1.005   3.523  0.8751  0.3933 -0.1666
  632SOL     OW12824   1.358   8.085   0.360  0.4304  0.0214  0.3379
  632SOL    HW112825   1.367   8.109   0.457 -0.4586 -0.3130  0.5146
  632SOL    HW212826   1.338   8.167   0.307  0.3023  0.1162  0.5297
  633SOL     OW12827   8.364   0.255   1.065  0.3224 -0.0600  0.4118
  633SOL    HW112828   8.430   0.180   1.073 -0.9740 -0.9934  2.6630
  633SOL    HW212829   8.411   0.343   1.077  1.7851 -0.4924 -1.8499
  634SOL     OW12830   8.847   8.263   3.637 -0.1545 -0.0520  0.0672
  634SOL    HW112831   8.921   8.321   3.601  0.4714 -1.0261 -0.2404
  634SOL    HW212832   8.842   8.179   3.583  0.0338 -1.0128  1.5354
  635SOL     OW12833   6.913   7.630   3.805 -0.2488  0.5709 -0.0902
  635SOL    HW112834   6.988   7.630   3.739  1.4673  0.1904  1.8287
  635SOL    HW212835   6.915   7.715   3.857  0.5915 -0.6196  1.8795
  636SOL     OW12836   0.626   1.576   2.233 -0.1071 -0.2608  0.3945
  636SOL    HW112837   0.680   1.641   2.286  0.1562 -0.1383 -0.0245
  636SOL    HW212838   0.538   1.562   2.278  0.3195 -0.5537  1.1407
  637SOL     OW12839   5.833   2.086   2.602  0.7609 -0.2222 -0.0205
  637SOL    HW112840   5.913   2.144   2.616  0.9508 -0.7924  1.3258
  637SOL    HW212841   5.755   2.126   2.650  0.4122 -0.0312 -0.7513
  638SOL     OW12842   6.335   7.445   2.588  0.2588 -0.6079 -0.3488
  638SOL    HW112843   6.366   7.512   2.521 -0.6449 -1.3130 -1.4815
  638SOL    HW212844   6.388   7.455   2.672  1.2741  0.4022 -1.1011
  639SOL     OW12845   2.801   3.834   4.295  0.0500  0.0038 -0.1649
  639SOL    HW112846   2.719   3.792   4.332  1.1036 -0.7135  1.4130
  639SOL    HW212847   2.854   3.765   4.245 -0.6078  0.6150 -1.7556
  640SOL     OW12848   8.431   0.517   0.850 -0.3733  0.0427 -0.4523
  640SOL    HW112849   8.332   0.524   0.849 -0.2522  1.7219 -0.7369
  640SOL    HW212850   8.463   0.484   0.761 -0.6988 -1.0864 -0.1666
  641SOL     OW12851   6.795   0.281   2.386 -0.1622  0.6685 -0.4514
  641SOL    HW112852   6.852   0.334   2.323 -1.0296  0.9426 -1.0154
  641SOL    HW212853   6.752   0.206   2.336 -0.3460  0.5029 -0.0455
  642SOL     OW12854   7.854   0.861   1.522  0.1793 -0.6694  0.0985
  642SOL    HW112855   7.923   0.853   1.594 -0.2757 -0.3394  0.5798
  642SOL    HW212856   7.848   0.775   1.472 -1.1452 -1.7087  1.9749
  643SOL     OW12857   2.206   9.456   0.824 -0.0112  0.1059 -0.0136
  643SOL    HW112858   2.202   9.518   0.745 -0.4120 -0.7561 -0.6803
  643SOL    HW212859   2.301   9.427   0.837  0.1763  0.8330  0.2892
  644SOL     OW12860   0.192   2.359   2.216  0.5734  0.5525 -0.2053
  644SOL    HW112861   0.183   2.372   2.117 -2.9590 -0.2614 -0.0567
  644SOL    HW212862   0.178   2.446   2.263 -2.2147  0.1505 -0.2356
  645SOL     OW12863   3.981   2.260   2.485 -1.0135  0.0329 -0.6231
  645SOL    HW112864   4.064   2.213   2.455  0.3278  0.8341  1.7275
  645SOL    HW212865   3.997   2.359   2.485 -1.3855  0.1106  1.4538
  646SOL     OW12866   2.450   4.979   4.891 -0.2687 -0.7897 -0.0222
  646SOL    HW112867   2.411   4.901   4.942  1.2045 -1.0514  0.7491
  646SOL    HW212868   2.545   4.959   4.869  0.6915  1.5334  1.7830
  647SOL     OW12869   7.601   2.228   3.863 -0.0372 -0.2457  0.1245
  647SOL    HW112870   7.654   2.291   3.920  0.9493 -1.4262  0.5387
  647SOL    HW212871   7.628   2.238   3.767 -0.7286  0.7790  0.0254
  648SOL     OW12872   1.946   6.298   0.880 -0.0333 -0.2585 -0.9723
  648SOL    HW112873   1.954   6.207   0.840  0.4375 -0.8776  0.5061
  648SOL    HW212874   1.999   6.302   0.965 -1.5509  0.8246 -0.0614
  649SOL     OW12875   5.042   0.021   2.478  0.3865 -0.3279  0.0065
  649SOL    HW112876   5.130  -0.002   2.434  0.1018 -1.0400 -0.2030
  649SOL    HW212877   5.034   0.120   2.486  0.2088 -0.1597 -2.0409
  650SOL     OW12878   3.916   4.773   0.786  0.1300 -0.2942 -0.2793
  650SOL    HW112879   3.833   4.828   0.801  0.8815  0.2515  2.2034
  650SOL    HW212880   3.990   4.832   0.755  0.2268 -0.3568 -0.1681
  651SOL     OW12881   8.966   5.925   5.504 -0.1385  0.0289 -0.0208
  651SOL    HW112882   8.927   5.894   5.592 -0.0337  1.0778  0.4009
  651SOL    HW212883   9.054   5.969   5.520 -0.0912  0.1741 -0.6665
  652SOL     OW12884   3.811   0.855   2.975 -0.1750 -0.1015  0.4209
  652SOL    HW112885   3.807   0.768   2.926  2.0359  0.4721 -0.8378
  652SOL    HW212886   3.750   0.921   2.931 -1.2825 -0.7579  0.9322
  653SOL     OW12887   2.169   1.350   0.671 -0.1219  0.0326 -0.2891
  653SOL    HW112888   2.243   1.313   0.728 -2.0577  0.0484  2.3303
  653SOL    HW212889   2.082   1.342   0.720 -1.8010  0.5193 -3.0830
  654SOL     OW12890   7.981   5.291   4.102 -0.1043 -0.0846  0.1859
  654SOL    HW112891   8.011   5.302   4.197 -1.7765 -0.7338  0.8086
  654SOL    HW212892   7.969   5.194   4.082  0.2507  0.0534 -0.6942
  655SOL     OW12893   8.510   9.091   2.530  0.1501  0.1764  0.1886
  655SOL    HW112894   8.572   9.049   2.596  0.0489 -0.8731 -0.3742
  655SOL    HW212895   8.421   9.108   2.574 -0.2451 -1.4640  0.0402
  656SOL     OW12896   3.639   8.891   0.187  0.1957  0.2886 -0.1232
  656SOL    HW112897   3.694   8.920   0.265  2.0927 -0.2584 -1.2141
  656SOL    HW212898   3.688   8.913   0.102 -0.4070 -1.9073 -1.0777
  657SOL     OW12899   8.242   1.733   3.830 -0.4090  0.0009 -0.1017
  657SOL    HW112900   8.309   1.787   3.779  1.4230 -1.4666  0.6924
  657SOL    HW212901   8.165   1.710   3.771  0.3984  0.6217 -1.4058
  658SOL     OW12902   3.824   7.393   3.969  0.9635 -0.0904  0.2263
  658SOL    HW112903   3.918   7.398   3.934  0.7583 -1.7563 -0.5850
  658SOL    HW212904   3.827   7.366   4.066  1.3034 -0.7066  0.0495
  659SOL     OW12905   3.888   6.050   0.778  0.2133 -0.3301  0.1730
  659SOL    HW112906   3.803   6.046   0.725  0.1276 -0.5320  0.3244
  659SOL    HW212907   3.878   6.114   0.853  0.6680  0.6990 -0.6393
  660SOL     OW12908   2.320   0.277   1.595 -0.2957  0.2209 -0.4049
  660SOL    HW112909   2.301   0.290   1.498  0.1956 -1.7998 -0.7974
  660SOL    HW212910   2.238   0.244   1.641  0.1823 -1.3758 -0.6663
  661SOL     OW12911   2.851   5.133   2.505  0.4850  0.1967 -0.2274
  661SOL    HW112912   2.752   5.118   2.513  0.6621 -1.2997 -0.6355
  661SOL    HW212913   2.897   5.045   2.491  1.9409  0.8051  0.5559
  662SOL     OW12914   6.486   9.114   3.135 -0.4607  0.4559 -0.4465
  662SOL    HW112915   6.523   9.180   3.201 -0.2650 -1.1285  1.0781
  662SOL    HW212916   6.560   9.066   3.091 -0.6274  0.3485 -0.6093
  663SOL     OW12917   3.363   3.748   0.516 -0.2953  0.8244 -0.2070
  663SOL    HW112918   3.296   3.738   0.443 -1.3883 -0.0400  0.8873
  663SOL    HW212919   3.407   3.659   0.533  0.6245  1.2275 -0.4419
  664SOL     OW12920   8.499   1.259   0.174 -0.1592 -0.5369  0.7732
  664SOL    HW112921   8.491   1.271   0.273  0.1342 -2.9144  1.1083
  664SOL    HW212922   8.566   1.187   0.153  0.3928  0.5018 -1.1820
  665SOL     OW12923   4.738   4.679   5.306 -0.4239  0.6946  0.0288
  665SOL    HW112924   4.820   4.719   5.265 -1.3037  0.9983 -1.4662
  665SOL    HW212925   4.757   4.585   5.335  0.7924  1.1732  0.7918
  666SOL     OW12926   0.226   4.102   0.269 -0.2387  0.0432  0.1496
  666SOL    HW112927   0.173   4.152   0.337 -2.5731 -2.0628 -0.0474
  666SOL    HW212928   0.198   4.130   0.177 -1.8781 -1.8451  0.0304
  667SOL     OW12929   6.932   8.095   3.802  0.0684  0.0294 -0.1875
  667SOL    HW112930   6.997   8.170   3.787 -0.1567  0.1684 -0.4775
  667SOL    HW212931   6.890   8.069   3.715  0.2903 -0.5676 -0.1183
  668SOL     OW12932   1.285   8.539   4.383  0.0658  0.3877 -0.2804
  668SOL    HW112933   1.253   8.633   4.377  0.5267  0.5385 -0.3836
  668SOL    HW212934   1.260   8.490   4.300 -3.1586 -0.5267  1.1546
  669SOL     OW12935   3.863   4.789   4.473 -0.1253 -0.5082 -0.2262
  669SOL    HW112936   3.860   4.695   4.440  0.4354 -0.1646 -1.2728
  669SOL    HW212937   3.843   4.852   4.398  1.7633  0.3205 -0.0670
  670SOL     OW12938   3.162   3.766   1.193 -0.0214 -0.2925 -0.4104
  670SOL    HW112939   3.214   3.685   1.220  0.5950  0.6823  1.4407
  670SOL    HW212940   3.225   3.840   1.169 -0.5608 -0.8004 -3.6773
  671SOL     OW12941   1.367   1.303   4.256 -0.2576 -0.0957 -0.2428
  671SOL    HW112942   1.359   1.313   4.355 -0.0001 -3.0819  0.1443
  671SOL    HW212943   1.436   1.366   4.221  0.1974  0.4384  1.5852
  672SOL     OW12944   8.486   3.563   1.881  0.4311  0.1719  0.2924
  672SOL    HW112945   8.450   3.523   1.797  1.3841 -0.0894  0.0007
  672SOL    HW212946   8.585   3.576   1.872  0.2994  1.6208  0.7762
  673SOL     OW12947   5.171   9.371   3.952  0.3912 -0.5007  0.5146
  673SOL    HW112948   5.188   9.456   4.003 -1.1236  0.7407 -0.9777
  673SOL    HW212949   5.208   9.294   4.003  0.0271  0.8296  2.8636
  674SOL     OW12950   5.479   8.352   4.309 -0.3993 -0.3141 -0.2817
  674SOL    HW112951   5.409   8.307   4.254 -0.0743  0.4032 -1.2997
  674SOL    HW212952   5.563   8.299   4.306 -0.3221 -0.1700 -0.6368
  675SOL     OW12953   4.053   8.641   0.780  0.1416  0.2153 -0.0398
  675SOL    HW112954   4.107   8.679   0.705  1.1260 -0.2511  0.4236
  675SOL    HW212955   4.088   8.550   0.804 -0.0477  0.4345  1.1023
  676SOL     OW12956   4.165   7.630   4.781  0.0691 -0.8795  0.3532
  676SOL    HW112957   4.127   7.703   4.723  1.3008  1.2348  2.0999
  676SOL    HW212958   4.096   7.603   4.848  0.8980  1.6442  2.3251
  677SOL     OW12959   9.445   3.342   5.401  0.1482 -0.1423  0.1029
  677SOL    HW112960   9.464   3.327   5.498  0.7481 -0.1846 -0.0190
  677SOL    HW212961   9.522   3.309   5.346  0.5768  1.4577 -0.2908
  678SOL     OW12962   8.805   1.999   0.598 -0.2517 -0.1425  0.0716
  678SOL    HW112963   8.767   2.079   0.551 -1.1209 -0.8691 -0.5032
  678SOL    HW212964   8.812   2.018   0.696  0.0696  0.8290 -0.1367
  679SOL     OW12965   4.669   5.047   1.711  0.4378  0.0257  0.2744
  679SOL    HW112966   4.657   5.008   1.619  0.7996  0.5303  0.0080
  679SOL    HW212967   4.717   5.134   1.703  0.6015 -0.0022  0.9603
  680SOL     OW12968   0.297   9.025   1.823  0.4611 -0.4690  0.0719
  680SOL    HW112969   0.205   9.028   1.786 -0.5331 -0.8810  2.4035
  680SOL    HW212970   0.345   8.944   1.789  0.2410  0.1356 -1.7162
  681SOL     OW12971   8.018   7.104   2.488 -0.3666  0.2780  0.0769
  681SOL    HW112972   7.961   7.171   2.439 -0.2793  0.4193  0.1706
  681SOL    HW212973   7.962   7.026   2.515 -0.7874  0.9777  1.2634
  682SOL     OW12974   1.727   0.680   1.037 -0.1095 -0.1076 -0.7212
  682SOL    HW112975   1.754   0.591   1.000  0.5807 -0.3043  0.2043
  682SOL    HW212976   1.765   0.753   0.980  2.2642 -0.3840  0.4241
  683SOL     OW12977   8.522   6.578   3.291  0.2484 -0.0550  0.7712
  683SOL    HW112978   8.474   6.663   3.267 -1.0143 -0.1952  2.7329
  683SOL    HW212979   8.588   6.596   3.364  1.9200 -0.2437 -0.6506
  684SOL     OW12980   3.035   8.803   3.747  0.3604  0.4491 -0.2960
  684SOL    HW112981   3.102   8.743   3.703 -0.6607 -0.9438 -0.0150
  684SOL    HW212982   3.058   8.898   3.728  2.5222  0.0111 -0.0251
  685SOL     OW12983   9.476   6.081   0.862  0.1210  0.1119 -0.1907
  685SOL    HW112984   9.570   6.054   0.880  0.2430 -0.2152 -1.2847
  685SOL    HW212985   9.414   6.022   0.914  0.5172  0.3255  0.5223
  686SOL     OW12986   1.552   3.722   2.467  0.4271 -0.1776  0.2860
  686SOL    HW112987   1.539   3.648   2.532 -0.5793 -1.7503 -1.6486
  686SOL    HW212988   1.509   3.805   2.502 -2.3932 -1.6725  0.4810
  687SOL     OW12989   9.163   5.551   2.838  0.1321 -0.0236  0.2469
  687SOL    HW112990   9.189   5.623   2.902  1.8084  0.0801 -0.5249
  687SOL    HW212991   9.068   5.523   2.856  0.4821  0.1702  2.5773
  688SOL     OW12992   7.842   4.433   0.707 -0.4608 -0.0820 -0.4365
  688SOL    HW112993   7.810   4.528   0.707 -0.6315 -0.0582  3.6333
  688SOL    HW212994   7.932   4.429   0.750 -1.4179 -1.9900  1.4921
  689SOL     OW12995   5.962   9.312   2.380 -0.2889 -0.0315 -0.3812
  689SOL    HW112996   5.979   9.214   2.380 -1.4794 -0.2513  0.9979
  689SOL    HW212997   5.953   9.345   2.474  1.0422  1.5778 -0.7847
  690SOL     OW12998   8.230   8.313   2.615  0.1368 -0.1827 -0.0762
  690SOL    HW112999   8.174   8.389   2.583 -0.2652 -0.3164  0.3089
  690SOL    HW213000   8.314   8.309   2.561  1.1775  1.8753  1.3123
  691SOL     OW13001   1.179   4.791   0.514  0.1188 -0.5682 -0.2393
  691SOL    HW113002   1.247   4.723   0.545  0.0626 -0.8833 -0.8008
  691SOL    HW213003   1.094   4.744   0.492 -0.1947 -0.2045  0.1871
  692SOL     OW13004   1.146   0.605   4.060  0.1988 -0.2168 -0.5067
  692SOL    HW113005   1.071   0.579   4.000 -0.6922  0.6693  0.2026
  692SOL    HW213006   1.148   0.545   4.140  0.0685 -0.0521 -0.3808
  693SOL     OW13007   9.548   3.296   0.503 -0.6218  0.2691 -0.0228
  693SOL    HW113008   9.557   3.209   0.454  0.7746  0.4915 -0.1566
  693SOL    HW213009   9.567   3.282   0.600 -2.2140  0.0689  0.2783
  694SOL     OW13010   0.194   9.373   2.994  0.3483  0.4341  0.0767
  694SOL    HW113011   0.223   9.402   2.902  1.7047  0.8743  0.6379
  694SOL    HW213012   0.217   9.277   3.007  1.3959  0.7343  0.4536
  695SOL     OW13013   0.020   6.860   3.760 -0.0793 -0.3863 -0.1559
  695SOL    HW113014   0.080   6.780   3.766  0.3270 -0.0818 -0.1297
  695SOL    HW213015   0.074   6.943   3.776 -0.8195 -0.2192  1.5418
  696SOL     OW13016   4.005   1.686   2.532 -0.3126  0.6317 -0.0231
  696SOL    HW113017   4.002   1.782   2.505 -0.4400  0.7099  0.2583
  696SOL    HW213018   3.914   1.658   2.562 -0.3842  0.2869 -0.5645
  697SOL     OW13019   9.931   1.175   1.601  0.0098 -0.1432 -0.0478
  697SOL    HW113020  10.011   1.207   1.551  0.4661 -0.1572  0.6630
  697SOL    HW213021   9.955   1.160   1.697 -0.6355 -0.9351 -0.0002
  698SOL     OW13022   2.035   4.050   5.398  0.5059  0.2422 -0.0078
  698SOL    HW113023   2.053   4.148   5.394  0.1507  0.3689  1.1015
  698SOL    HW213024   2.045   4.018   5.492  1.7647 -1.0228 -0.5560
  699SOL     OW13025   4.307   0.523   4.896  0.3018  0.1383  0.0905
  699SOL    HW113026   4.363   0.601   4.926 -1.8198  1.5147  0.5628
  699SOL    HW213027   4.291   0.462   4.973 -0.7701  0.9463  0.5122
  700SOL     OW13028   3.239   8.306   0.949 -0.2586 -0.2427  0.5839
  700SOL    HW113029   3.173   8.304   0.874 -0.9431  1.8106  1.0793
  700SOL    HW213030   3.192   8.288   1.035  0.1962 -0.7938  0.7175
  701SOL     OW13031   0.218   7.055   1.460  0.1781  0.6850  0.0643
  701SOL    HW113032   0.172   6.999   1.391  0.2275  0.9783 -0.2065
  701SOL    HW213033   0.158   7.130   1.488  0.1031  0.4864  0.4440
  702SOL     OW13034   5.156   1.223   3.248  0.2533 -0.3345 -0.2341
  702SOL    HW113035   5.165   1.315   3.287  0.0975  0.4778 -2.0506
  702SOL    HW213036   5.247   1.188   3.226  0.3381 -0.7738  0.7720
  703SOL     OW13037   1.153   3.529   3.578  0.0778  0.0829  0.2989
  703SOL    HW113038   1.070   3.584   3.580  0.9376  1.3928  1.1644
  703SOL    HW213039   1.224   3.577   3.527  0.3752 -0.9316 -0.2666
  704SOL     OW13040   8.425   0.849   1.659  0.3988 -0.3594  0.1017
  704SOL    HW113041   8.378   0.821   1.743 -1.2110 -1.7115 -1.2191
  704SOL    HW213042   8.512   0.891   1.682 -0.9265  1.1581  2.5672
  705SOL     OW13043   9.049   7.552   0.175 -0.6519 -0.5963  0.3680
  705SOL    HW113044   9.018   7.478   0.234 -2.0269 -0.7516 -0.5470
  705SOL    HW213045   9.064   7.517   0.083 -1.2625  0.2514 -0.0569
  706SOL     OW13046   1.792   2.456   0.924  0.4084 -0.2480  0.1249
  706SOL    HW113047   1.843   2.404   0.992  0.5730  0.4725  0.5513
  706SOL    HW213048   1.835   2.445   0.834  0.2291 -1.1417  0.1452
  707SOL     OW13049   1.900   7.315   2.005  0.7883 -0.5141 -0.3771
  707SOL    HW113050   1.830   7.383   1.982  1.9342  0.4927 -0.9455
  707SOL    HW213051   1.873   7.267   2.088 -0.1149  0.5318 -0.0487
  708SOL     OW13052   4.349   8.221   2.708 -0.0193 -0.2338  0.0268
  708SOL    HW113053   4.269   8.181   2.753 -0.3006 -1.2000 -1.2999
  708SOL    HW213054   4.348   8.198   2.611  0.3861  2.1100 -0.5846
  709SOL     OW13055   2.349   4.364   0.233  0.6487  0.1858 -0.4581
  709SOL    HW113056   2.370   4.266   0.225 -0.5173 -0.1910  1.0131
  709SOL    HW213057   2.359   4.393   0.328 -0.8242  1.0730 -0.5644
  710SOL     OW13058   4.571   9.454   4.516  0.1091 -0.2832  0.2733
  710SOL    HW113059   4.625   9.526   4.473  1.8573 -2.6354 -1.5991
  710SOL    HW213060   4.524   9.491   4.597 -0.6570  3.4119 -1.7436
  711SOL     OW13061   6.569   1.068   1.839 -0.7701 -0.3321  0.1189
  711SOL    HW113062   6.539   1.131   1.911 -0.0648 -0.1296  0.2400
  711SOL    HW213063   6.530   0.977   1.856 -0.3093 -0.3809  0.9738
  712SOL     OW13064   0.649   7.763   5.317 -0.7830  0.0751 -0.0473
  712SOL    HW113065   0.571   7.809   5.360 -2.1225 -1.8345 -0.4125
  712SOL    HW213066   0.720   7.747   5.385 -1.5676 -0.0674  0.7381
  713SOL     OW13067   4.085   0.242   2.925  0.0759  0.0263 -0.0061
  713SOL    HW113068   4.133   0.158   2.949  1.3999  0.8761  0.3416
  713SOL    HW213069   4.048   0.235   2.833 -1.7139 -1.7815  0.8015
  714SOL     OW13070   2.675   6.398   3.765 -0.2303 -0.0668 -0.3886
  714SOL    HW113071   2.657   6.382   3.862 -0.6864  0.6413 -0.3562
  714SOL    HW213072   2.663   6.495   3.745  3.2027  0.4145 -0.4302
  715SOL     OW13073   3.285   9.704   3.512 -0.0617  0.0361  0.2608
  715SOL    HW113074   3.224   9.656   3.576 -1.6088  0.1645 -1.0897
  715SOL    HW213075   3.276   9.802   3.525 -0.4609  0.0655 -0.1974
  716SOL     OW13076   8.263   5.542   3.032  0.2613 -0.5140 -0.0293
  716SOL    HW113077   8.333   5.517   2.966  0.4206  0.4461 -0.2230
  716SOL    HW213078   8.179   5.569   2.984  0.1785 -0.4095  0.1714
  717SOL     OW13079   3.260   4.905   3.554  0.5845  0.6078 -0.1384
  717SOL    HW113080   3.195   4.864   3.490  0.8140 -0.1460  0.1064
  717SOL    HW213081   3.351   4.909   3.511  0.6127  0.6472 -0.0750
  718SOL     OW13082   5.040   0.187   1.382 -0.1870 -0.2459  0.1064
  718SOL    HW113083   5.067   0.096   1.351  0.1209 -0.4391  0.9382
  718SOL    HW213084   5.117   0.231   1.427 -0.7261 -0.1018  0.9014
  719SOL     OW13085   1.132   1.559   2.639  0.0023  0.6342 -0.4233
  719SOL    HW113086   1.168   1.517   2.722  0.3294 -0.4538 -1.1072
  719SOL    HW213087   1.035   1.579   2.651 -0.2122 -0.5325 -0.1716
  720SOL     OW13088   3.402   8.560   0.000  0.0409  0.4325 -0.1911
  720SOL    HW113089   3.476   8.584   0.063  0.7714  1.2564 -1.3484
  720SOL    HW213090   3.407   8.462  -0.022 -0.4807  0.0366  1.3382
  721SOL     OW13091   0.069   0.465   4.338 -0.5361 -0.4259 -0.3294
  721SOL    HW113092  -0.025   0.448   4.309 -0.6577  1.3293 -1.0606
  721SOL    HW213093   0.075   0.459   4.437 -1.9067  1.5830 -0.0952
  722SOL     OW13094   4.417   6.553   1.733  0.3376 -0.3806 -0.3724
  722SOL    HW113095   4.429   6.455   1.718  0.8755 -0.2489 -0.7938
  722SOL    HW213096   4.338   6.585   1.679  1.5673 -0.1339 -2.0606
  723SOL     OW13097   7.483   8.739   2.476  0.3752 -0.2554  0.2233
  723SOL    HW113098   7.562   8.686   2.444  0.1031  0.7769 -2.2355
  723SOL    HW213099   7.498   8.765   2.571  1.7467 -2.4056  0.6530
  724SOL     OW13100   0.598   1.240   0.654 -0.3612  0.3316 -0.1884
  724SOL    HW113101   0.611   1.143   0.676  1.5357  0.0472 -2.3224
  724SOL    HW213102   0.621   1.295   0.734 -0.4686 -0.9307  0.7408
  725SOL     OW13103   5.032   5.860   0.719  0.0051 -0.7954  0.2912
  725SOL    HW113104   5.109   5.889   0.776 -0.4447  0.8347  0.1123
  725SOL    HW213105   5.027   5.761   0.717  2.2901 -0.9420  0.0616
  726SOL     OW13106   0.050   4.426   2.396  0.4311 -0.0743  0.4139
  726SOL    HW113107   0.004   4.511   2.422  1.3739  0.8631 -0.8552
  726SOL    HW213108   0.031   4.406   2.300  1.8985 -0.1515  0.1238
  727SOL     OW13109   9.688   3.567   5.245  0.2390 -0.2262  0.2265
  727SOL    HW113110   9.746   3.594   5.321 -0.1887  0.6413  0.2472
  727SOL    HW213111   9.735   3.498   5.189  1.5089  0.8686 -0.0671
  728SOL     OW13112   1.782   4.559   4.230  0.1461  0.4794 -0.1900
  728SOL    HW113113   1.878   4.546   4.255 -0.0273  0.9832  0.7501
  728SOL    HW213114   1.747   4.643   4.273  0.0632  1.8127 -2.7559
  729SOL     OW13115   3.854   0.506   1.695  0.4777  0.4687  0.1587
  729SOL    HW113116   3.759   0.532   1.677  0.2916 -1.0522 -1.2159
  729SOL    HW213117   3.856   0.441   1.771  0.3606  0.0405 -0.2048
  730SOL     OW13118   9.315   5.915   4.499 -0.1388 -0.1311  0.3350
  730SOL    HW113119   9.265   5.978   4.557  0.0370 -0.4166  0.7993
  730SOL    HW213120   9.410   5.945   4.490 -0.0117 -0.4143  0.6959
  731SOL     OW13121   0.510   2.813   1.636 -0.0057 -0.0188 -0.1020
  731SOL    HW113122   0.424   2.772   1.665  0.0352  0.6729  1.0573
  731SOL    HW213123   0.585   2.774   1.689  0.2840  0.0572 -0.4528
  732SOL     OW13124   8.694   4.892   2.337 -0.2945 -0.0760  0.1102
  732SOL    HW113125   8.737   4.827   2.275 -0.4352  1.5815 -1.7782
  732SOL    HW213126   8.596   4.899   2.316  0.2710  2.9962 -1.8258
  733SOL     OW13127   3.088   3.450   3.187 -0.0358 -0.3922  0.0043
  733SOL    HW113128   3.072   3.491   3.277 -1.7900 -1.3968  0.1689
  733SOL    HW213129   3.170   3.490   3.146  1.2360 -0.4543  2.3823
  734SOL     OW13130   2.582   5.042   2.479 -0.2453  0.3786 -0.0239
  734SOL    HW113131   2.537   5.022   2.566  0.1951  1.1830  0.3914
  734SOL    HW213132   2.539   4.988   2.406 -0.8265 -0.0537  0.6343
  735SOL     OW13133   6.886   0.420   4.104  0.0765  0.3352 -0.0914
  735SOL    HW113134   6.983   0.433   4.083  0.2944  0.7342  1.1152
  735SOL    HW213135   6.872   0.427   4.203 -0.7461 -2.5534  0.0417
  736SOL     OW13136   1.608   3.361   3.194  0.0756 -0.1178  0.1251
  736SOL    HW113137   1.643   3.408   3.113  0.1288  0.1160  0.2862
  736SOL    HW213138   1.674   3.368   3.268 -0.0872 -0.1161  0.2695
  737SOL     OW13139   0.378   3.348   4.346 -0.0519 -0.3888  0.0972
  737SOL    HW113140   0.327   3.295   4.414 -2.1392  0.0951 -1.0282
  737SOL    HW213141   0.322   3.426   4.317  2.6565  2.0237  1.1778
  738SOL     OW13142   3.696   5.607   1.802  0.1243 -0.1847  0.1069
  738SOL    HW113143   3.731   5.567   1.887  2.3450  0.6935 -0.3522
  738SOL    HW213144   3.739   5.561   1.724  1.6516  2.1148 -0.4469
  739SOL     OW13145   0.673   2.392   5.171 -0.5448 -0.1330  0.1884
  739SOL    HW113146   0.637   2.470   5.223 -0.7734  0.9710 -1.5713
  739SOL    HW213147   0.658   2.408   5.073  1.7175 -1.2059 -0.3678
  740SOL     OW13148   4.411   3.264   0.090  0.2722 -0.0777 -0.4211
  740SOL    HW113149   4.378   3.315   0.170 -0.6740 -0.6933 -0.4104
  740SOL    HW213150   4.493   3.213   0.115  0.2063  0.0494  0.0649
  741SOL     OW13151   0.354   7.975   4.659  0.0728  0.4121 -0.3000
  741SOL    HW113152   0.396   8.025   4.735 -1.2332 -2.3670  2.3833
  741SOL    HW213153   0.401   7.887   4.648 -1.9205 -0.6501 -0.4593
  742SOL     OW13154   8.213   3.037   5.049 -0.2386  0.4204  1.0062
  742SOL    HW113155   8.247   2.985   5.127 -0.8330 -1.7617 -0.1429
  742SOL    HW213156   8.290   3.072   4.995  0.1663 -0.1549  1.2137
  743SOL     OW13157   9.351   7.054   1.426 -0.4365  0.4989 -0.0675
  743SOL    HW113158   9.322   7.128   1.365  0.1125 -0.0602 -1.0229
  743SOL    HW213159   9.408   7.092   1.499 -1.3502  1.2157  0.2791
  744SOL     OW13160   9.616   2.175   2.319  0.0789  0.0058 -0.4901
  744SOL    HW113161   9.674   2.166   2.401 -0.0161  0.0189 -0.4226
  744SOL    HW213162   9.660   2.128   2.243 -1.4050 -2.8229  0.3360
  745SOL     OW13163   7.943   5.941   0.135  0.6383 -0.2030 -0.3451
  745SOL    HW113164   8.010   5.873   0.165  0.9200  0.0661 -0.3689
  745SOL    HW213165   7.955   6.025   0.188 -1.2762 -0.9753  1.3993
  746SOL     OW13166   9.648   6.712   0.661  0.0513  0.2854 -0.3523
  746SOL    HW113167   9.573   6.688   0.600 -0.4045 -2.2475  1.1173
  746SOL    HW213168   9.612   6.736   0.751  0.9578 -0.6051  0.2608
  747SOL     OW13169   7.745   8.597   2.456 -0.5238 -0.3250 -0.0407
  747SOL    HW113170   7.744   8.498   2.473 -2.4464 -0.4485 -0.7641
  747SOL    HW213171   7.762   8.645   2.542  1.4146 -1.2989  0.1556
  748SOL     OW13172   9.464   2.566   5.281  0.8639  0.1018  0.2255
  748SOL    HW113173   9.385   2.521   5.241  0.5928  0.6004  0.2014
  748SOL    HW213174   9.516   2.499   5.335  0.3258 -0.1840  0.3981
  749SOL     OW13175   0.810   7.148   3.083 -0.0608 -0.1687 -0.5541
  749SOL    HW113176   0.796   7.052   3.056  0.6287 -0.0826 -1.2362
  749SOL    HW213177   0.744   7.172   3.153  1.1342 -1.7929  1.1947
  750SOL     OW13178   4.550   3.625   1.677  0.8811 -0.5869 -0.5187
  750SOL    HW113179   4.506   3.653   1.763  0.9402 -0.0237 -0.6682
  750SOL    HW213180   4.640   3.668   1.670  0.8419 -0.5643 -0.9039
  751SOL     OW13181   7.786   9.046   2.218  0.4291  0.5252  0.2588
  751SOL    HW113182   7.879   9.075   2.237 -0.1776  3.0254 -0.4817
  751SOL    HW213183   7.722   9.122   2.234 -1.4919 -1.1220  0.7082
  752SOL     OW13184   0.131   4.420   0.236 -0.5330 -0.0184  0.1397
  752SOL    HW113185   0.090   4.360   0.167 -1.0918 -0.2824  0.7000
  752SOL    HW213186   0.230   4.406   0.237 -0.2723  1.5175 -2.0578
  753SOL     OW13187   2.443   0.401   4.482  0.2107 -0.4278  0.5613
  753SOL    HW113188   2.346   0.419   4.469  0.0586 -0.7045  1.3324
  753SOL    HW213189   2.491   0.487   4.501  0.3334 -0.1021 -1.1253
  754SOL     OW13190   8.752   8.973   4.357  0.0964  0.0926 -0.1979
  754SOL    HW113191   8.724   8.969   4.453  1.8596  2.4572  0.4582
  754SOL    HW213192   8.837   8.922   4.345 -0.1351 -0.2198 -0.5270
  755SOL     OW13193   1.136   3.768   0.830 -0.1144  0.9780  0.1329
  755SOL    HW113194   1.048   3.812   0.850 -0.9639  1.2100 -3.6274
  755SOL    HW213195   1.134   3.733   0.736  3.6918  0.5909  0.1443
  756SOL     OW13196   3.216   5.796   2.715  0.0503 -0.1537  0.1079
  756SOL    HW113197   3.230   5.886   2.673 -2.4625  0.3787  0.3425
  756SOL    HW213198   3.256   5.796   2.807 -1.0792  1.1574  0.6107
  757SOL     OW13199   3.963   2.274   0.586 -0.5168  0.0424 -0.3226
  757SOL    HW113200   3.884   2.255   0.643 -0.4436 -1.7709 -0.8070
  757SOL    HW213201   4.032   2.324   0.640 -1.6272  0.8950  0.3228
  758SOL     OW13202   0.612   3.457   1.835 -0.3532 -0.7300 -0.2141
  758SOL    HW113203   0.690   3.470   1.775  0.1920  1.6793  0.9831
  758SOL    HW213204   0.643   3.443   1.929 -1.3197 -0.7135  0.1222
  759SOL     OW13205   6.307   9.702   4.457  0.1708 -0.1408  0.0846
  759SOL    HW113206   6.258   9.644   4.392  0.3017 -0.2580  0.0923
  759SOL    HW213207   6.241   9.747   4.517  0.1635 -1.4427  1.0594
  760SOL     OW13208   7.861   4.735   4.397 -0.1139  0.1839 -0.1276
  760SOL    HW113209   7.896   4.829   4.398 -2.3414  1.0512  2.5180
  760SOL    HW213210   7.798   4.723   4.321  1.2257  0.3900 -1.2956
  761SOL     OW13211   6.334   1.620   3.353  0.1056  0.0988  0.9418
  761SOL    HW113212   6.337   1.540   3.413  1.3720 -0.8452 -0.3527
  761SOL    HW213213   6.243   1.661   3.357 -1.0097 -2.2663  0.5231
  762SOL     OW13214   0.560   5.533   2.584 -0.0780  0.1021 -0.1057
  762SOL    HW113215   0.527   5.444   2.617 -0.4764  0.4127  0.3252
  762SOL    HW213216   0.483   5.596   2.576  0.0514  0.1334 -1.3122
  763SOL     OW13217   3.360   8.652   1.453 -0.0714  0.5491 -0.5343
  763SOL    HW113218   3.339   8.654   1.355  0.6665  1.5060 -0.6783
  763SOL    HW213219   3.453   8.686   1.468  0.0361 -0.1615  0.4448
  764SOL     OW13220   3.030   5.417   4.828 -0.3407  0.0489  0.1073
  764SOL    HW113221   2.995   5.452   4.741 -1.8721 -1.6447  0.0061
  764SOL    HW213222   3.122   5.380   4.814 -0.0419  0.9880 -0.4820
  765SOL     OW13223   2.415   1.017   1.442 -0.2637  0.4924 -0.6548
  765SOL    HW113224   2.358   1.092   1.408 -0.1890  1.3424  1.0341
  765SOL    HW213225   2.401   1.006   1.540 -1.5291 -2.8311 -1.1349
  766SOL     OW13226   9.445   0.102   4.550  0.4108 -0.6185 -0.3375
  766SOL    HW113227   9.394   0.170   4.602  0.3358 -0.1188 -1.0548
  766SOL    HW213228   9.531   0.081   4.596  0.0875 -0.6021  0.2735
  767SOL     OW13229   8.605   5.664   0.848 -0.0142 -0.4778  0.1746
  767SOL    HW113230   8.646   5.752   0.824 -0.1278 -0.4175  0.1990
  767SOL    HW213231   8.636   5.637   0.940 -0.2660 -0.2884  0.3146
  768SOL     OW13232   3.564   4.608   1.057 -0.9218  0.8390  0.3716
  768SOL    HW113233   3.537   4.641   1.148  0.9598  2.2749  0.4450
  768SOL    HW213234   3.652   4.649   1.032 -0.2562 -1.3977 -1.0856
  769SOL     OW13235   9.921   8.261   3.804 -0.1582  0.4907 -0.3386
  769SOL    HW113236   9.940   8.172   3.761  1.9098  1.2933 -1.1468
  769SOL    HW213237   9.828   8.290   3.782 -0.8202 -1.4217 -0.1462
  770SOL     OW13238   2.035   4.975   2.200 -0.2422  0.1002  0.1102
  770SOL    HW113239   2.076   4.884   2.209  1.7943  1.0936  1.1141
  770SOL    HW213240   2.082   5.025   2.127 -0.0601  1.0307  0.8659
  771SOL     OW13241   0.964   1.760   4.701  0.7724 -0.3386  0.3522
  771SOL    HW113242   1.047   1.707   4.684  1.4057  0.6803  0.2040
  771SOL    HW213243   0.925   1.734   4.789  0.1700 -2.1999 -0.4477
  772SOL     OW13244   3.208   8.373   4.323  0.0035  0.0627 -0.7077
  772SOL    HW113245   3.139   8.305   4.347  0.6756  0.0118  1.1829
  772SOL    HW213246   3.282   8.330   4.271 -0.2799 -0.3463 -0.7711
  773SOL     OW13247   5.399   7.442   1.958  0.3377 -0.9668 -0.1883
  773SOL    HW113248   5.447   7.373   1.903  2.5545  1.3246 -1.2279
  773SOL    HW213249   5.435   7.532   1.937 -2.6670  0.5874  0.9792
  774SOL     OW13250   8.202   5.606   0.089 -0.0437 -0.2596  0.2083
  774SOL    HW113251   8.252   5.546   0.028 -1.8565 -0.3374 -1.2271
  774SOL    HW213252   8.161   5.552   0.163 -0.6405 -0.6327 -0.3894
  775SOL     OW13253   4.057   3.362   2.607  0.0781 -0.1702  0.4582
  775SOL    HW113254   4.109   3.445   2.591 -1.6789  1.5320  3.0780
  775SOL    HW213255   4.113   3.297   2.658  0.8298  0.1737  0.0779
  776SOL     OW13256   3.379   5.540   0.816  0.1716  0.5450  0.1578
  776SOL    HW113257   3.435   5.616   0.784  0.8411  0.3358  0.8089
  776SOL    HW213258   3.287   5.547   0.778 -0.3766  2.7798  1.7748
  777SOL     OW13259   3.799   0.978   3.355  0.4646  0.3054  0.0334
  777SOL    HW113260   3.834   0.888   3.327 -1.0907 -0.1899 -0.3746
  777SOL    HW213261   3.876   1.036   3.381  1.4939 -1.1501  0.3438
  778SOL     OW13262   0.609   9.314   0.715  0.2042  0.4800 -0.3168
  778SOL    HW113263   0.661   9.244   0.665  0.1396  1.1547 -1.3420
  778SOL    HW213264   0.669   9.391   0.736  0.1020  0.4166  0.2074
  779SOL     OW13265   1.088   8.123   4.540 -0.3699  0.0970 -0.1636
  779SOL    HW113266   1.092   8.036   4.493  0.0638  0.2953 -0.4888
  779SOL    HW213267   1.171   8.137   4.594 -0.7889 -0.0543  0.5247
  780SOL     OW13268   8.086   1.320   3.448  0.6293 -0.4329  0.0208
  780SOL    HW113269   8.065   1.224   3.466  0.3944 -0.7275 -1.7193
  780SOL    HW213270   8.139   1.357   3.524  0.4817 -1.8634  0.8404
  781SOL     OW13271   9.007   6.502   4.416  0.6252  0.7203 -0.1315
  781SOL    HW113272   9.085   6.440   4.413  0.2733  0.2536  0.3095
  781SOL    HW213273   9.025   6.582   4.359  1.2493  0.4068 -0.3678
  782SOL     OW13274   8.855   4.876   4.688 -0.0287  0.0130  0.2324
  782SOL    HW113275   8.845   4.777   4.684  2.8009 -0.3505  0.5810
  782SOL    HW213276   8.862   4.913   4.596 -0.9369 -0.1157  0.1073
  783SOL     OW13277   2.912   0.651   2.965 -0.0240  0.0060  0.2144
  783SOL    HW113278   2.841   0.709   3.004 -1.4723 -1.8235  0.3831
  783SOL    HW213279   2.881   0.556   2.966  2.2943 -0.7750 -0.0411
  784SOL     OW13280   6.081   9.156   3.268  0.3041 -0.3042  0.2011
  784SOL    HW113281   6.129   9.082   3.220  2.0960  0.2347  1.1067
  784SOL    HW213282   6.137   9.186   3.345 -1.0507  1.0730  0.6571
  785SOL     OW13283   3.924   2.669   0.692 -0.0528  0.0057 -0.0143
  785SOL    HW113284   3.835   2.692   0.732 -0.1686 -0.2551 -0.1182
  785SOL    HW213285   3.988   2.645   0.764 -0.4746 -1.1934 -0.0308
  786SOL     OW13286   2.785   8.152   3.215  0.0061  0.0781 -0.2763
  786SOL    HW113287   2.774   8.236   3.267 -0.4423 -1.8365  2.8236
  786SOL    HW213288   2.700   8.130   3.167  0.1965  1.4688 -1.2743
  787SOL     OW13289   3.310   4.182   4.944  0.3253 -0.0391 -0.3917
  787SOL    HW113290   3.225   4.133   4.926  0.0730 -0.8137  2.6802
  787SOL    HW213291   3.382   4.116   4.968  0.6443  0.8855  1.2762
  788SOL     OW13292   0.933   1.507   0.588  0.1663  0.3613 -0.6998
  788SOL    HW113293   0.944   1.448   0.669  0.9621  1.4850  0.0247
  788SOL    HW213294   1.019   1.510   0.538 -0.0278  0.4979 -1.0260
  789SOL     OW13295   4.488   1.380   3.635 -0.4330 -0.1722 -0.0920
  789SOL    HW113296   4.474   1.467   3.682  0.2085 -0.8940  1.4406
  789SOL    HW213297   4.527   1.398   3.544 -1.0083  1.1699 -0.0926
  790SOL     OW13298   2.756   4.434   2.110 -0.0800  0.4539  0.2525
  790SOL    HW113299   2.826   4.493   2.070 -0.7205  2.0751  1.4612
  790SOL    HW213300   2.667   4.478   2.103 -0.3566  0.3072  2.4716
  791SOL     OW13301   3.109   9.635   4.060 -0.1358  0.4421  0.3141
  791SOL    HW113302   3.084   9.541   4.037 -0.8943  0.6713  0.2013
  791SOL    HW213303   3.181   9.667   3.998  0.3537 -0.1686  0.5585
  792SOL     OW13304   1.734   5.700   0.481 -0.8043 -0.1063  0.0102
  792SOL    HW113305   1.748   5.779   0.541 -1.5963 -1.6858  2.3686
  792SOL    HW213306   1.797   5.627   0.508 -0.9219 -0.7168 -1.3470
  793SOL     OW13307   1.347   4.703   2.690 -0.3807 -0.1109 -0.6347
  793SOL    HW113308   1.268   4.654   2.653 -0.5638 -0.4013  0.1216
  793SOL    HW213309   1.403   4.739   2.615 -0.3207 -1.3519 -1.1918
  794SOL     OW13310   4.913   8.432   4.959  0.6261  0.1576 -0.1351
  794SOL    HW113311   4.857   8.445   5.041  1.5203 -0.1717  0.5359
  794SOL    HW213312   4.973   8.354   4.972  0.0029 -0.5767 -1.5410
  795SOL     OW13313   8.441   5.190   2.161 -0.1702  0.2419  0.1970
  795SOL    HW113314   8.411   5.112   2.216 -0.2118  1.0109  1.2814
  795SOL    HW213315   8.472   5.158   2.072 -0.8063 -0.9467  0.3910
  796SOL     OW13316   3.894   7.766   1.410  0.3499  0.1260 -0.0505
  796SOL    HW113317   3.943   7.747   1.325 -1.2337 -0.6367 -0.8099
  796SOL    HW213318   3.952   7.821   1.470  1.9477 -0.3497 -1.1208
  797SOL     OW13319   4.468   1.932   4.086 -0.2328  0.0356  0.1646
  797SOL    HW113320   4.517   2.013   4.056 -1.3382  1.2372  1.5096
  797SOL    HW213321   4.522   1.883   4.155 -0.0745  0.2775  0.2092
  798SOL     OW13322   4.498   1.734   0.184  0.0897 -0.2712 -0.2398
  798SOL    HW113323   4.566   1.702   0.117  0.3632  1.4173 -0.7987
  798SOL    HW213324   4.490   1.834   0.178 -1.7108 -0.3562  0.5334
  799SOL     OW13325   4.676   9.254   4.140  0.7641  0.3046 -0.5806
  799SOL    HW113326   4.592   9.200   4.151  0.9965 -0.0220 -0.4128
  799SOL    HW213327   4.730   9.249   4.224  1.2414  0.0291 -0.9093
  800SOL     OW13328   3.373   0.837   3.164  0.7703  0.1646  0.1582
  800SOL    HW113329   3.314   0.915   3.140 -0.3175 -0.8852 -0.6669
  800SOL    HW213330   3.411   0.797   3.080  1.3222 -0.1960  0.5781
  801SOL     OW13331   0.879   5.755   3.333 -0.2392 -0.6944 -0.4858
  801SOL    HW113332   0.887   5.846   3.292 -0.5879 -0.7218 -0.6169
  801SOL    HW213333   0.833   5.762   3.421  0.0926 -0.6949 -0.3111
  802SOL     OW13334   8.881   4.986   4.454 -0.4117 -0.0603 -0.5392
  802SOL    HW113335   8.803   4.962   4.396 -0.2314 -1.3059 -0.2884
  802SOL    HW213336   8.942   5.047   4.405 -1.1862  0.3597 -0.9977
  803SOL     OW13337   4.876   0.884   4.475 -0.1062  0.2724  0.1856
  803SOL    HW113338   4.948   0.906   4.409 -1.3117  1.7033 -0.6916
  803SOL    HW213339   4.826   0.803   4.443 -0.8767  1.1344 -0.8298
  804SOL     OW13340   3.100   7.973   1.185  0.1606 -0.2728 -0.3124
  804SOL    HW113341   3.189   8.012   1.208 -0.5502  1.7781 -0.9422
  804SOL    HW213342   3.085   7.980   1.086 -1.3464  0.8476 -0.0218
  805SOL     OW13343   2.224   9.531   3.201  0.3391  0.3112  0.0817
  805SOL    HW113344   2.225   9.609   3.264  0.9761 -0.3762  0.9391
  805SOL    HW213345   2.145   9.538   3.141 -0.0202  1.2346  0.6436
  806SOL     OW13346   4.476   2.669   0.247  0.0031  0.2072 -0.1296
  806SOL    HW113347   4.456   2.666   0.149 -0.8054 -1.0365  0.0679
  806SOL    HW213348   4.571   2.642   0.262  0.1377  0.4314 -0.5769
  807SOL     OW13349   1.598   8.899   3.939 -0.6248  0.3319 -0.1884
  807SOL    HW113350   1.556   8.901   3.849  0.3246 -0.7295 -0.6663
  807SOL    HW213351   1.527   8.896   4.009 -1.3471  0.0262 -0.9283
  808SOL     OW13352   0.190   6.688   2.699  0.5530  0.0913 -0.3395
  808SOL    HW113353   0.257   6.707   2.626  0.8887  0.8467  0.1565
  808SOL    HW213354   0.208   6.748   2.777 -0.9491  0.5853 -0.3512
  809SOL     OW13355   9.998   0.949   2.162 -0.0578 -0.0262  0.2640
  809SOL    HW113356  10.075   0.963   2.101 -0.8012  0.3912 -0.5874
  809SOL    HW213357   9.946   1.035   2.171 -1.7112 -0.8612 -0.9632
  810SOL     OW13358   3.125   4.464   2.241 -0.5747  0.0299 -0.4709
  810SOL    HW113359   3.062   4.394   2.274 -0.2852  0.2094  0.4728
  810SOL    HW213360   3.213   4.422   2.219 -0.9651 -0.1923 -1.6269
  811SOL     OW13361   2.633   4.476   0.260 -0.0378 -0.0003 -1.0168
  811SOL    HW113362   2.549   4.423   0.252 -0.0844  0.0673 -0.9793
  811SOL    HW213363   2.697   4.448   0.189 -0.5560  0.7818 -1.8044
  812SOL     OW13364   4.144   0.044   2.024  0.0156 -0.0181  0.1634
  812SOL    HW113365   4.133   0.003   2.115 -0.9440  1.9335  0.9409
  812SOL    HW213366   4.220  -0.001   1.976  0.7899 -0.7792  2.0732
  813SOL     OW13367   4.119   1.155   2.338  0.2355 -0.7465  0.1459
  813SOL    HW113368   4.194   1.197   2.286  0.6965 -3.1568 -1.2246
  813SOL    HW213369   4.138   1.161   2.435  2.1359 -1.1613 -0.1871
  814SOL     OW13370   3.545   4.991   1.874 -0.5237 -0.0240  0.0018
  814SOL    HW113371   3.492   4.990   1.960 -0.3644 -1.7308  0.0941
  814SOL    HW213372   3.485   4.966   1.798 -0.5736  1.1186 -0.3502
  815SOL     OW13373   2.727   1.165   5.338 -0.3617 -0.4208  0.4781
  815SOL    HW113374   2.741   1.093   5.406 -0.1754  0.7056  1.6577
  815SOL    HW213375   2.780   1.144   5.256  1.1514 -0.7277  1.5078
  816SOL     OW13376   1.134   0.182   0.866 -0.7822  0.2215  0.0751
  816SOL    HW113377   1.088   0.104   0.822  0.2929 -0.3962  0.0404
  816SOL    HW213378   1.065   0.248   0.894 -1.9376 -1.7575  2.0926
  817SOL     OW13379   3.897   8.328   2.935 -0.1206  0.0110 -0.0369
  817SOL    HW113380   3.965   8.345   3.006 -0.7912  1.7478  0.2110
  817SOL    HW213381   3.935   8.353   2.846 -0.5568  1.3232  0.1437
  818SOL     OW13382   8.263   9.598   0.342 -0.0176  0.2562  0.7743
  818SOL    HW113383   8.356   9.623   0.367 -0.6399  0.1170  3.3657
  818SOL    HW213384   8.243   9.632   0.250  1.6135  2.8636  1.3285
  819SOL     OW13385   2.382   2.116   0.540  0.0328  0.1743  0.0016
  819SOL    HW113386   2.363   2.213   0.556  1.6125  0.5631 -0.3699
  819SOL    HW213387   2.346   2.089   0.451 -0.8573  0.2913  0.3251
  820SOL     OW13388   9.868   7.288   2.763 -0.6729  0.2928 -0.5132
  820SOL    HW113389   9.815   7.209   2.793 -0.9450  0.0764 -1.5770
  820SOL    HW213390   9.862   7.360   2.833  1.2099 -1.3403  1.3838
  821SOL     OW13391   1.543   8.182   1.893 -0.0842 -0.4405  0.3615
  821SOL    HW113392   1.547   8.242   1.973  2.9248  0.4570 -0.4053
  821SOL    HW213393   1.511   8.234   1.813  0.1650 -0.4945  0.2272
  822SOL     OW13394   2.780   7.843   5.433  0.0240 -0.7025  0.1410
  822SOL    HW113395   2.846   7.845   5.508  0.2124  0.1006 -0.0356
  822SOL    HW213396   2.821   7.884   5.351 -0.9627  0.6111  0.2685
  823SOL     OW13397   4.339   4.373   4.661 -0.3297 -0.3363 -0.0080
  823SOL    HW113398   4.416   4.331   4.614  0.9182  0.4050  1.3200
  823SOL    HW213399   4.324   4.466   4.627  0.3653  0.0822  0.8188
  824SOL     OW13400   4.122   1.079   1.419 -0.0734  0.1450 -0.2226
  824SOL    HW113401   4.105   1.174   1.391 -1.3367 -0.3113 -1.0315
  824SOL    HW213402   4.041   1.043   1.466  0.0677 -0.8277 -0.7268
  825SOL     OW13403   9.821   9.480   4.861  0.8592 -0.3060 -0.4776
  825SOL    HW113404   9.847   9.567   4.821  1.0336  0.1222  0.5630
  825SOL    HW213405   9.730   9.488   4.902  0.6699 -0.7497 -0.7986
  826SOL     OW13406   0.332   8.853   2.733 -0.0407  0.1328  0.2389
  826SOL    HW113407   0.236   8.828   2.740 -0.1113  0.3792  0.1303
  826SOL    HW213408   0.387   8.787   2.785 -0.1999 -0.4141 -0.2814
  827SOL     OW13409   2.980   2.586   2.335  0.5605 -0.0802 -0.2458
  827SOL    HW113410   3.039   2.647   2.388  1.2694 -1.4163  0.5253
  827SOL    HW213411   2.892   2.576   2.382 -0.3308  1.9094 -1.3946
  828SOL     OW13412   0.472   8.013   2.533  1.3156  0.2442 -0.4772
  828SOL    HW113413   0.415   7.978   2.459 -0.0245 -0.0508  0.6927
  828SOL    HW213414   0.516   8.098   2.502 -1.3174  1.5851 -0.7263
  829SOL     OW13415   7.660   1.255   5.634  0.3454 -0.8194  0.3141
  829SOL    HW113416   7.726   1.326   5.659 -0.6056  0.2804 -0.2723
  829SOL    HW213417   7.669   1.234   5.536 -0.8579  0.0708  0.0011
  830SOL     OW13418   0.125   3.898   3.451 -0.5311  0.2282 -0.4050
  830SOL    HW113419   0.071   3.889   3.535 -2.7656  0.3784 -1.7804
  830SOL    HW213420   0.170   3.811   3.431 -0.0575  0.1620  0.8919
  831SOL     OW13421   9.858   3.841   4.357  0.4910  0.9802  0.0271
  831SOL    HW113422   9.769   3.844   4.311  0.5343  1.2457 -0.0427
  831SOL    HW213423   9.864   3.917   4.421 -0.3566 -0.5317  1.9305
  832SOL     OW13424   7.763   1.837   3.543  0.0857  0.2787  0.0973
  832SOL    HW113425   7.807   1.866   3.628 -0.8086  0.8662  0.3681
  832SOL    HW213426   7.687   1.898   3.523 -0.4904 -0.6237 -0.4705
  833SOL     OW13427   0.056   6.051   5.439 -0.0589  0.1460 -0.2069
  833SOL    HW113428   0.114   5.989   5.491 -1.2998  0.2773  1.3765
  833SOL    HW213429   0.113   6.121   5.396  1.1702 -1.0441 -0.5784
  834SOL     OW13430   7.168   7.267   3.994 -0.8043 -0.4431 -0.1092
  834SOL    HW113431   7.198   7.242   4.086 -1.5395 -2.5538 -0.4159
  834SOL    HW213432   7.119   7.190   3.953 -0.4763  0.4725 -2.2763
  835SOL     OW13433   2.017   8.287   3.493  0.6581 -0.4251 -0.8645
  835SOL    HW113434   1.922   8.307   3.518  0.9158 -0.6640  0.3029
  835SOL    HW213435   2.037   8.191   3.511  1.8629  0.1914  1.2889
  836SOL     OW13436   5.830   1.162   3.474  0.0656  0.2292 -0.6790
  836SOL    HW113437   5.851   1.077   3.426  1.7897 -0.2421  0.8573
  836SOL    HW213438   5.743   1.153   3.522 -0.3913 -0.2063 -1.5851
  837SOL     OW13439   5.041   2.437   1.847 -0.2704  0.5290  0.3579
  837SOL    HW113440   5.136   2.410   1.832 -0.7370 -0.5089 -0.7807
  837SOL    HW213441   5.038   2.523   1.898  1.2714  0.5136  0.4772
  838SOL     OW13442   5.609   1.087   3.769  0.2239  0.1875 -0.5048
  838SOL    HW113443   5.524   1.139   3.761  0.0321 -0.1316 -0.5514
  838SOL    HW213444   5.623   1.061   3.865 -0.3189 -0.7408 -0.6757
  839SOL     OW13445   1.981   5.057   0.549 -0.6912  0.3089 -0.5791
  839SOL    HW113446   1.919   5.098   0.616 -1.5231  0.4504 -1.4316
  839SOL    HW213447   2.045   5.126   0.516  0.1083  0.0977  0.5072
  840SOL     OW13448   8.868   3.225   3.083 -0.4410  0.1841  0.0206
  840SOL    HW113449   8.883   3.321   3.061  1.5264  0.4623  2.3693
  840SOL    HW213450   8.900   3.168   3.007  2.2368  1.2576  0.2794
  841SOL     OW13451   9.014   3.320   5.446 -0.2025 -0.1711  0.0279
  841SOL    HW113452   9.034   3.372   5.528  0.5828  0.5547 -0.6131
  841SOL    HW213453   9.082   3.247   5.435 -0.0034  0.0546 -0.2487
  842SOL     OW13454   4.168   9.452   4.094 -0.1357 -0.0075  0.1862
  842SOL    HW113455   4.219   9.538   4.100  0.1978 -0.3121  1.9048
  842SOL    HW213456   4.164   9.409   4.184 -1.5689 -1.0724 -0.3671
  843SOL     OW13457   3.512   5.027   3.555 -0.2312 -0.8890  0.5498
  843SOL    HW113458   3.506   5.025   3.655 -1.4884 -1.8815  0.4710
  843SOL    HW213459   3.476   5.114   3.521 -1.8726 -1.4262  0.8588
  844SOL     OW13460   9.244   1.759   0.865 -0.4431 -0.0026  0.1214
  844SOL    HW113461   9.251   1.671   0.911  1.2631  1.0205  1.8699
  844SOL    HW213462   9.322   1.771   0.803 -0.5488  0.3786  0.0593
  845SOL     OW13463   0.957   6.053   1.250 -0.0607  0.7287  0.2453
  845SOL    HW113464   0.986   6.103   1.169 -0.1230  2.0119  0.9914
  845SOL    HW213465   0.890   6.108   1.301 -2.7712 -1.5959 -0.7057
  846SOL     OW13466   9.583   9.327   0.671  0.2578  0.3650  0.0001
  846SOL    HW113467   9.607   9.381   0.751  0.3368  1.6021 -0.8507
  846SOL    HW213468   9.502   9.365   0.627 -1.2063 -1.6928  0.8120
  847SOL     OW13469   1.472   6.790   2.130  0.1345 -0.0395  0.1478
  847SOL    HW113470   1.373   6.802   2.135 -0.2712 -2.6425 -0.4231
  847SOL    HW213471   1.503   6.813   2.037 -0.5336 -2.6449 -0.7748
  848SOL     OW13472   0.084   8.334   2.106  0.0460  0.0939  0.7968
  848SOL    HW113473   0.144   8.388   2.047  0.5439  1.1228  2.2015
  848SOL    HW213474   0.056   8.250   2.059  1.1996  0.4402 -0.5195
  849SOL     OW13475   5.369   5.145   1.175 -0.1464  0.0279  0.8937
  849SOL    HW113476   5.336   5.061   1.218  1.5344 -0.8719  0.4504
  849SOL    HW213477   5.413   5.123   1.088  0.0974  1.4076  0.6549
  850SOL     OW13478   4.367   2.555   2.567 -0.1218 -0.7355  0.1942
  850SOL    HW113479   4.369   2.655   2.576  0.3889 -0.8229  1.1582
  850SOL    HW213480   4.395   2.529   2.475  0.8943 -0.0361  0.2997
  851SOL     OW13481   9.164   2.110   3.365 -0.0401  0.0855 -0.2576
  851SOL    HW113482   9.086   2.160   3.403  2.1039  2.8712  0.6949
  851SOL    HW213483   9.213   2.064   3.438 -0.9599 -1.9653 -0.9051
  852SOL     OW13484   4.532   9.811   4.324 -0.1960 -0.4153 -0.3148
  852SOL    HW113485   4.479   9.825   4.407 -1.3056 -1.0193 -0.9168
  852SOL    HW213486   4.622   9.773   4.347 -0.2548  0.0292  0.6498
  853SOL     OW13487   1.574   4.168   4.847 -0.0290 -0.6985 -0.3035
  853SOL    HW113488   1.577   4.184   4.749  1.8206 -0.0691 -0.1637
  853SOL    HW213489   1.622   4.242   4.895  0.5313 -1.8413  0.9555
  854SOL     OW13490   8.102   0.174   0.759  0.2298 -0.5691 -0.2382
  854SOL    HW113491   8.071   0.079   0.748  0.2211 -0.4244 -1.6202
  854SOL    HW213492   8.038   0.235   0.712 -0.7176  0.2959  2.1152
  855SOL     OW13493   3.296   0.073   2.558  0.4292 -0.1942 -0.0096
  855SOL    HW113494   3.272  -0.009   2.506 -0.2072  0.3145 -0.5282
  855SOL    HW213495   3.395   0.088   2.552  0.2389  0.4565 -2.0116
  856SOL     OW13496   1.541   5.789   5.629 -0.4231 -0.2991 -0.1867
  856SOL    HW113497   1.582   5.751   5.713 -0.1485  0.9627  0.2625
  856SOL    HW213498   1.449   5.822   5.649 -0.5242 -0.3981 -0.4900
  857SOL     OW13499   2.699   8.198   1.762 -0.0828  0.7262  0.1074
  857SOL    HW113500   2.684   8.192   1.860 -1.5225  0.3513 -0.1289
  857SOL    HW213501   2.677   8.291   1.730 -0.3589  0.6275  0.0121
  858SOL     OW13502   9.353   2.859   0.620  0.1199  0.0367 -0.1724
  858SOL    HW113503   9.436   2.842   0.673 -0.1801  0.3506  0.4100
  858SOL    HW213504   9.374   2.919   0.543  0.0619  1.8174  1.1521
  859SOL     OW13505   0.754   9.422   4.659  0.6923 -0.2388  0.7189
  859SOL    HW113506   0.692   9.417   4.737  0.2610  4.2300  0.8063
  859SOL    HW213507   0.701   9.429   4.575  1.0672  1.4684  0.6099
  860SOL     OW13508   7.542   5.292   0.066  0.4301 -0.2684 -0.0039
  860SOL    HW113509   7.446   5.295   0.093 -0.1081 -2.0717 -1.5624
  860SOL    HW213510   7.548   5.282  -0.034  2.2439  0.4329  0.0186
  861SOL     OW13511   4.358   5.254   2.330  0.3668 -0.3737 -0.2699
  861SOL    HW113512   4.393   5.244   2.423  1.9793 -0.3584 -0.8451
  861SOL    HW213513   4.259   5.242   2.330  0.6311 -2.9205  1.0678
  862SOL     OW13514   7.956   6.104   4.926  0.1255  0.2729  0.2542
  862SOL    HW113515   7.953   6.004   4.931  0.1429  0.2822  0.4855
  862SOL    HW213516   7.973   6.132   4.832 -1.1539  0.0867 -0.0458
  863SOL     OW13517   0.852   1.549   1.843  0.0443 -0.4257  0.3036
  863SOL    HW113518   0.920   1.588   1.904 -0.0907 -1.4042  1.0914
  863SOL    HW213519   0.761   1.555   1.885  0.0089 -1.4829  0.3958
  864SOL     OW13520   0.356   7.911   2.932 -0.3119  0.3351  0.0635
  864SOL    HW113521   0.415   7.840   2.896 -0.6256  0.7571 -1.3008
  864SOL    HW213522   0.411   7.992   2.955 -0.0973  0.0214  0.6759
  865SOL     OW13523   7.710   0.798   5.129  0.0296 -0.8626  0.3272
  865SOL    HW113524   7.741   0.869   5.192 -1.4828 -0.0535  0.1761
  865SOL    HW213525   7.743   0.709   5.159  1.7430 -0.1256  0.6503
  866SOL     OW13526   2.439   6.903   4.115  0.0917  0.2865 -0.0580
  866SOL    HW113527   2.504   6.935   4.045  1.6837  0.3571  1.4066
  866SOL    HW213528   2.369   6.846   4.072  0.3682  1.2750 -1.8801
  867SOL     OW13529   2.219   4.734   4.048 -0.0150 -0.2061  0.1434
  867SOL    HW113530   2.164   4.796   4.104 -2.3784 -0.4231 -1.8719
  867SOL    HW213531   2.289   4.786   3.999  0.0634  0.4100  0.9001
  868SOL     OW13532   8.602   0.239   2.584 -0.0734  0.2096  0.0947
  868SOL    HW113533   8.602   0.146   2.622 -3.0612 -0.7788 -2.0704
  868SOL    HW213534   8.565   0.303   2.652  0.8055 -0.3905  1.1492
  869SOL     OW13535   8.006   6.801   0.583 -0.2283  0.0638 -0.1801
  869SOL    HW113536   7.926   6.815   0.524  0.5255 -0.1362 -1.2541
  869SOL    HW213537   8.083   6.853   0.548  0.3653 -0.4365  0.3681
  870SOL     OW13538   3.104   3.161   0.932 -0.1477  0.3089  0.0139
  870SOL    HW113539   3.204   3.152   0.927 -0.3125 -0.7944 -1.7263
  870SOL    HW213540   3.080   3.232   0.997  1.7507 -0.3073  1.4338
  871SOL     OW13541   9.429   7.217   1.628 -0.0106 -0.5894  0.0586
  871SOL    HW113542   9.380   7.301   1.649 -0.2652 -0.4264 -1.1190
  871SOL    HW213543   9.473   7.182   1.710  0.0919  0.6906  0.5630
  872SOL     OW13544   0.395   9.454   3.221  0.0165 -0.0656 -0.0491
  872SOL    HW113545   0.415   9.544   3.183 -1.2845  0.0504 -0.4958
  872SOL    HW213546   0.296   9.438   3.218  0.3396 -1.9628 -1.0137
  873SOL     OW13547   3.696   5.665   0.154 -0.4081 -0.0509  0.2759
  873SOL    HW113548   3.771   5.655   0.220 -0.2276  0.6343  0.1785
  873SOL    HW213549   3.659   5.758   0.160  2.6829  1.5916 -3.8387
  874SOL     OW13550   9.055   0.333   3.806 -0.0270 -0.3824  0.4915
  874SOL    HW113551   8.996   0.379   3.740  0.4199  0.4337  0.6502
  874SOL    HW213552   9.102   0.402   3.862 -0.3091 -1.0537  1.5707
  875SOL     OW13553   7.887   3.009   5.225  0.2568  0.3506 -0.2131
  875SOL    HW113554   7.952   3.065   5.277  0.3211 -0.4494  0.5855
  875SOL    HW213555   7.932   2.975   5.142  1.0863 -0.7480  0.6655
  876SOL     OW13556   1.031   3.722   3.028  0.7516  0.3339 -0.4784
  876SOL    HW113557   1.099   3.796   3.030 -0.3708  1.3807 -0.1687
  876SOL    HW213558   1.007   3.695   3.121  0.7625 -0.0448 -0.5848
  877SOL     OW13559   4.990   2.490   1.417 -0.2966  0.0858 -0.1776
  877SOL    HW113560   4.942   2.402   1.419 -0.5592  0.2379  0.5572
  877SOL    HW213561   5.039   2.502   1.503  0.6668  0.1506 -0.7348
  878SOL     OW13562   0.860   3.678   2.134 -0.4949 -0.2143  0.2133
  878SOL    HW113563   0.863   3.739   2.213 -0.2748  1.5219 -1.1224
  878SOL    HW213564   0.938   3.615   2.138  0.1883  0.6606  0.7312
  879SOL     OW13565   3.134   8.281   4.895 -0.0081  0.0500 -0.7064
  879SOL    HW113566   3.196   8.230   4.954 -0.4906  0.6473  0.3190
  879SOL    HW213567   3.165   8.375   4.886  0.0857 -0.0486 -1.4376
  880SOL     OW13568   3.313   8.536   0.560 -0.3351  0.3149  0.2754
  880SOL    HW113569   3.413   8.528   0.553 -0.1527  1.7257  1.1342
  880SOL    HW213570   3.287   8.549   0.656 -1.1699  2.2695 -0.2030
  881SOL     OW13571   0.730   1.894   2.817 -0.1023  0.2082  0.0288
  881SOL    HW113572   0.823   1.915   2.788 -0.0681  1.4589  0.9958
  881SOL    HW213573   0.671   1.973   2.801 -0.6493 -0.0142  0.8972
  882SOL     OW13574   3.895   8.647   1.234 -0.2497 -0.4059 -0.2370
  882SOL    HW113575   3.857   8.659   1.326 -0.4837 -0.8815 -0.2700
  882SOL    HW213576   3.881   8.553   1.205  2.7322 -1.1540  0.5633
  883SOL     OW13577   9.954   4.803   0.500 -0.3330 -0.3580  0.3005
  883SOL    HW113578   9.936   4.805   0.598 -0.2935 -3.2200  0.4031
  883SOL    HW213579  10.019   4.730   0.480 -0.9129 -0.2909 -1.9487
  884SOL     OW13580   0.666   9.803   0.405  0.1626  0.0659  0.3775
  884SOL    HW113581   0.604   9.862   0.355 -0.0441 -0.8045 -0.4120
  884SOL    HW213582   0.666   9.712   0.364  0.1907 -0.5934  1.7980
  885SOL     OW13583   1.960   7.498   0.319 -0.1050  0.0533  0.6271
  885SOL    HW113584   1.995   7.445   0.243  0.8458  0.6844  0.6112
  885SOL    HW213585   2.034   7.551   0.360 -0.2027 -1.5963  3.1036
  886SOL     OW13586   1.308   7.109   1.501  0.5586  0.3572  0.0148
  886SOL    HW113587   1.329   7.191   1.449 -3.1161  1.5393  0.2364
  886SOL    HW213588   1.249   7.049   1.446  2.1779 -1.5922  0.3228
  887SOL     OW13589   3.842   2.629   1.545 -0.0399 -0.0609  0.1028
  887SOL    HW113590   3.832   2.725   1.521  0.9303 -0.4523 -1.9409
  887SOL    HW213591   3.778   2.574   1.491  2.0520 -0.9278 -1.5546
  888SOL     OW13592   4.419   9.346   0.170 -0.4887 -0.0096  0.0327
  888SOL    HW113593   4.376   9.322   0.083 -1.5669  0.8810  0.3095
  888SOL    HW213594   4.407   9.443   0.187  0.7256  0.0412  0.6398
  889SOL     OW13595   3.962   0.177   2.319  0.6957  0.5927 -0.3331
  889SOL    HW113596   3.895   0.110   2.287  1.6766 -0.8279  0.5337
  889SOL    HW213597   3.915   0.260   2.349 -0.5730  0.0595 -0.8175
  890SOL     OW13598   1.463   8.541   2.794  0.7871 -0.1161 -0.4800
  890SOL    HW113599   1.379   8.548   2.847  0.3974  0.5539 -1.1849
  890SOL    HW213600   1.525   8.477   2.839  0.5763  0.6563  0.9394
  891SOL     OW13601   3.855   0.037   1.963 -0.2782 -0.6607  0.5486
  891SOL    HW113602   3.948   0.015   1.993 -0.5293  0.2056  2.0236
  891SOL    HW213603   3.791   0.018   2.037 -1.1178  0.0329  0.0125
  892SOL     OW13604   8.738   8.386   3.339  0.3160  0.2111 -0.0705
  892SOL    HW113605   8.698   8.349   3.423  1.3947  0.1863  0.4312
  892SOL    HW213606   8.667   8.437   3.288 -0.9620 -1.7753 -0.3474
  893SOL     OW13607   2.890   2.628   3.460 -0.3679  0.7973 -0.5379
  893SOL    HW113608   2.933   2.641   3.370 -0.0371  0.8092 -0.3772
  893SOL    HW213609   2.922   2.699   3.523 -0.4632  0.6828 -0.3598
  894SOL     OW13610   9.326   6.629   4.834 -0.0948  0.4017 -0.1098
  894SOL    HW113611   9.405   6.683   4.804 -0.0298  0.9191  0.9820
  894SOL    HW213612   9.248   6.649   4.775 -0.3163  2.3541  0.8114
  895SOL     OW13613   3.104   3.199   3.251 -0.3904  0.5494 -0.0226
  895SOL    HW113614   3.030   3.158   3.198  0.6427 -0.9026 -0.3817
  895SOL    HW213615   3.113   3.295   3.226 -0.9651  0.2782 -1.3203
  896SOL     OW13616   3.674   7.597   4.108  0.1226 -0.8665 -0.1753
  896SOL    HW113617   3.611   7.599   4.185 -0.2775 -1.6672 -0.4762
  896SOL    HW213618   3.703   7.502   4.091 -0.7503 -0.8572 -1.7869
  897SOL     OW13619   4.047   3.268   0.406  0.7204 -0.7592  0.4546
  897SOL    HW113620   4.147   3.265   0.403  0.6728 -0.3176 -2.3908
  897SOL    HW213621   4.010   3.243   0.317 -1.7199 -0.5855  1.3855
  898SOL     OW13622   8.574   1.009   2.853  0.3397  0.4533  0.3542
  898SOL    HW113623   8.522   1.089   2.823 -0.2901  0.5087  1.5760
  898SOL    HW213624   8.627   0.973   2.775 -1.1638  0.6588 -0.7900
  899SOL     OW13625   2.481   2.489   2.757  0.0905  0.0017 -0.3872
  899SOL    HW113626   2.432   2.542   2.825 -0.5438 -2.3861  1.0662
  899SOL    HW213627   2.542   2.424   2.803  0.5744 -0.7875 -2.1095
  900SOL     OW13628   4.297   1.991   5.191 -0.1269 -0.1646  0.0503
  900SOL    HW113629   4.243   1.994   5.275 -0.4039 -0.6505 -0.1080
  900SOL    HW213630   4.237   2.008   5.113  0.3801  1.7811  0.0456
  901SOL     OW13631   7.413   0.229   4.516  0.1644 -0.3007  0.1151
  901SOL    HW113632   7.330   0.177   4.497 -0.2634  0.5441 -0.3728
  901SOL    HW213633   7.465   0.185   4.589 -0.3628 -1.2104 -0.0577
  902SOL     OW13634   3.118   6.754   4.711 -0.0533  0.3496  0.1987
  902SOL    HW113635   3.037   6.716   4.755 -0.2648 -0.9763 -1.2954
  902SOL    HW213636   3.197   6.696   4.730 -0.5372 -1.4041 -2.7795
  903SOL     OW13637   8.154   3.468   5.484 -0.0256 -0.3238 -0.3169
  903SOL    HW113638   8.206   3.536   5.433 -0.6622 -1.2011 -2.1892
  903SOL    HW213639   8.193   3.458   5.575  1.6116  0.7418 -0.8743
  904SOL     OW13640   1.628   9.323   0.802  0.1777 -0.3928  0.0760
  904SOL    HW113641   1.665   9.380   0.875 -1.4416  0.1169  0.5077
  904SOL    HW213642   1.627   9.227   0.832  1.4238 -0.4529 -0.0587
  905SOL     OW13643   9.936   1.355   2.964  0.2160 -0.2440  0.4510
  905SOL    HW113644   9.895   1.287   3.026  1.1547  1.2990  2.8426
  905SOL    HW213645  10.033   1.366   2.986  0.2981  1.1792 -0.5401
  906SOL     OW13646   4.257   0.301   4.376  0.1587  0.2267  0.3611
  906SOL    HW113647   4.281   0.306   4.473  1.5725  0.1903  0.0247
  906SOL    HW213648   4.199   0.378   4.353  3.0894  2.5320  0.3693
  907SOL     OW13649   9.065   0.334   4.762 -0.0376  0.0112 -0.2565
  907SOL    HW113650   9.011   0.394   4.703 -0.9873 -0.0290  0.5557
  907SOL    HW213651   9.035   0.240   4.750 -0.8549  0.1094  0.9414
  908SOL     OW13652   0.767   1.011   2.000 -0.0516 -0.3163 -0.5025
  908SOL    HW113653   0.857   0.981   1.968  0.9198  0.0999  1.7559
  908SOL    HW213654   0.779   1.080   2.072 -2.1471 -1.8371  1.3448
  909SOL     OW13655   3.066   2.062   5.532 -0.0561  0.4302  0.4990
  909SOL    HW113656   3.125   2.130   5.488  1.3757 -0.4075  1.0922
  909SOL    HW213657   3.030   2.100   5.617 -1.6112  1.4953 -0.6129
  910SOL     OW13658   0.151   2.074   0.429 -0.2764  0.7675  0.2856
  910SOL    HW113659   0.140   2.170   0.457  0.7392  0.8178  0.5039
  910SOL    HW213660   0.147   2.067   0.329 -2.2774  0.7901  0.3427
  911SOL     OW13661   8.020   5.344   5.446 -0.3875  0.4046  0.3780
  911SOL    HW113662   7.966   5.261   5.435 -1.1081  1.0526 -1.1515
  911SOL    HW213663   8.114   5.326   5.417 -0.4472  0.0155  0.4192
  912SOL     OW13664   2.815   2.259   4.067 -0.5672 -0.0350  0.0536
  912SOL    HW113665   2.754   2.259   3.987  1.6740  2.2009 -1.7347
  912SOL    HW213666   2.896   2.205   4.047  0.4550  1.3375  0.4442
  913SOL     OW13667   1.551   9.042   0.216  0.1853  0.0197  0.3211
  913SOL    HW113668   1.549   9.065   0.119  1.4436 -0.5548  0.1481
  913SOL    HW213669   1.640   9.003   0.239  0.0238  0.4698  1.7803
  914SOL     OW13670   1.338   1.936   2.003  0.1499 -0.1993  0.3573
  914SOL    HW113671   1.410   2.005   2.008  0.4901 -0.5523  0.3216
  914SOL    HW213672   1.371   1.850   2.041  0.3082 -0.8227 -1.1350
  915SOL     OW13673   0.556   8.128   4.181  0.1153 -0.4668 -0.6974
  915SOL    HW113674   0.615   8.158   4.255 -0.2780  0.0716 -0.5972
  915SOL    HW213675   0.607   8.067   4.121 -0.3471 -3.0823  1.5001
  916SOL     OW13676   2.061   2.432   2.634  0.1881 -0.9364  0.1913
  916SOL    HW113677   1.972   2.416   2.678 -0.0063 -1.8176 -0.4903
  916SOL    HW213678   2.062   2.524   2.595 -0.4089 -0.8880  0.2733
  917SOL     OW13679   9.226   4.436   2.984 -0.6905 -0.1894 -0.2843
  917SOL    HW113680   9.278   4.478   2.910 -0.8880 -0.0842 -0.3617
  917SOL    HW213681   9.143   4.489   3.001 -0.5456 -0.0908  0.1502
  918SOL     OW13682   7.745   2.520   2.804  0.2720 -0.0473 -0.5517
  918SOL    HW113683   7.829   2.508   2.752 -1.2160 -1.0698 -2.7907
  918SOL    HW213684   7.683   2.579   2.753 -0.4951  0.4691  0.9549
  919SOL     OW13685   0.704   3.286   3.707 -0.4968 -0.2552 -0.1905
  919SOL    HW113686   0.714   3.188   3.720 -0.4871  0.0636  2.4633
  919SOL    HW213687   0.792   3.331   3.723 -0.5246  0.1973 -1.2781
  920SOL     OW13688   1.581   7.434   2.767 -0.2438  0.2544  0.3282
  920SOL    HW113689   1.520   7.354   2.764  2.1794 -1.6090 -1.6544
  920SOL    HW213690   1.632   7.433   2.853 -1.4003  0.6140  1.0344
  921SOL     OW13691   0.275   1.623   3.705 -0.0528  0.2890  0.5938
  921SOL    HW113692   0.283   1.590   3.799 -0.0273  2.3438  1.3321
  921SOL    HW213693   0.317   1.713   3.698 -3.2751  1.7706 -0.5418
  922SOL     OW13694   5.003   3.999   0.270  0.7453  0.0532 -0.0948
  922SOL    HW113695   4.955   4.086   0.267 -0.0677 -0.3652  0.5790
  922SOL    HW213696   4.973   3.947   0.350 -0.4925 -1.8453 -1.7377
  923SOL     OW13697   2.086   2.420   2.154  0.3938  0.3571 -0.1334
  923SOL    HW113698   2.100   2.330   2.112  1.2740  1.0012 -1.2659
  923SOL    HW213699   2.150   2.433   2.229  0.9287  0.4032 -0.5911
  924SOL     OW13700   8.896   9.463   0.653  0.3948  0.0084  0.5649
  924SOL    HW113701   8.893   9.558   0.619  0.3629 -0.5066 -0.9034
  924SOL    HW213702   8.843   9.457   0.738 -1.4215  0.8711 -0.4583
  925SOL     OW13703   4.882   8.604   5.468 -0.4856 -0.2571 -0.0694
  925SOL    HW113704   4.870   8.594   5.567 -0.1083  0.5305  0.0646
  925SOL    HW213705   4.979   8.619   5.447 -0.7062  0.7187 -0.4443
  926SOL     OW13706   8.864   2.356   0.735  0.1181 -0.1385  0.1685
  926SOL    HW113707   8.801   2.429   0.709  0.2531 -0.6998 -1.8027
  926SOL    HW213708   8.836   2.317   0.823 -2.6190 -0.7725 -0.9493
  927SOL     OW13709   9.362   9.896   2.129 -0.9512 -0.2514 -0.8846
  927SOL    HW113710   9.377   9.798   2.128  1.7705  0.1112 -0.3065
  927SOL    HW213711   9.368   9.930   2.223  0.6188  0.7786 -1.3352
  928SOL     OW13712   9.481   8.566   4.133 -0.0227  0.4739 -0.3619
  928SOL    HW113713   9.432   8.650   4.111 -0.4191  0.6846  1.2433
  928SOL    HW213714   9.578   8.577   4.109 -0.4106  0.7336 -1.8094
  929SOL     OW13715   0.764   3.319   4.290 -0.4193  0.1830  0.5163
  929SOL    HW113716   0.708   3.268   4.356 -0.2738 -0.7032 -0.0354
  929SOL    HW213717   0.858   3.327   4.325  0.5551 -3.3142 -1.1008
  930SOL     OW13718   2.995   5.592   5.054 -0.2560  0.2747 -0.3285
  930SOL    HW113719   3.005   5.527   4.979 -0.6529  1.0722 -1.0732
  930SOL    HW213720   3.085   5.625   5.083  0.1775 -2.5435  1.7876
  931SOL     OW13721   1.867   7.000   4.726 -0.5696 -0.3571 -0.2484
  931SOL    HW113722   1.964   6.974   4.723 -0.1350  1.3185 -1.9553
  931SOL    HW213723   1.843   7.030   4.819  1.0881  1.1187 -0.2697
  932SOL     OW13724   2.801   7.856   3.782 -0.0698 -0.3690 -0.7767
  932SOL    HW113725   2.772   7.776   3.730 -0.2592 -2.3928  2.3182
  932SOL    HW213726   2.892   7.884   3.752  0.8172 -2.9396 -0.6256
  933SOL     OW13727   6.826   0.443   4.433  0.0784  0.6204 -0.0310
  933SOL    HW113728   6.915   0.447   4.477 -0.6355  1.2346  1.3787
  933SOL    HW213729   6.757   0.413   4.499 -1.1424  2.2671 -0.5217
  934SOL     OW13730   3.153   8.632   0.055  0.6716 -0.2243 -0.1692
  934SOL    HW113731   3.248   8.608   0.036  0.6658  0.0650 -0.5738
  934SOL    HW213732   3.137   8.632   0.154  1.1065 -0.2154 -0.1007
  935SOL     OW13733   4.393   3.925   0.255  0.1959  0.7335  0.2903
  935SOL    HW113734   4.489   3.935   0.282  0.2026  2.6974 -0.3731
  935SOL    HW213735   4.360   3.835   0.282  1.2964  1.2122  3.4161
  936SOL     OW13736   7.819   0.039   0.948  0.3419  0.6218  0.7512
  936SOL    HW113737   7.858   0.122   0.908  1.7100 -0.2416  0.2682
  936SOL    HW213738   7.725   0.057   0.978 -0.6904  1.3177 -2.7561
  937SOL     OW13739   3.609   7.178   1.826 -0.1456 -0.1017  0.4646
  937SOL    HW113740   3.553   7.259   1.808 -3.3895 -2.2689  0.5133
  937SOL    HW213741   3.584   7.105   1.762  3.2754 -0.8855 -0.0922
  938SOL     OW13742   4.794   0.449   5.090 -0.7661  0.1246 -0.2790
  938SOL    HW113743   4.710   0.402   5.063 -0.2172 -0.0899 -1.6554
  938SOL    HW213744   4.830   0.408   5.174 -3.1053  1.5380  1.4981
  939SOL     OW13745   3.771   9.054   1.404 -0.7132 -0.5277  0.3275
  939SOL    HW113746   3.771   9.147   1.369 -3.2521 -0.3686  0.6336
  939SOL    HW213747   3.865   9.026   1.426  0.1426  1.7051 -0.3726
  940SOL     OW13748   9.743   8.878   0.548 -0.1879  0.3957 -0.4124
  940SOL    HW113749   9.782   8.964   0.580  0.5907 -0.2759  0.4685
  940SOL    HW213750   9.730   8.882   0.449  0.5934  1.2152 -0.4881
  941SOL     OW13751   8.925   2.486   2.090 -0.3091  0.2500  0.2211
  941SOL    HW113752   8.829   2.481   2.063 -0.9386  0.5413  2.2840
  941SOL    HW213753   8.981   2.515   2.012 -1.9763  0.7504 -0.8071
  942SOL     OW13754   2.947   8.884   1.951  0.3333  0.3731  0.3915
  942SOL    HW113755   2.906   8.830   1.877  0.3891 -1.0762  1.3991
  942SOL    HW213756   2.876   8.940   1.994 -0.4606 -1.5205  1.5980
  943SOL     OW13757   2.422   6.982   0.982 -0.0714 -0.4334  0.2347
  943SOL    HW113758   2.480   7.063   0.971  0.4211 -0.3960  2.7109
  943SOL    HW213759   2.359   6.975   0.905  2.4801  0.1273 -1.9926
  944SOL     OW13760   5.830   4.521   0.819  0.1359 -0.4558 -0.4319
  944SOL    HW113761   5.797   4.526   0.913 -0.5537  0.0965 -0.6993
  944SOL    HW213762   5.811   4.431   0.782 -0.1847 -0.4604 -0.2574
  945SOL     OW13763   0.721   2.376   3.263  0.2670 -0.2253  0.0307
  945SOL    HW113764   0.685   2.368   3.356  2.2250  2.6395  1.0878
  945SOL    HW213765   0.808   2.327   3.256  1.6957  2.2044  0.6093
  946SOL     OW13766   1.765   0.382   1.545  0.5880  0.4253 -0.2681
  946SOL    HW113767   1.860   0.349   1.553  0.8808  1.0895 -0.9822
  946SOL    HW213768   1.714   0.321   1.484  0.0276 -1.0342  1.5974
  947SOL     OW13769   3.331   3.703   0.071 -0.2904  0.5938  0.2501
  947SOL    HW113770   3.263   3.649   0.022  1.0806  0.4307 -1.5328
  947SOL    HW213771   3.326   3.799   0.042  1.4270  0.2582 -1.3300
  948SOL     OW13772   1.586   6.641   3.284  0.2672 -0.1372  0.4335
  948SOL    HW113773   1.543   6.643   3.194 -2.2381 -1.9901  1.5423
  948SOL    HW213774   1.517   6.657   3.355  1.9134 -0.3339  2.1239
  949SOL     OW13775   8.672   9.938   5.201 -0.4053  0.0485 -0.2841
  949SOL    HW113776   8.765   9.908   5.224 -0.1789  0.6226 -0.4354
  949SOL    HW213777   8.675  10.002   5.124 -1.0771 -1.1108 -1.2887
  950SOL     OW13778   5.567   7.218   1.951 -0.2925 -0.6924 -0.5252
  950SOL    HW113779   5.490   7.195   2.011 -0.6252  0.0743 -0.6457
  950SOL    HW213780   5.631   7.142   1.948 -0.1642 -0.6575  0.9631
  951SOL     OW13781   2.562   8.048   3.112 -0.3109 -0.1451  0.0336
  951SOL    HW113782   2.569   7.948   3.112  1.3126 -0.0408 -0.8605
  951SOL    HW213783   2.492   8.076   3.046 -1.7748 -0.7340  1.2990
  952SOL     OW13784   2.413   0.111   1.000 -0.4357 -0.3923  0.2074
  952SOL    HW113785   2.453   0.169   1.071  1.0750 -1.2544  0.0652
  952SOL    HW213786   2.459   0.126   0.913 -0.2185 -1.5741  0.1017
  953SOL     OW13787   8.380   0.656   2.210 -0.1488 -0.0059 -0.4371
  953SOL    HW113788   8.360   0.753   2.197 -0.7449  0.0780  0.9642
  953SOL    HW213789   8.479   0.644   2.224 -0.0931  0.4144 -0.4684
  954SOL     OW13790   0.428   6.767   3.699 -0.0040 -0.7567 -0.1819
  954SOL    HW113791   0.472   6.799   3.783 -0.4152 -3.6594  1.1736
  954SOL    HW213792   0.495   6.770   3.624  1.8157 -2.6774  1.2959
  955SOL     OW13793   2.652   2.257   3.828  0.3217  0.2214  0.1463
  955SOL    HW113794   2.700   2.307   3.755  0.7870  1.7093  1.4231
  955SOL    HW213795   2.554   2.276   3.822  0.5486  1.7689  0.9364
  956SOL     OW13796   5.666   1.998   3.240  0.1985 -0.5656 -0.2108
  956SOL    HW113797   5.593   2.054   3.202  0.1206 -0.3901  0.1887
  956SOL    HW213798   5.736   1.982   3.171  0.9170  1.2055  0.0896
  957SOL     OW13799   3.712   8.965   1.677 -0.5628 -0.6368  0.6816
  957SOL    HW113800   3.737   9.008   1.590  1.0376  0.4261  1.6435
  957SOL    HW213801   3.623   8.921   1.668 -0.8505  0.2907 -1.2179
  958SOL     OW13802   1.285   3.400   4.599 -0.5877 -0.0251 -0.1427
  958SOL    HW113803   1.282   3.361   4.507  0.6269 -1.2247  0.3037
  958SOL    HW213804   1.239   3.489   4.599 -2.3553 -0.9124 -1.4459
  959SOL     OW13805   0.949   5.802   0.869 -0.0821 -0.6151  0.8800
  959SOL    HW113806   0.935   5.829   0.773  0.9113  0.9327  1.1581
  959SOL    HW213807   0.934   5.703   0.878 -0.9071 -0.6541 -0.7304
  960SOL     OW13808   3.895   0.828   1.445 -0.7320 -0.5660 -0.1363
  960SOL    HW113809   3.822   0.770   1.410 -1.1907 -0.9568  1.4292
  960SOL    HW213810   3.855   0.900   1.503 -0.0427  0.3953 -0.8344
  961SOL     OW13811   3.662   0.039   1.327  0.2817 -0.5627  0.4674
  961SOL    HW113812   3.651   0.138   1.342 -0.7952 -0.4312 -1.1994
  961SOL    HW213813   3.573  -0.004   1.318  0.7154 -1.8428  1.9363
  962SOL     OW13814   5.378   1.598   0.858 -0.2911  0.1041 -0.0721
  962SOL    HW113815   5.335   1.638   0.938 -1.3187 -1.2232  0.0555
  962SOL    HW213816   5.472   1.632   0.850 -0.5155  1.0299  1.0964
  963SOL     OW13817   4.075   5.259   0.170 -0.3992  0.5464  0.2303
  963SOL    HW113818   3.995   5.292   0.119  0.6807  2.4350 -0.2978
  963SOL    HW213819   4.154   5.253   0.109 -0.2046 -1.7048  0.6577
  964SOL     OW13820   2.004   4.055   2.433  0.5478 -0.0385  0.8678
  964SOL    HW113821   1.967   4.087   2.345  1.2803 -0.5644  0.3621
  964SOL    HW213822   2.035   4.133   2.486 -0.8414  0.3697  1.0891
  965SOL     OW13823   8.015   8.777   2.436  0.2721  0.4584  0.0471
  965SOL    HW113824   7.929   8.763   2.387  0.1820  1.6369 -0.1473
  965SOL    HW213825   8.092   8.761   2.374  0.1988 -0.9524  0.3195
  966SOL     OW13826   4.653   0.257   0.294 -0.2245  0.3851 -0.0387
  966SOL    HW113827   4.711   0.192   0.344 -1.0394  1.2869  2.1523
  966SOL    HW213828   4.660   0.347   0.337 -0.4806  1.3382 -1.9702
  967SOL     OW13829   0.142   3.362   5.547 -0.0520 -0.2380  0.6883
  967SOL    HW113830   0.080   3.373   5.469  1.1922 -0.0114 -0.2883
  967SOL    HW213831   0.121   3.431   5.616  0.2197  0.9406 -0.3805
  968SOL     OW13832   1.133   9.079   3.386 -0.6188 -0.5238  0.5141
  968SOL    HW113833   1.079   9.036   3.314 -0.0683 -0.8526  0.3036
  968SOL    HW213834   1.177   9.161   3.350 -0.4898 -0.5871  0.5289
  969SOL     OW13835   2.908   0.255   1.793 -0.5643 -0.6651  0.3028
  969SOL    HW113836   2.898   0.211   1.882 -1.0380 -0.7390  0.2154
  969SOL    HW213837   2.965   0.198   1.733  1.2312  0.2357  1.1359
  970SOL     OW13838   0.985   0.920   1.040 -0.6827  0.1810 -0.4123
  970SOL    HW113839   1.049   0.843   1.045 -1.3736 -0.3621  0.2455
  970SOL    HW213840   0.936   0.927   1.126 -0.9564  1.0810 -0.6415
  971SOL     OW13841   5.371   8.735   3.364 -0.2629 -0.2860  0.5735
  971SOL    HW113842   5.452   8.697   3.319 -1.4315  0.4383 -2.2509
  971SOL    HW213843   5.358   8.830   3.336 -1.4259 -0.0300  1.9242
  972SOL     OW13844   4.538   0.482   1.313  0.4447 -0.1372 -0.2218
  972SOL    HW113845   4.598   0.535   1.372 -0.5289  1.0745 -0.3030
  972SOL    HW213846   4.587   0.458   1.229  0.6764  1.2342 -0.4901
  973SOL     OW13847   0.328   7.501   1.997 -0.3382 -0.5308  0.1390
  973SOL    HW113848   0.229   7.503   2.012 -0.7768 -1.2129 -2.3570
  973SOL    HW213849   0.347   7.521   1.901  1.8498 -1.8702  0.2621
  974SOL     OW13850   9.481   0.839   3.532  0.4150  0.2702 -0.1595
  974SOL    HW113851   9.480   0.930   3.574 -0.6887  1.0042 -1.7059
  974SOL    HW213852   9.399   0.828   3.475  1.6496 -0.8627 -1.7491
  975SOL     OW13853   8.837   0.494   4.087 -0.0060  0.4274 -0.1947
  975SOL    HW113854   8.787   0.444   4.016 -0.0982  0.2869 -0.0311
  975SOL    HW213855   8.817   0.592   4.078 -1.3397  0.2450  0.6702
  976SOL     OW13856   2.048   3.965   0.021  0.5157  0.4117  0.4273
  976SOL    HW113857   2.036   4.062   0.041  0.5748  0.4710  0.1781
  976SOL    HW213858   2.143   3.938   0.038  1.0925  0.9407 -1.7324
  977SOL     OW13859   3.612   6.628   1.812 -0.2213 -0.2230 -0.4554
  977SOL    HW113860   3.648   6.545   1.852  0.1763  0.9523  1.6806
  977SOL    HW213861   3.661   6.707   1.848 -2.1949  1.1184 -0.6181
  978SOL     OW13862   4.767   3.361   2.518 -0.1930  0.8468  0.3614
  978SOL    HW113863   4.717   3.388   2.600  0.4735  1.9985  0.4041
  978SOL    HW213864   4.864   3.380   2.531 -0.1992  1.9527 -1.0532
  979SOL     OW13865   4.989   0.377   3.410 -0.4284 -0.4530  0.1375
  979SOL    HW113866   4.991   0.302   3.476  0.2982  0.0820  0.7427
  979SOL    HW213867   5.004   0.341   3.318  1.8442 -0.8668  0.6227
  980SOL     OW13868   2.903   6.075   2.621 -0.1883 -0.2502 -0.1607
  980SOL    HW113869   2.832   6.117   2.565 -1.8863 -2.3824  0.3042
  980SOL    HW213870   2.989   6.075   2.571 -0.1916  3.4339 -0.2737
  981SOL     OW13871   7.850   2.473   2.351 -0.5123  0.0225  0.0256
  981SOL    HW113872   7.809   2.381   2.344  1.7636 -1.2554  2.7159
  981SOL    HW213873   7.869   2.493   2.446  1.8742  2.0580 -0.8520
  982SOL     OW13874   2.492   0.972   2.248  0.6871 -0.3615  0.4135
  982SOL    HW113875   2.561   0.922   2.300  1.0639  0.4791  0.7263
  982SOL    HW213876   2.449   1.040   2.307  0.3425 -0.1504 -0.0794
  983SOL     OW13877   2.052   1.006   5.341  0.3421  0.7904  0.2169
  983SOL    HW113878   2.124   1.014   5.410  0.1079  2.5798  0.2851
  983SOL    HW213879   1.978   1.070   5.363 -0.5925  0.0345 -0.6680
  984SOL     OW13880   0.299   6.099   1.199 -0.0035 -0.2323  0.1569
  984SOL    HW113881   0.394   6.093   1.228  0.3275  0.3842 -0.7973
  984SOL    HW213882   0.267   6.007   1.173  0.5352 -0.3274 -0.1744
  985SOL     OW13883   2.929   1.454   2.804  0.3993  0.5121  0.3229
  985SOL    HW113884   2.883   1.445   2.716 -1.8235 -1.0432  1.5863
  985SOL    HW213885   3.010   1.511   2.794  0.8256 -0.5846 -2.9563
  986SOL     OW13886   7.585   9.446   0.891 -0.2958  0.1967  0.0891
  986SOL    HW113887   7.532   9.406   0.816 -0.4966 -1.0667  0.9023
  986SOL    HW213888   7.674   9.475   0.857  0.2903 -1.9590 -0.2844
  987SOL     OW13889   3.574   2.720   2.162  0.6186 -0.5124 -0.1528
  987SOL    HW113890   3.493   2.663   2.180  0.3319  0.4926  1.8628
  987SOL    HW213891   3.648   2.691   2.222  0.7311  0.6675  0.2931
  988SOL     OW13892   6.278   7.217   3.696 -0.5806 -0.5124  0.7221
  988SOL    HW113893   6.246   7.186   3.786 -0.4860  0.3458  1.0606
  988SOL    HW213894   6.227   7.299   3.669  0.4379  0.1338  0.6984
  989SOL     OW13895   3.704   9.967   5.249 -0.2075 -0.0036  0.1563
  989SOL    HW113896   3.702   9.869   5.269  0.4501 -0.1268 -0.3585
  989SOL    HW213897   3.763   9.983   5.169  0.1102  0.8632  0.5646
  990SOL     OW13898   8.638   5.987   1.748 -0.1140  0.0297  0.4771
  990SOL    HW113899   8.551   5.938   1.745  0.2965 -0.6453 -0.9153
  990SOL    HW213900   8.712   5.924   1.725  0.4942  1.1596 -0.7208
  991SOL     OW13901   8.537   6.152   0.374 -0.0941 -0.3325  0.6045
  991SOL    HW113902   8.614   6.202   0.414 -0.1389  0.6046 -0.4654
  991SOL    HW213903   8.452   6.186   0.412 -0.0687 -0.3003  0.6323
  992SOL     OW13904   9.023   1.804   2.639  0.0982  0.2298 -0.2152
  992SOL    HW113905   8.971   1.800   2.553 -2.4242  1.3543  1.2207
  992SOL    HW213906   9.094   1.874   2.631  1.3716 -1.2268 -2.1511
  993SOL     OW13907   4.746   2.957   0.821  0.9038  0.3588 -0.2020
  993SOL    HW113908   4.786   2.904   0.896 -1.5925 -1.5876 -0.2025
  993SOL    HW213909   4.806   2.953   0.741  1.0185 -1.9968 -0.0164
  994SOL     OW13910   2.370   4.641   3.306  0.1111 -0.0255  0.0621
  994SOL    HW113911   2.339   4.677   3.217 -0.3893 -1.4785 -0.3701
  994SOL    HW213912   2.293   4.640   3.369  0.2500  0.1486  0.2339
  995SOL     OW13913   0.476   0.315   0.633 -0.6631  0.4113  0.0697
  995SOL    HW113914   0.531   0.293   0.552  0.9402 -0.7479  1.4281
  995SOL    HW213915   0.390   0.357   0.604  0.3566  1.0534 -2.1758
  996SOL     OW13916   1.237   9.206   4.184  0.4405  0.1822  0.1846
  996SOL    HW113917   1.171   9.188   4.111  1.1928 -0.2781 -0.3760
  996SOL    HW213918   1.247   9.304   4.196  0.8105  0.2659 -0.7774
  997SOL     OW13919   3.774   8.140   5.205 -0.3190 -0.0547 -0.0554
  997SOL    HW113920   3.827   8.223   5.224  1.2925 -0.5476 -2.1692
  997SOL    HW213921   3.775   8.081   5.286  1.1343  0.6230  0.4478
  998SOL     OW13922   1.142   2.316   3.747  0.2309  0.4302 -0.1824
  998SOL    HW113923   1.096   2.250   3.688  0.6216 -0.5899  0.6266
  998SOL    HW213924   1.075   2.377   3.788 -0.6086 -1.8558  2.0056
  999SOL     OW13925   0.050   5.727   3.772 -0.1069  0.2823 -0.0586
  999SOL    HW113926   0.079   5.637   3.739 -0.5482  0.2188 -0.2798
  999SOL    HW213927  -0.027   5.716   3.835  0.3935  0.4424  0.5960
 1000SOL     OW13928   4.387   0.755   3.386  0.0551  0.1289 -0.4987
 1000SOL    HW113929   4.465   0.783   3.331 -0.1755  1.1478 -0.3099
 1000SOL    HW213930   4.304   0.799   3.352 -0.0487  0.9848  0.8360
 1001SOL     OW13931   6.952   0.216   4.655  0.1652  0.2063 -0.7069
 1001SOL    HW113932   6.913   0.275   4.725  0.8435 -0.6259  0.3762
 1001SOL    HW213933   6.881   0.155   4.619 -0.2921  0.9669 -1.1006
 1002SOL     OW13934   3.800   7.896   3.033 -0.6850 -0.2120  0.3824
 1002SOL    HW113935   3.862   7.857   2.965 -0.3734  0.2025  0.4301
 1002SOL    HW213936   3.708   7.859   3.019 -0.9886  1.0891 -1.2938
 1003SOL     OW13937   7.857   5.485   4.736  0.3537 -0.0980 -0.0273
 1003SOL    HW113938   7.900   5.484   4.826  0.3055  1.2993  0.0179
 1003SOL    HW213939   7.801   5.567   4.726 -0.6847 -0.8826 -0.8454
 1004SOL     OW13940   1.504   0.353   1.983 -0.0130 -0.2692 -0.3119
 1004SOL    HW113941   1.464   0.324   2.070 -1.3714  0.7595 -0.5683
 1004SOL    HW213942   1.485   0.285   1.912 -0.7910 -0.0682 -0.2946
 1005SOL     OW13943   8.425   6.492   1.355  0.2083  0.1808 -0.3824
 1005SOL    HW113944   8.513   6.522   1.389  0.5165 -1.6314  0.4627
 1005SOL    HW213945   8.437   6.410   1.299 -0.9308 -0.0654 -0.2789
 1006SOL     OW13946   2.096   6.353   3.865  0.7200  0.1863 -0.1028
 1006SOL    HW113947   2.098   6.436   3.808  2.1882  0.5056  0.3794
 1006SOL    HW213948   2.026   6.291   3.831 -1.8226  2.4823  0.7722
 1007SOL     OW13949   2.491   0.752   4.114  0.1543  0.2022  0.0467
 1007SOL    HW113950   2.493   0.779   4.018  0.2627 -0.2134 -0.0695
 1007SOL    HW213951   2.563   0.684   4.131  0.8578  1.0850  0.6667
 1008SOL     OW13952   4.115   5.805   2.291  0.2590  0.1690  1.0377
 1008SOL    HW113953   4.127   5.746   2.371  1.6497  2.0504  2.2531
 1008SOL    HW213954   4.019   5.831   2.283 -0.2817 -1.8070  0.7818
 1009SOL     OW13955   8.041   0.074   0.035  0.6755 -0.1461  0.2416
 1009SOL    HW113956   8.109   0.052   0.104  0.9986 -1.2332 -0.4232
 1009SOL    HW213957   7.961   0.015   0.045  0.2088  0.5042  0.4383
 1010SOL     OW13958   1.678   8.311   1.507  0.1737 -0.5262 -0.0859
 1010SOL    HW113959   1.620   8.311   1.588 -1.1965  0.4283 -1.0624
 1010SOL    HW213960   1.622   8.323   1.425  1.7655  0.7066 -1.0244
 1011SOL     OW13961   1.356   6.332   3.241  0.9981  0.5145 -0.2564
 1011SOL    HW113962   1.272   6.385   3.252  0.6774 -0.1411  0.5462
 1011SOL    HW213963   1.407   6.333   3.327  0.6268 -1.0780 -0.0016
 1012SOL     OW13964   0.711   7.725   0.441 -0.2832  0.1025  0.8851
 1012SOL    HW113965   0.728   7.635   0.482  0.9090  0.8495  2.0609
 1012SOL    HW213966   0.652   7.778   0.501 -1.2329  0.0078  0.0470
 1013SOL     OW13967   1.749   6.601   4.346 -0.3231  0.5316 -0.0881
 1013SOL    HW113968   1.772   6.622   4.441 -1.1003  3.1930 -0.4369
 1013SOL    HW213969   1.746   6.686   4.293 -1.0951 -0.7849 -2.2267
 1014SOL     OW13970   9.786   2.774   3.473 -0.0734  0.6461 -0.8228
 1014SOL    HW113971   9.790   2.686   3.425 -0.5438  0.2920 -0.2190
 1014SOL    HW213972   9.694   2.812   3.466 -0.7920 -0.5091  1.7171
 1015SOL     OW13973   8.392   3.541   5.129  0.4690  0.2251  0.0300
 1015SOL    HW113974   8.393   3.594   5.044  1.8050 -1.9207 -1.3223
 1015SOL    HW213975   8.347   3.595   5.201  0.2311  2.4751 -1.7458
 1016SOL     OW13976   0.590   8.520   2.753 -0.3909 -0.6728  0.1225
 1016SOL    HW113977   0.496   8.512   2.718 -0.2341 -0.3516 -0.3829
 1016SOL    HW213978   0.596   8.475   2.842 -1.0751 -0.5302  0.2477
 1017SOL     OW13979   2.034   4.608   1.458 -0.8389 -0.4324 -0.0600
 1017SOL    HW113980   2.072   4.626   1.368 -0.3692  0.1138  0.2397
 1017SOL    HW213981   1.966   4.534   1.453 -0.2600 -0.9190 -0.7264
 1018SOL     OW13982   0.388   5.620   3.843 -0.4572 -0.1429 -0.4377
 1018SOL    HW113983   0.344   5.628   3.932 -0.2788 -1.0775 -0.2572
 1018SOL    HW213984   0.318   5.613   3.772 -0.6121 -0.8388 -0.2250
 1019SOL     OW13985   7.880   0.938   2.708 -0.1377 -0.1519 -0.2149
 1019SOL    HW113986   7.934   0.855   2.698  3.6555  2.2040 -0.2474
 1019SOL    HW213987   7.878   0.988   2.621  1.3431  1.8942  0.8668
 1020SOL     OW13988   4.915   8.915   3.984 -0.3978 -0.6964 -0.4636
 1020SOL    HW113989   4.882   8.821   3.987 -1.5431 -0.3322 -1.1739
 1020SOL    HW213990   4.947   8.942   4.075  1.0559 -2.1420 -0.5246
 1021SOL     OW13991   1.334   1.843   3.141 -0.1898 -0.5330 -0.2420
 1021SOL    HW113992   1.380   1.809   3.223 -2.0140  2.3919  2.1067
 1021SOL    HW213993   1.376   1.929   3.112 -1.6905  0.1674 -0.3681
 1022SOL     OW13994   9.423   8.320   1.434 -0.4713 -0.3850  0.9227
 1022SOL    HW113995   9.512   8.364   1.425 -0.5837 -0.3324 -0.0983
 1022SOL    HW213996   9.351   8.385   1.409 -0.6589 -1.0235 -0.2906
 1023SOL     OW13997   8.861   6.676   4.861 -0.4445 -0.3599  0.4013
 1023SOL    HW113998   8.829   6.770   4.852 -2.6902 -1.3400 -2.8009
 1023SOL    HW213999   8.808   6.629   4.932 -0.2168  0.4047  1.0811
 1024SOL     OW14000   8.863   2.883   1.582  0.7326 -0.2918 -0.5521
 1024SOL    HW114001   8.824   2.822   1.651  0.8506  0.6333  0.3585
 1024SOL    HW214002   8.831   2.977   1.599  2.2034  0.2429 -0.6634
 1025SOL     OW14003   9.342   3.177   2.893  0.2271 -0.6255 -0.1421
 1025SOL    HW114004   9.291   3.203   2.811 -0.3186  0.3800  0.5092
 1025SOL    HW214005   9.433   3.145   2.866 -0.5475 -1.9472 -1.2618
 1026SOL     OW14006   8.372   7.289   4.725  0.0902  0.5410  0.1230
 1026SOL    HW114007   8.446   7.305   4.790 -0.5467  0.0542  0.9807
 1026SOL    HW214008   8.407   7.298   4.632  1.1590  0.5912  0.5219
 1027SOL     OW14009   8.571   0.978   3.702  0.4679 -0.6296 -0.1401
 1027SOL    HW114010   8.567   0.914   3.779  0.7068 -0.7984 -0.2662
 1027SOL    HW214011   8.610   1.065   3.732 -1.3514  0.0225  0.4110
 1028SOL     OW14012   8.989   7.736   5.417 -0.0127  0.5224 -0.0497
 1028SOL    HW114013   9.081   7.698   5.418 -0.5613 -0.8697 -1.4029
 1028SOL    HW214014   8.983   7.810   5.484  1.9775  0.3847  0.3033
 1029SOL     OW14015   1.457   0.765   0.680 -0.1826 -0.2550 -0.4213
 1029SOL    HW114016   1.358   0.770   0.671 -0.1261 -0.2898 -1.1063
 1029SOL    HW214017   1.481   0.713   0.762 -0.7336  1.0376  0.5651
 1030SOL     OW14018   0.185   2.672   5.001  0.3752  0.0397  0.2077
 1030SOL    HW114019   0.201   2.739   4.928 -0.4416 -0.0243 -0.0340
 1030SOL    HW214020   0.138   2.592   4.963 -1.6600  0.7612  1.1329
 1031SOL     OW14021   3.166   9.045   0.132 -0.3368  0.3853  0.0969
 1031SOL    HW114022   3.246   9.059   0.073 -0.3123  2.4602  0.5750
 1031SOL    HW214023   3.184   8.969   0.195 -0.1414 -1.4783 -2.1356
 1032SOL     OW14024   7.976   1.487   4.691 -0.2969  0.1457  0.5291
 1032SOL    HW114025   7.977   1.408   4.630  1.2431  0.1074  0.5875
 1032SOL    HW214026   7.987   1.571   4.637 -4.4943  0.5618  0.1795
 1033SOL     OW14027   9.922   5.510   0.815  0.0816  0.6247 -0.1888
 1033SOL    HW114028   9.932   5.522   0.716  0.0050 -2.7979 -0.6626
 1033SOL    HW214029  10.011   5.525   0.859  0.4858  0.4825 -0.9474
 1034SOL     OW14030   7.160   9.911   2.623 -0.7115 -0.2680 -0.2803
 1034SOL    HW114031   7.247   9.868   2.647 -0.3833 -0.2465 -1.3901
 1034SOL    HW214032   7.112   9.940   2.706  1.3580  1.7440  0.2392
 1035SOL     OW14033   3.273   0.803   1.279 -0.7182  0.3721 -0.6251
 1035SOL    HW114034   3.328   0.880   1.311 -1.0194  0.1372  0.4687
 1035SOL    HW214035   3.189   0.797   1.333  0.6599 -2.5197  1.3348
 1036SOL     OW14036   3.873   7.657   2.053 -0.2550 -0.2230  0.2604
 1036SOL    HW114037   3.966   7.652   2.016 -0.2368 -0.0408  0.2830
 1036SOL    HW214038   3.819   7.721   1.999 -0.8016 -1.4634 -0.6908
 1037SOL     OW14039   9.466   1.052   4.297 -0.5567  0.4934  0.4006
 1037SOL    HW114040   9.428   0.964   4.270 -0.5360  0.5773  0.0921
 1037SOL    HW214041   9.540   1.077   4.234 -0.1540  0.4455  0.8516
 1038SOL     OW14042   9.899   5.483   2.279  0.1357  0.3913  0.4932
 1038SOL    HW114043   9.940   5.528   2.200  1.0838  2.1344  1.9614
 1038SOL    HW214044   9.965   5.418   2.319 -0.2925 -0.3853 -0.0428
 1039SOL     OW14045   2.840   7.900   2.975 -0.1160  0.4033  0.0543
 1039SOL    HW114046   2.911   7.937   2.915  0.1523 -0.0373  0.0927
 1039SOL    HW214047   2.770   7.855   2.918  0.3031 -0.2975  0.0788
 1040SOL     OW14048   3.991   8.712   0.112  0.9710  0.1088 -0.0551
 1040SOL    HW114049   3.943   8.714   0.025  0.5369 -0.6270  0.1573
 1040SOL    HW214050   4.084   8.746   0.100  1.3888 -1.3587 -1.1173
 1041SOL     OW14051   9.106   1.035   3.782  0.3124 -0.1257  0.2403
 1041SOL    HW114052   9.150   1.060   3.868  0.6909 -0.2202  0.0730
 1041SOL    HW214053   9.100   1.115   3.723 -0.0019 -0.0473  0.3783
 1042SOL     OW14054   5.007   1.530   3.580 -0.4520  0.0041 -0.5811
 1042SOL    HW114055   4.958   1.593   3.641  0.2124  0.9337 -0.9934
 1042SOL    HW214056   4.941   1.479   3.525 -0.9470  1.6266 -1.5074
 1043SOL     OW14057   0.583   2.434   2.369  0.3025 -0.2667 -0.6425
 1043SOL    HW114058   0.547   2.523   2.395 -1.3197 -1.8288  2.7364
 1043SOL    HW214059   0.682   2.432   2.385  0.6069  1.3256 -2.0953
 1044SOL     OW14060   5.301   9.943   2.397 -0.0162 -0.3170 -0.1190
 1044SOL    HW114061   5.353  10.027   2.411 -2.6563  0.9927  2.5205
 1044SOL    HW214062   5.330   9.875   2.465 -0.2077 -0.3334 -0.0528
 1045SOL     OW14063   5.364   3.121   0.366 -0.0049 -0.0283  0.0179
 1045SOL    HW114064   5.376   3.184   0.289  1.0383 -1.2443 -0.8236
 1045SOL    HW214065   5.271   3.130   0.402  0.2695  2.3437  0.2322
 1046SOL     OW14066   9.533   3.790   1.594 -0.1915  0.0642  0.5142
 1046SOL    HW114067   9.584   3.726   1.651 -0.5773  0.6759  1.5664
 1046SOL    HW214068   9.566   3.883   1.611  0.5585  0.1312 -1.2008
 1047SOL     OW14069   7.176   9.752   4.048  0.0292 -0.4989 -0.0815
 1047SOL    HW114070   7.154   9.809   3.969 -0.1749 -0.5690 -0.0748
 1047SOL    HW214071   7.245   9.684   4.022  2.0055  1.2165  0.4850
 1048SOL     OW14072   9.920   7.267   5.562 -0.0367 -0.2215  0.0614
 1048SOL    HW114073   9.896   7.288   5.467 -1.7962  1.9089  0.9521
 1048SOL    HW214074  10.015   7.234   5.566  0.1475 -0.0632 -2.3853
 1049SOL     OW14075   8.620   5.552   4.356 -0.5628 -0.3968  0.2144
 1049SOL    HW114076   8.531   5.594   4.343  0.4852  1.9088  0.1950
 1049SOL    HW214077   8.631   5.524   4.452 -1.2651 -0.6588  0.2222
 1050SOL     OW14078   0.411   8.476   0.714  0.2423  0.1698 -0.4259
 1050SOL    HW114079   0.371   8.412   0.780  0.4142 -0.8701 -1.3181
 1050SOL    HW214080   0.349   8.486   0.636  0.1982  1.1262 -0.2736
 1051SOL     OW14081   4.755   1.516   1.417 -0.6180 -0.1466  0.3129
 1051SOL    HW114082   4.824   1.558   1.359  0.9565 -0.6564  1.7857
 1051SOL    HW214083   4.670   1.506   1.366  0.7770 -0.7166 -1.9317
 1052SOL     OW14084   0.093   5.518   4.281 -0.3672 -0.1379  0.0498
 1052SOL    HW114085   0.117   5.598   4.337 -0.2083  0.1382 -0.4131
 1052SOL    HW214086   0.060   5.445   4.341  1.5240 -0.4910  0.6995
 1053SOL     OW14087   8.835   2.236   5.220 -0.8595  0.2471  0.5362
 1053SOL    HW114088   8.772   2.173   5.174 -0.5216  0.8468 -0.7590
 1053SOL    HW214089   8.828   2.223   5.319 -0.8497 -1.7759  0.2892
 1054SOL     OW14090   4.421   8.253   1.192 -0.0242 -0.6376  0.4788
 1054SOL    HW114091   4.388   8.160   1.175 -0.8601 -0.4708  1.1367
 1054SOL    HW214092   4.359   8.318   1.148  0.5558 -0.3913  0.0265
 1055SOL     OW14093   2.473   5.304   4.293 -0.3226  0.0446 -0.6900
 1055SOL    HW114094   2.474   5.390   4.344 -0.6177 -0.5962  0.4010
 1055SOL    HW214095   2.380   5.265   4.295 -0.0882 -0.5225 -0.8168
 1056SOL     OW14096   4.026   9.175   3.436  0.2915  0.5745 -0.7450
 1056SOL    HW114097   4.124   9.185   3.449 -0.0536  1.3695  1.3671
 1056SOL    HW214098   3.978   9.248   3.484 -1.4798 -1.4846  0.7043
 1057SOL     OW14099   0.498   7.951   1.491 -0.7536 -0.1398 -0.0911
 1057SOL    HW114100   0.595   7.938   1.470 -0.5208  1.8759 -0.3039
 1057SOL    HW214101   0.445   7.881   1.443  0.3996  0.0222 -1.6685
 1058SOL     OW14102   2.359   7.073   1.700 -0.4277 -0.1157  0.1255
 1058SOL    HW114103   2.337   7.168   1.721 -0.4815 -0.0076 -0.3939
 1058SOL    HW214104   2.458   7.060   1.701 -0.3990  0.0645 -0.2898
 1059SOL     OW14105   3.311   5.791   2.997  0.0709 -0.9024 -0.2548
 1059SOL    HW114106   3.343   5.879   3.032  1.8323 -1.0312 -1.4690
 1059SOL    HW214107   3.281   5.734   3.073  0.6312  0.0627  0.7131
 1060SOL     OW14108   9.641   0.457   1.775  0.1258  0.1548 -0.4127
 1060SOL    HW114109   9.682   0.373   1.810  0.4947  0.8246  0.7890
 1060SOL    HW214110   9.582   0.497   1.845  1.9702  2.2613  0.0261
 1061SOL     OW14111   5.786   8.364   3.308 -0.6689 -0.3203 -0.1448
 1061SOL    HW114112   5.695   8.382   3.347  0.2944 -0.4482  2.2300
 1061SOL    HW214113   5.816   8.273   3.335  0.0527 -0.4064 -1.2059
 1062SOL     OW14114   1.789   1.552   0.943  0.1188  0.0086  0.2618
 1062SOL    HW114115   1.725   1.592   0.877  1.7457 -0.1577 -1.4556
 1062SOL    HW214116   1.739   1.496   1.009 -1.7070  1.4334  0.1287
 1063SOL     OW14117   2.732   9.295   3.335  0.1724  0.5654  0.3578
 1063SOL    HW114118   2.712   9.393   3.343 -1.3701  0.3773 -0.9517
 1063SOL    HW214119   2.647   9.243   3.341  0.8869 -0.6431  0.1884
 1064SOL     OW14120   0.200   8.280   3.914 -0.3061  0.2675 -0.1113
 1064SOL    HW114121   0.219   8.219   3.991  0.4429  0.2075 -0.3392
 1064SOL    HW214122   0.109   8.320   3.925 -0.7119 -0.7083  0.1623
 1065SOL     OW14123   0.121   8.670   2.741  0.4844  0.1198  1.0271
 1065SOL    HW114124   0.028   8.633   2.740  0.3735  0.4038  0.4646
 1065SOL    HW214125   0.146   8.694   2.835 -0.1385  0.3664  1.1341
 1066SOL     OW14126   7.076   0.122   4.962  0.3518 -0.3320 -0.2544
 1066SOL    HW114127   7.122   0.203   4.925  1.7117  0.3501  2.7894
 1066SOL    HW214128   7.144   0.053   4.986 -0.7904 -2.3923 -2.6900
 1067SOL     OW14129   3.494   2.875   0.577  0.3004 -0.1056 -0.5227
 1067SOL    HW114130   3.530   2.868   0.484 -1.0021 -0.0247 -1.0379
 1067SOL    HW214131   3.394   2.865   0.576  0.3468 -0.9794  0.9606
 1068SOL     OW14132   3.752   4.106   3.535 -0.1035  0.4703  0.2622
 1068SOL    HW114133   3.707   4.166   3.469  0.2822  2.3179  1.6485
 1068SOL    HW214134   3.688   4.080   3.607 -0.5892 -1.7351 -0.9000
 1069SOL     OW14135   5.265   8.056   2.400 -0.1891 -0.4239  0.2506
 1069SOL    HW114136   5.183   8.002   2.420 -0.6369  0.0978 -0.1488
 1069SOL    HW214137   5.347   8.004   2.425 -0.6205 -1.2146  0.0151
 1070SOL     OW14138   9.879   0.657   0.705 -0.0933 -0.0688  0.5886
 1070SOL    HW114139   9.881   0.749   0.665 -3.3642  0.6052  1.7827
 1070SOL    HW214140   9.964   0.641   0.756  1.2081  1.6416 -0.9673
 1071SOL     OW14141   6.555   0.757   1.897 -0.3663  0.0858 -0.1626
 1071SOL    HW114142   6.483   0.745   1.828  0.4935 -1.7880 -0.7618
 1071SOL    HW214143   6.519   0.736   1.987 -0.8164  0.0629 -0.3441
 1072SOL     OW14144   8.873   7.097   2.819  0.2804  0.1933 -0.0136
 1072SOL    HW114145   8.788   7.079   2.771  1.4367 -0.2593 -1.9648
 1072SOL    HW214146   8.916   7.179   2.780  1.1277 -0.0488  0.4038
 1073SOL     OW14147   0.472   2.587   3.913  0.0074 -0.1090 -0.2817
 1073SOL    HW114148   0.555   2.570   3.965 -0.7515 -1.8812  0.3791
 1073SOL    HW214149   0.444   2.503   3.867 -0.6155  0.8520 -1.6832
 1074SOL     OW14150   8.686   0.426   5.610  0.1626  0.6570  0.1893
 1074SOL    HW114151   8.721   0.381   5.528 -0.3839 -1.2088  0.9413
 1074SOL    HW214152   8.635   0.508   5.584  1.9283  1.3373 -1.1564
 1075SOL     OW14153   0.570   1.307   3.409 -0.4583 -0.2172 -0.1397
 1075SOL    HW114154   0.524   1.371   3.470 -0.9026  0.7546 -1.4847
 1075SOL    HW214155   0.643   1.354   3.359  0.6190 -1.2550  0.4232
 1076SOL     OW14156   4.142   9.280   2.062  0.3465  0.4511  0.3582
 1076SOL    HW114157   4.045   9.298   2.045  0.5025  1.4699  0.5309
 1076SOL    HW214158   4.173   9.336   2.138  1.6107  1.7762 -1.0829
 1077SOL     OW14159   7.283   0.247   0.879  0.2821  0.1397 -0.0988
 1077SOL    HW114160   7.251   0.190   0.803  0.1761 -0.8988  0.7108
 1077SOL    HW214161   7.227   0.229   0.960 -0.3222  2.0718 -0.0794
 1078SOL     OW14162   9.375   1.351   0.846  0.5293  0.3752  0.1627
 1078SOL    HW114163   9.439   1.324   0.918  0.3661  0.3171  0.2870
 1078SOL    HW214164   9.341   1.269   0.800  1.1135  0.4455 -0.3934
 1079SOL     OW14165   8.738   7.433   1.554 -0.2397 -0.0107 -0.4796
 1079SOL    HW114166   8.688   7.518   1.537 -0.2644  0.1001  0.1560
 1079SOL    HW214167   8.754   7.386   1.467  0.3459  0.9638 -0.9073
 1080SOL     OW14168   9.705   7.120   2.215  0.1457 -0.0650  0.6756
 1080SOL    HW114169   9.673   7.215   2.222  2.2387  0.5614  2.4309
 1080SOL    HW214170   9.740   7.090   2.304  2.7711 -1.2572 -0.6859
 1081SOL     OW14171   7.191   0.879   3.115 -0.6745 -0.4030  0.0555
 1081SOL    HW114172   7.167   0.869   3.211 -1.1860 -3.2758 -0.3104
 1081SOL    HW214173   7.241   0.797   3.085 -1.8499 -0.2357 -2.4762
 1082SOL     OW14174   1.985   3.642   1.203  0.2078  0.3742 -0.2228
 1082SOL    HW114175   2.079   3.662   1.232 -0.1890 -0.2434  1.5662
 1082SOL    HW214176   1.936   3.727   1.186 -0.3461  0.9362  3.6725
 1083SOL     OW14177   3.804   3.006   1.218 -0.1242  0.1082  0.1834
 1083SOL    HW114178   3.878   3.073   1.224  0.4127 -0.5473  0.8604
 1083SOL    HW214179   3.744   3.031   1.142  1.5561 -0.1190 -1.2530
 1084SOL     OW14180   2.269   9.245   1.250 -0.4235  0.4882 -0.5655
 1084SOL    HW114181   2.337   9.303   1.204 -0.7745  1.2857 -0.0938
 1084SOL    HW214182   2.177   9.276   1.226 -0.6166  1.3784  1.2237
 1085SOL     OW14183   1.276   9.677   5.065  0.3958  0.4707 -0.4679
 1085SOL    HW114184   1.322   9.600   5.022  2.4078  2.6523 -2.4323
 1085SOL    HW214185   1.319   9.696   5.154 -0.5460 -1.0226  0.3319
 1086SOL     OW14186   8.567   1.213   2.443  0.3002 -0.7671  0.3706
 1086SOL    HW114187   8.642   1.256   2.393 -1.2269  1.8949  0.2815
 1086SOL    HW214188   8.570   1.241   2.539 -1.5207  0.6663  0.0238
 1087SOL     OW14189   2.050   2.537   5.042  0.3232 -0.2734  0.3829
 1087SOL    HW114190   2.022   2.450   5.081 -0.4484 -0.4975 -0.6500
 1087SOL    HW214191   2.067   2.526   4.944 -0.4816  0.8835  0.0946
 1088SOL     OW14192   9.272   1.392   2.000  0.1761 -0.0212 -0.1707
 1088SOL    HW114193   9.206   1.459   2.034  1.0084  0.9176 -0.4202
 1088SOL    HW214194   9.231   1.342   1.923  0.4039  1.7806 -1.4748
 1089SOL     OW14195   9.016   8.626   2.271  0.2169 -0.4116  0.2972
 1089SOL    HW114196   8.955   8.669   2.338  1.3808 -1.2616  1.9488
 1089SOL    HW214197   9.091   8.688   2.251  1.1040 -1.0430  1.5615
 1090SOL     OW14198   1.307   3.206   1.986 -0.1678  0.0387  0.3969
 1090SOL    HW114199   1.327   3.290   1.935 -1.2235 -0.1692 -0.3882
 1090SOL    HW214200   1.285   3.228   2.080 -1.4160  0.7348 -0.0550
 1091SOL     OW14201   1.070   8.180   4.943  0.1447  0.2846 -0.5701
 1091SOL    HW114202   1.122   8.197   4.859  0.9955  0.4495 -0.0218
 1091SOL    HW214203   1.134   8.158   5.017 -0.5261  1.0780  0.2579
 1092SOL     OW14204   2.661   8.207   2.307 -0.2039  0.3617 -0.3577
 1092SOL    HW114205   2.711   8.144   2.366 -0.2215 -0.5638 -1.3018
 1092SOL    HW214206   2.676   8.301   2.338  0.1268 -0.0758  0.8460
 1093SOL     OW14207   4.784   1.013   3.893  0.2562 -0.3838  0.1741
 1093SOL    HW114208   4.740   1.076   3.828  1.7690  0.0670 -0.4329
 1093SOL    HW214209   4.749   0.920   3.878 -0.2275 -0.0898 -0.5393
 1094SOL     OW14210   3.730   8.259   1.355  0.1034  0.0361  0.4446
 1094SOL    HW114211   3.646   8.310   1.373 -1.3758 -1.9233 -0.6060
 1094SOL    HW214212   3.792   8.267   1.434 -0.2695  3.0028  0.4650
 1095SOL     OW14213   0.887   5.286   0.917  0.4192 -0.7210  0.5910
 1095SOL    HW114214   0.787   5.275   0.923  0.0918  1.7515  0.1839
 1095SOL    HW214215   0.921   5.328   1.001  1.2638 -2.4579  1.1266
 1096SOL     OW14216   3.440   9.985   0.812  0.3032 -0.4103  0.0809
 1096SOL    HW114217   3.393  10.030   0.888  0.1255 -0.0372 -0.2472
 1096SOL    HW214218   3.444  10.048   0.734 -0.2997 -1.1082 -0.5163
 1097SOL     OW14219   7.779   8.252   3.125 -0.0268  0.1798  0.6772
 1097SOL    HW114220   7.825   8.163   3.118  0.4922  0.4673  0.3557
 1097SOL    HW214221   7.812   8.311   3.052 -0.6487  0.5136  0.6688
 1098SOL     OW14222   3.345   7.634   2.823 -0.3795  0.3007 -0.0834
 1098SOL    HW114223   3.245   7.633   2.836 -0.2102 -0.4689  1.2814
 1098SOL    HW214224   3.366   7.634   2.726 -1.7231  0.5643 -0.3842
 1099SOL     OW14225   3.006   0.390   2.325 -0.0233  0.1655 -0.5268
 1099SOL    HW114226   2.909   0.413   2.329  0.2592  1.2182  0.6538
 1099SOL    HW214227   3.035   0.386   2.229 -1.3330 -0.6664 -0.9089
 1100SOL     OW14228   0.636   9.109   4.225  0.3009 -0.4262 -0.0788
 1100SOL    HW114229   0.558   9.147   4.275  0.8604  2.2687 -1.1623
 1100SOL    HW214230   0.624   9.127   4.127  1.9785 -0.5326 -0.3084
 1101SOL     OW14231   3.838   4.640   2.440  0.1256 -0.2615  0.1339
 1101SOL    HW114232   3.901   4.718   2.438  0.5796 -0.6077  0.8829
 1101SOL    HW214233   3.840   4.593   2.352 -1.1752  1.3788 -0.8101
 1102SOL     OW14234   8.990   0.831   4.002  1.0963  0.1654  0.0197
 1102SOL    HW114235   9.076   0.849   4.050  0.7239  0.8117  0.4582
 1102SOL    HW214236   8.950   0.918   3.972 -0.3309  0.0230  1.4631
 1103SOL     OW14237   7.826   8.020   3.370  0.0587  0.0298 -0.0246
 1103SOL    HW114238   7.869   8.110   3.377  0.5911 -0.2288  0.1181
 1103SOL    HW214239   7.832   7.988   3.275  0.6015 -0.2015  0.0817
 1104SOL     OW14240   5.548   9.003   3.079 -0.7586  0.0850  0.0427
 1104SOL    HW114241   5.511   8.970   3.166 -0.1120  0.0308  0.3009
 1104SOL    HW214242   5.581   8.926   3.025 -1.0021  0.1341 -0.1766
 1105SOL     OW14243   7.997   7.736   2.609 -0.1065 -0.3123  0.6377
 1105SOL    HW114244   7.922   7.799   2.591  1.1576  1.3382  1.0373
 1105SOL    HW214245   7.962   7.656   2.659 -1.6393  0.2554  0.5009
 1106SOL     OW14246   1.810   3.421   3.383 -0.2107 -0.8980 -0.2246
 1106SOL    HW114247   1.796   3.508   3.431 -0.3628 -0.3609 -1.2368
 1106SOL    HW214248   1.804   3.345   3.449  3.4253  0.0507  1.3332
 1107SOL     OW14249   3.179   8.458   1.906 -0.0378 -0.5887  0.7378
 1107SOL    HW114250   3.254   8.490   1.964  1.2347 -1.1617 -0.5637
 1107SOL    HW214251   3.170   8.517   1.826 -0.3308 -1.0873  0.3965
 1108SOL     OW14252   8.445   1.542   0.172 -0.3833  0.1261 -0.0126
 1108SOL    HW114253   8.492   1.571   0.255  1.4150  1.5967 -1.4967
 1108SOL    HW214254   8.472   1.448   0.149 -1.5378 -0.5938  1.4962
 1109SOL     OW14255   0.177   1.091   0.075 -0.2916  0.0288 -0.0241
 1109SOL    HW114256   0.098   1.034   0.097  0.9966 -2.0522 -0.6591
 1109SOL    HW214257   0.243   1.087   0.151  1.0697 -1.6203 -1.2744
 1110SOL     OW14258   0.271   1.425   4.698  0.2552 -0.3232 -0.7398
 1110SOL    HW114259   0.267   1.377   4.786  0.4835  0.1756 -0.4574
 1110SOL    HW214260   0.291   1.522   4.713  1.7331 -0.5094 -1.4246
 1111SOL     OW14261   3.777   8.593   4.065  0.7947  0.2657  0.2330
 1111SOL    HW114262   3.691   8.601   4.015  0.4429  1.3873  0.9881
 1111SOL    HW214263   3.773   8.513   4.125  0.3636  0.1730  0.0825
 1112SOL     OW14264   5.042   5.994   2.138 -0.3238  0.1296  0.2648
 1112SOL    HW114265   5.140   6.014   2.138 -0.1218 -0.8521  0.8419
 1112SOL    HW214266   5.004   6.016   2.048  0.5708 -0.1929 -0.1943
 1113SOL     OW14267   4.320   7.820   4.963  0.0528  0.4870 -0.0200
 1113SOL    HW114268   4.363   7.891   4.909 -0.5007  0.6381 -0.2644
 1113SOL    HW214269   4.288   7.747   4.903 -1.0885  0.9276  0.0349
 1114SOL     OW14270   0.729   3.823   1.026  0.1134  0.2176 -0.1571
 1114SOL    HW114271   0.785   3.751   1.067  1.2505  0.8600 -0.5517
 1114SOL    HW214272   0.740   3.820   0.926 -2.1987 -0.9844 -0.4314
 1115SOL     OW14273   9.181   4.836   2.755 -0.0557 -0.2548 -0.4088
 1115SOL    HW114274   9.164   4.926   2.796  0.1177  0.2750 -1.4969
 1115SOL    HW214275   9.093   4.793   2.732 -0.1760 -0.7881  1.0124
 1116SOL     OW14276   1.277   2.539   1.335  1.0418 -0.2031  0.3550
 1116SOL    HW114277   1.326   2.594   1.268  0.2133  1.8764  1.3987
 1116SOL    HW214278   1.302   2.569   1.427 -1.5103  0.3631  0.9197
 1117SOL     OW14279   9.771   2.377   4.696  0.5075 -0.2053 -0.6458
 1117SOL    HW114280   9.760   2.399   4.793 -1.4330 -0.3087 -0.8162
 1117SOL    HW214281   9.827   2.447   4.652  1.0018  0.0957  0.4482
 1118SOL     OW14282   7.119   8.007   2.725  0.2505  0.3007  0.0979
 1118SOL    HW114283   7.019   8.003   2.729  0.2056 -0.4310 -1.5312
 1118SOL    HW214284   7.148   8.085   2.670  0.5295 -0.5751 -1.0223
 1119SOL     OW14285   9.183   8.741   4.748  0.1238 -0.3113 -0.3592
 1119SOL    HW114286   9.215   8.666   4.806  1.7622  1.5315  1.2304
 1119SOL    HW214287   9.138   8.810   4.805 -0.5968  0.3085 -1.6606
 1120SOL     OW14288   2.752   9.018   2.065 -0.0431  0.4600 -0.2371
 1120SOL    HW114289   2.732   9.056   2.155  0.9155  0.9494 -0.2190
 1120SOL    HW214290   2.676   8.960   2.035 -0.4930  0.5304  0.7537
 1121SOL     OW14291   0.691   0.243   4.913  0.1682 -0.4755 -0.2231
 1121SOL    HW114292   0.644   0.156   4.931  1.7588 -0.9764  1.7408
 1121SOL    HW214293   0.693   0.297   4.997 -0.1188  1.1480 -1.2403
 1122SOL     OW14294   5.567   0.992   2.976  0.0769  0.1494 -0.0139
 1122SOL    HW114295   5.626   0.943   3.041  0.9748 -2.2817 -2.5583
 1122SOL    HW214296   5.624   1.046   2.914 -0.6344  0.6789 -0.2125
 1123SOL     OW14297   5.227   1.723   1.063 -0.2978  0.2428  0.4671
 1123SOL    HW114298   5.154   1.791   1.058  0.7671  1.4388  0.9179
 1123SOL    HW214299   5.239   1.693   1.157 -0.3199 -0.0776  0.3692
 1124SOL     OW14300   9.725   5.163   4.741 -0.1463  0.7251  0.2313
 1124SOL    HW114301   9.812   5.186   4.697 -0.9385  1.7422 -0.8309
 1124SOL    HW214302   9.655   5.149   4.671 -0.8062 -0.2532  1.0738
 1125SOL     OW14303   8.014   4.394   2.404  0.2237 -0.7265 -0.4703
 1125SOL    HW114304   7.982   4.373   2.311  2.0267 -1.9507 -0.8393
 1125SOL    HW214305   8.035   4.309   2.452  0.9179 -0.0340  0.4720
 1126SOL     OW14306   2.919   5.510   4.600  0.5195  0.0506 -0.3087
 1126SOL    HW114307   2.905   5.609   4.608  1.3288  0.0778  0.7284
 1126SOL    HW214308   2.966   5.491   4.514  1.8498  0.7226  0.2528
 1127SOL     OW14309   9.157   6.290   2.965  0.1320  0.4743  0.1827
 1127SOL    HW114310   9.210   6.269   3.048 -1.2728  0.8459  1.2029
 1127SOL    HW214311   9.136   6.388   2.964  0.2078  0.4830 -0.6626
 1128SOL     OW14312   0.246   4.252   2.264 -0.1554 -0.6792 -0.1759
 1128SOL    HW114313   0.191   4.259   2.347 -0.8635  0.2478 -0.7070
 1128SOL    HW214314   0.275   4.344   2.235 -0.3096 -0.9419 -1.1976
 1129SOL     OW14315   8.818   4.786   4.027 -0.0157 -0.2406 -0.0110
 1129SOL    HW114316   8.866   4.862   4.071 -0.0731 -1.6469  2.6434
 1129SOL    HW214317   8.855   4.770   3.936  0.6479  2.3185 -0.2118
 1130SOL     OW14318   5.226   9.622   4.088  0.6887  0.3643 -0.1310
 1130SOL    HW114319   5.269   9.663   4.007  2.7115 -0.1106  0.6526
 1130SOL    HW214320   5.175   9.693   4.137  1.9959  1.3778 -0.1866
 1131SOL     OW14321   8.773   6.162   3.181 -0.1424  0.1142 -0.1593
 1131SOL    HW114322   8.764   6.092   3.110  1.2376  0.0887 -0.3193
 1131SOL    HW214323   8.769   6.119   3.271  0.7647 -0.1703 -0.2574
 1132SOL     OW14324   3.906   4.520   0.660 -0.2730  0.0218  0.3727
 1132SOL    HW114325   3.815   4.483   0.639 -0.8406  1.2223  0.7232
 1132SOL    HW214326   3.899   4.589   0.732  0.8953  0.2467  0.2798
 1133SOL     OW14327   8.180   0.576   0.810 -0.5791 -0.5340 -0.1718
 1133SOL    HW114328   8.197   0.660   0.861 -0.9504 -0.4632 -0.1641
 1133SOL    HW214329   8.088   0.543   0.829  0.0027 -1.6376  0.8021
 1134SOL     OW14330   4.072   3.967   2.810 -0.2315  0.7611  0.0925
 1134SOL    HW114331   4.102   3.955   2.905 -0.5619  0.8422  0.2089
 1134SOL    HW214332   4.047   4.063   2.795  0.5032  0.8981 -0.2769
 1135SOL     OW14333   7.412   9.783   2.701  0.0291  0.2598  0.0989
 1135SOL    HW114334   7.435   9.877   2.725  1.0547  0.2333 -0.7262
 1135SOL    HW214335   7.479   9.748   2.635 -0.0206 -1.2376  0.8206
 1136SOL     OW14336   9.872   5.010   2.240 -0.2159  0.7047  0.0288
 1136SOL    HW114337   9.884   5.075   2.315 -0.8385  0.1489  0.6155
 1136SOL    HW214338   9.883   4.917   2.275 -0.5679  0.4400 -0.5617
 1137SOL     OW14339   9.231   9.085   4.780  0.6208 -0.2805 -0.4413
 1137SOL    HW114340   9.242   9.072   4.681  1.0398 -0.1606 -0.4111
 1137SOL    HW214341   9.179   9.009   4.818  1.4263 -0.9098 -0.5781
 1138SOL     OW14342   1.171   0.264   5.330 -0.7447 -0.4691  0.1714
 1138SOL    HW114343   1.194   0.189   5.392 -0.6710 -3.1624 -3.0081
 1138SOL    HW214344   1.072   0.267   5.317 -0.5398 -1.6348 -1.6735
 1139SOL     OW14345   8.319   8.947   4.209  0.2004 -0.5382 -0.0929
 1139SOL    HW114346   8.385   8.902   4.150  0.0936 -1.5567  0.5520
 1139SOL    HW214347   8.226   8.920   4.184 -0.1640  2.3991 -2.2837
 1140SOL     OW14348   2.858   1.637   4.504 -0.4508 -0.1753  0.3366
 1140SOL    HW114349   2.815   1.567   4.561  0.0993 -0.8709 -0.0914
 1140SOL    HW214350   2.932   1.596   4.451 -1.3459  0.3271 -1.3609
 1141SOL     OW14351   0.580   2.898   5.384 -0.6114 -0.2034 -0.3831
 1141SOL    HW114352   0.633   2.974   5.345  2.1709 -2.0515 -0.3403
 1141SOL    HW214353   0.502   2.879   5.324 -0.5705  1.7926 -1.1200
 1142SOL     OW14354   1.921   0.177   4.559 -0.5297 -0.1062 -0.3768
 1142SOL    HW114355   1.836   0.144   4.602 -0.4519 -0.4414 -0.4807
 1142SOL    HW214356   1.900   0.213   4.468 -0.6986  0.6265 -0.0490
 1143SOL     OW14357   5.062   3.129   2.701 -0.3120 -0.2267 -0.5987
 1143SOL    HW114358   4.968   3.096   2.704 -0.6929  0.7364 -1.4934
 1143SOL    HW214359   5.087   3.148   2.606  0.5260  0.2418 -0.2859
 1144SOL     OW14360   2.619   1.727   3.152  0.0778  0.1792 -0.3241
 1144SOL    HW114361   2.680   1.735   3.231 -0.8055  1.3139  0.2490
 1144SOL    HW214362   2.545   1.664   3.174  1.4561 -1.8416 -1.3038
 1145SOL     OW14363   4.459   0.491   0.615  0.1123 -0.5613  0.0053
 1145SOL    HW114364   4.362   0.473   0.632 -0.1663 -0.7439 -1.7540
 1145SOL    HW214365   4.513   0.443   0.683 -1.0276 -0.4006  1.0517
 1146SOL     OW14366   7.563   4.102   0.308  0.4095  0.1777 -0.5005
 1146SOL    HW114367   7.486   4.039   0.321  0.9809 -0.3565  0.4018
 1146SOL    HW214368   7.560   4.172   0.379  1.3361 -0.4523  0.1688
 1147SOL     OW14369   0.487   2.557   0.248 -0.2418 -0.0956  0.4116
 1147SOL    HW114370   0.395   2.596   0.237 -0.2637 -0.0826  0.6355
 1147SOL    HW214371   0.513   2.560   0.345  0.0040 -0.0794  0.3450
 1148SOL     OW14372   4.539   1.123   4.131 -0.1972 -0.2685 -0.0716
 1148SOL    HW114373   4.490   1.117   4.218 -0.2610 -0.8796 -0.1494
 1148SOL    HW214374   4.545   1.032   4.089  1.0364 -0.2075 -0.0496
 1149SOL     OW14375   1.213   4.613   4.855 -0.1685  0.1556  0.0478
 1149SOL    HW114376   1.293   4.637   4.909 -1.0467  1.7900  0.6597
 1149SOL    HW214377   1.165   4.537   4.898  0.5519 -0.2365  0.1627
 1150SOL     OW14378   0.105   8.998   1.385  0.5361  0.1781  0.3036
 1150SOL    HW114379   0.140   9.087   1.356  0.7842  0.2312  0.7673
 1150SOL    HW214380   0.102   8.994   1.484  2.3083 -1.0096  0.3215
 1151SOL     OW14381   3.531   0.659   3.764  0.6081 -0.2669  0.2209
 1151SOL    HW114382   3.629   0.650   3.781  0.4709  0.1844  1.2830
 1151SOL    HW214383   3.511   0.752   3.735  0.2023  0.2700  2.1496
 1152SOL     OW14384   9.735   4.220   4.830  0.7241 -0.0866 -0.5724
 1152SOL    HW114385   9.701   4.286   4.763  1.2192 -0.2810 -1.0208
 1152SOL    HW214386   9.748   4.131   4.784 -1.0402 -0.8007  0.2732
 1153SOL     OW14387   0.961   3.808   4.650  0.4545  0.5603 -0.6636
 1153SOL    HW114388   0.970   3.805   4.750 -1.5089  4.1137 -0.3170
 1153SOL    HW214389   0.950   3.903   4.620 -1.1678 -0.6257 -4.0803
 1154SOL     OW14390   5.435   9.273   4.465  0.2281 -0.0688 -0.3782
 1154SOL    HW114391   5.360   9.234   4.517  0.4318 -1.5541 -1.1879
 1154SOL    HW214392   5.399   9.326   4.388 -0.0089 -0.3767 -0.4807
 1155SOL     OW14393   1.354   6.638   4.967  0.4095 -0.1483 -0.0548
 1155SOL    HW114394   1.337   6.554   5.019  0.0442 -1.6753 -2.5349
 1155SOL    HW214395   1.323   6.625   4.873  3.4696  1.5694 -1.3852
 1156SOL     OW14396   9.574   7.761   1.243  0.1809  0.1650  0.2438
 1156SOL    HW114397   9.603   7.698   1.315 -1.1126 -0.1678  0.4920
 1156SOL    HW214398   9.624   7.742   1.159 -1.9038 -2.8192 -0.3859
 1157SOL     OW14399   1.436   2.727   2.478 -0.8643  0.1670  0.4573
 1157SOL    HW114400   1.375   2.737   2.557 -0.1479  0.5968  0.9700
 1157SOL    HW214401   1.486   2.813   2.464 -0.7049 -0.0357 -0.2274
 1158SOL     OW14402   4.925   1.578   0.743  0.5453 -0.2131 -0.2895
 1158SOL    HW114403   4.993   1.651   0.734  1.1194 -0.4125  2.0393
 1158SOL    HW214404   4.971   1.489   0.733  0.4032 -0.3228  0.0472
 1159SOL     OW14405   0.295   2.187   2.882  0.7737  0.1277  0.0744
 1159SOL    HW114406   0.315   2.284   2.867 -0.3395  0.7258  2.2464
 1159SOL    HW214407   0.247   2.150   2.802  0.4569  1.5687 -0.4189
 1160SOL     OW14408   3.585   2.598   3.270  0.3183 -0.0982  0.4408
 1160SOL    HW114409   3.669   2.545   3.260  1.1213  1.1755  0.2253
 1160SOL    HW214410   3.506   2.537   3.269  1.0263 -1.0537 -2.6533
 1161SOL     OW14411   3.053   5.300   1.171  0.1585 -0.0815  0.9428
 1161SOL    HW114412   3.011   5.243   1.100 -2.9070  0.9760  1.8332
 1161SOL    HW214413   3.006   5.285   1.258  0.1659  2.7902  1.4980
 1162SOL     OW14414   8.314   8.395   3.432 -0.3847  0.1256 -0.2489
 1162SOL    HW114415   8.373   8.395   3.352  1.0249 -0.3532  0.7619
 1162SOL    HW214416   8.221   8.423   3.406  0.7654  2.9184 -1.5034
 1163SOL     OW14417   0.552   0.863   5.590  0.0023 -0.5452 -0.2408
 1163SOL    HW114418   0.510   0.845   5.679  0.4324 -1.0598 -0.1362
 1163SOL    HW214419   0.620   0.791   5.570 -1.0932 -1.2157 -1.6248
 1164SOL     OW14420   1.128   5.060   0.553  0.0327 -0.2819  0.1143
 1164SOL    HW114421   1.137   4.962   0.539  0.6337 -0.4832  1.7470
 1164SOL    HW214422   1.192   5.109   0.493  0.3023 -0.9254 -0.1287
 1165SOL     OW14423   1.909   9.080   3.681  0.0454 -0.3321 -0.2731
 1165SOL    HW114424   1.970   9.148   3.720 -0.4127 -0.6490  1.0330
 1165SOL    HW214425   1.908   8.998   3.740 -2.5506  0.1280  0.4206
 1166SOL     OW14426   0.564   3.491   2.265 -0.0801  0.1593  0.0815
 1166SOL    HW114427   0.599   3.542   2.344  0.9009 -0.6897  0.2028
 1166SOL    HW214428   0.505   3.416   2.298  0.2794 -0.1564  0.0054
 1167SOL     OW14429   8.816   2.622   3.559  0.8682 -0.2493 -0.4887
 1167SOL    HW114430   8.737   2.663   3.605  1.2762 -0.9325  0.8384
 1167SOL    HW214431   8.888   2.691   3.549 -0.4051  0.8144 -3.0594
 1168SOL     OW14432   3.510   5.730   0.677 -0.3061  0.0371 -0.3169
 1168SOL    HW114433   3.565   5.752   0.757 -0.8870  2.5856 -0.5810
 1168SOL    HW214434   3.562   5.751   0.594 -0.5026 -0.6063 -0.6143
 1169SOL     OW14435   9.959   3.338   0.568 -0.3972 -0.2375 -0.3951
 1169SOL    HW114436   9.929   3.320   0.662 -0.5142 -0.3442 -0.4526
 1169SOL    HW214437   9.891   3.394   0.522 -0.7359 -0.8622 -0.6695
 1170SOL     OW14438   4.274   8.522   4.518  0.1250 -0.1429  0.3351
 1170SOL    HW114439   4.309   8.486   4.432 -0.0625  0.7139 -0.1072
 1170SOL    HW214440   4.208   8.594   4.499  2.7939  2.6365  1.2107
 1171SOL     OW14441   0.645   6.360   5.169 -0.6222  0.0817  0.5815
 1171SOL    HW114442   0.734   6.346   5.126  0.3609 -0.4787  2.7588
 1171SOL    HW214443   0.650   6.437   5.233 -1.8141  0.2872  0.4472
 1172SOL     OW14444   3.183   8.135   4.671  0.1943  0.3292  0.2603
 1172SOL    HW114445   3.273   8.163   4.637  0.0600  0.4223 -0.0207
 1172SOL    HW214446   3.153   8.199   4.743 -0.4209  1.3329 -0.8628
 1173SOL     OW14447   9.822   6.227   1.678 -0.4679  0.0921 -0.0227
 1173SOL    HW114448   9.817   6.134   1.715 -3.2646 -0.9091 -2.6811
 1173SOL    HW214449   9.851   6.290   1.750  0.3213 -2.6379  2.1506
 1174SOL     OW14450   3.523   3.342   0.763 -0.2194  0.1899 -0.7270
 1174SOL    HW114451   3.466   3.262   0.744  2.6800 -2.2117  0.2356
 1174SOL    HW214452   3.536   3.351   0.862  0.0457  1.4493 -0.8646
 1175SOL     OW14453   2.844   1.851   0.449  0.0554  0.7124  0.3230
 1175SOL    HW114454   2.887   1.898   0.371  1.2652  0.7291  0.9750
 1175SOL    HW214455   2.755   1.893   0.468 -0.0380  1.0212 -0.7450
 1176SOL     OW14456   9.487   1.218   3.398  1.2620 -0.0437 -0.8989
 1176SOL    HW114457   9.447   1.310   3.392  0.2738 -0.4329 -0.5100
 1176SOL    HW214458   9.446   1.159   3.328  0.2364 -0.7695  0.2734
 1177SOL     OW14459   3.714   9.440   2.352  0.0485  0.5643 -0.0164
 1177SOL    HW114460   3.783   9.368   2.364 -0.7373 -0.1027  0.5344
 1177SOL    HW214461   3.735   9.516   2.414  1.0422  0.9481 -0.8076
 1178SOL     OW14462   9.647   0.079   5.622 -0.2424 -0.0245 -0.3124
 1178SOL    HW114463   9.571   0.035   5.575 -0.7046  1.2516 -0.7830
 1178SOL    HW214464   9.722   0.014   5.632 -0.8116 -0.8387 -1.2125
 1179SOL     OW14465   0.026   2.601   2.645  0.0711  0.2562  0.3274
 1179SOL    HW114466  -0.044   2.547   2.691 -0.0258 -1.4146 -1.7062
 1179SOL    HW214467   0.117   2.569   2.673  0.0118 -0.7556 -0.6100
 1180SOL     OW14468   8.116   2.690   0.438  0.1073 -0.3927  0.0132
 1180SOL    HW114469   8.171   2.645   0.508  0.8888 -1.6159 -1.3459
 1180SOL    HW214470   8.137   2.788   0.437  0.8443 -0.5312  0.7902
 1181SOL     OW14471   2.973   5.387   1.815  0.0923  0.0629  0.2544
 1181SOL    HW114472   2.999   5.411   1.721  1.1502  0.7340  0.7042
 1181SOL    HW214473   2.884   5.342   1.815 -0.1758  0.5739 -1.0175
 1182SOL     OW14474   1.141   7.471   4.241  0.0786 -0.3894  0.5008
 1182SOL    HW114475   1.151   7.539   4.313  0.5764  0.2114 -0.1306
 1182SOL    HW214476   1.059   7.416   4.259 -0.7198  0.8210  0.6550
 1183SOL     OW14477   9.191   1.761   3.105 -0.4220  0.1417  0.2194
 1183SOL    HW114478   9.163   1.712   3.188  0.5358 -0.9705 -0.0868
 1183SOL    HW214479   9.262   1.827   3.128 -0.6255  0.3008  0.3932
 1184SOL     OW14480   1.455   0.862   1.351  0.0505  0.0938  0.1915
 1184SOL    HW114481   1.530   0.887   1.289  0.6625 -0.3544  0.7388
 1184SOL    HW214482   1.493   0.839   1.440 -0.7317 -0.3348  0.4164
 1185SOL     OW14483   4.704   1.989   0.211 -0.2215  0.1107  0.0153
 1185SOL    HW114484   4.723   1.953   0.302  0.3299 -0.8194 -0.4565
 1185SOL    HW214485   4.672   2.083   0.218 -1.5110 -0.4057  1.2640
 1186SOL     OW14486   0.174   6.686   4.096 -0.0551  0.0958  0.1897
 1186SOL    HW114487   0.082   6.655   4.073 -0.0999  0.5762 -0.2790
 1186SOL    HW214488   0.185   6.782   4.071  0.6809 -0.0454 -0.0629
 1187SOL     OW14489   9.279   2.464   2.919  0.3467  0.3019 -0.1841
 1187SOL    HW114490   9.218   2.528   2.872  1.6844  1.7091 -0.0122
 1187SOL    HW214491   9.257   2.462   3.017 -0.1846 -0.0790 -0.3062
 1188SOL     OW14492   4.059   2.693   5.289  0.0225 -0.1433 -0.3923
 1188SOL    HW114493   4.116   2.768   5.257 -1.4690  1.4019  0.4587
 1188SOL    HW214494   4.044   2.702   5.388  1.3244 -2.6099  0.0809
 1189SOL     OW14495   7.688   9.242   1.662  0.5400 -0.1040  0.2905
 1189SOL    HW114496   7.642   9.172   1.607  1.2289 -1.2315  1.1016
 1189SOL    HW214497   7.760   9.286   1.608  2.3327 -2.3636  0.7282
 1190SOL     OW14498   2.590   7.809   2.028 -0.1068 -0.3806 -0.3037
 1190SOL    HW114499   2.505   7.859   2.045  1.6792  1.9235  2.3303
 1190SOL    HW214500   2.623   7.830   1.937  0.1833  2.6693  0.4689
 1191SOL     OW14501   4.667   8.979   0.322 -0.0740  0.1326  0.1591
 1191SOL    HW114502   4.612   9.060   0.343 -0.1702 -0.0512  0.6190
 1191SOL    HW214503   4.734   9.002   0.251 -1.5549  0.0389 -1.3087
 1192SOL     OW14504   7.729   2.033   5.439  0.4738  0.6772  0.3064
 1192SOL    HW114505   7.799   1.987   5.494 -0.5825 -1.8600 -0.3777
 1192SOL    HW214506   7.729   1.993   5.347 -0.6206  1.9570 -0.2559
 1193SOL     OW14507   4.824   4.583   0.668  0.4890  0.0550 -0.1499
 1193SOL    HW114508   4.820   4.578   0.568 -0.2385  0.2958 -0.1422
 1193SOL    HW214509   4.732   4.569   0.705  0.4527  1.6884  0.4050
 1194SOL     OW14510   0.081   4.212   0.466  0.0982  0.1770  0.7010
 1194SOL    HW114511   0.014   4.142   0.489 -0.2561  0.2203 -0.2071
 1194SOL    HW214512   0.044   4.302   0.487 -0.3044  0.2292 -0.2277
 1195SOL     OW14513   9.938   9.742   4.267 -0.0121  0.0944 -0.0694
 1195SOL    HW114514   9.853   9.791   4.286 -0.8871 -1.6488  0.5223
 1195SOL    HW214515  10.005   9.761   4.339 -0.8517 -0.7378  0.9342
 1196SOL     OW14516   9.397   8.586   2.349 -0.2444  0.5056 -0.1430
 1196SOL    HW114517   9.489   8.600   2.385  0.1414 -0.3076 -0.8228
 1196SOL    HW214518   9.338   8.551   2.422  0.0141  0.8809  0.2505
 1197SOL     OW14519   7.452   2.562   2.787  0.2512  0.5357  0.4290
 1197SOL    HW114520   7.472   2.480   2.840  1.8174  0.1806 -0.6647
 1197SOL    HW214521   7.399   2.538   2.707  0.5708  0.6077  0.1948
 1198SOL     OW14522   0.796   7.591   2.512 -0.3303 -0.4853 -0.0260
 1198SOL    HW114523   0.894   7.577   2.528  0.3379  2.2225 -1.4322
 1198SOL    HW214524   0.769   7.681   2.546 -1.9630 -0.5466 -1.1023
 1199SOL     OW14525   3.339   3.500   2.221  0.1402 -0.2035 -0.1542
 1199SOL    HW114526   3.295   3.435   2.159 -0.3300  0.0291 -0.0645
 1199SOL    HW214527   3.273   3.569   2.249  0.9085  0.9343 -1.0900
 1200SOL     OW14528   2.853   3.664   2.872  0.5154  0.3157  0.6137
 1200SOL    HW114529   2.903   3.600   2.814 -1.0032  0.2504 -0.6454
 1200SOL    HW214530   2.889   3.757   2.859 -0.9350  0.5900 -1.7806
 1201SOL     OW14531   8.902   9.538   4.138  0.5919 -0.0527  0.9104
 1201SOL    HW114532   8.950   9.625   4.127  1.3215 -0.2748  2.2825
 1201SOL    HW214533   8.962   9.472   4.182 -0.9995 -0.3147  2.7362
 1202SOL     OW14534   4.142   7.608   1.946 -0.4373  0.1420  0.1117
 1202SOL    HW114535   4.168   7.702   1.925  0.2342  0.1345  0.8918
 1202SOL    HW214536   4.175   7.548   1.873 -0.5001  0.4525 -0.1758
 1203SOL     OW14537   0.358   3.923   3.677  0.2768  0.5593 -0.1853
 1203SOL    HW114538   0.407   4.002   3.640  0.4327  0.6049  0.1224
 1203SOL    HW214539   0.263   3.949   3.695  0.0579  0.3854 -1.0673
 1204SOL     OW14540   3.618   9.105   4.319 -0.2687 -0.0673 -0.0463
 1204SOL    HW114541   3.669   9.183   4.282 -0.6124  2.3320  4.1656
 1204SOL    HW214542   3.535   9.090   4.265  1.7578 -0.0765 -3.2584
 1205SOL     OW14543   1.008   1.689   2.034  0.1324  0.0081  0.2440
 1205SOL    HW114544   1.061   1.609   2.063 -1.1234 -0.8927  0.1517
 1205SOL    HW214545   1.052   1.731   1.955 -0.5736 -2.2054 -1.3925
 1206SOL     OW14546   2.208   7.080   2.788 -0.4832 -0.2362 -0.7189
 1206SOL    HW114547   2.135   7.017   2.815 -1.3051  1.3646  0.8939
 1206SOL    HW214548   2.167   7.164   2.752  0.5588  0.7384  0.3270
 1207SOL     OW14549   8.347   4.440   0.459 -0.6944  0.0188 -0.2288
 1207SOL    HW114550   8.278   4.386   0.410 -0.9510  0.4334 -0.3275
 1207SOL    HW214551   8.301   4.510   0.514 -0.3494  0.3418 -0.3475
 1208SOL     OW14552   7.718   2.492   5.262 -0.1760  0.2586  0.0359
 1208SOL    HW114553   7.769   2.430   5.322  0.8548 -0.4362 -1.5070
 1208SOL    HW214554   7.758   2.583   5.266  1.8473 -0.4970 -1.8743
 1209SOL     OW14555   8.393   2.402   2.709 -0.0598 -0.2526 -0.5784
 1209SOL    HW114556   8.299   2.424   2.737  0.0740 -0.6819  0.2172
 1209SOL    HW214557   8.432   2.336   2.773  1.1235  0.6615 -0.3310
 1210SOL     OW14558   9.829   2.200   4.291  0.5605 -0.4591  0.3658
 1210SOL    HW114559   9.881   2.281   4.264  0.4494 -0.2533  0.7470
 1210SOL    HW214560   9.869   2.118   4.251  1.4990 -0.3645  1.0907
 1211SOL     OW14561   5.592   0.919   4.915 -0.0857 -0.0788 -0.5408
 1211SOL    HW114562   5.626   0.848   4.854 -0.8294 -0.1090 -0.9324
 1211SOL    HW214563   5.640   0.915   5.002 -0.3628 -1.2881 -0.4393
 1212SOL     OW14564   8.836   9.093   3.922 -0.3362 -0.2390  0.0455
 1212SOL    HW114565   8.755   9.128   3.969  0.1576  0.6901  0.2115
 1212SOL    HW214566   8.882   9.167   3.874  1.4225 -0.3664  1.4425
 1213SOL     OW14567   8.553   1.031   5.136  0.3367  0.3592  0.5726
 1213SOL    HW114568   8.495   1.042   5.055  1.7538 -2.3611 -0.8922
 1213SOL    HW214569   8.501   0.984   5.207  0.2664 -0.7740 -0.2074
 1214SOL     OW14570   1.193   9.296   0.812 -0.4057 -0.5181 -0.2354
 1214SOL    HW114571   1.120   9.346   0.859 -2.0451 -2.8043 -0.2575
 1214SOL    HW214572   1.252   9.361   0.764 -1.1228  1.5353  1.5964
 1215SOL     OW14573   5.799   0.306   1.194 -0.0958  0.1854 -0.1582
 1215SOL    HW114574   5.855   0.224   1.201  2.6284  1.9129 -0.9026
 1215SOL    HW214575   5.815   0.365   1.273 -0.2494  1.0638 -0.7627
 1216SOL     OW14576   9.987   1.981   4.245  0.2861  0.1748  0.0874
 1216SOL    HW114577  10.012   1.977   4.342  0.9713 -0.3856 -0.1057
 1216SOL    HW214578   9.973   1.888   4.211  2.5707  0.2039 -0.9805
 1217SOL     OW14579   2.472   2.923   2.379 -0.2089 -0.4283  0.1571
 1217SOL    HW114580   2.459   3.018   2.351  0.0093 -0.2193  0.7496
 1217SOL    HW214581   2.465   2.863   2.299 -1.0990  0.0141 -0.0964
 1218SOL     OW14582   2.249   6.061   0.025  0.1753 -0.2254  0.1160
 1218SOL    HW114583   2.328   6.106  -0.018  1.1477 -0.8632  1.2300
 1218SOL    HW214584   2.213   6.119   0.098 -0.1491 -0.1119 -0.1324
 1219SOL     OW14585   7.405   5.062   4.678  0.6534 -0.2149 -0.1278
 1219SOL    HW114586   7.410   4.974   4.725  2.3697 -0.0686  0.0058
 1219SOL    HW214587   7.428   5.135   4.742 -0.1027  0.2783 -0.4133
 1220SOL     OW14588   5.837   0.139   2.773  0.1581 -0.0250 -0.1037
 1220SOL    HW114589   5.923   0.102   2.806 -1.1855 -1.4851  1.8633
 1220SOL    HW214590   5.799   0.202   2.841 -0.8709 -0.2328 -0.4733
 1221SOL     OW14591   9.343   3.219   3.152  0.5110 -0.3119 -0.1449
 1221SOL    HW114592   9.266   3.182   3.205  0.6596 -1.1318 -0.4889
 1221SOL    HW214593   9.332   3.193   3.056  0.8845  0.1161 -0.3006
 1222SOL     OW14594   5.459   7.738   1.989 -0.0568  0.4011 -0.0174
 1222SOL    HW114595   5.418   7.824   2.018 -0.9954 -0.3224  0.8248
 1222SOL    HW214596   5.514   7.700   2.063 -1.8619 -1.0860  0.5740
 1223SOL     OW14597   0.454   1.986   1.555 -0.6147  0.2186 -0.2775
 1223SOL    HW114598   0.505   1.996   1.640  1.6992  1.3830 -1.7470
 1223SOL    HW214599   0.509   1.933   1.489 -0.8493  2.3165 -2.2255
 1224SOL     OW14600   0.827   5.620   4.776 -0.0816 -0.3393 -0.6088
 1224SOL    HW114601   0.908   5.653   4.824 -2.0337 -0.1588  2.7111
 1224SOL    HW214602   0.783   5.696   4.729  0.1122  0.1211 -0.0537
 1225SOL     OW14603   2.409   8.415   0.424 -0.2787  0.3600 -0.1579
 1225SOL    HW114604   2.372   8.345   0.362 -1.7804  2.3151 -1.5137
 1225SOL    HW214605   2.393   8.505   0.386  1.6378  1.4772  1.5909
 1226SOL     OW14606   9.307   2.729   3.256  0.0364 -0.2389  0.0044
 1226SOL    HW114607   9.368   2.781   3.316  0.9634 -2.2877  0.8784
 1226SOL    HW214608   9.267   2.791   3.188  1.6931  1.4675  0.5245
 1227SOL     OW14609   0.096   7.333   1.441 -0.4866 -0.1783  0.3285
 1227SOL    HW114610   0.075   7.341   1.343 -1.8544 -2.1722  0.4407
 1227SOL    HW214611   0.192   7.357   1.456  0.2087 -1.5138 -1.7759
 1228SOL     OW14612   5.800   9.925   1.766  0.0624 -0.0784 -0.8836
 1228SOL    HW114613   5.836   9.844   1.813 -2.5488 -0.5018  0.4820
 1228SOL    HW214614   5.828  10.007   1.816 -0.7744 -0.4015  0.1457
 1229SOL     OW14615   3.815   0.004   1.709 -0.0517 -0.1246 -0.0500
 1229SOL    HW114616   3.830   0.020   1.806  0.8228  0.5781 -0.2953
 1229SOL    HW214617   3.902   0.003   1.661 -0.5836  1.5081 -1.1100
 1230SOL     OW14618   3.259   3.939   0.304 -0.5784 -0.7557 -0.0844
 1230SOL    HW114619   3.268   3.931   0.205 -0.8096  0.1858 -0.1868
 1230SOL    HW214620   3.305   4.022   0.335 -2.3870  0.1178  0.3240
 1231SOL     OW14621   9.782   2.145   0.937 -0.0455  0.4915  0.3485
 1231SOL    HW114622   9.799   2.113   1.030 -1.2393  1.5278  0.9609
 1231SOL    HW214623   9.684   2.134   0.916  0.4520 -0.9854 -1.2917
 1232SOL     OW14624   0.693   4.175   0.375 -0.1840  0.1937  0.3050
 1232SOL    HW114625   0.623   4.241   0.402 -0.9470 -0.6005  0.3214
 1232SOL    HW214626   0.678   4.089   0.424  0.3536 -0.2286 -0.2600
 1233SOL     OW14627   7.169   0.388   4.069 -1.0431  0.6103  0.5494
 1233SOL    HW114628   7.233   0.416   4.140 -0.6807  0.0908  0.4306
 1233SOL    HW214629   7.182   0.290   4.049  0.5094  1.2684 -1.9211
 1234SOL     OW14630   9.007   7.918   0.017 -0.4940 -0.0018  0.4090
 1234SOL    HW114631   8.949   7.848   0.061 -0.4662  0.3162  0.9529
 1234SOL    HW214632   8.955   7.963  -0.055 -0.6517 -0.2920  0.3377
 1235SOL     OW14633   3.369   6.779   4.070  0.2226  0.4419 -0.1456
 1235SOL    HW114634   3.366   6.713   4.145  1.2720  1.3654  0.7339
 1235SOL    HW214635   3.339   6.736   3.985 -5.4288  0.5574  1.6438
 1236SOL     OW14636   7.792   1.710   2.729  0.4457 -0.3398  0.5632
 1236SOL    HW114637   7.800   1.641   2.801 -0.9331  0.6289  1.6505
 1236SOL    HW214638   7.759   1.667   2.645 -0.8830 -0.9158  1.3756
 1237SOL     OW14639   1.460   3.934   1.755  0.2709 -0.0941  0.3862
 1237SOL    HW114640   1.418   3.886   1.832 -0.4626 -0.5294 -0.2712
 1237SOL    HW214641   1.411   3.910   1.671 -0.0527  1.7300  0.0294
 1238SOL     OW14642   0.941   6.672   1.592  0.2188  0.4153 -0.4234
 1238SOL    HW114643   0.959   6.663   1.690 -0.1340  0.3871 -0.3622
 1238SOL    HW214644   0.961   6.585   1.547 -0.4024  0.1887 -0.2565
 1239SOL     OW14645   2.991   5.209   2.247  0.2070 -0.1467  0.0177
 1239SOL    HW114646   2.929   5.255   2.311  1.8242  2.0841  0.0519
 1239SOL    HW214647   3.052   5.147   2.298 -0.5087 -0.6690  0.2470
 1240SOL     OW14648   0.447   6.754   1.494 -0.6811  0.6441  0.2871
 1240SOL    HW114649   0.506   6.712   1.425  2.0937 -0.0856  2.9597
 1240SOL    HW214650   0.487   6.841   1.523 -1.0276  0.2795  1.9214
 1241SOL     OW14651   4.494   0.986   0.608 -0.0492 -0.6825 -0.5196
 1241SOL    HW114652   4.523   1.057   0.673  0.4292 -0.3669 -1.0727
 1241SOL    HW214653   4.474   1.029   0.520 -1.5348 -0.9899 -0.3384
 1242SOL     OW14654   9.089   6.459   2.147  0.5780  0.0994 -0.1603
 1242SOL    HW114655   9.045   6.382   2.194  0.5647  0.2153  0.0183
 1242SOL    HW214656   9.022   6.505   2.090  0.2415  0.8151  0.7898
 1243SOL     OW14657   3.761   7.849   3.537  0.3026  0.0714  0.2816
 1243SOL    HW114658   3.793   7.905   3.460  1.1472 -2.6932 -1.4664
 1243SOL    HW214659   3.810   7.761   3.537 -1.7420 -1.1340  2.2809
 1244SOL     OW14660   7.277   7.664   3.914  0.1649  0.1626  0.0273
 1244SOL    HW114661   7.279   7.764   3.915  0.6539  0.1479  0.6711
 1244SOL    HW214662   7.259   7.632   3.821 -0.1097  0.8492 -0.1608
 1245SOL     OW14663   2.121   1.194   2.715 -0.1305  0.0230 -0.6978
 1245SOL    HW114664   2.037   1.217   2.763 -0.6879 -1.2369 -1.0693
 1245SOL    HW214665   2.151   1.102   2.740  1.1647  0.4690 -0.5402
 1246SOL     OW14666   6.911   1.375   2.745 -0.1090  0.3009 -0.4456
 1246SOL    HW114667   6.930   1.319   2.825 -1.2264 -0.2098 -0.5282
 1246SOL    HW214668   6.822   1.349   2.707  0.1752  0.9076 -1.5313
 1247SOL     OW14669   7.439   1.396   4.332  0.3696 -0.2718 -0.4791
 1247SOL    HW114670   7.428   1.440   4.243  1.8518 -1.7705 -1.4346
 1247SOL    HW214671   7.395   1.306   4.331 -2.3487  0.9762  1.3556
 1248SOL     OW14672   9.270   6.158   3.436  0.0022 -0.3317  0.2104
 1248SOL    HW114673   9.296   6.239   3.489 -2.0037 -0.9655  2.2932
 1248SOL    HW214674   9.170   6.151   3.434  0.1003 -1.3540 -2.1523
 1249SOL     OW14675   0.682   2.407   4.878 -0.0441  0.1882  0.3191
 1249SOL    HW114676   0.620   2.383   4.804  0.4131  4.2492 -1.5197
 1249SOL    HW214677   0.758   2.461   4.841  1.0026  1.0110  3.5317
 1250SOL     OW14678   9.795   5.063   0.339  0.5324 -0.2970  0.0798
 1250SOL    HW114679   9.800   5.083   0.437 -0.3365 -0.0131  0.0721
 1250SOL    HW214680   9.789   4.964   0.326  3.9985 -0.5717  0.1556
 1251SOL     OW14681   7.182   7.580   2.882  0.0605 -0.6284  0.2528
 1251SOL    HW114682   7.093   7.625   2.888  0.1062 -0.6371  1.0111
 1251SOL    HW214683   7.179   7.494   2.932  0.8776 -0.0115  1.3834
 1252SOL     OW14684   6.690   8.873   2.006 -0.2178 -0.1429 -0.3127
 1252SOL    HW114685   6.605   8.823   2.018  0.5919 -0.8754  2.7902
 1252SOL    HW214686   6.677   8.946   1.939 -2.6225 -1.6644 -1.5667
 1253SOL     OW14687   6.753   9.679   1.926  0.5782 -0.5785 -0.5702
 1253SOL    HW114688   6.824   9.684   1.855  0.9215  1.1292 -0.1289
 1253SOL    HW214689   6.796   9.675   2.016  0.1341  0.6925 -0.2890
 1254SOL     OW14690   8.830   9.911   4.405  0.0542 -1.2920 -0.4959
 1254SOL    HW114691   8.920   9.943   4.434 -1.2517  1.6185  0.5880
 1254SOL    HW214692   8.814   9.819   4.439  2.2625 -1.5240 -0.0065
 1255SOL     OW14693   0.104   1.405   0.129 -0.9821  0.1012  0.6685
 1255SOL    HW114694   0.119   1.308   0.112  0.7864  0.1968  1.6510
 1255SOL    HW214695   0.102   1.422   0.227  0.6680  1.3503  0.4975
 1256SOL     OW14696   5.806   4.102   0.446 -0.1078 -0.3425  0.3969
 1256SOL    HW114697   5.839   4.012   0.417  0.3615 -0.1234  0.2560
 1256SOL    HW214698   5.794   4.160   0.366  1.7111  0.4432  0.6785
 1257SOL     OW14699   9.016   3.498   2.473  0.1995 -0.3471 -0.2198
 1257SOL    HW114700   8.947   3.524   2.405  0.6235  0.4714 -0.3389
 1257SOL    HW214701   9.002   3.403   2.500 -0.5626 -0.3854 -0.7444
 1258SOL     OW14702   7.709   5.048   5.503  0.8077 -0.2376  0.2952
 1258SOL    HW114703   7.674   5.142   5.495  0.8924 -0.0882  1.5645
 1258SOL    HW214704   7.805   5.046   5.477  1.1373  0.2735  1.4086
 1259SOL     OW14705   4.195   8.947   1.822 -0.3400 -0.8996  0.3661
 1259SOL    HW114706   4.259   8.947   1.745 -0.8119 -2.2020 -0.0226
 1259SOL    HW214707   4.110   8.992   1.794  0.2682  0.5571  0.7912
 1260SOL     OW14708   2.978   4.848   3.951 -0.6261 -0.0109  0.2882
 1260SOL    HW114709   2.959   4.819   4.045 -0.4119 -1.7829 -0.1854
 1260SOL    HW214710   3.051   4.792   3.913 -0.3193  1.0728 -0.7503
 1261SOL     OW14711   1.826   3.198   3.589  0.0988  0.3693 -0.7736
 1261SOL    HW114712   1.864   3.144   3.514  0.8011  1.2021 -1.0205
 1261SOL    HW214713   1.794   3.136   3.661  0.0898 -0.4084 -1.4286
 1262SOL     OW14714   0.734   0.721   0.213  0.1828  0.0709 -0.1217
 1262SOL    HW114715   0.684   0.730   0.299  1.8315 -1.3064  1.0254
 1262SOL    HW214716   0.750   0.812   0.174 -1.5505  0.6388  0.4365
 1263SOL     OW14717   3.878   0.658   0.739  0.2127  0.0880 -0.9703
 1263SOL    HW114718   3.943   0.721   0.781 -0.4136  0.4906 -0.6049
 1263SOL    HW214719   3.876   0.573   0.793 -1.0014  0.8160  0.1396
 1264SOL     OW14720   7.595   5.378   0.388 -0.0586 -0.2702 -0.2018
 1264SOL    HW114721   7.552   5.289   0.370  2.4881 -1.9889  1.8217
 1264SOL    HW214722   7.671   5.392   0.325  1.0520 -0.6511  1.0318
 1265SOL     OW14723   0.788   6.020   0.268 -0.3676  0.1326  0.4423
 1265SOL    HW114724   0.869   5.968   0.242 -1.7861 -1.1346 -1.5930
 1265SOL    HW214725   0.813   6.088   0.337  2.1245 -1.1819  0.9031
 1266SOL     OW14726   9.956   7.296   4.326  0.0474  0.6957 -0.1497
 1266SOL    HW114727   9.975   7.356   4.404 -0.6314  2.5971 -1.4103
 1266SOL    HW214728   9.860   7.305   4.300  0.9133  2.3156 -3.0139
 1267SOL     OW14729   9.442   4.738   1.117  0.2598 -0.2646 -0.0402
 1267SOL    HW114730   9.380   4.753   1.039  0.0200 -1.0874 -0.0049
 1267SOL    HW214731   9.489   4.651   1.107  1.6629  0.4899 -0.2192
 1268SOL     OW14732   8.951   1.687   4.567 -0.1268 -0.6882  0.0448
 1268SOL    HW114733   8.902   1.761   4.520 -1.6505 -1.9536 -0.3831
 1268SOL    HW214734   8.991   1.625   4.499  1.1051 -0.3063  0.4046
 1269SOL     OW14735   8.024   9.908   0.789 -0.2548 -0.4966  0.5927
 1269SOL    HW114736   8.094   9.921   0.859  0.3523 -0.1056 -0.0768
 1269SOL    HW214737   7.939   9.949   0.820  0.0871 -0.0703  0.9842
 1270SOL     OW14738   7.920   7.960   2.292  0.4995  0.0762  0.1530
 1270SOL    HW114739   7.876   7.931   2.377  0.5923  1.8106  0.8004
 1270SOL    HW214740   7.999   7.902   2.274  0.2678 -0.5309  1.0444
 1271SOL     OW14741   7.123   0.135   1.688  0.1208 -0.4489 -0.1003
 1271SOL    HW114742   7.167   0.211   1.642 -1.9401 -1.4306 -3.9004
 1271SOL    HW214743   7.041   0.168   1.735  0.7741  0.1183  0.6561
 1272SOL     OW14744   6.756   8.470   3.133 -0.3763  0.3361 -0.0332
 1272SOL    HW114745   6.763   8.534   3.209 -1.9631 -0.6129  0.9315
 1272SOL    HW214746   6.754   8.376   3.168 -0.2476 -0.1536 -1.2941
 1273SOL     OW14747   6.244   0.128   3.063  0.3062  0.3947 -0.1045
 1273SOL    HW114748   6.267   0.170   3.152 -0.8114  2.2983 -0.6799
 1273SOL    HW214749   6.317   0.066   3.036  0.9073  0.1774  1.9183
 1274SOL     OW14750   0.699   4.283   3.809  0.1376  0.2230  0.2660
 1274SOL    HW114751   0.634   4.328   3.748  0.4745 -1.3197 -1.2939
 1274SOL    HW214752   0.792   4.311   3.785  0.2709 -0.3769  0.0735
 1275SOL     OW14753   9.084   7.766   2.855  0.6064 -0.4162 -0.2696
 1275SOL    HW114754   9.171   7.726   2.887  0.6763  0.3629  0.5327
 1275SOL    HW214755   9.013   7.695   2.855  1.4269 -1.2664 -1.7375
 1276SOL     OW14756   2.606   0.013   5.554 -0.3754 -0.3992  0.4625
 1276SOL    HW114757   2.682   0.050   5.502  0.0240 -2.1443 -0.2184
 1276SOL    HW214758   2.526   0.005   5.495 -1.0208  1.1443  1.0971
 1277SOL     OW14759   1.892   4.931   0.841 -0.1334  0.4690  0.3354
 1277SOL    HW114760   1.830   5.001   0.806 -1.0243  0.3492  1.6319
 1277SOL    HW214761   1.841   4.870   0.902  0.6157 -1.3096 -0.7714
 1278SOL     OW14762   0.028   6.143   0.535 -0.4329 -0.1329  0.5362
 1278SOL    HW114763   0.092   6.113   0.605  0.2665  0.9562  0.3780
 1278SOL    HW214764  -0.065   6.118   0.562 -0.1222 -0.1080  1.6445
 1279SOL     OW14765   9.557   8.262   1.663 -0.1158  0.4857  0.2340
 1279SOL    HW114766   9.503   8.271   1.580 -0.3813 -0.4318  0.3059
 1279SOL    HW214767   9.654   8.259   1.639 -0.2864 -2.8833 -0.3531
 1280SOL     OW14768   0.316   5.276   1.402 -0.1621 -0.0015 -0.0681
 1280SOL    HW114769   0.294   5.362   1.448  1.9045  0.9343 -0.7472
 1280SOL    HW214770   0.287   5.200   1.459  1.7226  1.1374  2.5343
 1281SOL     OW14771   7.673   3.816   0.300  0.1451  0.5334 -0.0884
 1281SOL    HW114772   7.672   3.819   0.200 -0.2532  0.7276 -0.0806
 1281SOL    HW214773   7.580   3.835   0.335  0.0226 -0.7307  0.2809
 1282SOL     OW14774   0.989   2.178   3.528  0.1884  0.3225  0.0464
 1282SOL    HW114775   0.989   2.231   3.443 -0.7252 -1.4267 -1.0672
 1282SOL    HW214776   1.078   2.133   3.540 -0.4089 -1.2248 -1.1540
 1283SOL     OW14777   7.092   8.572   2.317  0.1346 -0.2307  0.2861
 1283SOL    HW114778   7.129   8.665   2.323 -2.1177  0.8858 -2.2345
 1283SOL    HW214779   7.129   8.527   2.236 -0.4056 -0.8028  0.3598
 1284SOL     OW14780   2.200   4.940   5.157  0.1149  0.5707 -0.4368
 1284SOL    HW114781   2.209   5.040   5.160 -0.8593  0.6265  1.8803
 1284SOL    HW214782   2.104   4.916   5.149  0.2486 -0.2025  0.2765
 1285SOL     OW14783   4.976   9.388   4.929  0.1987 -0.0793 -0.3539
 1285SOL    HW114784   5.039   9.396   4.852  0.2051  0.4398 -0.2901
 1285SOL    HW214785   5.024   9.350   5.008 -0.5036 -3.5338 -1.4873
 1286SOL     OW14786   8.049   1.088   3.933 -0.4416 -0.2879 -0.0153
 1286SOL    HW114787   8.058   1.181   3.967 -1.1456 -0.1040 -0.3357
 1286SOL    HW214788   7.953   1.069   3.912 -0.3005 -1.0845  0.0552
 1287SOL     OW14789   4.674   2.418   4.093 -0.0384 -0.1213  0.6649
 1287SOL    HW114790   4.615   2.480   4.040  1.2334 -0.2938 -0.9929
 1287SOL    HW214791   4.709   2.466   4.174  1.0345  1.4154 -0.6728
 1288SOL     OW14792   0.875   4.493   5.600 -0.3598  0.1175  0.2315
 1288SOL    HW114793   0.947   4.559   5.577 -2.7441  1.6683 -3.3894
 1288SOL    HW214794   0.810   4.535   5.663 -0.1553  0.1208  0.4376
 1289SOL     OW14795   2.152   2.739   2.216  0.3507  0.2835  0.2209
 1289SOL    HW114796   2.206   2.720   2.298  0.6239  0.3114  0.0473
 1289SOL    HW214797   2.102   2.657   2.189  1.0064  0.0053 -0.1377
 1290SOL     OW14798   3.420   5.633   4.929 -0.4711 -0.2628  0.4062
 1290SOL    HW114799   3.452   5.605   5.020 -0.2276  0.4555  0.5474
 1290SOL    HW214800   3.340   5.580   4.904 -0.5247 -0.4835  1.0355
 1291SOL     OW14801   4.346   0.352   1.591 -0.2397  0.2572  0.3208
 1291SOL    HW114802   4.340   0.448   1.563 -1.7688  0.0189 -0.1989
 1291SOL    HW214803   4.373   0.296   1.513  0.1752  0.1953  0.5063
 1292SOL     OW14804   2.536   8.576   0.869 -0.1874 -0.3419  0.2464
 1292SOL    HW114805   2.532   8.634   0.788  0.2133  0.4486  0.7889
 1292SOL    HW214806   2.484   8.492   0.853  1.6988 -1.1772 -1.6288
 1293SOL     OW14807   6.599   7.838   2.939 -0.6885 -0.0126  0.1920
 1293SOL    HW114808   6.613   7.919   2.996  0.6764 -1.0835  1.4301
 1293SOL    HW214809   6.501   7.822   2.926 -0.9982  0.8636  1.3532
 1294SOL     OW14810   1.932   7.350   3.315 -0.5467  0.1094 -0.1203
 1294SOL    HW114811   1.933   7.435   3.263 -1.7943  0.9919  1.2861
 1294SOL    HW214812   1.849   7.298   3.291 -0.7069  0.1365  0.3760
 1295SOL     OW14813   4.113   7.621   1.595  0.2041 -0.3951 -0.3508
 1295SOL    HW114814   4.139   7.546   1.656 -0.2853 -0.3573 -0.0971
 1295SOL    HW214815   4.015   7.616   1.575 -0.2600  1.4227  1.3616
 1296SOL     OW14816   0.204   1.904   0.856  0.0047  0.5254 -0.0006
 1296SOL    HW114817   0.116   1.910   0.809 -0.7164  1.5435  1.4516
 1296SOL    HW214818   0.251   1.992   0.849  1.5557 -0.4060 -1.9590
 1297SOL     OW14819   3.030   6.251   4.522  0.6299  0.0113 -0.4433
 1297SOL    HW114820   3.011   6.155   4.500 -2.4988  0.9941 -2.4485
 1297SOL    HW214821   3.027   6.263   4.621  0.0649 -1.7767 -0.2169
 1298SOL     OW14822   2.983   1.293   4.995 -0.1418 -0.1674  0.8711
 1298SOL    HW114823   2.955   1.386   4.970 -0.2785 -1.1293 -2.8490
 1298SOL    HW214824   3.059   1.298   5.060 -0.4007  2.5422  1.0384
 1299SOL     OW14825   9.206   8.080   3.493  0.5480 -0.3583  0.2421
 1299SOL    HW114826   9.204   8.134   3.409 -0.9376 -0.5244  0.1502
 1299SOL    HW214827   9.218   8.141   3.571 -1.6723  0.2009  0.1849
 1300SOL     OW14828   4.030   1.395   0.543  0.9352 -0.4184  0.0720
 1300SOL    HW114829   4.035   1.417   0.445 -0.0002  0.2247  0.1570
 1300SOL    HW214830   3.956   1.448   0.585  1.5594 -0.4312  1.2000
 1301SOL     OW14831   1.190   9.756   1.948 -0.1725 -0.1449  0.0504
 1301SOL    HW114832   1.201   9.836   2.006  0.1051 -1.3832  1.7293
 1301SOL    HW214833   1.111   9.770   1.888  0.7974  2.0104 -0.7846
 1302SOL     OW14834   6.974   7.750   3.217 -0.3645  0.1196 -0.5985
 1302SOL    HW114835   6.880   7.735   3.186 -0.4393 -1.0412  0.1471
 1302SOL    HW214836   7.030   7.777   3.139 -0.3495 -3.6993 -2.0432
 1303SOL     OW14837   5.623   9.938   2.692  0.3972  0.1352 -0.2304
 1303SOL    HW114838   5.585   9.928   2.784  0.1780 -0.5485 -0.3895
 1303SOL    HW214839   5.692  10.009   2.691  1.1562 -0.5813  0.6975
 1304SOL     OW14840   0.661   9.383   3.372  0.0808 -0.6194 -0.1158
 1304SOL    HW114841   0.584   9.403   3.312 -0.2913 -0.3028  0.4620
 1304SOL    HW214842   0.745   9.418   3.331 -0.1225 -0.6977 -0.6050
 1305SOL     OW14843   5.164   3.278   1.818 -0.0045  0.3794 -0.0252
 1305SOL    HW114844   5.196   3.243   1.906 -0.6977 -2.4508 -0.8704
 1305SOL    HW214845   5.242   3.284   1.754  0.1668  0.7118  0.2109
 1306SOL     OW14846   5.154   9.206   2.605  0.0287 -0.1107 -0.4665
 1306SOL    HW114847   5.079   9.271   2.612  0.6955  0.9847 -2.9872
 1306SOL    HW214848   5.206   9.223   2.521  0.9412 -3.1273 -0.5825
 1307SOL     OW14849   4.082   2.521   2.454  0.1962 -0.1343 -0.5689
 1307SOL    HW114850   4.046   2.609   2.424 -0.8976 -0.1061  0.7599
 1307SOL    HW214851   4.157   2.534   2.519 -0.3732 -0.1698  0.1028
 1308SOL     OW14852   0.424   8.764   5.549  0.2722 -0.0954  0.4096
 1308SOL    HW114853   0.512   8.755   5.503 -0.2516  2.2731 -1.1620
 1308SOL    HW214854   0.353   8.715   5.497  0.2837 -0.2165  0.5079
 1309SOL     OW14855   2.978   4.395   0.350  0.1621 -0.2774  0.7478
 1309SOL    HW114856   2.953   4.449   0.269  0.6994  0.1650  0.8799
 1309SOL    HW214857   3.077   4.386   0.354  0.0928 -0.9359  0.9482
 1310SOL     OW14858   7.655   9.688   3.618 -0.2016  0.4211 -0.5306
 1310SOL    HW114859   7.748   9.656   3.638  0.3304  1.4332 -1.3539
 1310SOL    HW214860   7.642   9.778   3.659 -0.7273  0.4044 -0.6607
 1311SOL     OW14861   7.986   1.200   2.745  0.1762 -0.5607  0.7361
 1311SOL    HW114862   7.908   1.138   2.740  0.0114 -0.2612 -0.6225
 1311SOL    HW214863   8.061   1.155   2.794 -0.7290 -0.9675  1.7663
 1312SOL     OW14864   4.286   2.875   5.248 -0.0980  0.5708  0.3932
 1312SOL    HW114865   4.225   2.935   5.196  1.3314  0.3223 -1.6657
 1312SOL    HW214866   4.362   2.929   5.285  0.2808  0.3297 -0.0208
 1313SOL     OW14867   2.452   4.095   1.647  0.1621  0.1667  0.1714
 1313SOL    HW114868   2.408   4.169   1.596 -0.0385 -0.2200 -0.2208
 1313SOL    HW214869   2.551   4.099   1.632  0.0781 -0.1071 -0.4673
 1314SOL     OW14870   1.916   8.870   3.004  0.2902  0.2091 -0.0214
 1314SOL    HW114871   1.959   8.780   2.996 -0.6706 -0.2332 -0.2528
 1314SOL    HW214872   1.928   8.920   2.918 -0.4224 -0.2535 -0.3908
 1315SOL     OW14873   2.059   5.663   0.686 -0.8445 -0.2368  0.5798
 1315SOL    HW114874   2.050   5.756   0.650  1.3541  0.7297  2.3948
 1315SOL    HW214875   2.060   5.667   0.786 -0.0912 -2.1661  0.6552
 1316SOL     OW14876   0.785   4.123   4.029  0.0664 -0.3522 -0.1676
 1316SOL    HW114877   0.755   4.033   3.997 -1.0513  0.2202 -0.7551
 1316SOL    HW214878   0.772   4.190   3.957  1.3457  0.2014  0.1096
 1317SOL     OW14879   6.649   0.184   5.040  0.6034  0.3134 -0.0999
 1317SOL    HW114880   6.634   0.161   5.136  0.7909  0.8424  0.0585
 1317SOL    HW214881   6.649   0.283   5.030  2.6743  0.3040 -0.3019
 1318SOL     OW14882   3.489   6.383   2.100 -0.2822  0.2335 -0.4076
 1318SOL    HW114883   3.586   6.391   2.077 -0.2117  1.0529  0.1439
 1318SOL    HW214884   3.453   6.297   2.064  0.5161  0.1734 -1.0778
 1319SOL     OW14885   1.533   2.437   5.363 -0.3673  0.0415  0.5988
 1319SOL    HW114886   1.625   2.402   5.379 -0.6169 -0.3537  1.2022
 1319SOL    HW214887   1.526   2.531   5.398 -0.3661 -0.1426  1.0898
 1320SOL     OW14888   9.987   0.047   1.427  0.1149  0.6063 -1.4110
 1320SOL    HW114889  10.019  -0.048   1.421 -0.5121  0.3479 -0.7270
 1320SOL    HW214890   9.887   0.049   1.414  0.3064  1.3345 -2.8676
 1321SOL     OW14891   1.457   0.049   2.059  0.1827  0.1305 -0.3512
 1321SOL    HW114892   1.510  -0.000   1.991 -0.3522  3.0993 -3.0293
 1321SOL    HW214893   1.367   0.006   2.070 -0.7011  1.0855 -3.4601
 1322SOL     OW14894   4.417   5.256   0.745 -0.5684 -0.2646 -0.6075
 1322SOL    HW114895   4.428   5.355   0.747 -0.3134 -0.3006  0.3345
 1322SOL    HW214896   4.475   5.217   0.674 -0.7523  0.2648 -1.0548
 1323SOL     OW14897   8.317   2.857   3.134  0.0962 -0.1950 -0.5169
 1323SOL    HW114898   8.398   2.803   3.108 -1.0814 -1.8142 -0.8902
 1323SOL    HW214899   8.327   2.887   3.229  1.0099 -0.6086 -0.4711
 1324SOL     OW14900   7.725   5.899   3.846 -0.2629  0.3509  0.1326
 1324SOL    HW114901   7.639   5.882   3.893 -0.4398 -1.1847 -0.7001
 1324SOL    HW214902   7.769   5.811   3.826  1.6721  1.1195  0.8717
 1325SOL     OW14903   4.490   8.467   5.243  0.2186  0.1739 -0.4304
 1325SOL    HW114904   4.581   8.491   5.208  0.4605  0.4999  0.4046
 1325SOL    HW214905   4.444   8.408   5.177  0.7302  0.6340 -1.2238
 1326SOL     OW14906   8.171   5.614   0.745 -0.1150  0.9453  0.3242
 1326SOL    HW114907   8.175   5.548   0.819  2.7127 -0.5639 -1.0998
 1326SOL    HW214908   8.118   5.576   0.669  0.5001  0.8068 -0.0348
 1327SOL     OW14909   3.587   5.467   1.210 -0.1892 -0.0522 -0.2605
 1327SOL    HW114910   3.518   5.529   1.247  0.5989 -0.1987  1.5321
 1327SOL    HW214911   3.667   5.520   1.181  0.4550 -0.1747  1.2046
 1328SOL     OW14912   5.673   0.246   1.527  0.0567 -0.4762  0.2250
 1328SOL    HW114913   5.631   0.309   1.462 -0.3815  0.3381  1.2848
 1328SOL    HW214914   5.620   0.162   1.531 -0.0953 -0.4037 -0.2420
 1329SOL     OW14915   7.555   9.477   0.475  0.2864  0.3232  0.3215
 1329SOL    HW114916   7.529   9.432   0.560 -0.8208  0.7151  0.2037
 1329SOL    HW214917   7.586   9.408   0.409 -1.5916 -0.3258  0.0748
 1330SOL     OW14918   1.842   0.280   1.168 -0.0239 -0.3116  0.2326
 1330SOL    HW114919   1.743   0.272   1.180 -0.3320 -0.1872 -2.0058
 1330SOL    HW214920   1.875   0.207   1.108  0.7909  1.2490 -1.2755
 1331SOL     OW14921   9.283   8.363   3.960  0.0242  0.3545  0.3795
 1331SOL    HW114922   9.215   8.323   4.020 -0.3748 -1.2216 -1.0688
 1331SOL    HW214923   9.375   8.338   3.991 -0.0917  1.1029  1.3700
 1332SOL     OW14924   2.816   4.456   4.107 -0.1106  0.1219  0.4236
 1332SOL    HW114925   2.816   4.372   4.160  0.9624 -0.4768 -0.5128
 1332SOL    HW214926   2.847   4.437   4.014 -0.0737  1.5121  0.1421
 1333SOL     OW14927   0.430   1.059   4.158  0.5221 -0.4347 -0.3326
 1333SOL    HW114928   0.524   1.038   4.184  0.2131 -0.9190  0.4196
 1333SOL    HW214929   0.414   1.027   4.064  1.1199 -0.3018 -0.4827
 1334SOL     OW14930   1.474   0.652   4.882  0.2112  0.7511  0.1076
 1334SOL    HW114931   1.489   0.743   4.842  0.0193  0.6038 -0.3020
 1334SOL    HW214932   1.489   0.582   4.812 -0.7316  0.5195  0.1225
 1335SOL     OW14933   8.063   6.511   2.666  0.2739 -0.6712 -0.0732
 1335SOL    HW114934   8.069   6.586   2.732  0.9715 -0.0357 -0.8457
 1335SOL    HW214935   7.984   6.453   2.688 -1.1194  1.0982 -0.3075
 1336SOL     OW14936   6.537   9.313   2.216 -0.1734 -0.1218 -0.3667
 1336SOL    HW114937   6.564   9.221   2.243 -1.5425 -0.1155  1.0864
 1336SOL    HW214938   6.455   9.340   2.266 -0.2424  1.5915 -1.3562
 1337SOL     OW14939   2.132   8.671   3.948  0.0217 -0.1027 -0.3096
 1337SOL    HW114940   2.145   8.575   3.927 -0.3547 -0.1486 -0.3406
 1337SOL    HW214941   2.151   8.687   4.045 -1.4673 -0.5122  0.0691
 1338SOL     OW14942   0.210   4.114   1.700 -0.1826 -0.3722 -0.3447
 1338SOL    HW114943   0.121   4.095   1.660 -0.0654 -1.1888 -0.2349
 1338SOL    HW214944   0.275   4.135   1.628 -0.3097 -0.4345 -0.4781
 1339SOL     OW14945   9.547   5.373   1.157 -0.2525 -0.5069  0.3035
 1339SOL    HW114946   9.541   5.462   1.202 -2.1713 -0.0539 -0.7756
 1339SOL    HW214947   9.521   5.383   1.061  1.4387 -1.8937 -0.3261
 1340SOL     OW14948   4.045   0.886   0.790  0.2000 -0.0220  0.1358
 1340SOL    HW114949   4.121   0.925   0.842 -1.6878  1.7317  1.7165
 1340SOL    HW214950   4.007   0.956   0.729 -0.0653 -0.9053 -0.7158
 1341SOL     OW14951   9.197   0.864   4.173  0.0852 -0.1565  0.5037
 1341SOL    HW114952   9.283   0.822   4.204  0.4888  0.7821  0.6667
 1341SOL    HW214953   9.127   0.852   4.243  0.6355  0.8168  1.2301
 1342SOL     OW14954   9.792   2.556   5.513  0.1989  0.4135 -0.6179
 1342SOL    HW114955   9.810   2.639   5.461  0.1375  0.5663 -0.3906
 1342SOL    HW214956   9.869   2.493   5.501  0.7043  0.9079  0.0303
 1343SOL     OW14957   1.053   8.764   0.347  0.3958  0.1452  0.7803
 1343SOL    HW114958   0.968   8.792   0.303 -1.6881 -2.1602  3.1349
 1343SOL    HW214959   1.123   8.749   0.278 -1.7050  0.1576 -1.4202
 1344SOL     OW14960   6.861   0.620   5.487  0.2560  0.3366 -0.1880
 1344SOL    HW114961   6.899   0.673   5.563  1.6948  1.3008 -1.5458
 1344SOL    HW214962   6.933   0.564   5.445 -0.9287 -1.6177  0.3045
 1345SOL     OW14963   1.573   3.634   2.727  0.7027 -0.2003  0.2119
 1345SOL    HW114964   1.646   3.667   2.785  2.2025 -1.9261 -0.6134
 1345SOL    HW214965   1.528   3.555   2.770  0.7474 -0.4668 -0.2143
 1346SOL     OW14966   3.266   3.007   2.094  0.0286  0.2330 -0.0559
 1346SOL    HW114967   3.170   2.981   2.096  0.1501 -0.2446 -0.4134
 1346SOL    HW214968   3.319   2.946   2.152  0.4616 -0.9615 -1.6600
 1347SOL     OW14969   9.229   6.461   1.180  0.2687  0.5144  0.3092
 1347SOL    HW114970   9.172   6.472   1.262 -2.7663 -1.2387 -1.4522
 1347SOL    HW214971   9.209   6.535   1.116 -0.6327 -0.5176 -0.6254
 1348SOL     OW14972   8.571   4.425   1.876 -0.2024 -0.4717  0.1903
 1348SOL    HW114973   8.522   4.338   1.874  0.3909 -0.8005 -0.3899
 1348SOL    HW214974   8.665   4.410   1.906 -0.5215  0.1931  1.5713
 1349SOL     OW14975   2.103   7.414   3.880 -0.1340  0.3743 -0.0370
 1349SOL    HW114976   2.005   7.416   3.865 -0.2780 -1.8019  0.5558
 1349SOL    HW214977   2.150   7.389   3.796 -0.2369 -0.8813  0.2773
 1350SOL     OW14978   8.527   7.156   3.804 -0.6520  0.0455 -0.0025
 1350SOL    HW114979   8.439   7.160   3.851  0.1106 -1.2688  1.5701
 1350SOL    HW214980   8.542   7.242   3.755 -2.9915  0.1247 -0.6555
 1351SOL     OW14981   0.790   4.412   1.876  1.2909 -0.0904 -0.0239
 1351SOL    HW114982   0.730   4.365   1.940  1.5971 -1.8882 -1.0131
 1351SOL    HW214983   0.870   4.447   1.924  0.6452  0.1748  0.8725
 1352SOL     OW14984   0.161   8.517   1.008  0.1051  0.1400 -0.2210
 1352SOL    HW114985   0.221   8.597   1.017 -0.0026  0.0038  1.9372
 1352SOL    HW214986   0.096   8.515   1.084 -0.8118 -1.2544 -1.0133
 1353SOL     OW14987   4.362   9.877   5.509  0.2894  0.3475 -0.8110
 1353SOL    HW114988   4.333   9.851   5.417  1.2827  0.4114 -1.1400
 1353SOL    HW214989   4.301   9.949   5.544 -0.2191  0.1725 -1.3261
 1354SOL     OW14990   2.551   4.156   0.745 -0.4222 -0.0491 -0.5330
 1354SOL    HW114991   2.466   4.114   0.713 -1.2496  0.6526  0.7077
 1354SOL    HW214992   2.540   4.255   0.748 -0.0487 -0.0436  1.0024
 1355SOL     OW14993   8.658   6.853   3.782 -0.3695  0.3975  0.1529
 1355SOL    HW114994   8.651   6.756   3.802  0.6878  0.0235 -1.1940
 1355SOL    HW214995   8.581   6.902   3.823 -2.2493 -1.3380 -1.2397
 1356SOL     OW14996   9.332   5.819   4.067  0.5322  0.4246 -0.4870
 1356SOL    HW114997   9.286   5.780   4.146 -0.0151  1.8806 -0.0701
 1356SOL    HW214998   9.274   5.810   3.986  0.6993 -0.2381 -0.5336
 1357SOL     OW14999   0.957   5.842   3.914 -0.0545 -0.5440  0.0645
 1357SOL    HW115000   0.998   5.917   3.965  0.8818 -0.2720 -1.0629
 1357SOL    HW215001   0.922   5.773   3.977 -0.9250  0.8437  1.1013
 1358SOL     OW15002   4.757   1.710   3.630 -0.2180  0.9534  0.3019
 1358SOL    HW115003   4.664   1.674   3.637  0.2969 -0.3649  0.7262
 1358SOL    HW215004   4.756   1.798   3.583 -1.5271  0.3042 -0.9295
 1359SOL     OW15005   1.310   9.239   0.288 -0.3929 -0.3048  0.4942
 1359SOL    HW115006   1.301   9.282   0.199  0.4969  2.3940  1.6272
 1359SOL    HW215007   1.402   9.199   0.296 -0.2783 -0.0695  0.3763
 1360SOL     OW15008   2.663   7.914   4.810 -0.3302 -0.3367 -0.1640
 1360SOL    HW115009   2.731   7.926   4.882  1.9087  1.8556 -2.5592
 1360SOL    HW215010   2.612   7.999   4.798 -1.2901 -0.9646 -0.5975
 1361SOL     OW15011   9.948   9.457   0.037  0.0865  0.1852 -0.8235
 1361SOL    HW115012   9.960   9.386   0.107  0.3948  0.2815 -0.7777
 1361SOL    HW215013  10.036   9.503   0.021 -0.6305  2.3599  1.0819
 1362SOL     OW15014   9.224   4.808   0.351  0.6872  0.0082 -0.1815
 1362SOL    HW115015   9.286   4.739   0.387 -0.7167  0.2836  2.9413
 1362SOL    HW215016   9.197   4.871   0.425 -2.0747  0.8118 -1.7954
 1363SOL     OW15017   7.977   9.019   0.842 -0.3304  0.1369  0.1342
 1363SOL    HW115018   7.904   9.086   0.827  0.3999  0.9008 -0.0899
 1363SOL    HW215019   7.969   8.945   0.775 -1.3928 -0.2238  0.6474
 1364SOL     OW15020   0.698   2.997   4.166 -0.4433 -0.7746  0.2898
 1364SOL    HW115021   0.634   3.022   4.094 -0.9478 -1.0080  0.6528
 1364SOL    HW215022   0.657   2.925   4.223  0.1039 -0.8599  0.5765
 1365SOL     OW15023   3.254   0.869   1.021  0.3865 -0.4338  0.3602
 1365SOL    HW115024   3.254   0.845   1.118 -0.4336 -1.3109  0.1484
 1365SOL    HW215025   3.316   0.809   0.971  0.8876  0.0847  0.3519
 1366SOL     OW15026   0.726   6.907   1.188 -0.5605 -0.0830 -0.1461
 1366SOL    HW115027   0.638   6.906   1.141 -2.0103 -1.4279  2.5054
 1366SOL    HW215028   0.750   7.001   1.212 -1.0271  0.3360 -1.2947
 1367SOL     OW15029   0.789   0.596   1.189 -0.3617 -0.6372  0.3960
 1367SOL    HW115030   0.785   0.516   1.129  0.8362 -0.6518  0.3297
 1367SOL    HW215031   0.856   0.580   1.261 -0.5739  0.0602  0.7508
 1368SOL     OW15032   2.384   3.369   1.187 -0.4884 -0.2025  0.1911
 1368SOL    HW115033   2.426   3.459   1.192 -0.5537 -0.0939 -1.1292
 1368SOL    HW215034   2.454   3.298   1.192 -0.2801 -0.0465 -0.4872
 1369SOL     OW15035   1.669   0.945   3.372  0.6525  0.0600 -0.5035
 1369SOL    HW115036   1.633   1.035   3.395 -2.1497 -0.5325 -2.3787
 1369SOL    HW215037   1.689   0.895   3.457  0.5569  1.7629  0.5457
 1370SOL     OW15038   8.805   3.109   0.947  0.1263 -0.4175  0.1662
 1370SOL    HW115039   8.782   3.047   1.022  1.0729  1.0489  1.7172
 1370SOL    HW215040   8.721   3.135   0.899 -0.2392 -3.1336 -0.7506
 1371SOL     OW15041   1.675   8.510   3.108  0.4733 -0.7994  0.0988
 1371SOL    HW115042   1.669   8.432   3.046  0.1392 -2.0725  1.6844
 1371SOL    HW215043   1.753   8.497   3.171  1.0774  0.6728 -0.3236
 1372SOL     OW15044   8.873   9.525   2.734 -0.1243  0.4387  0.6442
 1372SOL    HW115045   8.802   9.566   2.791 -0.9644 -0.7553  0.4771
 1372SOL    HW215046   8.835   9.447   2.685  0.9702  0.5774 -0.4468
 1373SOL     OW15047   8.552   3.343   5.205  0.3844 -0.4065 -0.5039
 1373SOL    HW115048   8.489   3.416   5.178 -1.4335 -1.5311  0.6176
 1373SOL    HW215049   8.618   3.327   5.131 -1.5406 -0.1867 -2.3247
 1374SOL     OW15050   9.696   5.522   5.431  0.4622  0.0810  0.0886
 1374SOL    HW115051   9.684   5.516   5.332 -1.6977  0.7983  0.2817
 1374SOL    HW215052   9.646   5.601   5.466  1.3348 -0.0764  1.7342
 1375SOL     OW15053   3.481   0.243   4.430  0.4672 -0.0110 -0.6402
 1375SOL    HW115054   3.474   0.151   4.393  0.8670  0.0227 -0.8037
 1375SOL    HW215055   3.569   0.284   4.403  0.0443  0.6304 -1.0653
 1376SOL     OW15056   2.324   7.692   0.719 -0.4057  0.1989  0.3097
 1376SOL    HW115057   2.227   7.678   0.699 -0.4023  2.0818 -1.0929
 1376SOL    HW215058   2.376   7.694   0.634  0.6008  1.1154  0.9345
 1377SOL     OW15059   8.495   6.490   1.043 -0.0169  0.0864  0.1471
 1377SOL    HW115060   8.430   6.541   0.987 -0.1493  0.5344  0.7056
 1377SOL    HW215061   8.542   6.553   1.104  1.3683 -0.1461 -0.6672
 1378SOL     OW15062   8.657   0.917   1.799 -0.1560 -0.3101  0.4103
 1378SOL    HW115063   8.674   0.819   1.811 -1.5048 -0.6234 -0.1565
 1378SOL    HW215064   8.717   0.969   1.860  1.3064 -1.4405 -0.0226
 1379SOL     OW15065   1.744   9.995   3.546 -0.2268 -0.2953 -0.1311
 1379SOL    HW115066   1.692  10.044   3.475  1.0493 -0.5720 -1.2781
 1379SOL    HW215067   1.689   9.919   3.580 -0.5969 -0.5772 -1.3219
 1380SOL     OW15068   4.607   8.208   2.053 -0.2556 -0.1111 -0.2940
 1380SOL    HW115069   4.592   8.207   2.152  0.3278  0.2210 -0.1990
 1380SOL    HW215070   4.672   8.281   2.030 -1.0523  0.3721 -1.0236
 1381SOL     OW15071   2.109   3.805   0.483  0.0009 -0.6006 -0.3314
 1381SOL    HW115072   2.197   3.795   0.530 -0.5642  0.3157  0.9305
 1381SOL    HW215073   2.054   3.722   0.496 -0.3086 -0.2024  0.9641
 1382SOL     OW15074   0.505   1.892   4.146 -0.2173 -0.5031 -0.5480
 1382SOL    HW115075   0.585   1.875   4.202 -0.4508  3.8895  1.3646
 1382SOL    HW215076   0.423   1.894   4.204 -1.1577 -0.7746 -1.8330
 1383SOL     OW15077   9.880   8.591   0.293  0.4367  0.1500 -0.1686
 1383SOL    HW115078   9.799   8.579   0.351 -0.5348  1.8849 -1.1294
 1383SOL    HW215079   9.873   8.530   0.215  1.8348 -2.3239  1.5655
 1384SOL     OW15080   9.514   3.477   5.024 -0.0702 -0.2690 -0.3907
 1384SOL    HW115081   9.562   3.532   5.092 -0.5940 -0.4395  0.1235
 1384SOL    HW215082   9.568   3.472   4.940 -0.3152  1.6061 -0.6910
 1385SOL     OW15083   4.750   1.501   2.735  0.6248 -0.5709  0.0427
 1385SOL    HW115084   4.704   1.424   2.778  0.9515 -0.6418  0.2627
 1385SOL    HW215085   4.839   1.516   2.778  0.5879 -0.1068 -0.0374
 1386SOL     OW15086   9.672   2.590   0.589 -0.4132 -0.0259 -0.7165
 1386SOL    HW115087   9.646   2.507   0.639  2.1242 -1.0347 -0.9865
 1386SOL    HW215088   9.654   2.578   0.492 -0.1855 -0.2136 -0.7362
 1387SOL     OW15089   8.150   1.452   3.222  0.0848 -0.5652  0.0038
 1387SOL    HW115090   8.248   1.472   3.232 -0.0677  0.7877 -0.9407
 1387SOL    HW215091   8.119   1.396   3.298  1.1757  0.6329  1.3650
 1388SOL     OW15092   3.059   4.447   5.604  0.2600  0.7114 -0.2427
 1388SOL    HW115093   2.989   4.469   5.673  1.6887 -0.7875  1.7595
 1388SOL    HW215094   3.018   4.393   5.531 -1.0724  1.4462 -0.0608
 1389SOL     OW15095   8.373   0.933   4.631 -0.2584  0.3467 -0.4409
 1389SOL    HW115096   8.332   0.982   4.555 -0.3022  0.2225 -0.4971
 1389SOL    HW215097   8.416   0.849   4.598 -0.5554  0.1300 -0.2856
 1390SOL     OW15098   4.534   4.138   0.688  0.5037  0.2746  0.3640
 1390SOL    HW115099   4.503   4.194   0.611 -0.3537  1.8914  1.8461
 1390SOL    HW215100   4.461   4.075   0.715  1.0850 -0.8338 -0.6285
 1391SOL     OW15101   3.303   3.974   0.026 -0.9861  0.2089  0.2774
 1391SOL    HW115102   3.242   4.051   0.046  0.4341  0.9257  2.0279
 1391SOL    HW215103   3.386   4.009  -0.019  0.1930 -0.1232  2.1731
 1392SOL     OW15104   6.830   8.554   4.292 -0.6769 -0.2391 -0.4837
 1392SOL    HW115105   6.921   8.521   4.268 -0.3464  0.7362 -0.5999
 1392SOL    HW215106   6.761   8.495   4.250 -0.1159 -1.9009  0.8941
 1393SOL     OW15107   7.897   6.552   0.122  0.5269  0.7794 -0.2417
 1393SOL    HW115108   7.997   6.542   0.119  0.5368  0.2353  1.4476
 1393SOL    HW215109   7.872   6.613   0.197 -0.4639  0.0027  0.0750
 1394SOL     OW15110   0.938   8.684   2.357 -0.0461  0.1044  0.1762
 1394SOL    HW115111   0.986   8.636   2.284 -0.4066 -0.5266  0.3453
 1394SOL    HW215112   0.985   8.769   2.378 -0.4751  0.7584 -1.4450
 1395SOL     OW15113   2.728   7.275   2.174 -0.0968 -0.0699  0.4214
 1395SOL    HW115114   2.723   7.319   2.264  1.1619  0.7875  0.0925
 1395SOL    HW215115   2.662   7.318   2.113 -0.7741 -0.4791  0.8570
 1396SOL     OW15116   0.514   2.310   4.678 -0.1497 -0.0764 -0.3064
 1396SOL    HW115117   0.517   2.286   4.581  0.5865 -0.0797 -0.2814
 1396SOL    HW215118   0.518   2.226   4.732 -0.4608 -0.0676 -0.2660
 1397SOL     OW15119   2.552   0.437   5.244 -0.0298 -0.6336 -0.3661
 1397SOL    HW115120   2.475   0.398   5.294  0.4371 -1.3847 -0.2242
 1397SOL    HW215121   2.563   0.533   5.269 -0.8704 -0.5480 -0.3268
 1398SOL     OW15122   9.308   5.331   4.707  0.5091 -0.2807 -0.1973
 1398SOL    HW115123   9.357   5.245   4.720  3.1256  1.2477  0.5034
 1398SOL    HW215124   9.298   5.349   4.609  0.2463 -1.2131 -0.3467
 1399SOL     OW15125   7.877   1.804   3.972 -0.0319 -1.4205  0.0615
 1399SOL    HW115126   7.865   1.888   3.920  0.6206 -2.6464 -2.1578
 1399SOL    HW215127   7.966   1.806   4.018 -1.0016  0.0606  1.9182
 1400SOL     OW15128   1.885   3.265   4.083 -0.3816 -0.2434 -0.4783
 1400SOL    HW115129   1.823   3.296   4.011 -0.0264  0.5788 -0.4368
 1400SOL    HW215130   1.832   3.220   4.155 -0.7326 -1.1282 -1.2683
 1401SOL     OW15131   5.473   1.160   4.248 -0.4844 -0.3676 -0.2270
 1401SOL    HW115132   5.567   1.149   4.279 -1.0604  0.1441  1.7534
 1401SOL    HW215133   5.418   1.083   4.280 -0.8637 -0.3746 -0.8930
 1402SOL     OW15134   3.267   7.136   0.230 -0.0424 -0.6332  0.2178
 1402SOL    HW115135   3.245   7.114   0.325 -0.9761  0.3577  0.2393
 1402SOL    HW215136   3.314   7.224   0.226 -2.4473  0.6736 -0.4615
 1403SOL     OW15137   5.096   6.786   1.879  0.0832  0.3027  0.0591
 1403SOL    HW115138   5.003   6.812   1.857 -0.4488 -2.1792 -0.7874
 1403SOL    HW215139   5.114   6.694   1.846  2.4952  0.3151  1.1830
 1404SOL     OW15140   3.920   0.515   3.538  0.1768  0.0981 -0.0707
 1404SOL    HW115141   3.876   0.506   3.448 -0.8395 -0.0698  0.4417
 1404SOL    HW215142   3.888   0.441   3.598  2.6849 -1.2324 -0.3138
 1405SOL     OW15143   3.405   4.927   4.058  0.2044  0.0033 -0.0263
 1405SOL    HW115144   3.394   4.839   4.104  2.2749  0.7277  1.9284
 1405SOL    HW215145   3.502   4.940   4.034  0.0814  2.1739  0.6011
 1406SOL     OW15146   8.991   7.398   1.418  0.7270  0.0851  0.1709
 1406SOL    HW115147   8.994   7.481   1.474  0.5043  0.3951 -0.2828
 1406SOL    HW215148   8.925   7.409   1.344 -0.9888 -1.3464  1.4469
 1407SOL     OW15149   0.810   9.830   5.476  0.1470  0.1897 -0.2137
 1407SOL    HW115150   0.779   9.751   5.529 -2.7283  1.5582  0.2509
 1407SOL    HW215151   0.889   9.871   5.522 -0.4421 -0.4084  1.3930
 1408SOL     OW15152   4.960   1.170   4.689 -0.2801  0.1523 -0.2449
 1408SOL    HW115153   5.040   1.187   4.631 -0.4155  0.7334 -0.2595
 1408SOL    HW215154   4.987   1.114   4.767  0.1085  0.2181 -0.3306
 1409SOL     OW15155   3.954   3.260   0.115 -0.1447  0.5920  0.0527
 1409SOL    HW115156   3.885   3.332   0.113 -1.5250 -0.7021 -0.5470
 1409SOL    HW215157   3.914   3.175   0.078  1.9252 -0.0457 -0.7882
 1410SOL     OW15158   3.946   3.396   4.709 -0.5905  0.1904  0.3194
 1410SOL    HW115159   3.993   3.459   4.772 -0.7863  1.9654 -1.2876
 1410SOL    HW215160   3.973   3.302   4.732  1.4941  0.9711  1.2990
 1411SOL     OW15161   9.357   8.698   5.635  0.2808  0.1349  0.1815
 1411SOL    HW115162   9.392   8.724   5.545  0.2395 -0.2411  0.0548
 1411SOL    HW215163   9.399   8.755   5.706  0.0812  0.6433 -0.1071
 1412SOL     OW15164   3.591   6.828   3.928  0.2867  0.3180 -0.2688
 1412SOL    HW115165   3.652   6.748   3.928 -0.7974 -0.5284 -0.7221
 1412SOL    HW215166   3.520   6.815   3.997 -0.0330  0.7861 -0.5122
 1413SOL     OW15167   8.945   9.138   2.470 -0.1193 -0.8144  0.1008
 1413SOL    HW115168   8.895   9.057   2.499 -0.3740 -0.3299  1.0454
 1413SOL    HW215169   9.042   9.128   2.492 -0.6648  0.5662  3.4968
 1414SOL     OW15170   4.389   0.804   0.769  0.7352  0.5454 -0.4907
 1414SOL    HW115171   4.400   0.869   0.693  1.2084 -0.1534 -1.0178
 1414SOL    HW215172   4.474   0.799   0.820  1.0506 -0.5022 -1.1157
 1415SOL     OW15173   2.767   3.994   5.101  0.7262 -0.1814  0.2724
 1415SOL    HW115174   2.714   3.912   5.077 -1.5960  0.4854  2.8763
 1415SOL    HW215175   2.860   3.968   5.124  0.5542 -1.8453 -0.8352
 1416SOL     OW15176   5.531   0.279   4.159 -0.4606  0.1213  0.3045
 1416SOL    HW115177   5.590   0.228   4.095  0.8361 -1.0567  2.3799
 1416SOL    HW215178   5.488   0.215   4.222 -1.4846  1.3083  0.8310
 1417SOL     OW15179   9.345   4.289   1.907  0.2418  0.3269 -0.0185
 1417SOL    HW115180   9.377   4.354   1.976  2.7808 -0.1300 -0.7111
 1417SOL    HW215181   9.384   4.199   1.925 -2.4147 -0.7943  0.3185
 1418SOL     OW15182   8.790   8.772   3.133 -0.2354  0.4411  0.1583
 1418SOL    HW115183   8.743   8.707   3.074  1.6793  0.0797 -1.0150
 1418SOL    HW215184   8.780   8.744   3.229 -0.9824 -0.5533 -0.2101
 1419SOL     OW15185   9.016   3.915   5.412 -0.2385  0.1093 -0.0384
 1419SOL    HW115186   8.942   3.958   5.465 -0.9556 -1.0539 -0.0783
 1419SOL    HW215187   9.104   3.940   5.452 -0.5626  2.5870 -0.7762
 1420SOL     OW15188   0.189   6.985   0.370  0.0870  0.1912 -0.4484
 1420SOL    HW115189   0.212   7.056   0.303 -0.4554 -1.7617 -2.7465
 1420SOL    HW215190   0.099   7.005   0.410 -0.3094  0.5151 -1.4853
 1421SOL     OW15191   3.528   9.442   1.167 -0.1592 -0.1306 -0.0966
 1421SOL    HW115192   3.458   9.512   1.161 -1.2130 -1.1600 -0.0715
 1421SOL    HW215193   3.485   9.352   1.166  0.9471 -0.7409  2.7703
 1422SOL     OW15194   2.393   8.266   1.981 -0.0351  0.3067  0.2082
 1422SOL    HW115195   2.397   8.302   1.888 -0.2914  0.8861  0.4127
 1422SOL    HW215196   2.484   8.237   2.010 -0.0676 -0.4377 -0.4369
 1423SOL     OW15197   1.273   3.096   4.948 -0.0745  0.1896 -0.1079
 1423SOL    HW115198   1.197   3.037   4.976 -1.9005  1.9269 -1.1964
 1423SOL    HW215199   1.249   3.191   4.966  1.8911  0.7706 -0.4477
 1424SOL     OW15200   8.735   8.908   2.323  0.2269  0.2278  0.3203
 1424SOL    HW115201   8.735   8.836   2.253  0.6363 -1.7435  2.2642
 1424SOL    HW215202   8.647   8.954   2.324 -1.0118 -2.0790  0.7958
 1425SOL     OW15203   8.852   0.231   2.772  0.2659  0.7421 -0.4715
 1425SOL    HW115204   8.945   0.202   2.746  0.0099  1.3934 -2.2128
 1425SOL    HW215205   8.807   0.272   2.692 -1.7810 -0.2142  0.1680
 1426SOL     OW15206   2.336   3.882   1.932  0.1515 -0.2643  0.0757
 1426SOL    HW115207   2.275   3.955   1.963  0.8689 -0.6558  2.5646
 1426SOL    HW215208   2.429   3.901   1.964  0.5499 -1.7224 -0.1933
 1427SOL     OW15209   4.047   9.962   0.365 -0.2433  0.4771 -0.2531
 1427SOL    HW115210   4.004  10.022   0.296  1.4233  1.3017 -0.6098
 1427SOL    HW215211   4.122  10.012   0.409 -0.4900 -0.4937  1.2779
 1428SOL     OW15212   3.485   7.841   0.644  0.4783  0.0806  0.5321
 1428SOL    HW115213   3.560   7.776   0.647  0.7604  0.3334 -0.5711
 1428SOL    HW215214   3.402   7.795   0.612 -0.0415 -0.3759  2.4958
 1429SOL     OW15215   3.868   8.910   2.413 -0.0825  0.2869  0.2917
 1429SOL    HW115216   3.789   8.965   2.439  0.3468  1.2514 -0.4085
 1429SOL    HW215217   3.917   8.956   2.339  0.5469 -0.8171  0.0217
 1430SOL     OW15218   8.680   2.050   5.050 -0.1669  0.2096  0.1167
 1430SOL    HW115219   8.591   2.011   5.029 -0.4228  0.6845  0.3268
 1430SOL    HW215220   8.731   1.988   5.109 -0.2975 -0.1310 -0.1302
 1431SOL     OW15221   6.504   0.995   2.524  0.3257 -0.3427 -0.5671
 1431SOL    HW115222   6.406   1.003   2.543  0.5579  0.5869  0.2669
 1431SOL    HW215223   6.519   0.992   2.426 -0.3940  1.4484 -0.7399
 1432SOL     OW15224   9.958   5.095   5.081 -0.2435  0.0202  0.2910
 1432SOL    HW115225  10.002   5.015   5.121  0.1835  0.5909  0.9800
 1432SOL    HW215226   9.956   5.086   4.982  1.2074 -0.1320  0.2656
 1433SOL     OW15227   1.871   9.465   1.216  0.0042 -0.0028  0.0879
 1433SOL    HW115228   1.821   9.528   1.156 -0.2502  1.0213  1.3501
 1433SOL    HW215229   1.811   9.390   1.243  0.4139 -0.9802 -1.7017
 1434SOL     OW15230   1.774   5.024   2.955 -0.3528 -0.2863  1.1033
 1434SOL    HW115231   1.769   5.091   2.881 -2.3105 -0.4897  1.0121
 1434SOL    HW215232   1.789   4.932   2.917  1.6613  0.0040  1.1816
 1435SOL     OW15233   8.263   6.184   4.983 -0.5487  0.8766  0.1366
 1435SOL    HW115234   8.166   6.203   4.999 -1.1968 -1.1611 -1.1696
 1435SOL    HW215235   8.285   6.092   5.014  0.9712  1.3087  0.3790
 1436SOL     OW15236   2.034   8.761   2.504 -0.0832 -0.5652  0.2369
 1436SOL    HW115237   2.010   8.717   2.418  0.4040 -2.1763  0.9045
 1436SOL    HW215238   1.955   8.757   2.566 -0.6233  1.1069 -0.3326
 1437SOL     OW15239   9.825   0.758   4.061 -0.4208 -0.2309 -0.0062
 1437SOL    HW115240   9.890   0.706   4.005 -0.3458 -1.4611  1.1985
 1437SOL    HW215241   9.744   0.703   4.078 -1.9667  1.4290 -1.7817
 1438SOL     OW15242   1.159   9.323   2.514 -0.0096  0.1706 -0.1752
 1438SOL    HW115243   1.086   9.278   2.566  0.4940 -0.2029  0.2107
 1438SOL    HW215244   1.247   9.281   2.536  0.3190  0.5848 -0.6810
 1439SOL     OW15245   3.618   1.781   3.912 -0.2591 -0.2158 -0.5568
 1439SOL    HW115246   3.554   1.785   3.835 -0.5021  0.3034 -0.3343
 1439SOL    HW215247   3.589   1.710   3.976 -0.8693  0.3172 -0.2355
 1440SOL     OW15248   8.652   6.648   5.126 -0.0007 -0.1985 -0.1361
 1440SOL    HW115249   8.678   6.558   5.091 -0.2042 -0.2700 -0.1050
 1440SOL    HW215250   8.711   6.673   5.203  1.9005  0.9061 -1.8893
 1441SOL     OW15251   1.697   4.224   3.738 -0.2460  0.1329  0.3838
 1441SOL    HW115252   1.710   4.314   3.696 -0.2032 -1.1223 -2.4011
 1441SOL    HW215253   1.787   4.184   3.759 -0.2430  0.4517  0.9704
 1442SOL     OW15254   9.075   0.148   1.746  0.6189  0.0908  0.6275
 1442SOL    HW115255   9.120   0.212   1.808  0.7317  0.5539  0.0711
 1442SOL    HW215256   9.034   0.198   1.669 -1.0202 -0.2921  1.2159
 1443SOL     OW15257   6.936   3.916   5.327 -0.5389 -0.0991 -0.1498
 1443SOL    HW115258   7.012   3.852   5.332  1.3622  2.1490  0.5786
 1443SOL    HW215259   6.866   3.890   5.394  1.5630  0.2498  2.2743
 1444SOL     OW15260   8.589   1.590   3.617  1.0447  0.0621  0.4136
 1444SOL    HW115261   8.631   1.520   3.675 -0.7414 -1.3706  0.0426
 1444SOL    HW215262   8.634   1.591   3.528  2.3118  0.6915  1.0627
 1445SOL     OW15263   3.506   2.422   3.501 -0.0044 -0.5903 -0.7219
 1445SOL    HW115264   3.416   2.464   3.500  0.7591  1.0999 -1.6405
 1445SOL    HW215265   3.539   2.414   3.595  0.3613  2.1238 -0.5760
 1446SOL     OW15266   9.283   3.232   3.619 -0.3368 -0.2172  0.0287
 1446SOL    HW115267   9.252   3.223   3.714  1.4188 -1.0971  0.5313
 1446SOL    HW215268   9.209   3.270   3.564 -0.8177  1.9688  2.0902
 1447SOL     OW15269   5.097   8.432   1.764  0.2782 -0.3039 -0.3457
 1447SOL    HW115270   5.014   8.384   1.791  1.4845 -2.1358  0.2062
 1447SOL    HW215271   5.155   8.370   1.710  1.6982  0.6503  0.0709
 1448SOL     OW15272   9.544   7.707   5.172 -0.4931  0.0674 -0.2534
 1448SOL    HW115273   9.570   7.739   5.263 -0.8969 -0.9393  0.2134
 1448SOL    HW215274   9.502   7.783   5.121 -0.5952  0.5307  0.5121
 1449SOL     OW15275   8.835   2.942   3.992  0.1262 -0.6089  0.2203
 1449SOL    HW115276   8.825   2.854   4.039  1.3920 -0.3266  1.0317
 1449SOL    HW215277   8.747   2.990   3.993  0.1716 -0.4870  2.5860
 1450SOL     OW15278   9.528   2.323   3.177  0.2176  0.9161 -0.1922
 1450SOL    HW115279   9.543   2.240   3.230 -0.1797  0.8150 -0.2356
 1450SOL    HW215280   9.438   2.361   3.200 -0.5860  0.0610 -1.8837
 1451SOL     OW15281   3.072   2.582   1.595  0.3091  0.1454  0.0768
 1451SOL    HW115282   3.023   2.660   1.555  2.2656  1.5070  0.2325
 1451SOL    HW215283   3.152   2.561   1.539 -0.0953 -1.6449  0.1541
 1452SOL     OW15284   1.420   5.193   3.546  0.5504 -0.1296 -0.0940
 1452SOL    HW115285   1.396   5.178   3.642  2.9898  0.1703  0.5952
 1452SOL    HW215286   1.475   5.116   3.513  2.2823  1.1872 -0.3373
 1453SOL     OW15287   8.703   1.388   2.861  0.2871 -0.2727  0.4508
 1453SOL    HW115288   8.721   1.487   2.856  2.2862 -0.6352 -0.1299
 1453SOL    HW215289   8.788   1.338   2.843 -0.7853 -2.1129  0.3567
 1454SOL     OW15290   2.484   6.389   1.550 -0.6036  0.0134  0.6934
 1454SOL    HW115291   2.528   6.388   1.461  0.3419 -0.4782  1.1566
 1454SOL    HW215292   2.527   6.459   1.608 -0.1438 -0.7482  1.2849
 1455SOL     OW15293   9.083   8.416   1.865  0.8048 -0.3919 -0.3429
 1455SOL    HW115294   9.001   8.359   1.860  1.4472 -1.3142 -0.5330
 1455SOL    HW215295   9.117   8.417   1.959 -0.2894  1.2502  0.0644
 1456SOL     OW15296   8.276   2.495   4.081  0.2054  0.7189 -0.3979
 1456SOL    HW115297   8.289   2.488   4.180  0.4348 -0.7398 -0.5129
 1456SOL    HW215298   8.236   2.584   4.058 -0.0198  0.9895  1.0228
 1457SOL     OW15299   6.307   1.811   1.853 -0.4604 -0.1572  0.4756
 1457SOL    HW115300   6.209   1.823   1.835 -0.7270  0.6657  2.3825
 1457SOL    HW215301   6.335   1.870   1.928  1.8567  0.7125 -1.0253
 1458SOL     OW15302   8.391   4.367   3.240  0.5029  0.5333 -0.1678
 1458SOL    HW115303   8.358   4.273   3.227 -1.3088  1.3893 -1.9112
 1458SOL    HW215304   8.412   4.381   3.337 -0.4125 -1.2710  0.3228
 1459SOL     OW15305   2.809   1.449   4.715  0.2089  0.1988  0.0122
 1459SOL    HW115306   2.836   1.496   4.799  0.3957  2.4380 -1.2591
 1459SOL    HW215307   2.710   1.456   4.704  0.3785  1.4703 -0.8328
 1460SOL     OW15308   6.182   8.563   3.556  0.0056  0.3523 -0.4002
 1460SOL    HW115309   6.240   8.631   3.601 -0.0697 -1.2199  2.1833
 1460SOL    HW215310   6.184   8.478   3.609 -0.9855 -1.2276 -2.8179
 1461SOL     OW15311   2.984   2.387   5.519  0.0641 -0.4615  0.3736
 1461SOL    HW115312   2.930   2.336   5.452 -0.4294 -1.8686  1.8220
 1461SOL    HW215313   3.058   2.436   5.472 -1.0015 -0.4584 -1.3350
 1462SOL     OW15314   0.744   2.338   3.754 -0.4752  0.4036 -0.0276
 1462SOL    HW115315   0.756   2.295   3.843 -0.7750 -0.3357 -0.3358
 1462SOL    HW215316   0.683   2.282   3.698 -1.3909  1.5555 -0.2191
 1463SOL     OW15317   1.133   1.839   1.843  0.3843  0.0437  0.0517
 1463SOL    HW115318   1.050   1.892   1.860  1.1054  0.6512  1.7917
 1463SOL    HW215319   1.207   1.872   1.902  1.5671 -1.2014 -0.6933
 1464SOL     OW15320   0.255   0.343   2.029 -0.1149  0.8955  0.2166
 1464SOL    HW115321   0.187   0.402   2.072 -0.5964  1.2634 -1.0510
 1464SOL    HW215322   0.344   0.358   2.073 -0.5980  1.2832  1.0698
 1465SOL     OW15323   8.353   2.489   4.347 -0.1963  0.4584 -0.0395
 1465SOL    HW115324   8.452   2.492   4.359 -0.1130  1.0215 -0.8294
 1465SOL    HW215325   8.309   2.545   4.417 -0.0272 -0.6443  0.9759
 1466SOL     OW15326   1.210   0.719   5.348  0.0821 -0.1976 -0.1791
 1466SOL    HW115327   1.276   0.734   5.421  0.9450 -0.8145 -0.8261
 1466SOL    HW215328   1.193   0.804   5.299 -1.1280  0.4108  1.2527
 1467SOL     OW15329   3.987   6.842   2.820  0.6489  0.0654  0.4485
 1467SOL    HW115330   3.969   6.751   2.859  2.0993  0.4100  1.9833
 1467SOL    HW215331   3.994   6.908   2.894 -0.5938  1.4906 -0.6781
 1468SOL     OW15332   9.069   6.010   2.796  0.1674  0.1781  0.4416
 1468SOL    HW115333   9.061   6.097   2.845  0.0979 -1.1892  2.8925
 1468SOL    HW215334   9.134   6.021   2.721  0.3966  2.2681  0.9106
 1469SOL     OW15335   6.707   9.500   3.635  0.3119  0.0773  0.2926
 1469SOL    HW115336   6.721   9.419   3.692  0.3751 -0.1355 -0.0246
 1469SOL    HW215337   6.746   9.484   3.545  0.1104  0.3706  0.1546
 1470SOL     OW15338   1.230   6.951   0.596  0.0653  0.0095  0.0656
 1470SOL    HW115339   1.161   6.927   0.665  2.1847 -0.4217  2.1072
 1470SOL    HW215340   1.310   6.991   0.641  2.0165 -1.3957 -2.0162
 1471SOL     OW15341   7.685   1.175   2.121  0.0841  0.3587  0.8149
 1471SOL    HW115342   7.637   1.216   2.043  2.1284  0.3334 -0.4735
 1471SOL    HW215343   7.623   1.113   2.169 -1.4723  1.0652 -0.2431
 1472SOL     OW15344   6.750   1.612   2.063  0.3277  0.0631  0.5659
 1472SOL    HW115345   6.709   1.520   2.066 -0.3701  0.3176 -0.5957
 1472SOL    HW215346   6.727   1.661   2.147 -0.2045 -0.4510  0.7278
 1473SOL     OW15347   0.280   4.285   1.893  0.3026 -0.2182  0.2279
 1473SOL    HW115348   0.243   4.231   1.817  2.5033 -1.1593 -0.1968
 1473SOL    HW215349   0.331   4.226   1.955  1.7485  1.1440  0.3746
 1474SOL     OW15350   8.313   2.938   5.387  0.3197 -0.1803  0.8558
 1474SOL    HW115351   8.296   3.036   5.373 -1.3710 -0.5672  0.1709
 1474SOL    HW215352   8.244   2.901   5.450 -0.2644 -1.3574 -0.4578
 1475SOL     OW15353   8.878   8.246   1.810 -0.2056  0.0633 -0.4298
 1475SOL    HW115354   8.903   8.150   1.825 -1.2176 -0.4972 -2.2064
 1475SOL    HW215355   8.806   8.251   1.742  0.0279  2.1205 -0.5428
 1476SOL     OW15356   9.055   6.476   1.404  0.0977 -0.1048 -0.3244
 1476SOL    HW115357   9.108   6.397   1.433  2.7126  2.0506  0.9975
 1476SOL    HW215358   9.058   6.546   1.475 -2.7858  0.9217 -1.1521
 1477SOL     OW15359   2.148   6.905   4.689 -0.4293 -0.3432  0.1760
 1477SOL    HW115360   2.191   6.982   4.641 -0.1978 -0.6658 -0.1330
 1477SOL    HW215361   2.182   6.901   4.783 -1.0383  0.4150  0.4325
 1478SOL     OW15362   2.802   7.973   2.565 -0.5494  0.3448  0.4268
 1478SOL    HW115363   2.878   8.016   2.516 -0.2023  0.6743  1.2534
 1478SOL    HW215364   2.821   7.875   2.576 -0.2697  0.4175  0.5873
 1479SOL     OW15365   1.203   5.903   4.323 -0.1421  0.1809 -0.2055
 1479SOL    HW115366   1.280   5.943   4.373 -1.2574  2.4658 -0.2746
 1479SOL    HW215367   1.161   5.832   4.379  1.6229 -0.6636  0.0850
 1480SOL     OW15368   1.262   4.801   2.957  0.4363  0.9990  0.0026
 1480SOL    HW115369   1.318   4.883   2.943  0.3631  0.9074 -0.8907
 1480SOL    HW215370   1.277   4.738   2.881 -1.6054  1.3739 -0.7449
 1481SOL     OW15371   1.741   9.091   0.477 -0.6787  0.1701 -0.3218
 1481SOL    HW115372   1.668   9.152   0.445  0.9092  2.1039 -0.3530
 1481SOL    HW215373   1.795   9.059   0.399 -1.3316 -1.1029 -0.2764
 1482SOL     OW15374   3.979   9.454   5.560 -0.5972  0.3165 -0.0279
 1482SOL    HW115375   4.059   9.408   5.521 -0.9284 -0.5016  0.2431
 1482SOL    HW215376   3.941   9.517   5.493 -1.9013 -1.9837 -1.5326
 1483SOL     OW15377   3.496   0.435   0.703  0.3489 -0.0633 -0.2522
 1483SOL    HW115378   3.539   0.480   0.626  2.3353 -1.6323 -0.0862
 1483SOL    HW215379   3.471   0.342   0.678  1.6589 -0.8272  1.1968
 1484SOL     OW15380   9.906   2.341   0.688 -0.1505 -0.1720 -0.5483
 1484SOL    HW115381   9.845   2.407   0.733  0.0675  0.4660 -1.1743
 1484SOL    HW215382   9.855   2.258   0.667  0.4018 -1.5814  3.3392
 1485SOL     OW15383   0.184   3.508   4.184 -0.3667 -0.3375 -0.3044
 1485SOL    HW115384   0.088   3.535   4.193  0.1847  1.6429  0.0280
 1485SOL    HW215385   0.222   3.548   4.101  0.9501  1.4690  1.1042
 1486SOL     OW15386   3.492   5.705   3.510 -0.0364  0.0959  0.1000
 1486SOL    HW115387   3.438   5.631   3.470  0.6719 -0.4703  0.1842
 1486SOL    HW215388   3.507   5.687   3.607  2.2975 -0.9437 -0.4303
 1487SOL     OW15389   2.070   3.405   5.387 -0.0122 -0.4943  0.4009
 1487SOL    HW115390   2.131   3.475   5.351  0.5848 -0.9564  0.5136
 1487SOL    HW215391   2.018   3.364   5.312 -2.6392  2.1915  0.6477
 1488SOL     OW15392   8.631   6.841   5.562 -0.0164  0.6191 -0.0420
 1488SOL    HW115393   8.542   6.868   5.526 -0.4320  0.5930  0.9533
 1488SOL    HW215394   8.685   6.798   5.489 -1.3016 -0.5449 -0.3257
 1489SOL     OW15395   9.362   9.987   2.931  0.3428 -0.0313  0.0025
 1489SOL    HW115396   9.435  10.010   2.866  0.5259  0.1800  0.2835
 1489SOL    HW215397   9.283   9.951   2.881  0.9841 -1.1457 -0.2344
 1490SOL     OW15398   2.621   6.306   0.862 -0.2880  0.4713 -0.1884
 1490SOL    HW115399   2.680   6.386   0.848  0.3294 -0.2913 -2.0745
 1490SOL    HW215400   2.677   6.225   0.877 -0.8805  0.0228 -0.3629
 1491SOL     OW15401   9.825   2.271   0.330  0.0021 -0.1833 -0.1949
 1491SOL    HW115402   9.782   2.236   0.412  0.0068 -0.4854 -0.3202
 1491SOL    HW215403   9.831   2.199   0.261  4.8606 -1.5139  1.4100
 1492SOL     OW15404   2.792   0.961   0.687  0.3004 -0.0376  0.1038
 1492SOL    HW115405   2.704   0.978   0.732  0.5650  1.5795  0.0492
 1492SOL    HW215406   2.863   0.952   0.756  0.7359  2.6174  0.0723
 1493SOL     OW15407   2.171   3.660   4.099  0.4505  0.1343 -0.1742
 1493SOL    HW115408   2.082   3.707   4.097  1.1817  1.5077 -1.2758
 1493SOL    HW215409   2.156   3.562   4.118 -1.6127 -0.3344 -3.7018
 1494SOL     OW15410   3.054   4.732   2.208 -0.5410  0.4990  0.6352
 1494SOL    HW115411   3.081   4.636   2.204 -0.3519  0.5393  0.9300
 1494SOL    HW215412   2.977   4.748   2.146  0.3822  0.4690 -0.5261
 1495SOL     OW15413   1.765   3.148   4.295 -0.1511  0.7556  0.2601
 1495SOL    HW115414   1.829   3.215   4.331  1.4066 -0.6425  0.1429
 1495SOL    HW215415   1.778   3.060   4.341  2.2971 -1.2742 -3.9255
 1496SOL     OW15416   2.385   4.300   1.470 -0.7659  0.1148  0.5519
 1496SOL    HW115417   2.294   4.337   1.483 -0.6492  1.0219 -1.1285
 1496SOL    HW215418   2.394   4.265   1.376  1.3003  2.0171  0.0110
 1497SOL     OW15419   1.909   0.155   5.222 -0.3466 -0.4222 -0.0386
 1497SOL    HW115420   2.002   0.131   5.250 -0.2301  0.1983  0.1115
 1497SOL    HW215421   1.906   0.251   5.192 -0.9576 -0.4079  0.0520
 1498SOL     OW15422   4.807   2.627   0.723  0.1210 -0.0783  0.2486
 1498SOL    HW115423   4.855   2.663   0.803 -2.4931  1.4785  1.2199
 1498SOL    HW215424   4.796   2.701   0.655  0.0807 -0.7057 -0.4360
 1499SOL     OW15425   9.892   0.802   3.744  0.0756 -0.1795  0.0671
 1499SOL    HW115426   9.834   0.853   3.807 -1.8387 -0.6045 -1.3194
 1499SOL    HW215427   9.871   0.704   3.751  0.1939 -0.2752 -0.9039
 1500SOL     OW15428   9.749   8.957   4.962 -0.3305  0.4185 -0.3378
 1500SOL    HW115429   9.679   8.958   4.891 -1.3314 -2.2332  0.5709
 1500SOL    HW215430   9.827   8.902   4.932 -0.3894 -0.0084  0.2869
 1501SOL     OW15431   2.399   2.482   3.973  0.1552 -0.1090  0.0575
 1501SOL    HW115432   2.378   2.576   3.946 -1.3278 -0.7275 -0.9571
 1501SOL    HW215433   2.449   2.483   4.060 -1.8373  1.5080  1.2236
 1502SOL     OW15434   0.898   2.725   2.620  0.0310 -0.4481 -0.3576
 1502SOL    HW115435   0.966   2.670   2.571  0.8990 -0.2763  0.6143
 1502SOL    HW215436   0.861   2.794   2.559 -1.6818 -2.6018 -1.8382
 1503SOL     OW15437   4.769   8.940   2.477  0.3465 -0.1577 -0.3560
 1503SOL    HW115438   4.748   9.031   2.441  0.3726  0.1451  0.3801
 1503SOL    HW215439   4.797   8.880   2.403 -1.4772 -0.0863 -1.1205
 1504SOL     OW15440   0.745   5.304   2.169  0.0135 -0.3337  0.4392
 1504SOL    HW115441   0.741   5.348   2.258  1.6475 -2.2062  1.4841
 1504SOL    HW215442   0.654   5.270   2.145 -0.9755  2.3510  0.2050
 1505SOL     OW15443   3.280   8.822   2.421 -0.2878 -0.5791  0.2246
 1505SOL    HW115444   3.253   8.732   2.456 -1.1705  0.3419  2.0054
 1505SOL    HW215445   3.210   8.889   2.445  0.6198  0.6946 -0.6195
 1506SOL     OW15446   9.223   2.823   1.850  0.1561  0.1966  0.2043
 1506SOL    HW115447   9.301   2.870   1.893 -1.0515  0.4743  2.1014
 1506SOL    HW215448   9.163   2.892   1.809 -0.2937  0.1310  0.7602
 1507SOL     OW15449   4.161   1.801   0.421  0.1098 -0.1578 -0.0252
 1507SOL    HW115450   4.168   1.761   0.329  1.9837 -0.1154  0.0788
 1507SOL    HW215451   4.065   1.803   0.449 -0.4380 -0.6071 -1.7882
 1508SOL     OW15452   2.776   3.173   4.737  0.1441  0.1798  0.5421
 1508SOL    HW115453   2.702   3.205   4.678  1.9349  1.2286 -1.2022
 1508SOL    HW215454   2.737   3.134   4.820 -2.3540  0.8425 -0.2534
 1509SOL     OW15455   4.644   5.074   0.921  0.1022 -0.2551 -0.2153
 1509SOL    HW115456   4.657   5.158   0.973 -1.5510 -0.2115  0.1693
 1509SOL    HW215457   4.585   5.092   0.842  0.7735 -0.7898 -0.8465
 1510SOL     OW15458   2.423   7.959   0.798  0.6795 -0.2492 -0.1721
 1510SOL    HW115459   2.505   7.953   0.742 -0.2063 -2.0997 -1.2872
 1510SOL    HW215460   2.412   7.875   0.852 -0.8948 -0.3578 -0.6266
 1511SOL     OW15461   8.919   7.787   2.225 -0.3771  0.7460  0.3427
 1511SOL    HW115462   8.871   7.827   2.146 -0.5848  0.3813  0.2804
 1511SOL    HW215463   9.017   7.804   2.216 -0.3090  0.0267 -0.4095
 1512SOL     OW15464   9.742   6.170   1.228  0.0184 -0.2624  0.3388
 1512SOL    HW115465   9.840   6.174   1.210 -0.1423 -0.3633 -0.5635
 1512SOL    HW215466   9.723   6.212   1.317  0.8071  0.2686  0.2626
 1513SOL     OW15467   2.586   8.944   3.801  0.3476  0.0800  0.3857
 1513SOL    HW115468   2.651   8.871   3.779 -0.4115 -0.6692  0.5618
 1513SOL    HW215469   2.620   8.997   3.878  0.0507 -1.2831  1.4985
 1514SOL     OW15470   8.014   1.341   1.450  0.0094  0.6129  0.3593
 1514SOL    HW115471   8.005   1.441   1.443  0.0519  0.4641 -2.5956
 1514SOL    HW215472   7.965   1.309   1.531 -0.9915  2.9155  0.7209
 1515SOL     OW15473   4.624   3.065   1.992 -0.5977 -0.2931  0.1726
 1515SOL    HW115474   4.630   3.162   1.970 -1.1964  0.3381  2.6010
 1515SOL    HW215475   4.675   3.011   1.925  2.2755  1.9378  0.5304
 1516SOL     OW15476   8.291   4.867   3.822  0.6480 -0.2694  0.2037
 1516SOL    HW115477   8.363   4.902   3.762  0.6196 -0.3200  0.1398
 1516SOL    HW215478   8.302   4.769   3.833  0.2938 -0.3621 -0.2186
 1517SOL     OW15479   4.232   1.170   2.610  0.3542 -0.4391 -0.2987
 1517SOL    HW115480   4.319   1.184   2.563  1.4789 -0.5506  1.7441
 1517SOL    HW215481   4.223   1.234   2.686 -1.0817 -0.8356 -0.1167
 1518SOL     OW15482   4.530   7.531   1.729  0.0219 -0.7409 -0.7153
 1518SOL    HW115483   4.611   7.588   1.741 -0.5320  0.0282 -0.5779
 1518SOL    HW215484   4.538   7.449   1.786 -0.5878  0.7332  1.5513
 1519SOL     OW15485   9.201   9.674   1.933  0.7507 -0.5687  0.3955
 1519SOL    HW115486   9.195   9.759   1.881  0.0186 -0.4304  0.7004
 1519SOL    HW215487   9.116   9.623   1.925 -0.0925  0.3256  2.9168
 1520SOL     OW15488   5.012   2.336   0.040 -0.8085  0.3332 -0.2734
 1520SOL    HW115489   5.013   2.251   0.094 -0.0492 -0.0819 -0.9290
 1520SOL    HW215490   4.918   2.366   0.026 -1.0908 -0.5602 -0.2923
 1521SOL     OW15491   1.507   2.810   2.038 -0.1758 -0.1871  0.2790
 1521SOL    HW115492   1.412   2.791   2.063  0.1660 -0.3050  1.5330
 1521SOL    HW215493   1.565   2.734   2.068  0.6918  1.1335  2.0017
 1522SOL     OW15494   5.348   3.323   0.172  0.3411 -0.2802 -0.1799
 1522SOL    HW115495   5.324   3.419   0.190 -1.8369 -0.4225 -2.1769
 1522SOL    HW215496   5.443   3.318   0.140  0.0438  1.3704 -1.3810
 1523SOL     OW15497   1.291   0.834   2.507  0.0257  0.3467 -0.3470
 1523SOL    HW115498   1.361   0.829   2.578  0.7532  1.0693 -1.0065
 1523SOL    HW215499   1.290   0.925   2.467 -0.5153  0.0032 -1.1357
 1524SOL     OW15500   3.847   9.914   3.268 -0.3911 -0.1201 -0.0912
 1524SOL    HW115501   3.755   9.921   3.228 -0.3800 -0.6615 -0.2162
 1524SOL    HW215502   3.840   9.917   3.367 -0.5579 -0.2651 -0.0974
 1525SOL     OW15503   2.453   2.503   3.193 -0.0529 -0.3381 -0.0043
 1525SOL    HW115504   2.545   2.525   3.226 -0.7108  0.0707  1.6257
 1525SOL    HW215505   2.436   2.405   3.205  0.5524 -0.6240 -1.3379
 1526SOL     OW15506   7.921   2.554   3.354 -0.8254 -0.0104  0.6219
 1526SOL    HW115507   8.007   2.586   3.392 -0.6720 -0.2554  0.4773
 1526SOL    HW215508   7.934   2.465   3.310 -1.0476  0.1723  0.1801
 1527SOL     OW15509   1.361   3.791   3.806  0.1825 -0.3077  0.4757
 1527SOL    HW115510   1.316   3.703   3.824 -0.4135  0.4828  3.0587
 1527SOL    HW215511   1.422   3.813   3.882  0.6226  1.3440 -0.3453
 1528SOL     OW15512   4.721   0.007   4.495 -0.1181 -0.5194  0.0472
 1528SOL    HW115513   4.771   0.054   4.422 -0.3716 -0.9997 -0.4372
 1528SOL    HW215514   4.631   0.048   4.506 -1.1843 -2.2514 -1.8486
 1529SOL     OW15515   1.638   9.185   4.694  0.4516  0.4485  0.7416
 1529SOL    HW115516   1.629   9.243   4.775  0.6552 -1.1769  1.9441
 1529SOL    HW215517   1.547   9.150   4.668  0.2290  1.8187 -0.3879
 1530SOL     OW15518   7.242   1.142   5.561 -0.3051 -0.6196  0.2449
 1530SOL    HW115519   7.152   1.146   5.519 -0.4470 -0.4238  0.5659
 1530SOL    HW215520   7.307   1.099   5.498 -0.1220  1.2605 -0.8781
 1531SOL     OW15521   5.068   0.556   0.785  0.3272 -0.6186  0.3094
 1531SOL    HW115522   4.980   0.587   0.750  0.2363 -1.2159  0.0097
 1531SOL    HW215523   5.141   0.586   0.723  0.2208 -1.1713 -0.0852
 1532SOL     OW15524   2.461   5.003   2.720  0.2737  0.0731 -0.4708
 1532SOL    HW115525   2.551   4.984   2.758 -1.0345  1.0808  3.4032
 1532SOL    HW215526   2.390   4.978   2.787 -2.2523  0.7730 -2.7736
 1533SOL     OW15527   8.863   2.935   4.455 -0.5652  0.3456 -0.7035
 1533SOL    HW115528   8.863   2.995   4.535 -0.2415 -0.8132  0.1715
 1533SOL    HW215529   8.904   2.984   4.378  2.1037  0.4148  0.6680
 1534SOL     OW15530   8.378   4.962   2.301 -0.0482  0.4225 -0.5719
 1534SOL    HW115531   8.388   4.894   2.373 -0.4326  1.2338  0.2516
 1534SOL    HW215532   8.327   4.922   2.224 -1.7153  0.2802  0.5931
 1535SOL     OW15533   5.200   4.881   0.623  0.4727  0.0499  0.2201
 1535SOL    HW115534   5.218   4.977   0.646 -1.2917  0.1966  1.0658
 1535SOL    HW215535   5.285   4.838   0.591  0.9972  2.2334 -1.4170
 1536SOL     OW15536   8.816   5.418   2.172 -0.1489 -0.1528  0.1732
 1536SOL    HW115537   8.880   5.492   2.193  0.3643 -0.8343  1.0451
 1536SOL    HW215538   8.745   5.452   2.110 -0.3210  1.2544  1.1120
 1537SOL     OW15539   0.729   8.788   4.934  0.1636 -0.9458  0.2334
 1537SOL    HW115540   0.697   8.746   4.849 -0.1729 -2.0415  0.8974
 1537SOL    HW215541   0.826   8.810   4.925 -0.2026  0.2597 -0.9488
 1538SOL     OW15542   8.212   0.103   5.354  0.2478  0.5881 -0.1533
 1538SOL    HW115543   8.194   0.112   5.452 -0.4189 -0.7405 -0.1373
 1538SOL    HW215544   8.296   0.051   5.340 -0.8054 -1.1506 -0.2679
 1539SOL     OW15545   8.601   5.809   0.155 -0.2389 -0.1951 -0.2176
 1539SOL    HW115546   8.560   5.723   0.125  0.0482 -0.3732 -0.0953
 1539SOL    HW215547   8.569   5.883   0.095 -0.2363 -0.4373 -0.5198
 1540SOL     OW15548   4.590   9.689   5.378 -0.3033  0.4973 -0.1830
 1540SOL    HW115549   4.544   9.766   5.422 -0.7442  0.1917 -0.1129
 1540SOL    HW215550   4.544   9.666   5.293 -1.1122 -0.6722  0.5477
 1541SOL     OW15551   0.205   3.487   2.911  0.3687  0.1772 -0.2520
 1541SOL    HW115552   0.234   3.522   2.823  0.7685 -0.5976 -0.4365
 1541SOL    HW215553   0.107   3.470   2.910  0.4316 -0.1561 -0.6595
 1542SOL     OW15554   5.109   6.082   1.307  0.5355 -0.2021 -0.0930
 1542SOL    HW115555   5.151   6.172   1.318 -1.0980  0.7297 -1.1714
 1542SOL    HW215556   5.011   6.088   1.328  0.5849 -1.9226  0.6733
 1543SOL     OW15557   2.289   1.040   1.084 -0.1579 -0.4489  0.2553
 1543SOL    HW115558   2.198   1.000   1.071 -0.4075 -0.0233  0.6708
 1543SOL    HW215559   2.285   1.108   1.158  0.2741  0.2752 -0.3767
 1544SOL     OW15560   9.667   2.058   3.835  0.1209 -0.1188 -0.4738
 1544SOL    HW115561   9.572   2.086   3.825 -0.4893 -0.7067  2.8609
 1544SOL    HW215562   9.720   2.133   3.874  0.1552 -0.9922  1.2261
 1545SOL     OW15563   6.498   9.806   2.829 -0.1920  0.0364 -0.2522
 1545SOL    HW115564   6.475   9.833   2.735 -1.6528 -0.2901 -0.0081
 1545SOL    HW215565   6.502   9.706   2.835  0.2358  0.0668 -0.0439
 1546SOL     OW15566   8.507   2.777   1.207 -0.1339 -0.2887  0.0657
 1546SOL    HW115567   8.488   2.814   1.298  0.7402  0.1731  0.0677
 1546SOL    HW215568   8.576   2.833   1.162 -1.4094  0.1779 -1.3551
 1547SOL     OW15569   3.127   8.061   4.066 -0.0551 -0.1042  0.2366
 1547SOL    HW115570   3.172   8.059   4.155  1.6370 -1.0143 -0.6328
 1547SOL    HW215571   3.160   8.139   4.014 -1.7524  0.9895  0.7342
 1548SOL     OW15572   2.016   5.994   1.082  0.6210 -0.2900  0.0706
 1548SOL    HW115573   2.062   6.078   1.108 -0.3527  0.5173 -0.7749
 1548SOL    HW215574   1.921   5.997   1.112  0.4268 -0.8365 -0.4657
 1549SOL     OW15575   3.214   8.275   5.237 -0.0455  0.0967 -0.7266
 1549SOL    HW115576   3.250   8.216   5.165  1.2978  0.0824 -0.0546
 1549SOL    HW215577   3.219   8.370   5.208 -1.2230 -0.0308 -1.3831
 1550SOL     OW15578   7.621   2.072   1.778  0.2003 -0.5813 -0.1106
 1550SOL    HW115579   7.658   2.113   1.862 -0.3676  0.4955 -0.3931
 1550SOL    HW215580   7.586   2.143   1.718 -1.6790 -1.5453 -0.1791
 1551SOL     OW15581   1.639   7.574   3.816 -0.0882 -0.3437 -0.1622
 1551SOL    HW115582   1.627   7.673   3.816  1.5758 -0.1098  1.8890
 1551SOL    HW215583   1.585   7.533   3.889 -2.8110 -1.2733 -2.6024
 1552SOL     OW15584   4.265   4.091   3.853 -0.2270  0.2669  0.1529
 1552SOL    HW115585   4.190   4.109   3.789 -0.4811  1.4266  0.7633
 1552SOL    HW215586   4.228   4.055   3.938 -0.0703  0.5281  0.3343
 1553SOL     OW15587   5.043   9.531   2.829 -0.1502  0.4788 -0.1011
 1553SOL    HW115588   5.137   9.564   2.822 -0.1657  0.4058 -0.6759
 1553SOL    HW215589   4.981   9.610   2.835 -0.1639  0.5704 -1.1802
 1554SOL     OW15590   1.881   1.201   5.445  0.1361 -0.0311 -0.4514
 1554SOL    HW115591   1.884   1.254   5.530 -2.9744 -2.1348  1.0551
 1554SOL    HW215592   1.809   1.237   5.387 -0.1169 -0.8329 -0.6375
 1555SOL     OW15593   4.662   5.857   1.791  0.0715  0.1480 -0.2279
 1555SOL    HW115594   4.596   5.787   1.817 -0.6542  1.2976  1.0801
 1555SOL    HW215595   4.755   5.823   1.805 -0.2718 -0.7027 -0.0350
 1556SOL     OW15596   2.091   8.010   4.676 -0.5051 -0.5230 -0.0867
 1556SOL    HW115597   2.063   7.979   4.767 -0.4376 -1.5708 -0.4163
 1556SOL    HW215598   2.121   8.105   4.681  2.1473 -1.3936  1.5231
 1557SOL     OW15599   0.653   0.474   1.468 -0.2544  0.3015  0.2021
 1557SOL    HW115600   0.709   0.557   1.471  0.3982 -0.1163 -0.5769
 1557SOL    HW215601   0.615   0.457   1.559  1.0905  0.4436  0.7988
 1558SOL     OW15602   5.377   0.325   4.496  0.5303 -0.3341 -0.1035
 1558SOL    HW115603   5.286   0.328   4.538 -0.1504  1.2244 -1.6560
 1558SOL    HW215604   5.412   0.232   4.502 -1.2429 -1.0068  0.3537
 1559SOL     OW15605   7.480   4.558   0.743  0.1066 -0.0813 -0.6996
 1559SOL    HW115606   7.505   4.651   0.770 -0.1820  0.5353 -2.4821
 1559SOL    HW215607   7.382   4.544   0.757 -0.0186  0.1958 -1.2686
 1560SOL     OW15608   0.401   8.891   0.382  0.1942 -0.0321  0.0299
 1560SOL    HW115609   0.342   8.840   0.445  0.1306  0.3489  0.2833
 1560SOL    HW215610   0.496   8.864   0.396  0.2539  0.5626  0.7778
 1561SOL     OW15611   0.376   7.363   1.462  1.0092 -0.2921 -0.1955
 1561SOL    HW115612   0.470   7.397   1.457  1.1921 -0.8290 -0.4329
 1561SOL    HW215613   0.374   7.276   1.511  0.8095 -0.8853 -1.2244
 1562SOL     OW15614   3.310   1.796   1.179 -0.7045  0.2927  0.4015
 1562SOL    HW115615   3.268   1.796   1.088  0.2402  1.7514 -0.0633
 1562SOL    HW215616   3.242   1.769   1.247 -2.4592  2.6681 -0.3217
 1563SOL     OW15617   3.521   7.830   2.972 -0.6213  0.1094 -0.1316
 1563SOL    HW115618   3.460   7.905   2.997  0.2288  0.7672  0.0138
 1563SOL    HW215619   3.468   7.747   2.955 -1.3805  0.1937  1.7870
 1564SOL     OW15620   9.591   8.463   5.419 -0.0065 -0.6701  0.2370
 1564SOL    HW115621   9.549   8.423   5.501  0.4575  0.2694  0.9328
 1564SOL    HW215622   9.673   8.514   5.444  0.0862 -0.2857 -0.8075
 1565SOL     OW15623   7.476   5.306   4.794  0.1802  0.1813 -0.2929
 1565SOL    HW115624   7.534   5.257   4.859  0.3026  1.5139  0.6242
 1565SOL    HW215625   7.532   5.336   4.716  0.6328  0.9538  0.3096
 1566SOL     OW15626   3.382   2.011   4.745 -0.1733 -0.4637  0.4510
 1566SOL    HW115627   3.300   2.065   4.766 -0.3580 -0.8398  0.6975
 1566SOL    HW215628   3.459   2.073   4.730 -0.8377 -0.0217 -1.3495
 1567SOL     OW15629   0.741   2.309   2.099 -0.1590  0.1361 -0.0566
 1567SOL    HW115630   0.812   2.255   2.145  0.6107  1.4564  0.3580
 1567SOL    HW215631   0.677   2.344   2.167 -0.7898 -0.4543 -0.3492
 1568SOL     OW15632   9.784   2.605   1.652  0.7557  0.2496  0.4605
 1568SOL    HW115633   9.780   2.517   1.604  0.2788 -0.7697  2.2947
 1568SOL    HW215634   9.873   2.615   1.696  1.2951  1.3024 -0.8552
 1569SOL     OW15635   2.616   9.213   1.209 -0.0465  0.0127 -0.3929
 1569SOL    HW115636   2.557   9.161   1.147 -0.5921 -0.7188  0.7228
 1569SOL    HW215637   2.696   9.158   1.233  0.0466  0.2033 -0.2663
 1570SOL     OW15638   5.114   7.747   2.727  0.6450 -0.0433 -0.8168
 1570SOL    HW115639   5.015   7.749   2.717  0.4198 -0.6132  1.0112
 1570SOL    HW215640   5.148   7.840   2.737  0.2726  0.1465 -1.3193
 1571SOL     OW15641   0.996   6.486   4.377  0.1843 -0.3364 -0.0207
 1571SOL    HW115642   0.931   6.442   4.315 -0.1186 -0.8486  0.6593
 1571SOL    HW215643   1.079   6.432   4.382 -0.7572 -1.6485  1.9765
 1572SOL     OW15644   9.914   2.103   1.178 -0.4855 -0.3733 -0.3578
 1572SOL    HW115645   9.989   2.096   1.112  2.3052  1.1735  2.5306
 1572SOL    HW215646   9.923   2.031   1.247 -1.0588  0.4076  0.5525
 1573SOL     OW15647   4.747   0.308   5.591  0.8793  0.8529  0.2461
 1573SOL    HW115648   4.676   0.368   5.554  0.3082 -1.0779 -1.8964
 1573SOL    HW215649   4.739   0.305   5.691 -0.1714  2.9565  0.2553
 1574SOL     OW15650   0.639   6.594   5.371  0.4618 -0.5430 -0.4619
 1574SOL    HW115651   0.650   6.526   5.444  0.0286  0.6600  0.7421
 1574SOL    HW215652   0.699   6.672   5.387  0.7050 -0.4642 -1.6585
 1575SOL     OW15653   9.950   5.602   5.564 -0.0949 -0.1717  0.6292
 1575SOL    HW115654   9.941   5.580   5.661  1.9478 -0.1356  0.8626
 1575SOL    HW215655   9.868   5.573   5.515 -0.7890 -0.9712  2.2266
 1576SOL     OW15656   0.390   6.670   2.509  0.9519  0.2544 -0.4575
 1576SOL    HW115657   0.460   6.742   2.499 -0.3996  1.5815 -0.5711
 1576SOL    HW215658   0.367   6.634   2.418  0.4114  0.8936 -0.5848
 1577SOL     OW15659   2.967   3.372   0.627  0.0537 -0.5064 -0.6762
 1577SOL    HW115660   3.032   3.298   0.640 -1.2978 -1.1832  2.7896
 1577SOL    HW215661   3.014   3.451   0.587  2.4462 -1.7414 -0.3895
 1578SOL     OW15662   4.442   1.163   5.453 -0.2575 -0.1041  0.3797
 1578SOL    HW115663   4.430   1.192   5.358  1.5233  0.1681  0.2226
 1578SOL    HW215664   4.400   1.231   5.514  1.4856  1.4693 -0.1047
 1579SOL     OW15665   2.552   4.432   3.345 -0.1388 -0.1161 -0.3411
 1579SOL    HW115666   2.496   4.502   3.300  0.2640 -0.3381 -1.1911
 1579SOL    HW215667   2.585   4.367   3.277  0.6767 -0.3223  0.2482
 1580SOL     OW15668   3.660   0.978   1.169  0.1768  0.0004 -0.3912
 1580SOL    HW115669   3.721   1.058   1.164  0.6081 -0.3399 -0.6981
 1580SOL    HW215670   3.637   0.949   1.076 -0.7781  0.3666 -0.2693
 1581SOL     OW15671   8.601   9.473   3.571 -0.7092  0.0512  0.2251
 1581SOL    HW115672   8.694   9.452   3.543 -0.5365 -0.2959  1.0401
 1581SOL    HW215673   8.593   9.572   3.588 -0.5831  0.1330 -0.1725
 1582SOL     OW15674   5.603   2.100   2.117 -0.0906 -0.5229 -0.0747
 1582SOL    HW115675   5.672   2.049   2.168 -1.2949 -0.8222  1.2850
 1582SOL    HW215676   5.537   2.140   2.180 -0.5421  0.6879 -1.2868
 1583SOL     OW15677   4.404   9.135   1.082  0.2149  0.3938 -0.1906
 1583SOL    HW115678   4.356   9.121   1.169 -0.1349  0.3459 -0.3928
 1583SOL    HW215679   4.486   9.190   1.098  0.6977 -0.4610  0.3408
 1584SOL     OW15680   7.817   5.690   2.752 -0.0725 -0.1161 -0.0106
 1584SOL    HW115681   7.906   5.731   2.736 -0.0405 -0.3540 -0.4518
 1584SOL    HW215682   7.753   5.720   2.681 -0.5156  0.5806  0.6846
 1585SOL     OW15683   1.191   3.985   4.307 -0.1348  0.4748  0.3746
 1585SOL    HW115684   1.217   4.028   4.394 -0.5659 -1.3274  1.4271
 1585SOL    HW215685   1.193   3.885   4.318 -0.7696  0.2447 -1.5262
 1586SOL     OW15686   8.835   5.189   4.672 -0.2277 -0.0400  0.2420
 1586SOL    HW115687   8.776   5.143   4.737 -2.0634  1.0168 -0.6356
 1586SOL    HW215688   8.844   5.133   4.589  1.3515 -0.9518  1.0070
 1587SOL     OW15689   1.662   8.568   3.692 -0.2552 -0.3741  0.2528
 1587SOL    HW115690   1.703   8.646   3.645 -1.2820  0.5971  0.9329
 1587SOL    HW215691   1.697   8.563   3.785 -0.4034 -0.5519  0.2983
 1588SOL     OW15692   7.568   0.888   1.222  0.0441  0.4264  0.0291
 1588SOL    HW115693   7.569   0.890   1.322 -0.9900  0.0401  0.0511
 1588SOL    HW215694   7.645   0.942   1.187 -0.1311  1.3411  1.0162
 1589SOL     OW15695   2.781   2.517   4.584  0.2406 -0.1093  0.9984
 1589SOL    HW115696   2.717   2.460   4.636 -1.0128  1.2423  0.9483
 1589SOL    HW215697   2.740   2.541   4.496  1.0149  0.3700  0.7647
 1590SOL     OW15698   6.956   0.845   3.477 -0.1245 -0.2025 -0.0712
 1590SOL    HW115699   6.987   0.766   3.424  0.4814  0.0738 -0.1299
 1590SOL    HW215700   7.010   0.853   3.561 -1.6719 -1.1636  1.0433
 1591SOL     OW15701   9.415   2.831   0.301 -0.8326  0.1024  0.5529
 1591SOL    HW115702   9.405   2.750   0.359 -1.1066  0.9929  1.7806
 1591SOL    HW215703   9.482   2.813   0.230 -2.3449 -1.8974 -0.4424
 1592SOL     OW15704   1.924   6.823   0.955 -0.2651 -0.5462 -0.5839
 1592SOL    HW115705   1.943   6.821   1.053 -1.0066 -1.6463 -0.4511
 1592SOL    HW215706   1.956   6.909   0.916 -0.0853 -0.0550  0.6453
 1593SOL     OW15707   1.686   9.007   3.063  0.0835  0.0114  0.0835
 1593SOL    HW115708   1.778   8.970   3.077  0.3612  1.3761  2.1672
 1593SOL    HW215709   1.685   9.066   2.982  1.0461 -0.0336  0.0360
 1594SOL     OW15710   7.076   8.853   3.752  0.3586  0.2859  0.5867
 1594SOL    HW115711   7.101   8.821   3.660  0.0946 -1.1403  0.9990
 1594SOL    HW215712   7.150   8.911   3.788  1.4951 -0.9971  0.3800
 1595SOL     OW15713   5.027   3.886   2.621  0.2472  0.4818 -0.2683
 1595SOL    HW115714   4.966   3.847   2.690 -1.2397  0.8301 -1.3619
 1595SOL    HW215715   5.015   3.985   2.617 -1.1142  0.2877 -2.3200
 1596SOL     OW15716   1.927   1.441   0.304 -0.0207 -0.1240  0.5477
 1596SOL    HW115717   1.839   1.488   0.304 -0.8177 -1.5860 -0.2714
 1596SOL    HW215718   1.974   1.458   0.391 -1.0423  0.7581  0.9397
 1597SOL     OW15719   4.237   2.378   4.685  0.0023  0.0594 -0.0020
 1597SOL    HW115720   4.191   2.425   4.760 -1.7560 -0.5117 -0.7027
 1597SOL    HW215721   4.332   2.409   4.679 -0.2223  1.0898  1.6001
 1598SOL     OW15722   3.123   0.970   5.383  0.2615 -0.3602  0.1284
 1598SOL    HW115723   3.141   0.884   5.431  1.6469 -0.0239  0.2285
 1598SOL    HW215724   3.210   1.012   5.356 -0.4831 -0.3022 -2.2630
 1599SOL     OW15725   6.947   4.494   5.508  0.4696  0.1234 -0.1290
 1599SOL    HW115726   6.998   4.577   5.487  1.0704 -0.3278 -0.4443
 1599SOL    HW215727   6.849   4.514   5.508  0.6000  0.7583 -0.5197
 1600SOL     OW15728   1.972   6.930   4.224 -0.2158 -0.3344  0.0747
 1600SOL    HW115729   1.882   6.887   4.236 -0.1048 -0.0503  2.1574
 1600SOL    HW215730   1.969   6.992   4.146 -1.8121 -0.4153  0.0547
 1601SOL     OW15731   2.400   1.906   5.396 -0.3233 -0.2977  0.0172
 1601SOL    HW115732   2.363   1.825   5.350 -0.9343 -1.5991  2.6957
 1601SOL    HW215733   2.325   1.964   5.428  0.0959  0.5390 -0.4877
 1602SOL     OW15734   9.145   9.010   3.978 -0.1844  0.3516 -0.0556
 1602SOL    HW115735   9.188   8.920   3.964 -0.6900  0.2178 -0.7075
 1602SOL    HW215736   9.047   9.003   3.965 -0.2638  0.9398  0.2068
 1603SOL     OW15737   3.322   5.529   3.399 -0.3822 -0.3728  0.1166
 1603SOL    HW115738   3.241   5.483   3.434 -0.1405 -1.1166 -0.2861
 1603SOL    HW215739   3.335   5.506   3.302 -0.4906  0.8730 -0.2080
 1604SOL     OW15740   1.353   6.376   2.273  0.0911 -0.1937 -0.6280
 1604SOL    HW115741   1.320   6.367   2.179 -0.8281 -2.8450 -0.0913
 1604SOL    HW215742   1.453   6.382   2.272  0.0497  0.6378 -1.8110
 1605SOL     OW15743   7.232   9.941   1.847 -0.0785 -0.0056  0.2232
 1605SOL    HW115744   7.213  10.016   1.783 -0.3113 -0.2449  0.0161
 1605SOL    HW215745   7.156   9.932   1.911 -1.1107 -1.5648 -1.1740
 1606SOL     OW15746   2.145   9.879   2.429  0.1352  0.5703 -0.0017
 1606SOL    HW115747   2.074   9.949   2.425 -1.0630 -0.6148  0.3722
 1606SOL    HW215748   2.155   9.836   2.339  0.0740  0.4371  0.0548
 1607SOL     OW15749   8.289   0.439   4.115 -0.3323 -0.2398  0.0164
 1607SOL    HW115750   8.337   0.496   4.181 -1.7439  1.2417 -0.2220
 1607SOL    HW215751   8.275   0.348   4.154  0.4534  0.0731  1.0433
 1608SOL     OW15752   3.658   8.146   4.369 -0.9031  0.3908 -0.1284
 1608SOL    HW115753   3.633   8.052   4.393  0.1120  0.0881 -0.2364
 1608SOL    HW215754   3.583   8.188   4.317 -0.4325 -1.1641 -2.1338
 1609SOL     OW15755   0.446   2.394   3.675  0.4344  0.6972  0.2964
 1609SOL    HW115756   0.442   2.469   3.609  0.2087  0.1682 -0.2986
 1609SOL    HW215757   0.483   2.313   3.630 -2.9517 -0.6663 -0.1410
 1610SOL     OW15758   9.826   4.688   3.882  0.2344  0.4778 -0.1460
 1610SOL    HW115759   9.791   4.720   3.970 -0.2772  1.9321 -0.8551
 1610SOL    HW215760   9.796   4.594   3.866  0.9618 -0.0529  1.5585
 1611SOL     OW15761   9.119   6.562   3.001  0.2446 -0.2053 -0.3899
 1611SOL    HW115762   9.040   6.608   3.042 -0.2727 -1.5095  0.1204
 1611SOL    HW215763   9.197   6.570   3.062  0.2397  0.2786 -0.4514
 1612SOL     OW15764   7.198   6.604   4.456  0.2298 -0.0528  0.1627
 1612SOL    HW115765   7.166   6.538   4.388 -0.2164  1.2996 -0.9696
 1612SOL    HW215766   7.298   6.600   4.463  0.0403 -2.8635  2.2266
 1613SOL     OW15767   8.799   5.314   5.598  0.0010  0.1868 -0.4109
 1613SOL    HW115768   8.856   5.233   5.591 -0.6811 -0.3401  0.0815
 1613SOL    HW215769   8.709   5.295   5.558 -0.0068  0.8413 -0.7076
 1614SOL     OW15770   2.019   0.655   4.174  0.4263 -0.0886  0.2735
 1614SOL    HW115771   2.033   0.717   4.251 -1.7114 -1.6241  1.9689
 1614SOL    HW215772   2.077   0.574   4.184 -0.0754 -0.4296  0.4316
 1615SOL     OW15773   2.874   8.295   4.676  0.1086  0.0779 -0.0750
 1615SOL    HW115774   2.867   8.237   4.757  1.9690  0.0435  0.0949
 1615SOL    HW215775   2.960   8.275   4.628 -0.2331  1.1989 -1.1984
 1616SOL     OW15776   8.521   3.895   1.066 -0.2310  0.7061  0.2414
 1616SOL    HW115777   8.478   3.813   1.029  1.2693 -0.4564  0.9935
 1616SOL    HW215778   8.530   3.964   0.994 -1.2515  0.1162 -0.4661
 1617SOL     OW15779   2.344   4.260   1.823 -0.0495 -0.0314  0.3249
 1617SOL    HW115780   2.369   4.173   1.780 -1.6532 -0.9510  1.2251
 1617SOL    HW215781   2.281   4.244   1.899  1.6474  1.6940  2.1893
 1618SOL     OW15782   1.759   1.847   4.744  0.1628 -0.2584 -0.6229
 1618SOL    HW115783   1.828   1.783   4.708  0.1323 -1.0834  0.7544
 1618SOL    HW215784   1.787   1.877   4.835 -0.8576  0.0947 -0.4259
 1619SOL     OW15785   1.401   4.868   2.460 -0.1121  0.0217  0.4415
 1619SOL    HW115786   1.408   4.839   2.364 -0.2161  0.6566  0.2419
 1619SOL    HW215787   1.318   4.922   2.472 -0.4526 -0.6255  1.0396
 1620SOL     OW15788   8.939   2.235   4.152  0.5217 -0.0997  0.0365
 1620SOL    HW115789   8.997   2.289   4.213  0.6885  0.1910 -0.3767
 1620SOL    HW215790   8.845   2.270   4.156  1.0831  1.7131 -1.9613
 1621SOL     OW15791   6.535   6.873   3.993 -0.0470 -0.9150  0.0532
 1621SOL    HW115792   6.584   6.892   3.908 -0.9111 -2.4701 -0.8313
 1621SOL    HW215793   6.584   6.913   4.070  0.7528  0.5178 -1.1746
 1622SOL     OW15794   9.761   0.773   1.062 -0.6309  0.5781  0.0075
 1622SOL    HW115795   9.814   0.847   1.102  1.3850 -0.3008 -1.0022
 1622SOL    HW215796   9.772   0.690   1.117 -0.8275  0.3392 -0.3076
 1623SOL     OW15797   0.398   0.050   0.526  0.5622  0.1558 -0.1286
 1623SOL    HW115798   0.388  -0.038   0.571  2.0291  0.6379  1.1732
 1623SOL    HW215799   0.425   0.119   0.593 -1.0213  1.7007 -1.0472
 1624SOL     OW15800   1.725   1.716   2.217  0.6092 -0.1749 -0.2848
 1624SOL    HW115801   1.753   1.635   2.267  0.9963  0.3759  0.3986
 1624SOL    HW215802   1.638   1.699   2.171 -0.9619  0.0805  2.5060
 1625SOL     OW15803   9.058   1.646   3.987 -0.4661 -0.2775  0.2294
 1625SOL    HW115804   9.029   1.551   3.974  0.0495 -0.5786  1.2589
 1625SOL    HW215805   9.157   1.651   3.982 -0.5651  0.4781 -1.4799
 1626SOL     OW15806   9.108   6.389   4.685  0.4565 -0.5229 -0.4588
 1626SOL    HW115807   9.094   6.366   4.588 -2.9235 -1.7560  0.2641
 1626SOL    HW215808   9.100   6.488   4.697  1.5176 -0.2909 -1.5073
 1627SOL     OW15809   8.802   3.268   2.704 -0.1739  0.5579 -0.0351
 1627SOL    HW115810   8.820   3.366   2.719 -0.8421  1.0335 -2.1449
 1627SOL    HW215811   8.713   3.244   2.743  0.1157  0.7260  0.7319
 1628SOL     OW15812   3.625   6.187   4.840 -0.1643  0.4884  0.4640
 1628SOL    HW115813   3.688   6.170   4.764  0.4421 -0.2985  1.1365
 1628SOL    HW215814   3.533   6.205   4.804  0.2967  0.9531 -0.4890
 1629SOL     OW15815   1.192   2.101   1.705  0.2782  0.1149  0.1754
 1629SOL    HW115816   1.187   2.031   1.776 -1.5249 -1.3769 -1.3687
 1629SOL    HW215817   1.286   2.133   1.696  0.6042  0.0388  2.9107
 1630SOL     OW15818   1.155   6.793   3.256  0.0997  0.4680 -0.6153
 1630SOL    HW115819   1.078   6.847   3.291  1.7519  2.2571  0.3920
 1630SOL    HW215820   1.154   6.794   3.156 -0.4457  1.5779 -0.6071
 1631SOL     OW15821   4.112   4.014   5.297  0.1907  0.0364  0.0209
 1631SOL    HW115822   4.125   3.985   5.202  0.7951 -0.6204  0.2961
 1631SOL    HW215823   4.082   3.935   5.352  1.8772 -0.0974  0.7866
 1632SOL     OW15824   4.180   9.226   2.497 -0.1955  0.7648  0.5626
 1632SOL    HW115825   4.088   9.198   2.470  0.7854 -2.0669 -0.0122
 1632SOL    HW215826   4.221   9.281   2.424 -0.5327 -0.0590 -0.2509
 1633SOL     OW15827   9.107   7.006   3.485 -0.0231 -0.2899  0.0028
 1633SOL    HW115828   9.115   7.068   3.564  2.7551  1.2463 -1.4166
 1633SOL    HW215829   9.011   6.999   3.458 -0.4020  3.5452  0.1046
 1634SOL     OW15830   5.216   0.154   3.534 -0.4801  0.0952  0.0033
 1634SOL    HW115831   5.182   0.209   3.610 -1.6973 -1.0236  0.2733
 1634SOL    HW215832   5.227   0.212   3.453 -1.7801  0.7346  0.2814
 1635SOL     OW15833   3.785   3.338   1.299  0.1958 -0.0244 -0.6730
 1635SOL    HW115834   3.747   3.338   1.392  0.7373  1.2728 -0.4508
 1635SOL    HW215835   3.859   3.271   1.294  0.0270 -0.2506 -0.2342
 1636SOL     OW15836   2.678   3.084   5.413 -0.2854  0.7889 -0.4282
 1636SOL    HW115837   2.735   3.166   5.416  2.0298 -0.8116  0.7854
 1636SOL    HW215838   2.688   3.033   5.499 -0.6916 -1.4152 -1.6552
 1637SOL     OW15839   3.022   9.645   1.172  0.3450 -0.0448  0.0556
 1637SOL    HW115840   2.988   9.723   1.120  1.4585  0.3576 -0.0763
 1637SOL    HW215841   3.076   9.586   1.112  1.7641  0.4996  0.7795
 1638SOL     OW15842   3.270   7.695   4.719 -0.3852  0.4268 -0.0292
 1638SOL    HW115843   3.180   7.693   4.675 -1.0251  0.9393  1.2562
 1638SOL    HW215844   3.289   7.787   4.753  0.2688  0.1216  0.4444
 1639SOL     OW15845   3.206   5.000   4.628  0.1161  0.0074  0.1595
 1639SOL    HW115846   3.293   5.010   4.581 -0.0995 -2.9759 -1.0074
 1639SOL    HW215847   3.153   5.085   4.621  1.7186  0.8802 -1.5841
 1640SOL     OW15848   2.588   6.920   5.335 -0.0894  0.5506 -0.0472
 1640SOL    HW115849   2.579   7.018   5.321 -0.4390  0.4475 -0.5444
 1640SOL    HW215850   2.595   6.901   5.433 -1.7085  0.9209  0.1522
 1641SOL     OW15851   8.458   5.808   1.303  0.0101 -0.1522  0.3102
 1641SOL    HW115852   8.392   5.881   1.315 -0.7758 -1.0647  1.7358
 1641SOL    HW215853   8.522   5.832   1.230 -1.0473  1.3421 -0.1468
 1642SOL     OW15854   0.048   4.210   0.088 -0.8835 -0.2521 -0.1291
 1642SOL    HW115855   0.058   4.181  -0.007 -1.5390  0.2286 -0.3450
 1642SOL    HW215856  -0.040   4.180   0.123 -0.5939 -0.5364  0.3747
 1643SOL     OW15857   3.572   5.595   3.762  0.5445 -0.4534  0.2052
 1643SOL    HW115858   3.625   5.590   3.846  0.5107 -0.8150  0.2062
 1643SOL    HW215859   3.480   5.557   3.777  0.4316 -0.2290  0.0906
 1644SOL     OW15860   0.489   4.928   3.255 -0.5611  0.3421 -0.5421
 1644SOL    HW115861   0.544   5.008   3.281  0.5981 -0.2969 -1.0119
 1644SOL    HW215862   0.506   4.854   3.320  0.5336 -0.4653 -1.7336
 1645SOL     OW15863   8.895   8.746   2.483  0.3450  0.1140  0.3426
 1645SOL    HW115864   8.826   8.792   2.428  1.9767  1.7184 -0.4133
 1645SOL    HW215865   8.876   8.762   2.580 -0.1841  0.7688  0.1352
 1646SOL     OW15866   9.680   6.308   1.452  0.1234 -0.3354  0.2031
 1646SOL    HW115867   9.734   6.281   1.531  1.2018 -0.7124 -0.6394
 1646SOL    HW215868   9.665   6.406   1.453  0.8731 -0.2213  0.4314
 1647SOL     OW15869   5.580   1.182   3.303  0.7956 -0.1334  0.3209
 1647SOL    HW115870   5.505   1.221   3.249 -0.1826 -0.7823  1.1832
 1647SOL    HW215871   5.626   1.111   3.249  0.3960 -0.1552  0.0023
 1648SOL     OW15872   1.860   9.053   2.803 -0.1051  0.5554  0.8535
 1648SOL    HW115873   1.899   9.063   2.711  0.7928 -0.5892  1.0949
 1648SOL    HW215874   1.762   9.074   2.800  0.1508  1.6535 -0.1284
 1649SOL     OW15875   7.900   6.699   3.505  0.3336 -0.1021 -0.0837
 1649SOL    HW115876   7.971   6.663   3.444 -0.2271 -0.2634 -0.6453
 1649SOL    HW215877   7.867   6.627   3.565 -0.8961 -0.5783 -1.3117
 1650SOL     OW15878   7.947   3.330   5.102 -0.6207 -0.5313 -0.3222
 1650SOL    HW115879   7.919   3.240   5.136 -0.6640  0.0321  1.2108
 1650SOL    HW215880   8.039   3.325   5.064  0.0933 -0.8766  1.3954
 1651SOL     OW15881   4.174   5.713   1.226  0.1435 -0.0238 -0.3080
 1651SOL    HW115882   4.132   5.800   1.251  0.5717  0.4114 -1.0983
 1651SOL    HW215883   4.218   5.721   1.137  4.2973  0.3601  1.6528
 1652SOL     OW15884   3.783   5.264   1.262 -0.9099 -0.4097  0.2704
 1652SOL    HW115885   3.706   5.328   1.267 -2.1015 -1.7425 -0.4040
 1652SOL    HW215886   3.812   5.254   1.166  1.1069  1.2209  0.6833
 1653SOL     OW15887   4.792   2.014   4.059 -0.3204 -0.4360  0.2630
 1653SOL    HW115888   4.823   1.974   3.973 -1.9613 -0.8179 -0.1646
 1653SOL    HW215889   4.715   2.075   4.042 -0.8448 -0.7281  1.4798
 1654SOL     OW15890   7.729   5.349   4.335 -0.7113 -0.2223 -0.7140
 1654SOL    HW115891   7.671   5.313   4.262 -1.6172 -2.2855  0.9751
 1654SOL    HW215892   7.824   5.326   4.315 -0.9614 -0.8659 -1.2090
 1655SOL     OW15893   2.009   9.713   5.622 -0.5635 -0.6668  0.0096
 1655SOL    HW115894   1.941   9.778   5.588 -0.6805 -1.1125 -0.6318
 1655SOL    HW215895   2.094   9.762   5.644 -1.2023 -0.0542  1.1685
 1656SOL     OW15896   0.489   4.001   5.131 -0.2314  0.2535  0.2669
 1656SOL    HW115897   0.475   4.089   5.176 -1.5680  0.8556 -1.2689
 1656SOL    HW215898   0.501   3.930   5.201 -3.1322  1.0089  1.6439
 1657SOL     OW15899   9.153   5.003   5.065  0.9168 -0.2719 -0.0105
 1657SOL    HW115900   9.147   5.096   5.029  2.0860 -0.4423 -0.6931
 1657SOL    HW215901   9.154   5.005   5.165 -1.6553  0.2664  0.0317
 1658SOL     OW15902   8.896   7.932   0.377  0.3662 -0.0779 -0.5738
 1658SOL    HW115903   8.993   7.936   0.353  0.3886  0.4334 -0.3924
 1658SOL    HW215904   8.842   7.982   0.309  0.2671 -0.0408 -0.4692
 1659SOL     OW15905   1.177   7.156   3.394 -0.2763  0.5657  0.2402
 1659SOL    HW115906   1.155   7.221   3.321  0.4626  1.2613  0.6278
 1659SOL    HW215907   1.272   7.169   3.423 -0.0135 -0.9280  0.0818
 1660SOL     OW15908   7.388   8.636   1.501  0.1768 -0.3358  0.1267
 1660SOL    HW115909   7.386   8.728   1.541  0.2376 -0.0599 -0.4921
 1660SOL    HW215910   7.459   8.633   1.430 -0.3714 -0.6272 -0.4077
 1661SOL     OW15911   2.169   4.408   2.738  0.2681 -0.5427 -0.0401
 1661SOL    HW115912   2.145   4.428   2.833  0.5162 -0.1197 -0.0666
 1661SOL    HW215913   2.266   4.424   2.724  0.0135  0.5013 -0.6478
 1662SOL     OW15914   7.436   3.553   0.252 -0.5188  0.2579  0.6567
 1662SOL    HW115915   7.406   3.550   0.347  1.2551  0.7877  1.2437
 1662SOL    HW215916   7.524   3.507   0.243 -1.4522 -1.2624 -1.0518
 1663SOL     OW15917   8.789   0.062   4.820  0.4116 -0.0835 -0.4268
 1663SOL    HW115918   8.734  -0.020   4.802  0.0822  0.3517 -1.3896
 1663SOL    HW215919   8.826   0.097   4.734  0.0920  1.1164 -0.0854
 1664SOL     OW15920   9.607   6.032   3.981 -0.6198 -0.7415  0.0905
 1664SOL    HW115921   9.596   6.009   4.078 -0.0750 -1.6743 -0.0681
 1664SOL    HW215922   9.614   5.949   3.927 -1.8042 -0.2325 -0.8665
 1665SOL     OW15923   2.651   4.802   4.568  0.3291  0.8395  0.2731
 1665SOL    HW115924   2.690   4.711   4.549  0.9370  1.2616 -0.5136
 1665SOL    HW215925   2.562   4.791   4.611 -0.5916 -0.1425 -1.8189
 1666SOL     OW15926   0.455   6.523   1.662  0.2523 -0.4929  0.0207
 1666SOL    HW115927   0.470   6.603   1.605  0.6254 -0.2909  0.4048
 1666SOL    HW215928   0.434   6.444   1.604 -1.2146  0.1197 -0.3169
 1667SOL     OW15929   7.031   9.219   2.286 -0.2424  0.1011  0.4945
 1667SOL    HW115930   7.023   9.314   2.254 -1.8968 -0.2676 -0.2142
 1667SOL    HW215931   7.097   9.170   2.229 -0.9741  0.2563 -0.5034
 1668SOL     OW15932   0.724   8.428   3.012 -0.0938 -0.9107 -0.1340
 1668SOL    HW115933   0.802   8.405   2.953 -0.5719  1.1784 -1.6431
 1668SOL    HW215934   0.749   8.504   3.072 -1.3173  0.5632 -1.4584
 1669SOL     OW15935   4.315   9.854   1.926  0.1631  0.0363 -0.5794
 1669SOL    HW115936   4.231   9.808   1.899  1.3879 -2.3463 -0.4840
 1669SOL    HW215937   4.389   9.829   1.862  1.0319  1.2290 -0.0517
 1670SOL     OW15938   2.121   1.864   4.688  0.4484  0.3508  0.0231
 1670SOL    HW115939   2.145   1.947   4.738 -1.3711  1.6016 -1.1405
 1670SOL    HW215940   2.106   1.886   4.592 -3.4883 -0.6762  0.3393
 1671SOL     OW15941   9.704   2.242   2.654 -0.2332  0.2788  0.0462
 1671SOL    HW115942   9.607   2.249   2.679  0.0103  1.9777  0.5904
 1671SOL    HW215943   9.749   2.330   2.671  1.2160 -0.2362 -1.0398
 1672SOL     OW15944   8.691   8.323   2.021  0.1237 -0.5983 -0.4317
 1672SOL    HW115945   8.787   8.304   1.997  0.2742 -0.1338 -0.2011
 1672SOL    HW215946   8.645   8.366   1.943  0.2290 -0.3845 -0.3745
 1673SOL     OW15947   2.517   0.482   4.816 -0.3490 -0.3275 -0.7491
 1673SOL    HW115948   2.428   0.505   4.854 -1.3094 -1.9534 -1.9372
 1673SOL    HW215949   2.536   0.541   4.738  0.3139  1.0241  0.3965
 1674SOL     OW15950   6.507   0.676   2.380  0.1718  0.9483  0.6126
 1674SOL    HW115951   6.534   0.611   2.450 -0.3396  0.9779  0.8430
 1674SOL    HW215952   6.417   0.714   2.403 -0.9172 -0.5383 -1.0914
 1675SOL     OW15953   3.848   7.436   2.650  0.6910  0.6029  0.0183
 1675SOL    HW115954   3.866   7.394   2.562 -0.1317  0.2332  0.0254
 1675SOL    HW215955   3.874   7.373   2.723 -0.6220  0.0543  0.0286
 1676SOL     OW15956   0.638   4.648   2.674  0.8066 -0.3053  0.4417
 1676SOL    HW115957   0.584   4.598   2.606  0.5081  1.6593 -0.8053
 1676SOL    HW215958   0.735   4.636   2.655  0.7752 -1.2095  0.7741
 1677SOL     OW15959   3.950   1.238   5.541 -0.4398 -0.5078  0.0124
 1677SOL    HW115960   3.884   1.313   5.541  1.0985  0.8799  1.3531
 1677SOL    HW215961   4.008   1.245   5.459  0.1572  0.1884  0.4905
 1678SOL     OW15962   6.892   0.732   1.173  0.4485  0.1935 -0.2673
 1678SOL    HW115963   6.931   0.672   1.242  1.5207 -0.3688 -1.3455
 1678SOL    HW215964   6.908   0.828   1.198  2.1613 -0.0258 -0.4840
 1679SOL     OW15965   1.844   9.332   5.078  0.3227  0.0603  0.5789
 1679SOL    HW115966   1.792   9.414   5.055  0.0681 -0.1851  0.2857
 1679SOL    HW215967   1.874   9.338   5.173 -1.2812 -0.3631  1.1118
 1680SOL     OW15968   5.515   0.997   1.751 -0.1772 -0.4688  0.4553
 1680SOL    HW115969   5.588   1.061   1.727 -0.1013  0.3409  2.6892
 1680SOL    HW215970   5.538   0.905   1.721  0.3319  0.3230 -1.6083
 1681SOL     OW15971   8.867   6.051   2.599  0.3858 -0.2852  0.0662
 1681SOL    HW115972   8.918   6.136   2.595  0.4255 -0.2161  1.6373
 1681SOL    HW215973   8.891   6.001   2.682 -0.4663 -1.2995 -0.2767
 1682SOL     OW15974   4.070   7.853   5.386 -0.0236  0.1939  0.0644
 1682SOL    HW115975   4.062   7.763   5.343 -1.8023 -0.7970  2.3347
 1682SOL    HW215976   3.979   7.889   5.406  0.7027  1.1935  1.7164
 1683SOL     OW15977   8.713   0.903   0.617 -0.2371 -0.2251 -0.9016
 1683SOL    HW115978   8.708   1.001   0.599 -0.0219 -0.0434 -0.0087
 1683SOL    HW215979   8.780   0.886   0.690 -0.4768 -1.0117 -0.8575
 1684SOL     OW15980   4.965   5.493   1.299  0.1016 -0.3323  0.2294
 1684SOL    HW115981   5.044   5.433   1.285 -0.6669 -0.9357 -1.6169
 1684SOL    HW215982   4.883   5.449   1.264 -0.6615  1.3278 -0.1238
 1685SOL     OW15983   3.148   4.634   0.515 -0.4828  0.5527  0.1197
 1685SOL    HW115984   3.234   4.584   0.506 -0.1803  1.1404 -0.2867
 1685SOL    HW215985   3.088   4.585   0.577  0.3618  0.4209  0.8451
 1686SOL     OW15986   3.521   8.413   1.414 -0.4293 -0.3003 -0.0512
 1686SOL    HW115987   3.492   8.499   1.456  0.3074 -0.4979  0.8873
 1686SOL    HW215988   3.481   8.336   1.464 -0.7089 -0.5137 -0.6011
 1687SOL     OW15989   8.156   1.498   1.888 -0.1817  0.5906 -0.4387
 1687SOL    HW115990   8.084   1.429   1.898 -1.7491  1.9228 -2.1827
 1687SOL    HW215991   8.238   1.468   1.936 -0.9160 -2.3828 -0.9511
 1688SOL     OW15992   5.369   7.249   3.014 -0.2127  1.1354  0.3601
 1688SOL    HW115993   5.296   7.252   2.945 -1.1624  3.4056  1.4132
 1688SOL    HW215994   5.334   7.203   3.096  0.1868  0.4701  0.1605
 1689SOL     OW15995   9.113   2.078   0.050  0.1404  0.0060 -0.1528
 1689SOL    HW115996   9.148   2.092   0.143 -0.8260  1.2925  0.0381
 1689SOL    HW215997   9.135   2.159  -0.006 -0.3498 -0.2423 -0.7061
 1690SOL     OW15998   0.345   3.543   1.645 -0.2079 -0.4747 -0.3551
 1690SOL    HW115999   0.325   3.482   1.569 -0.0591 -0.7677 -0.1590
 1690SOL    HW216000   0.432   3.516   1.687 -0.0543 -0.0217 -0.3801
 1691SOL     OW16001   0.496   3.805   5.343 -0.1180  0.7783 -0.1382
 1691SOL    HW116002   0.508   3.707   5.353  1.6708  0.9246 -0.7123
 1691SOL    HW216003   0.423   3.837   5.404 -1.2920 -1.0166 -0.5697
 1692SOL     OW16004   2.246   8.178   1.277  0.0450  0.2709 -0.4189
 1692SOL    HW116005   2.295   8.128   1.348  1.9665 -0.1558 -2.0171
 1692SOL    HW216006   2.269   8.276   1.284  0.7883  0.1350 -0.8741
 1693SOL     OW16007   6.638   1.463   3.592 -0.4280  0.0582 -1.0025
 1693SOL    HW116008   6.631   1.561   3.607 -1.3571  0.0038 -1.0416
 1693SOL    HW216009   6.547   1.425   3.578 -0.3611 -1.2404  1.7249
 1694SOL     OW16010   5.045   9.102   3.303  0.2024 -0.1449  0.1993
 1694SOL    HW116011   5.095   9.119   3.218  1.3922 -1.4081  0.6482
 1694SOL    HW216012   4.990   9.020   3.294 -1.6216  1.0812 -0.1935
 1695SOL     OW16013   4.920   3.231   0.675  0.0986 -0.5380 -0.5649
 1695SOL    HW116014   4.960   3.268   0.758 -0.7241  0.4286 -0.5947
 1695SOL    HW216015   4.992   3.212   0.608  0.5996  0.2281 -0.2446
 1696SOL     OW16016   9.275   7.446   2.512  0.4299  0.2006 -0.4869
 1696SOL    HW116017   9.301   7.415   2.603 -0.6194  0.8546  0.0460
 1696SOL    HW216018   9.304   7.541   2.500 -1.8671  1.0183  0.2007
 1697SOL     OW16019   4.718   1.241   0.556  0.0811 -0.1353 -0.1345
 1697SOL    HW116020   4.649   1.306   0.523 -0.8212 -0.5307  0.9462
 1697SOL    HW216021   4.734   1.255   0.653  0.3493 -1.1086 -0.0306
 1698SOL     OW16022   0.980   3.094   1.960 -0.4821 -0.1790 -0.0167
 1698SOL    HW116023   1.066   3.055   1.995 -0.8499 -0.8986  0.1000
 1698SOL    HW216024   0.997   3.187   1.927  0.0566  0.1737  1.2353
 1699SOL     OW16025   2.743   0.417   2.248  0.4519 -0.2827 -0.2215
 1699SOL    HW116026   2.764   0.499   2.195 -1.0290  0.8944  0.9559
 1699SOL    HW216027   2.684   0.357   2.194 -0.3332  0.5027 -0.2434
 1700SOL     OW16028   5.530   2.249   2.370  0.1773  0.1960  0.4707
 1700SOL    HW116029   5.554   2.262   2.466  0.7806  0.2871  0.3121
 1700SOL    HW216030   5.546   2.335   2.320  0.5910 -0.0660  0.1448
 1701SOL     OW16031   1.864   9.220   3.438  0.1769 -0.3353  0.1509
 1701SOL    HW116032   1.941   9.281   3.420  0.2093 -0.3829  0.1249
 1701SOL    HW216033   1.882   9.167   3.521  1.2806 -2.1187 -1.1735
 1702SOL     OW16034   5.066   3.271   0.893 -0.2709 -0.3230 -0.0404
 1702SOL    HW116035   5.157   3.231   0.878 -0.0394  0.0614  0.3507
 1702SOL    HW216036   5.053   3.289   0.990 -0.2930  0.7706 -0.2427
 1703SOL     OW16037   2.899   3.912   1.167  0.1572  0.4533 -0.2005
 1703SOL    HW116038   2.813   3.865   1.185 -0.4820  1.7805  0.3307
 1703SOL    HW216039   2.975   3.848   1.177 -0.7224 -0.5805 -0.0288
 1704SOL     OW16040   0.120   3.044   3.060 -0.6976  0.1620  0.4279
 1704SOL    HW116041   0.086   3.121   3.113 -0.7720 -1.2352  2.4444
 1704SOL    HW216042   0.080   3.046   2.968 -1.7779  1.7168  0.9221
 1705SOL     OW16043   4.695   3.427   0.364 -0.2727  0.0492 -0.6219
 1705SOL    HW116044   4.633   3.476   0.425  0.3832 -0.4799  0.4955
 1705SOL    HW216045   4.773   3.486   0.342  0.0577 -0.1519 -0.0163
 1706SOL     OW16046   0.611   6.219   4.265 -0.4522 -0.1846 -0.2023
 1706SOL    HW116047   0.616   6.124   4.232 -1.6193 -0.1746 -0.4356
 1706SOL    HW216048   0.663   6.228   4.349  0.2411 -0.8789 -0.5500
 1707SOL     OW16049   4.029   4.591   0.410  0.3627 -0.2992  0.3599
 1707SOL    HW116050   3.984   4.514   0.364 -2.1575  1.1606  0.2766
 1707SOL    HW216051   4.004   4.590   0.507 -0.0326  0.6460  0.2671
 1708SOL     OW16052   3.224   3.286   2.062 -0.5364  0.0615  0.0128
 1708SOL    HW116053   3.229   3.303   1.964 -2.7340 -0.6281 -0.2495
 1708SOL    HW216054   3.245   3.190   2.081  0.7720  0.4027  0.3180
 1709SOL     OW16055   4.239   4.441   4.936  0.6371  0.8209  0.5662
 1709SOL    HW116056   4.310   4.373   4.952 -0.8864 -0.9410  0.0539
 1709SOL    HW216057   4.256   4.488   4.850  0.9779  0.1180  0.2455
 1710SOL     OW16058   5.893   7.398   3.159  0.0608 -0.0916 -0.2801
 1710SOL    HW116059   5.821   7.366   3.097  2.2059 -0.2666 -2.7620
 1710SOL    HW216060   5.888   7.347   3.244 -2.1899 -0.7177 -0.7441
 1711SOL     OW16061   1.833   8.590   3.915 -0.0289  0.3290  1.0568
 1711SOL    HW116062   1.911   8.649   3.936 -0.2696  1.4586 -1.1084
 1711SOL    HW216063   1.860   8.494   3.924  2.2019  0.6614 -1.5347
 1712SOL     OW16064   0.229   7.967   0.564  0.2134  0.2706  0.0990
 1712SOL    HW116065   0.230   7.967   0.464 -0.6349  0.6378  0.0856
 1712SOL    HW216066   0.159   8.030   0.596  1.4183  1.1952  0.9415
 1713SOL     OW16067   2.951   3.604   1.349  0.1220 -0.5526  0.3720
 1713SOL    HW116068   2.982   3.598   1.254  0.1608  0.8661  0.2899
 1713SOL    HW216069   3.018   3.656   1.403 -0.5615 -0.2123  0.8902
 1714SOL     OW16070   3.019   6.558   1.341 -0.0145  0.2232 -0.4194
 1714SOL    HW116071   2.992   6.499   1.264 -1.4517 -0.0452  0.2717
 1714SOL    HW216072   2.958   6.637   1.345  0.4523  0.5580  0.0730
 1715SOL     OW16073   7.146   0.722   4.355 -0.5951  0.5339  0.3606
 1715SOL    HW116074   7.048   0.741   4.354 -0.4815  1.1533  0.9576
 1715SOL    HW216075   7.164   0.643   4.414 -0.8710 -0.3889 -0.7642
 1716SOL     OW16076   2.229   5.071   0.171  0.2711 -0.0079  0.0037
 1716SOL    HW116077   2.139   5.029   0.180 -0.1306  0.9902  0.7529
 1716SOL    HW216078   2.300   5.004   0.193 -0.3884 -0.0835  2.0081
 1717SOL     OW16079   9.828   2.786   5.360  0.3873 -0.0970 -0.2409
 1717SOL    HW116080   9.850   2.882   5.343  1.4660 -0.4755 -1.0602
 1717SOL    HW216081   9.860   2.731   5.283  2.2543 -1.4414  1.4475
 1718SOL     OW16082   8.887   2.480   4.813  0.4401 -0.0681 -0.1548
 1718SOL    HW116083   8.948   2.558   4.801  0.2352  0.1254  0.0410
 1718SOL    HW216084   8.863   2.472   4.910 -1.9225  1.4510 -0.5660
 1719SOL     OW16085   2.509   1.451   5.617  0.2053 -0.8058 -0.4514
 1719SOL    HW116086   2.595   1.498   5.594 -0.5800  0.2956 -1.1760
 1719SOL    HW216087   2.517   1.411   5.708  1.0653  0.3298 -0.0065
 1720SOL     OW16088   0.451   0.168   5.310 -0.1577  0.2022 -0.2936
 1720SOL    HW116089   0.483   0.262   5.294 -0.7754  0.3293 -0.8538
 1720SOL    HW216090   0.514   0.120   5.370  0.7323  0.6454 -0.8665
 1721SOL     OW16091   2.743   8.742   5.506 -0.4297  0.3743  0.2162
 1721SOL    HW116092   2.814   8.675   5.523 -1.3421 -0.5454  0.4620
 1721SOL    HW216093   2.655   8.706   5.536 -1.0807  1.2933 -0.5327
 1722SOL     OW16094   7.740   9.014   2.579 -0.4502 -0.1400 -0.3095
 1722SOL    HW116095   7.746   9.012   2.479 -1.1652 -0.0081 -0.3610
 1722SOL    HW216096   7.824   9.051   2.617 -0.4813  0.5441 -0.8965
 1723SOL     OW16097   2.727   1.821   1.243 -0.1062 -0.0246  0.5918
 1723SOL    HW116098   2.780   1.885   1.298 -0.3959  2.1838 -1.5903
 1723SOL    HW216099   2.630   1.832   1.264 -0.1106 -0.1256  0.6221
 1724SOL     OW16100   8.433   9.960   1.749 -0.0012 -0.3015  0.2660
 1724SOL    HW116101   8.506   9.906   1.709 -0.5476 -1.1870  0.4392
 1724SOL    HW216102   8.464  10.054   1.762  1.3246 -0.8169  0.9314
 1725SOL     OW16103   7.177   1.315   0.331  0.0073  0.1260  0.0464
 1725SOL    HW116104   7.265   1.362   0.322 -0.4469  0.8239 -0.8397
 1725SOL    HW216105   7.190   1.217   0.319  1.0056 -0.0329  2.1342
 1726SOL     OW16106   9.188   8.085   2.824  0.8217  0.3306 -0.1105
 1726SOL    HW116107   9.111   8.071   2.762 -0.3438  2.5183  0.8241
 1726SOL    HW216108   9.163   8.054   2.915  1.2365  0.5903  0.0894
 1727SOL     OW16109   4.345   8.310   5.056 -0.4328  0.1397  0.4721
 1727SOL    HW116110   4.260   8.259   5.067 -0.0424 -0.9587 -1.4332
 1727SOL    HW216111   4.327   8.395   5.006 -0.0683 -1.1950 -1.9934
 1728SOL     OW16112   5.391   0.074   4.777 -0.2299 -0.8244 -0.2686
 1728SOL    HW116113   5.439   0.078   4.864  0.2660  4.8044 -0.6411
 1728SOL    HW216114   5.455   0.047   4.705  1.0323  1.1103  0.1048
 1729SOL     OW16115   7.440   8.865   1.633 -0.0129  0.6444  0.0470
 1729SOL    HW116116   7.388   8.873   1.718  1.7835  0.3071  1.2036
 1729SOL    HW216117   7.444   8.955   1.589 -0.6954  0.8857  0.4609
 1730SOL     OW16118   0.555   0.385   2.486 -0.0410  0.4155 -0.4410
 1730SOL    HW116119   0.474   0.430   2.449 -0.4070 -0.0408 -0.2005
 1730SOL    HW216120   0.604   0.338   2.413  0.0154  0.7024 -0.5890
 1731SOL     OW16121   0.391   5.636   2.016 -0.9079 -0.1246 -0.6549
 1731SOL    HW116122   0.471   5.624   1.958  0.0711  0.8417  0.4591
 1731SOL    HW216123   0.326   5.696   1.971 -1.2384 -1.3174 -1.7829
 1732SOL     OW16124   9.699   5.140   5.511  0.2030  0.1243  0.9740
 1732SOL    HW116125   9.609   5.165   5.473 -0.2361 -1.1480  1.1679
 1732SOL    HW216126   9.758   5.221   5.510 -0.8740  0.9316  0.6550
 1733SOL     OW16127   0.704   3.101   5.248  0.6290 -0.0070  0.0775
 1733SOL    HW116128   0.617   3.149   5.262  0.1554 -0.4786 -1.1803
 1733SOL    HW216129   0.779   3.158   5.281  0.1532  2.0666 -2.2469
 1734SOL     OW16130   7.015   9.156   4.559 -0.4493  0.0221 -0.8936
 1734SOL    HW116131   7.099   9.200   4.528  0.5366 -0.2440  1.3688
 1734SOL    HW216132   6.965   9.121   4.479  2.5157 -1.5602 -2.1454
 1735SOL     OW16133   8.405   5.472   4.903 -0.0753  0.2958 -0.0635
 1735SOL    HW116134   8.455   5.558   4.898 -1.9120  1.3442 -0.8053
 1735SOL    HW216135   8.378   5.444   4.811 -1.6332  0.2273  0.4013
 1736SOL     OW16136   7.711   0.627   0.742 -0.7794  1.0079  0.0726
 1736SOL    HW116137   7.611   0.637   0.737 -0.9016 -0.6908 -1.2404
 1736SOL    HW216138   7.753   0.679   0.668 -0.9210 -1.0053 -1.4751
 1737SOL     OW16139   3.420   7.236   3.704  0.7514 -0.1370 -0.0764
 1737SOL    HW116140   3.460   7.201   3.788  2.2565  0.1080 -0.6757
 1737SOL    HW216141   3.410   7.162   3.638 -0.6047 -0.3660  0.3779
 1738SOL     OW16142   6.890   8.352   2.291 -0.8131 -0.1578 -0.0256
 1738SOL    HW116143   6.950   8.425   2.321 -1.2665  0.4587 -0.6065
 1738SOL    HW216144   6.820   8.335   2.360  0.7333 -1.6922  1.1917
 1739SOL     OW16145   2.459   5.209   1.661 -0.0168  0.2749  0.2437
 1739SOL    HW116146   2.380   5.268   1.645 -0.5595 -0.2452  1.0164
 1739SOL    HW216147   2.430   5.126   1.708  0.6256 -0.9687 -1.4881
 1740SOL     OW16148   2.776   2.939   0.964  0.4219  1.1050  0.1027
 1740SOL    HW116149   2.843   2.865   0.969  0.9007  1.4091 -1.4104
 1740SOL    HW216150   2.780   2.981   0.873 -2.0773  0.8852 -0.1297
 1741SOL     OW16151   6.990   9.941   1.966  0.2628  0.3294 -0.3741
 1741SOL    HW116152   6.926  10.018   1.960  0.7450  0.8177  0.5628
 1741SOL    HW216153   6.965   9.871   1.899  1.9711  2.8782 -3.8007
 1742SOL     OW16154   2.443   8.744   2.774  0.7266  0.3098  0.2645
 1742SOL    HW116155   2.410   8.720   2.865  2.2121  0.6521  0.9099
 1742SOL    HW216156   2.370   8.791   2.724 -0.1195  0.0673  1.2490
 1743SOL     OW16157   9.321   0.759   3.748  0.0618  0.2177  0.0591
 1743SOL    HW116158   9.251   0.829   3.738  0.8983  1.2795  1.4745
 1743SOL    HW216159   9.399   0.782   3.690 -1.1546 -1.5063 -2.3092
 1744SOL     OW16160   3.489   1.471   1.374  0.2808  0.7990  0.0875
 1744SOL    HW116161   3.423   1.438   1.307 -0.6438  1.0809  0.8337
 1744SOL    HW216162   3.564   1.518   1.328  0.1543  0.1362 -0.7992
 1745SOL     OW16163   1.699   4.505   0.989 -0.0695 -0.1441 -0.5723
 1745SOL    HW116164   1.748   4.524   1.075  0.0327  0.4598 -0.7632
 1745SOL    HW216165   1.685   4.406   0.981  2.0099 -0.4349 -0.9845
 1746SOL     OW16166   9.043   8.396   0.688  0.4060  0.1743 -0.0028
 1746SOL    HW116167   8.966   8.352   0.733  0.4328 -1.2923 -1.3534
 1746SOL    HW216168   9.068   8.478   0.739 -0.7714 -0.3979  1.5562
 1747SOL     OW16169   8.802   2.405   2.534 -0.1151 -0.4744  0.1289
 1747SOL    HW116170   8.803   2.429   2.437 -0.7405 -0.1046  0.2041
 1747SOL    HW216171   8.785   2.307   2.545 -2.4080 -0.1303 -0.0981
 1748SOL     OW16172   4.317   3.623   4.756 -0.0154  0.2158 -0.3209
 1748SOL    HW116173   4.400   3.646   4.806 -1.2446  0.6645  1.5971
 1748SOL    HW216174   4.332   3.540   4.703  1.6321  0.2454  0.0752
 1749SOL     OW16175   3.410   7.096   2.726  0.3945  0.6351 -0.0569
 1749SOL    HW116176   3.422   7.159   2.803 -2.2625  0.1564  0.8010
 1749SOL    HW216177   3.475   7.120   2.654  1.2179  2.7011  1.3023
 1750SOL     OW16178   1.663   8.631   1.994  0.3010  0.1889 -0.6522
 1750SOL    HW116179   1.577   8.581   1.984  1.5289 -2.2093  0.3362
 1750SOL    HW216180   1.648   8.711   2.052 -1.1772 -0.4920 -0.0530
 1751SOL     OW16181   8.888   0.182   0.478 -0.3359 -0.0312  0.1231
 1751SOL    HW116182   8.920   0.174   0.573 -0.6437  0.5494  0.2774
 1751SOL    HW216183   8.965   0.209   0.420 -0.4120  0.7753  0.3976
 1752SOL     OW16184   2.319   6.344   4.462  0.2312  0.3825  0.3264
 1752SOL    HW116185   2.277   6.386   4.542 -0.1547  0.1289  0.2607
 1752SOL    HW216186   2.326   6.413   4.389  0.4829  0.5839  0.5428
 1753SOL     OW16187   3.564   7.745   5.302 -0.0802  0.2295  0.2829
 1753SOL    HW116188   3.530   7.657   5.269  0.4099 -0.4308  1.5115
 1753SOL    HW216189   3.558   7.748   5.402  0.6632  1.2678  0.2996
 1754SOL     OW16190   0.307   9.573   0.089  0.2610  0.1503 -0.1853
 1754SOL    HW116191   0.348   9.629   0.161  1.3522  0.0928 -0.7599
 1754SOL    HW216192   0.247   9.630   0.033  0.6236  0.5284 -0.1877
 1755SOL     OW16193   3.440   5.436   4.177  0.1495 -0.2505  0.5220
 1755SOL    HW116194   3.462   5.407   4.270 -1.4645 -2.3102  0.2930
 1755SOL    HW216195   3.370   5.508   4.181 -1.1374 -1.5024  0.8587
 1756SOL     OW16196   0.547   5.912   3.223  0.1690  0.4409 -0.3369
 1756SOL    HW116197   0.461   5.904   3.174  0.0255 -1.6607  0.2131
 1756SOL    HW216198   0.622   5.887   3.162  0.1465 -0.3812 -0.0348
 1757SOL     OW16199   3.155   5.915   4.223  0.6437  0.0670  0.1651
 1757SOL    HW116200   3.218   5.923   4.145  2.0755  0.0718  1.3021
 1757SOL    HW216201   3.103   5.830   4.215 -1.2304  1.3500 -2.2167
 1758SOL     OW16202   9.090   5.410   4.051 -0.5152 -1.3307 -0.1793
 1758SOL    HW116203   9.052   5.421   3.959  0.9893 -2.2881 -0.9260
 1758SOL    HW216204   9.017   5.423   4.118 -1.3565  0.7639 -1.4346
 1759SOL     OW16205   3.286   5.303   4.829  0.1576 -0.5933 -0.1000
 1759SOL    HW116206   3.381   5.328   4.813  0.5793 -0.9672  1.7518
 1759SOL    HW216207   3.280   5.239   4.905 -1.7416  0.8921  1.0551
 1760SOL     OW16208   4.966   9.691   4.741 -0.3330  0.1972 -0.1668
 1760SOL    HW116209   5.035   9.763   4.738 -0.9257  0.7853  0.1275
 1760SOL    HW216210   5.010   9.602   4.735  0.2282  0.6327 -3.5922
 1761SOL     OW16211   3.392   9.791   3.123 -0.1320  0.2411  0.3920
 1761SOL    HW116212   3.324   9.848   3.077  0.2868  1.7917  1.6662
 1761SOL    HW216213   3.482   9.835   3.119  0.2842 -0.5329  1.0110
 1762SOL     OW16214   5.542   0.162   3.110  0.5704  0.5702 -0.2923
 1762SOL    HW116215   5.567   0.204   3.198  2.0458  1.7825 -1.2753
 1762SOL    HW216216   5.464   0.209   3.071  1.3325  1.5056 -0.7064
 1763SOL     OW16217   7.851   0.257   5.548  0.0925 -0.3890  0.1853
 1763SOL    HW116218   7.824   0.312   5.627 -0.4718 -2.0218  1.1627
 1763SOL    HW216219   7.915   0.185   5.577 -0.2246 -1.0891 -0.8046
 1764SOL     OW16220   3.130   6.698   3.523  0.5010 -0.0685  0.0696
 1764SOL    HW116221   3.048   6.656   3.484  0.9682 -1.3438  0.4348
 1764SOL    HW216222   3.195   6.718   3.449  0.1004  0.4038 -0.1555
 1765SOL     OW16223   7.095   7.321   2.994 -0.5277  0.1219  0.3192
 1765SOL    HW116224   7.153   7.242   2.976 -0.2184  0.6238 -0.9132
 1765SOL    HW216225   7.004   7.290   3.022 -0.8399 -0.6903 -1.5474
 1766SOL     OW16226   2.351   4.765   2.472 -0.4431  0.8530  0.5442
 1766SOL    HW116227   2.334   4.688   2.410 -0.7174  2.7791 -1.8453
 1766SOL    HW216228   2.267   4.818   2.482  0.3350  2.1414  0.3189
 1767SOL     OW16229   0.987   8.423   2.079 -0.1363 -0.0845  0.3030
 1767SOL    HW116230   1.009   8.435   1.983  0.3503  2.2369  0.6625
 1767SOL    HW216231   0.906   8.477   2.101 -0.5593 -1.0259  1.0789
 1768SOL     OW16232   1.578   9.827   4.598  0.1566  0.1781 -0.2845
 1768SOL    HW116233   1.613   9.921   4.598  2.8029 -0.7335 -1.9147
 1768SOL    HW216234   1.575   9.793   4.504 -1.3427 -1.1837  0.2331
 1769SOL     OW16235   6.093   7.423   1.974  0.6101 -0.1817 -0.1041
 1769SOL    HW116236   6.190   7.402   1.984  0.9504  1.9390  1.2636
 1769SOL    HW216237   6.083   7.515   1.937 -0.8933 -0.3772 -0.2053
 1770SOL     OW16238   8.728   0.775   1.062 -0.4315  0.0293 -0.1649
 1770SOL    HW116239   8.657   0.846   1.051  0.5213  0.9153 -0.6707
 1770SOL    HW216240   8.730   0.746   1.158  1.5668  3.2743  0.8708
 1771SOL     OW16241   5.024   9.070   4.225  0.2474  0.2590 -0.0023
 1771SOL    HW116242   4.986   9.157   4.255 -1.0705 -0.5210  0.6266
 1771SOL    HW216243   5.080   9.031   4.299  0.6618  0.4687 -0.2051
 1772SOL     OW16244   8.794   1.457   4.177 -0.0146 -0.1653 -0.0219
 1772SOL    HW116245   8.750   1.534   4.130 -0.8231 -0.1214  0.7838
 1772SOL    HW216246   8.727   1.411   4.236  0.6848 -0.9450  0.1804
 1773SOL     OW16247   3.587   3.682   5.633  0.3097  0.4697 -0.2531
 1773SOL    HW116248   3.493   3.689   5.665  1.1569  1.8668  2.0358
 1773SOL    HW216249   3.597   3.599   5.578 -2.1424  0.0797 -0.1710
 1774SOL     OW16250   3.208   8.652   3.620 -0.8922 -0.4181  0.0777
 1774SOL    HW116251   3.237   8.557   3.633 -0.3310 -0.2559  0.0329
 1774SOL    HW216252   3.275   8.699   3.562 -0.4289  0.3860  1.2515
 1775SOL     OW16253   3.526   3.658   5.204 -0.2199 -0.0126 -0.1453
 1775SOL    HW116254   3.475   3.743   5.191  0.9610  0.4842 -1.5850
 1775SOL    HW216255   3.624   3.677   5.202  0.0494 -1.3051  0.3023
 1776SOL     OW16256   5.450   0.755   2.939 -0.6303  0.3644 -0.4814
 1776SOL    HW116257   5.459   0.853   2.955 -0.4051  0.6871 -2.5011
 1776SOL    HW216258   5.482   0.705   3.020  1.9019  1.9004 -0.4759
 1777SOL     OW16259   4.592   7.745   3.252  0.3587 -0.9970  0.5732
 1777SOL    HW116260   4.621   7.827   3.204  0.7980 -0.3037  1.9933
 1777SOL    HW216261   4.657   7.670   3.235  0.6871 -0.6600  0.3577
 1778SOL     OW16262   9.200   5.461   1.237 -0.0944  0.3354  0.0611
 1778SOL    HW116263   9.283   5.423   1.277 -0.5141 -0.7750 -0.0970
 1778SOL    HW216264   9.220   5.502   1.148  0.1032 -0.8485 -0.4474
 1779SOL     OW16265   1.794   9.521   0.431  0.2043  0.1290 -0.0600
 1779SOL    HW116266   1.864   9.561   0.371  0.2723  0.5189  0.2758
 1779SOL    HW216267   1.835   9.500   0.520  0.2922 -1.1541 -0.3968
 1780SOL     OW16268   3.900   4.854   0.473 -0.2871  0.3830  0.0041
 1780SOL    HW116269   3.920   4.807   0.386  1.2066  0.3095  0.3771
 1780SOL    HW216270   3.880   4.786   0.543  0.3918  0.3725  0.1834
 1781SOL     OW16271   3.664   1.303   4.768  0.0260  0.3042  0.4092
 1781SOL    HW116272   3.586   1.321   4.708  1.7910 -1.2159 -2.4447
 1781SOL    HW216273   3.660   1.209   4.800  0.6971  0.2165  0.2322
 1782SOL     OW16274   2.231   9.875   0.533  0.6445 -0.0399 -0.5127
 1782SOL    HW116275   2.328   9.862   0.513  0.8176  1.0719 -0.4510
 1782SOL    HW216276   2.199   9.959   0.489 -0.4929 -0.8189 -1.2112
 1783SOL     OW16277   3.631   5.594   4.442 -0.2529  0.4192  0.0182
 1783SOL    HW116278   3.670   5.626   4.528  0.0372  1.0302 -0.3352
 1783SOL    HW216279   3.548   5.542   4.460 -0.3829  0.8380  0.6490
 1784SOL     OW16280   1.215   3.175   1.368  0.2595 -0.6733 -0.0671
 1784SOL    HW116281   1.269   3.102   1.326 -1.2485 -2.2872  0.7074
 1784SOL    HW216282   1.171   3.229   1.296 -1.1413 -2.5186 -0.6424
 1785SOL     OW16283   4.658   3.132   2.255 -0.1270  0.8877  0.4689
 1785SOL    HW116284   4.619   3.118   2.164  0.1867 -2.0275  0.7415
 1785SOL    HW216285   4.586   3.157   2.319 -0.9102 -0.3618  0.0920
 1786SOL     OW16286   3.939   5.362   4.897  0.0285  0.1108 -0.3019
 1786SOL    HW116287   4.021   5.350   4.954 -0.5137 -0.2057  0.4193
 1786SOL    HW216288   3.878   5.429   4.940  0.3357  1.0528 -1.3186
 1787SOL     OW16289   8.994   2.360   0.226 -0.3691 -0.1232  0.0528
 1787SOL    HW116290   9.083   2.328   0.193 -0.6731 -1.6535  0.6756
 1787SOL    HW216291   8.939   2.390   0.149  0.4045  0.1169 -0.4145
 1788SOL     OW16292   3.342   0.213   0.585 -0.4431 -0.1536 -0.0901
 1788SOL    HW116293   3.418   0.190   0.523  0.1227 -1.4698  1.0720
 1788SOL    HW216294   3.261   0.159   0.559 -0.0377 -1.1317  0.6730
 1789SOL     OW16295   1.999   5.985   1.420  0.4707  0.1239  0.3421
 1789SOL    HW116296   1.934   6.030   1.358  1.1516  0.1503 -0.3568
 1789SOL    HW216297   2.006   5.888   1.396 -0.7244 -0.2943  1.6197
 1790SOL     OW16298   9.537   0.934   5.481  0.5856  0.7391 -0.0958
 1790SOL    HW116299   9.518   0.927   5.579 -0.3003  0.6410 -0.2771
 1790SOL    HW216300   9.621   0.988   5.467  2.8144 -2.3084  0.9135
 1791SOL     OW16301   8.790   4.735   1.199 -0.0460 -0.4752 -0.0486
 1791SOL    HW116302   8.764   4.665   1.133 -1.5172  0.9807 -1.0433
 1791SOL    HW216303   8.888   4.755   1.190 -0.2085 -0.3733 -1.7065
 1792SOL     OW16304   1.045   9.715   3.230  0.2757 -0.1084  0.8217
 1792SOL    HW116305   1.101   9.762   3.298  0.6771 -0.7722  0.9562
 1792SOL    HW216306   0.982   9.780   3.188  0.0508  0.3177  1.7969
 1793SOL     OW16307   4.177   8.993   5.563  0.6482 -0.1645 -0.0134
 1793SOL    HW116308   4.207   8.929   5.634 -1.5772 -0.1734  0.9925
 1793SOL    HW216309   4.089   8.961   5.525  0.5971  1.1466 -1.0326
 1794SOL     OW16310   9.910   9.416   3.760  0.0845 -0.2919  0.4714
 1794SOL    HW116311   9.897   9.322   3.792  0.1353 -0.5978 -0.3861
 1794SOL    HW216312   9.824   9.452   3.725  0.0059  0.0741  1.0384
 1795SOL     OW16313   0.943   0.722   3.414  0.2105  0.0145  0.1023
 1795SOL    HW116314   0.925   0.633   3.455  0.8491  0.2946  1.0181
 1795SOL    HW216315   0.942   0.792   3.486  1.8565  0.4511 -0.2854
 1796SOL     OW16316   9.363   5.003   4.696  0.1844 -0.2293 -0.0552
 1796SOL    HW116317   9.279   5.002   4.641 -0.0656  2.7290  0.1553
 1796SOL    HW216318   9.427   4.935   4.662 -0.9051 -0.0604 -2.4990
 1797SOL     OW16319   2.065   8.047   2.091  0.3675 -0.5492 -0.1604
 1797SOL    HW116320   1.973   8.026   2.059  0.9075 -1.2577 -1.2881
 1797SOL    HW216321   2.061   8.123   2.156 -1.1437 -1.3430  0.7114
 1798SOL     OW16322   9.293   9.438   0.596 -0.1189 -0.4007 -0.6000
 1798SOL    HW116323   9.263   9.487   0.678  0.9425 -1.5184  0.4812
 1798SOL    HW216324   9.214   9.403   0.547 -0.8280  1.3028 -0.7135
 1799SOL     OW16325   2.495   9.873   2.146 -0.0947 -0.4052 -0.2452
 1799SOL    HW116326   2.551   9.922   2.080 -0.5001 -0.0361 -0.3143
 1799SOL    HW216327   2.473   9.782   2.110  0.6662 -0.6424 -0.1085
 1800SOL     OW16328   0.581   8.620   3.627 -0.4598  0.0078 -0.4315
 1800SOL    HW116329   0.576   8.568   3.712 -0.9017  1.1404  0.2490
 1800SOL    HW216330   0.675   8.651   3.613 -0.1546 -1.1028 -0.9337
 1801SOL     OW16331   9.160   1.244   1.775 -0.0844 -0.1650  0.2303
 1801SOL    HW116332   9.236   1.248   1.710 -0.8211 -3.2079 -0.9251
 1801SOL    HW216333   9.133   1.148   1.788 -1.5878  0.6070  3.1329
 1802SOL     OW16334   4.968   8.114   2.891  0.2843 -0.1658 -0.4762
 1802SOL    HW116335   4.919   8.090   2.975  1.0176 -0.7382 -0.2010
 1802SOL    HW216336   4.973   8.214   2.883 -0.1310 -0.1060 -0.0453
 1803SOL     OW16337   2.510   6.547   3.285  0.5604 -0.5947  0.0512
 1803SOL    HW116338   2.544   6.641   3.291  2.0676 -1.2256  2.1432
 1803SOL    HW216339   2.480   6.517   3.375 -0.7246 -1.8357 -0.7760
 1804SOL     OW16340   5.475   7.644   1.725  0.1622 -0.6107  0.1149
 1804SOL    HW116341   5.566   7.670   1.692  0.6816 -1.3236  0.9508
 1804SOL    HW216342   5.460   7.684   1.815 -1.6489  2.1655 -1.3341
 1805SOL     OW16343   3.381   9.192   1.145  0.8065  0.2912 -0.3366
 1805SOL    HW116344   3.297   9.242   1.168  0.7856 -0.1816  0.6345
 1805SOL    HW216345   3.383   9.174   1.047  0.7058  2.0195 -0.6826
 1806SOL     OW16346   5.396   8.047   3.038  0.0053  0.0379 -0.3161
 1806SOL    HW116347   5.492   8.072   3.022 -0.2261  1.0364 -0.2090
 1806SOL    HW216348   5.365   8.090   3.123 -0.4126 -0.6222 -0.1362
 1807SOL     OW16349   0.964   3.560   4.488 -0.6043 -0.1705 -0.1756
 1807SOL    HW116350   0.895   3.498   4.526 -0.2551 -0.5818 -0.2045
 1807SOL    HW216351   0.972   3.640   4.546 -1.9085  0.4177 -0.7711
 1808SOL     OW16352   0.302   9.849   1.357 -0.0876 -0.1643 -0.0635
 1808SOL    HW116353   0.276   9.886   1.268 -2.2460 -3.1153 -0.7271
 1808SOL    HW216354   0.223   9.807   1.400  1.6307 -1.4598  1.9265
 1809SOL     OW16355   1.002   1.064   3.028 -0.4436 -0.3253 -0.3013
 1809SOL    HW116356   1.068   1.036   3.098  0.0844  0.6750 -0.3797
 1809SOL    HW216357   0.945   0.986   3.003  3.0995 -2.2699 -2.8402
 1810SOL     OW16358   3.110   6.405   5.449  0.1654 -0.2689 -0.4304
 1810SOL    HW116359   3.076   6.464   5.375  0.3884  0.3663 -0.0349
 1810SOL    HW216360   3.193   6.446   5.488 -0.7035  0.0966  1.0680
 1811SOL     OW16361   9.419   6.270   1.169 -0.3711  0.2477 -0.6192
 1811SOL    HW116362   9.371   6.357   1.182 -1.8608 -0.6284 -0.0680
 1811SOL    HW216363   9.512   6.278   1.204 -1.1183  1.0377  1.2553
 1812SOL     OW16364   4.068   1.713   2.951 -0.3580  0.2135 -0.1136
 1812SOL    HW116365   3.993   1.712   2.885 -0.1710 -1.3146 -0.3181
 1812SOL    HW216366   4.155   1.700   2.904 -0.1484 -0.0096  0.3264
 1813SOL     OW16367   8.282   1.994   4.258 -0.3054 -0.8262  0.4772
 1813SOL    HW116368   8.352   2.021   4.324  0.8900 -0.1698 -1.0192
 1813SOL    HW216369   8.271   2.067   4.190 -1.8639 -1.2834  0.2251
 1814SOL     OW16370   9.798   3.754   0.541  0.0101  0.1741 -0.3118
 1814SOL    HW116371   9.775   3.727   0.635 -1.9623  1.9835 -0.2228
 1814SOL    HW216372   9.763   3.686   0.477 -1.1796  0.3579  0.1252
 1815SOL     OW16373   8.434   9.489   3.805  0.1865  0.2429 -0.3890
 1815SOL    HW116374   8.501   9.482   3.879 -0.1154  1.3662 -0.0044
 1815SOL    HW216375   8.477   9.459   3.719  1.1367  0.8196 -0.1212
 1816SOL     OW16376   8.142   7.083   2.191  0.0615  0.5923  0.8384
 1816SOL    HW116377   8.088   7.070   2.108 -0.4640  0.1616  1.2518
 1816SOL    HW216378   8.084   7.120   2.263  0.6622  1.5680  0.8295
 1817SOL     OW16379   2.493   3.324   5.174  0.2842 -0.0575 -0.5994
 1817SOL    HW116380   2.488   3.324   5.273  0.6846 -0.8170 -0.5783
 1817SOL    HW216381   2.408   3.359   5.136 -0.8134 -2.0243 -0.0227
 1818SOL     OW16382   0.554   5.425   0.152  0.2593  0.1306 -0.6121
 1818SOL    HW116383   0.543   5.521   0.177 -0.1873 -0.4506  1.5611
 1818SOL    HW216384   0.639   5.413   0.101 -0.7720  2.0128 -2.8253
 1819SOL     OW16385   0.444   3.547   5.356 -0.1569 -0.8289  0.0036
 1819SOL    HW116386   0.351   3.575   5.335  0.8129  0.9127 -2.1963
 1819SOL    HW216387   0.442   3.467   5.415 -3.0364  0.7964  2.2722
 1820SOL     OW16388   2.488   9.085   1.011 -1.1456 -0.0439 -0.4293
 1820SOL    HW116389   2.395   9.075   1.048 -1.1812  1.2997 -0.1356
 1820SOL    HW216390   2.490   9.050   0.917 -3.0375  3.7127 -1.9913
 1821SOL     OW16391   9.015   6.938   0.702 -0.1211  0.2192 -0.3284
 1821SOL    HW116392   9.069   6.993   0.766 -0.9872 -0.2892  0.8695
 1821SOL    HW216393   8.968   6.865   0.753 -0.6011 -0.3600 -1.5917
 1822SOL     OW16394   3.568   7.876   4.350  0.1542 -0.1567  0.1609
 1822SOL    HW116395   3.478   7.869   4.393  0.0682  3.5555  0.7292
 1822SOL    HW216396   3.558   7.870   4.251 -0.2686 -3.2836  0.3501
 1823SOL     OW16397   7.761   0.494   0.466  0.3776 -0.3363  0.1373
 1823SOL    HW116398   7.749   0.593   0.465 -2.0119 -0.6214 -1.1380
 1823SOL    HW216399   7.683   0.450   0.422  1.8510 -2.7534 -0.1429
 1824SOL     OW16400   2.128   9.284   3.308 -0.3022  0.0819 -0.0987
 1824SOL    HW116401   2.159   9.371   3.268 -0.9149 -0.1393 -1.0633
 1824SOL    HW216402   2.158   9.208   3.250  0.0010 -0.3343  0.6033
 1825SOL     OW16403   4.010   7.716   1.128 -0.3727 -0.0731  0.1536
 1825SOL    HW116404   4.013   7.641   1.063 -0.3185 -0.4507  0.5891
 1825SOL    HW216405   4.104   7.741   1.155 -0.4192 -0.4385  0.6744
 1826SOL     OW16406   2.019   8.684   5.502  0.8427  0.8070 -0.2061
 1826SOL    HW116407   2.087   8.616   5.529 -0.3161  0.4411  1.9156
 1826SOL    HW216408   1.951   8.642   5.442  0.7468  0.3498  0.2156
 1827SOL     OW16409   0.802   7.984   5.187 -0.8431 -0.2440  0.5714
 1827SOL    HW116410   0.734   8.040   5.140  0.4356  0.2356 -0.7398
 1827SOL    HW216411   0.778   7.888   5.177 -0.7168 -0.1353 -0.8802
 1828SOL     OW16412   5.774   4.261   0.748  0.0557  0.4571  0.1479
 1828SOL    HW116413   5.829   4.194   0.698  0.1416  2.2479 -2.2319
 1828SOL    HW216414   5.702   4.213   0.799  1.6784 -1.6253  0.5493
 1829SOL     OW16415   3.057   8.362   3.308  0.3899  0.2230  0.3476
 1829SOL    HW116416   3.079   8.272   3.343  3.3299  0.8785  0.2762
 1829SOL    HW216417   3.018   8.418   3.381  1.7226 -0.0400  1.2691
 1830SOL     OW16418   2.255   6.501   1.428 -0.1938  0.2484 -0.1937
 1830SOL    HW116419   2.288   6.591   1.455 -0.9097  0.0248  1.5229
 1830SOL    HW216420   2.312   6.430   1.469  1.0388 -0.1025 -2.4290
 1831SOL     OW16421   8.412   5.805   3.797 -0.2689  0.0661  0.0712
 1831SOL    HW116422   8.393   5.899   3.768 -0.4242 -0.0080 -0.0689
 1831SOL    HW216423   8.408   5.744   3.717  1.5947  0.2038 -0.1476
 1832SOL     OW16424   4.428   0.547   2.657  0.3812  0.1994 -0.8910
 1832SOL    HW116425   4.387   0.570   2.745 -1.0439 -3.3926 -0.5516
 1832SOL    HW216426   4.517   0.503   2.672  0.0579 -0.5747 -1.2381
 1833SOL     OW16427   0.346   5.362   5.009 -0.0644  0.7495  0.2794
 1833SOL    HW116428   0.282   5.414   5.066 -0.2848  0.3912  0.3621
 1833SOL    HW216429   0.429   5.415   4.995 -0.6498  1.5011 -0.3886
 1834SOL     OW16430   0.725   8.121   4.456 -0.1208 -0.4526 -0.1612
 1834SOL    HW116431   0.723   8.022   4.466  0.2323 -0.4226  0.2099
 1834SOL    HW216432   0.635   8.159   4.480  0.5336 -0.4318  2.4931
 1835SOL     OW16433   7.537   3.948   1.109 -0.2382  0.4306 -0.2676
 1835SOL    HW116434   7.460   3.885   1.106  1.0168 -1.2268  1.2201
 1835SOL    HW216435   7.621   3.900   1.086  0.5371  1.9217 -0.6343
 1836SOL     OW16436   0.508   9.196   1.750  0.4324 -0.5068  0.3316
 1836SOL    HW116437   0.485   9.253   1.671  1.1781 -2.4554 -1.3487
 1836SOL    HW216438   0.428   9.145   1.779 -0.0084  0.6916  1.2796
 1837SOL     OW16439   0.571   1.068   3.084 -0.1604 -0.0465 -0.1852
 1837SOL    HW116440   0.600   1.163   3.090  2.4889 -0.7731 -0.6632
 1837SOL    HW216441   0.557   1.043   2.988  1.0049 -0.6487 -0.2049
 1838SOL     OW16442   0.142   6.921   1.223 -0.1851 -0.0318  0.4709
 1838SOL    HW116443   0.236   6.885   1.225 -0.4737 -0.7607  2.5938
 1838SOL    HW216444   0.085   6.861   1.168  0.9289  1.3767 -2.3401
 1839SOL     OW16445   5.741   1.168   2.166  0.1794  0.2596  0.0846
 1839SOL    HW116446   5.734   1.083   2.218 -0.9611 -0.9876 -2.0362
 1839SOL    HW216447   5.837   1.188   2.147  0.3497 -1.8401 -1.4281
 1840SOL     OW16448   0.280   8.031   3.776  0.5417 -0.4804 -0.1176
 1840SOL    HW116449   0.304   8.127   3.794 -0.2662 -0.4492  0.8821
 1840SOL    HW216450   0.326   8.000   3.694 -0.0527  1.1061 -1.0795
 1841SOL     OW16451   8.934   6.595   3.577  0.3116 -0.3472 -0.0844
 1841SOL    HW116452   9.021   6.559   3.543  0.9644  2.5836 -1.6863
 1841SOL    HW216453   8.945   6.625   3.672  0.5790 -1.4901  0.2533
 1842SOL     OW16454   3.221   7.435   4.272  0.1722 -0.2315  0.1404
 1842SOL    HW116455   3.191   7.518   4.319  1.1732  0.1301  0.1685
 1842SOL    HW216456   3.272   7.460   4.190  0.4572 -0.8140  0.1363
 1843SOL     OW16457   9.524   9.201   0.088 -0.2172 -0.1471 -0.1286
 1843SOL    HW116458   9.540   9.152   0.002 -1.1126  0.0995 -0.4359
 1843SOL    HW216459   9.603   9.189   0.148 -0.0789 -1.2728 -0.5325
 1844SOL     OW16460   7.815   9.316   3.105  0.5786  0.1658 -0.3466
 1844SOL    HW116461   7.885   9.254   3.070 -0.9322 -1.6149 -0.2702
 1844SOL    HW216462   7.783   9.283   3.194 -0.3161  0.9942 -0.3549
 1845SOL     OW16463   4.154   7.550   3.479 -0.5687  0.2517  0.4362
 1845SOL    HW116464   4.176   7.510   3.390 -0.5249  0.8560  0.1750
 1845SOL    HW216465   4.196   7.495   3.551 -1.2415 -0.6846  0.1310
 1846SOL     OW16466   8.351   2.968   4.415 -0.3822 -0.2111  0.5290
 1846SOL    HW116467   8.407   2.896   4.375 -0.0932 -0.9160  2.1805
 1846SOL    HW216468   8.256   2.957   4.387 -0.1711 -0.6444 -0.0151
 1847SOL     OW16469   3.502   3.384   3.746 -0.3535  0.0284  0.2062
 1847SOL    HW116470   3.518   3.472   3.790 -0.2341 -1.5266  3.5098
 1847SOL    HW216471   3.439   3.330   3.803  0.3854 -2.3967 -1.2090
 1848SOL     OW16472   8.862   1.016   1.629  0.3605  0.1994  0.2500
 1848SOL    HW116473   8.857   1.115   1.644 -0.2480  0.5036 -1.8915
 1848SOL    HW216474   8.782   0.972   1.671  0.3088  0.6746  0.6560
 1849SOL     OW16475   2.318   8.652   4.645 -0.6192 -0.3142  0.1994
 1849SOL    HW116476   2.372   8.623   4.724  2.5307  2.7639 -0.7406
 1849SOL    HW216477   2.249   8.718   4.674 -0.1033  0.0882  0.5067
 1850SOL     OW16478   7.988   4.071   0.831 -0.3343  0.0037 -0.4640
 1850SOL    HW116479   8.071   4.042   0.878 -0.8793 -0.6566  0.0999
 1850SOL    HW216480   8.007   4.083   0.734  0.5382  0.3420 -0.2580
 1851SOL     OW16481   9.370   7.876   3.178  0.4812 -0.1941 -0.1087
 1851SOL    HW116482   9.400   7.788   3.141  0.3719 -0.3137  0.0860
 1851SOL    HW216483   9.434   7.947   3.150  0.2428 -0.2334 -0.7709
 1852SOL     OW16484   1.905   9.465   0.666  0.0505 -0.0643 -0.1740
 1852SOL    HW116485   1.838   9.489   0.737 -0.4524  0.5498 -0.8472
 1852SOL    HW216486   1.924   9.367   0.670 -0.1511 -0.0740  0.6577
 1853SOL     OW16487   1.197   7.061   4.164 -0.6055  0.6916  0.1093
 1853SOL    HW116488   1.178   7.123   4.088  0.5823 -0.7282 -1.3837
 1853SOL    HW216489   1.287   7.082   4.203  0.8952 -1.5681 -1.9742
 1854SOL     OW16490   7.588   9.582   1.998 -0.3341  0.3794 -0.1192
 1854SOL    HW116491   7.577   9.628   1.910  0.0745  0.0916 -0.3170
 1854SOL    HW216492   7.587   9.651   2.071 -1.0955  0.5786 -0.3144
 1855SOL     OW16493   4.238   1.410   1.550 -0.2732  0.0806  0.6636
 1855SOL    HW116494   4.142   1.402   1.577 -0.2447  0.0220  0.7460
 1855SOL    HW216495   4.250   1.371   1.458 -0.2138 -0.4432  0.8931
 1856SOL     OW16496   8.896   7.200   2.029 -0.2399 -0.5039 -0.1154
 1856SOL    HW116497   8.808   7.155   2.044 -0.8010  0.0592 -1.6148
 1856SOL    HW216498   8.892   7.254   1.945 -0.0937  3.6520  2.3849
 1857SOL     OW16499   2.448   5.302   2.726 -0.0412  0.5133  0.4261
 1857SOL    HW116500   2.435   5.306   2.825 -0.3217 -0.6656  0.4521
 1857SOL    HW216501   2.444   5.206   2.696  1.0986  0.7643 -0.5802
 1858SOL     OW16502   0.462   5.781   2.535  0.6983  0.2103 -0.1457
 1858SOL    HW116503   0.449   5.880   2.529 -1.7755 -0.0596  0.1427
 1858SOL    HW216504   0.553   5.756   2.501 -0.0064  2.2076 -3.6449
 1859SOL     OW16505   1.379   0.765   4.104  0.1143 -0.5807  0.1074
 1859SOL    HW116506   1.298   0.738   4.052  1.4373 -0.6006 -1.9827
 1859SOL    HW216507   1.391   0.864   4.098  0.5166 -0.6364  0.0389
 1860SOL     OW16508   3.174   4.049   2.968 -0.5114  0.1481  0.2416
 1860SOL    HW116509   3.246   4.069   2.902 -0.4858 -0.1745  0.1719
 1860SOL    HW216510   3.102   4.118   2.961 -0.2426  0.4293  0.2629
 1861SOL     OW16511   1.463   6.351   0.753 -0.2446 -0.6264 -0.0719
 1861SOL    HW116512   1.553   6.373   0.792 -0.3320  0.1341 -0.2933
 1861SOL    HW216513   1.465   6.258   0.716  1.2934  0.3694 -2.5628
 1862SOL     OW16514   0.637   1.556   0.113  0.2712  0.2517 -0.1814
 1862SOL    HW116515   0.595   1.623   0.051 -0.4133  0.8258  0.8936
 1862SOL    HW216516   0.729   1.535   0.080  0.9554  2.6180  0.0956
 1863SOL     OW16517   5.488   4.630   0.697  0.0115 -0.3342 -0.1772
 1863SOL    HW116518   5.517   4.661   0.787  0.7340  0.5075 -0.6982
 1863SOL    HW216519   5.474   4.531   0.700  4.6480 -1.1374 -0.3112
 1864SOL     OW16520   8.690   2.437   1.907 -0.1572  0.2014  0.5621
 1864SOL    HW116521   8.685   2.361   1.843  1.4474  1.6194 -1.3012
 1864SOL    HW216522   8.614   2.430   1.972  0.1718 -3.1632  0.6945
 1865SOL     OW16523   7.827   4.370   4.218  0.3408 -0.1981  0.1991
 1865SOL    HW116524   7.887   4.387   4.296  1.2401  0.9316 -0.7331
 1865SOL    HW216525   7.732   4.389   4.244  0.2569 -2.6050  1.8665
 1866SOL     OW16526   7.825   7.618   3.669  0.1389  0.0789 -0.0839
 1866SOL    HW116527   7.779   7.651   3.752 -1.3185 -0.2782 -0.7322
 1866SOL    HW216528   7.887   7.689   3.635 -0.2077  0.7234  0.6014
 1867SOL     OW16529   8.258   3.352   3.648  0.5491 -0.4605  0.4174
 1867SOL    HW116530   8.197   3.296   3.704  0.5372  1.4846  2.4416
 1867SOL    HW216531   8.348   3.309   3.642 -0.1690 -1.9043 -0.1618
 1868SOL     OW16532   9.487   2.817   3.453 -0.1414  0.5547 -0.2585
 1868SOL    HW116533   9.467   2.911   3.481  1.2963  0.3758  1.4205
 1868SOL    HW216534   9.446   2.753   3.519  0.0093  0.0235 -0.6718
 1869SOL     OW16535   2.627   8.146   1.372 -0.1932 -0.0840  0.1188
 1869SOL    HW116536   2.706   8.098   1.410  0.2524  1.0466  0.6845
 1869SOL    HW216537   2.544   8.113   1.416 -0.0820 -1.5359 -0.7324
 1870SOL     OW16538   0.043   7.423   2.469  0.3524  0.4345  0.3921
 1870SOL    HW116539   0.078   7.376   2.551 -0.1877  2.0542  1.5806
 1870SOL    HW216540   0.085   7.383   2.388  0.0582 -1.9666  1.3652
 1871SOL     OW16541   4.660   0.635   2.394  0.1083  0.1115  0.0961
 1871SOL    HW116542   4.667   0.673   2.302  0.5717  0.9891  0.4867
 1871SOL    HW216543   4.577   0.579   2.400 -0.4246  0.7973 -0.5955
 1872SOL     OW16544   1.255   4.560   1.872  0.0379  0.2826  0.3627
 1872SOL    HW116545   1.261   4.630   1.800 -2.1796 -0.7558 -0.9053
 1872SOL    HW216546   1.253   4.469   1.829 -0.5517 -0.3873  1.7882
 1873SOL     OW16547   9.124   9.864   0.247  0.5775 -0.3528 -0.1571
 1873SOL    HW116548   9.066   9.782   0.252  1.0380 -0.8402 -2.4181
 1873SOL    HW216549   9.218   9.840   0.272  0.2942 -0.0477  1.2444
 1874SOL     OW16550   5.705   7.822   3.167  0.2701  0.5881  0.1716
 1874SOL    HW116551   5.672   7.769   3.089 -1.2733  1.0297  0.5071
 1874SOL    HW216552   5.794   7.862   3.145 -0.2889  0.9565 -1.4690
 1875SOL     OW16553   7.228   2.563   3.620  0.1747  0.1195 -0.5301
 1875SOL    HW116554   7.257   2.550   3.525  1.7453 -3.5544  0.3557
 1875SOL    HW216555   7.157   2.497   3.643  0.0412  0.7591  0.9540
 1876SOL     OW16556   5.034   9.395   3.318  0.6932 -0.0117 -0.2030
 1876SOL    HW116557   4.993   9.307   3.340  0.0066  0.3485  0.0060
 1876SOL    HW216558   5.036   9.407   3.219  0.7018 -0.2260 -0.2283
 1877SOL     OW16559   5.177   2.787   1.384  0.4159 -0.2494  0.1129
 1877SOL    HW116560   5.081   2.816   1.382  0.3854 -0.4128 -0.9184
 1877SOL    HW216561   5.200   2.742   1.298  1.7087  0.7167 -0.0631
 1878SOL     OW16562   8.943   0.485   1.929  0.3123  0.4756 -0.1282
 1878SOL    HW116563   8.934   0.573   1.975 -0.2502  0.4141 -0.1136
 1878SOL    HW216564   8.957   0.499   1.831 -1.8973  0.5620 -0.4628
 1879SOL     OW16565   9.195   2.596   3.836 -0.0567  0.1028  0.2013
 1879SOL    HW116566   9.247   2.562   3.915 -0.0768  1.1310  0.6688
 1879SOL    HW216567   9.098   2.577   3.849 -0.0796  0.4247  0.5019
 1880SOL     OW16568   6.703   1.737   2.312 -0.1670  0.0047  0.2856
 1880SOL    HW116569   6.705   1.829   2.351 -2.2684 -0.0380  0.5724
 1880SOL    HW216570   6.749   1.673   2.374 -1.6471  0.3043  1.7340
 1881SOL     OW16571   3.891   3.714   0.431  0.2936  0.8126  0.0919
 1881SOL    HW116572   3.910   3.749   0.339 -0.8770  2.1829  0.3554
 1881SOL    HW216573   3.864   3.790   0.490 -0.6714 -0.3169  1.1085
 1882SOL     OW16574   8.702   9.103   3.416  0.2821 -0.3606  0.4353
 1882SOL    HW116575   8.728   9.020   3.465  0.7649  0.4960  1.6270
 1882SOL    HW216576   8.629   9.150   3.465  0.0401 -0.0559 -0.2131
 1883SOL     OW16577   5.373   0.737   4.855  0.1474  0.4979  0.3265
 1883SOL    HW116578   5.431   0.816   4.875 -0.4525  1.1984 -0.6268
 1883SOL    HW216579   5.364   0.727   4.756 -1.4066  0.4568  0.4472
 1884SOL     OW16580   4.926   1.774   2.664  0.2226  0.6505 -0.2443
 1884SOL    HW116581   4.840   1.743   2.624  0.3459  0.8759 -0.6852
 1884SOL    HW216582   4.946   1.720   2.746  1.0007 -1.2246 -1.6137
 1885SOL     OW16583   9.148   0.317   0.764 -0.2068 -0.4921 -0.3245
 1885SOL    HW116584   9.204   0.253   0.711 -1.0190 -0.0659 -1.7406
 1885SOL    HW216585   9.149   0.407   0.720 -2.4835 -0.6375 -0.7546
 1886SOL     OW16586   3.969   4.490   1.543  0.2961  0.3315 -0.7658
 1886SOL    HW116587   4.008   4.543   1.467  1.8378  0.2648 -0.0456
 1886SOL    HW216588   4.027   4.411   1.561 -1.0318 -0.6293 -0.6565
 1887SOL     OW16589   0.468   7.724   4.617 -0.1470 -0.5911 -0.6058
 1887SOL    HW116590   0.472   7.726   4.716 -1.0263 -1.9300 -0.5390
 1887SOL    HW216591   0.531   7.655   4.582  0.3067  0.0098 -0.9966
 1888SOL     OW16592   7.909   0.121   0.463 -0.4892 -0.2679  0.2146
 1888SOL    HW116593   7.926   0.209   0.419  1.5945 -0.3855  0.7088
 1888SOL    HW216594   7.964   0.050   0.418 -0.8847 -1.0048  0.8722
 1889SOL     OW16595   1.372   9.467   3.399  0.1315  0.2568 -0.1458
 1889SOL    HW116596   1.356   9.561   3.370  1.5420  0.5717  0.0467
 1889SOL    HW216597   1.467   9.457   3.429 -0.1442 -1.1032  0.3266
 1890SOL     OW16598   8.181   7.955   5.153 -0.3102 -0.1971  0.2267
 1890SOL    HW116599   8.130   8.010   5.219 -0.3722 -1.5982  1.3793
 1890SOL    HW216600   8.155   7.982   5.060 -1.4517  0.6663  0.7820
 1891SOL     OW16601   5.706   0.767   2.765  0.4490 -0.5365 -0.3700
 1891SOL    HW116602   5.617   0.770   2.810  1.1504  0.8722  0.9557
 1891SOL    HW216603   5.743   0.674   2.769 -0.0421 -0.6794  0.9036
 1892SOL     OW16604   0.535   8.402   1.660  0.2587 -0.1957  0.0389
 1892SOL    HW116605   0.563   8.493   1.691  0.8293 -0.3585 -0.0110
 1892SOL    HW216606   0.481   8.411   1.576  0.4231  0.0823 -0.0367
 1893SOL     OW16607   4.365   8.343   1.489 -0.4003  0.0500 -0.1473
 1893SOL    HW116608   4.323   8.253   1.508  0.3286  0.1997  2.4111
 1893SOL    HW216609   4.426   8.335   1.411 -1.5124 -1.3255 -0.9076
 1894SOL     OW16610   3.044   2.818   5.238  0.1331  0.1732  0.1978
 1894SOL    HW116611   3.057   2.873   5.156 -0.2016  0.2958  0.2255
 1894SOL    HW216612   2.965   2.758   5.225  1.4455 -1.4746 -0.4695
 1895SOL     OW16613   9.135   2.555   5.069  0.0165  0.3042 -0.0589
 1895SOL    HW116614   9.100   2.462   5.067  0.8872 -0.0363  0.3484
 1895SOL    HW216615   9.209   2.564   5.002  0.6095  0.4272  0.6111
 1896SOL     OW16616   2.291   6.637   1.845  0.5527 -0.1553 -0.1252
 1896SOL    HW116617   2.318   6.733   1.855  0.8315 -0.1004 -1.3120
 1896SOL    HW216618   2.372   6.579   1.845  0.2941 -0.5704  2.2599
 1897SOL     OW16619   8.596   5.614   2.999  0.6746  0.0142  0.4014
 1897SOL    HW116620   8.512   5.655   2.962  1.5932  0.3794 -1.3146
 1897SOL    HW216621   8.612   5.650   3.091 -0.1269  1.2523  0.0741
 1898SOL     OW16622   1.795   2.345   3.399 -0.4556 -0.1211 -0.1061
 1898SOL    HW116623   1.731   2.342   3.322  1.1278 -0.3217 -1.4237
 1898SOL    HW216624   1.878   2.295   3.376  0.5438  0.8527  1.2831
 1899SOL     OW16625   4.338   3.538   4.398 -0.4106 -0.2869  0.1548
 1899SOL    HW116626   4.311   3.497   4.311  0.1662 -1.2635  0.4236
 1899SOL    HW216627   4.383   3.469   4.455 -0.0437  0.5489  0.8977
 1900SOL     OW16628   0.267   1.553   5.614  0.2260 -0.0016 -0.6744
 1900SOL    HW116629   0.204   1.496   5.666 -0.7168  1.6168 -0.0096
 1900SOL    HW216630   0.280   1.514   5.523  0.5110 -1.8866  0.1467
 1901SOL     OW16631   0.123   0.169   3.041  0.4650 -0.4752  0.2091
 1901SOL    HW116632   0.192   0.136   3.106  1.9313 -2.2214 -2.1563
 1901SOL    HW216633   0.077   0.090   2.999 -1.8192  0.6585  0.5334
 1902SOL     OW16634   1.797   4.736   2.873  0.1014 -0.1457 -0.1104
 1902SOL    HW116635   1.879   4.746   2.930 -0.5757  3.0469  0.4133
 1902SOL    HW216636   1.803   4.799   2.795 -1.7252 -0.0783 -0.2092
 1903SOL     OW16637   5.079   9.526   1.501  0.2846 -0.0171 -0.3639
 1903SOL    HW116638   5.023   9.534   1.583  0.4257 -1.6613 -0.0927
 1903SOL    HW216639   5.046   9.589   1.431 -0.2143  0.9551  0.7342
 1904SOL     OW16640   4.683   1.661   5.642  0.1091  0.0140  0.1963
 1904SOL    HW116641   4.750   1.729   5.610 -0.9884  1.3970  0.7854
 1904SOL    HW216642   4.681   1.584   5.578  1.8059  0.2438 -0.1656
 1905SOL     OW16643   3.053   3.933   4.316  0.7027 -0.0405 -0.0494
 1905SOL    HW116644   2.954   3.928   4.314  0.6706  0.5444 -0.1272
 1905SOL    HW216645   3.088   3.882   4.394  0.3583 -0.4864 -0.1862
 1906SOL     OW16646   7.024   0.326   3.479  0.3301  0.9673 -0.3178
 1906SOL    HW116647   7.093   0.396   3.465 -0.3807  1.6107 -0.6436
 1906SOL    HW216648   6.964   0.353   3.554 -1.2854  1.7770 -1.8613
 1907SOL     OW16649   8.871   7.947   1.790 -0.3931  0.3938 -0.4318
 1907SOL    HW116650   8.810   7.959   1.711 -1.2588  0.6240  0.2612
 1907SOL    HW216651   8.955   7.901   1.761 -0.4923  0.9295 -1.5815
 1908SOL     OW16652   1.058   9.803   3.881 -0.0763 -0.1964  0.0372
 1908SOL    HW116653   1.145   9.792   3.929  0.6904  0.7099 -1.1290
 1908SOL    HW216654   1.037   9.719   3.831  0.7104 -0.0004 -0.6251
 1909SOL     OW16655   1.648   7.551   4.920  0.3900  0.4050  0.6314
 1909SOL    HW116656   1.650   7.530   4.823  1.9401  0.3826  0.6561
 1909SOL    HW216657   1.722   7.503   4.967  0.2279  1.1302  1.6685
 1910SOL     OW16658   3.408   1.322   4.321 -0.2869 -0.1649 -0.0603
 1910SOL    HW116659   3.328   1.330   4.260 -0.7818 -1.6758  0.3748
 1910SOL    HW216660   3.466   1.248   4.288  2.0075  2.2119 -1.5499
 1911SOL     OW16661   7.726   3.490   4.453 -0.3052  0.0064 -0.4592
 1911SOL    HW116662   7.761   3.457   4.365 -0.3381  0.3327 -0.5943
 1911SOL    HW216663   7.707   3.412   4.513  1.4163 -0.1643 -0.0967
 1912SOL     OW16664   9.236   5.351   5.569  0.3180 -0.3758  0.0706
 1912SOL    HW116665   9.194   5.302   5.645  0.9934  0.1842  0.8154
 1912SOL    HW216666   9.183   5.336   5.486 -1.4369  0.4563  1.0279
 1913SOL     OW16667   3.909   0.677   4.893  0.2543 -0.0359 -0.4140
 1913SOL    HW116668   3.961   0.729   4.825  0.7595  0.6849  0.5080
 1913SOL    HW216669   3.816   0.662   4.860  0.7266 -0.4206 -1.6229
 1914SOL     OW16670   4.178   0.972   0.115 -0.2666 -0.1895 -0.3421
 1914SOL    HW116671   4.173   1.072   0.122  3.0896 -0.0366  0.7315
 1914SOL    HW216672   4.117   0.941   0.042 -2.7999  2.4402  0.5682
 1915SOL     OW16673   5.979   1.006   4.236 -0.0655 -0.4867 -0.0489
 1915SOL    HW116674   6.061   1.062   4.253  0.2010 -0.0538 -2.6409
 1915SOL    HW216675   6.000   0.935   4.169 -1.5295 -1.1220  0.1382
 1916SOL     OW16676   0.054   0.969   4.623 -0.0133 -0.2177  0.5554
 1916SOL    HW116677   0.104   0.967   4.537  0.9689 -3.5169  1.1584
 1916SOL    HW216678  -0.044   0.963   4.605  0.2484 -2.3148 -0.3291
 1917SOL     OW16679   5.690   7.374   2.157 -0.9583 -0.3192 -0.1048
 1917SOL    HW116680   5.644   7.374   2.246 -2.2278 -0.4938 -0.7544
 1917SOL    HW216681   5.625   7.349   2.085  0.1338 -0.5087 -1.0520
 1918SOL     OW16682   7.690   0.411   3.180 -0.2779 -0.6874 -0.1354
 1918SOL    HW116683   7.628   0.334   3.191 -0.1872 -0.5615  1.2376
 1918SOL    HW216684   7.782   0.385   3.211  0.0113 -0.3708 -0.7000
 1919SOL     OW16685   9.905   1.458   3.829 -0.4892  0.1480  0.5795
 1919SOL    HW116686   9.891   1.361   3.808  0.2887 -0.0498  0.9429
 1919SOL    HW216687   9.955   1.501   3.755  2.2540 -0.5498  1.9732
 1920SOL     OW16688   8.733   6.465   3.933  0.0448 -0.3295 -0.1555
 1920SOL    HW116689   8.796   6.536   3.900 -0.6916  1.2206  1.6524
 1920SOL    HW216690   8.780   6.377   3.932  2.3105  0.8041  1.2179
 1921SOL     OW16691   1.589   6.997   1.380  0.1627 -0.1927  0.7284
 1921SOL    HW116692   1.500   7.021   1.418 -0.6658  0.1556 -1.3400
 1921SOL    HW216693   1.590   6.899   1.359 -0.4088  0.1109 -0.8536
 1922SOL     OW16694   2.712   0.816   3.092 -0.7024 -0.2047  0.1621
 1922SOL    HW116695   2.686   0.859   3.178 -2.4409  0.9788 -0.9416
 1922SOL    HW216696   2.666   0.728   3.083  0.2856 -0.8036  0.9050
 1923SOL     OW16697   7.312   7.532   4.162  0.2378  0.1083 -0.2526
 1923SOL    HW116698   7.312   7.614   4.218 -2.1798 -0.0229 -0.0315
 1923SOL    HW216699   7.298   7.557   4.066 -0.5852 -0.0485 -0.1746
 1924SOL     OW16700   9.497   3.836   5.539 -0.1054 -0.0703  0.2899
 1924SOL    HW116701   9.524   3.871   5.449  1.0867  0.8161  0.9669
 1924SOL    HW216702   9.410   3.789   5.532 -1.2694  2.1840 -0.8736
 1925SOL     OW16703   0.903   9.145   3.589 -0.7636  0.0999 -0.1040
 1925SOL    HW116704   0.914   9.244   3.603 -0.2770  0.1491 -0.8358
 1925SOL    HW216705   0.937   9.120   3.499 -0.5810 -0.7921  0.2055
 1926SOL     OW16706   2.002   4.243   0.977  0.5972  0.7375 -0.5507
 1926SOL    HW116707   2.071   4.274   1.042  2.1090 -0.4178 -1.5682
 1926SOL    HW216708   1.922   4.208   1.026  1.4889  0.3891  0.6571
 1927SOL     OW16709   8.054   5.831   2.746 -0.0884 -0.0228  0.3861
 1927SOL    HW116710   8.081   5.846   2.841 -1.0895  1.8624  0.3892
 1927SOL    HW216711   8.119   5.768   2.703 -0.6412 -2.3550  2.7925
 1928SOL     OW16712   1.887   5.816   4.091  0.3710  0.6471  0.0430
 1928SOL    HW116713   1.925   5.853   4.006 -0.1946  1.2075  0.0333
 1928SOL    HW216714   1.961   5.808   4.158  0.8505  0.0549 -0.5465
 1929SOL     OW16715   0.184   0.688   4.714 -0.1178 -0.2104  0.4201
 1929SOL    HW116716   0.135   0.774   4.700 -1.0098 -0.6519  0.8013
 1929SOL    HW216717   0.250   0.698   4.788 -0.5681  0.0083  0.7934
 1930SOL     OW16718   8.066   7.506   3.208  0.0199 -0.0616 -0.3735
 1930SOL    HW116719   8.026   7.582   3.260  0.0082  0.3926 -1.0317
 1930SOL    HW216720   8.007   7.425   3.216  0.0900 -0.0342  0.4263
 1931SOL     OW16721   1.894   6.171   3.704  0.3185  0.0003 -0.0894
 1931SOL    HW116722   1.796   6.192   3.694  0.3913 -0.2424 -1.3610
 1931SOL    HW216723   1.929   6.134   3.618  0.8276 -2.8392  1.2888
 1932SOL     OW16724   2.453   4.478   2.738  0.4797 -0.2691  0.4905
 1932SOL    HW116725   2.462   4.414   2.662 -0.7077  0.1549 -0.0168
 1932SOL    HW216726   2.485   4.568   2.710 -1.2746  0.2233  0.0380
 1933SOL     OW16727   2.598   6.750   1.677  0.0683  0.2074 -0.6196
 1933SOL    HW116728   2.573   6.677   1.740  1.1404 -0.1744 -0.6245
 1933SOL    HW216729   2.684   6.726   1.631  1.5132  2.3855  0.8591
 1934SOL     OW16730   0.345   0.587   4.509  0.0116 -0.1398  0.1181
 1934SOL    HW116731   0.270   0.626   4.563 -0.6103 -1.1720  0.0160
 1934SOL    HW216732   0.343   0.626   4.417  0.4529  0.8650  0.5216
 1935SOL     OW16733   1.077   9.521   5.359 -0.0554  0.2306 -0.2111
 1935SOL    HW116734   1.101   9.533   5.455 -1.0695  0.7543 -0.0177
 1935SOL    HW216735   0.980   9.542   5.346  0.2474  0.8740 -1.4861
 1936SOL     OW16736   1.775   8.512   0.556  0.3819  0.6989 -0.2708
 1936SOL    HW116737   1.826   8.448   0.499 -0.9855 -0.3139 -0.3863
 1936SOL    HW216738   1.753   8.469   0.643 -1.9890  0.3660 -0.9820
 1937SOL     OW16739   0.626   2.191   1.021 -0.4677 -0.1229 -0.4445
 1937SOL    HW116740   0.609   2.093   1.030  1.2876 -0.4556 -0.5800
 1937SOL    HW216741   0.711   2.205   0.970  0.3857  1.4360  1.3810
 1938SOL     OW16742   0.312   2.732   5.570  0.8378 -0.2543 -0.1111
 1938SOL    HW116743   0.276   2.782   5.491  0.2554 -0.0245  0.2942
 1938SOL    HW216744   0.296   2.634   5.558  0.1737 -0.1648  0.0081
 1939SOL     OW16745   6.958   9.284   3.212 -0.2530 -0.3207 -0.5715
 1939SOL    HW116746   6.896   9.208   3.233  0.6675 -1.3365 -1.4707
 1939SOL    HW216747   6.952   9.306   3.115 -0.2613  0.5442 -0.3786
 1940SOL     OW16748   5.023   3.218   5.494 -0.3765 -0.0093 -0.6270
 1940SOL    HW116749   4.939   3.224   5.548 -0.9022 -0.5465 -1.3676
 1940SOL    HW216750   4.999   3.211   5.397  0.5731  1.7794 -1.0113
 1941SOL     OW16751   4.318   4.902   2.217 -0.0693  0.0137  0.5490
 1941SOL    HW116752   4.398   4.938   2.169  0.0941 -1.2089 -0.1190
 1941SOL    HW216753   4.235   4.942   2.178  0.0312 -1.4204 -1.1932
 1942SOL     OW16754   1.452   0.020   2.466 -0.9947 -0.0378 -0.2051
 1942SOL    HW116755   1.505   0.028   2.551 -2.6295 -2.8972  1.1524
 1942SOL    HW216756   1.502  -0.036   2.401 -0.6978  0.3566 -0.3171
 1943SOL     OW16757   8.278   7.487   3.904 -0.1913 -0.1000 -0.8579
 1943SOL    HW116758   8.360   7.434   3.882 -0.6690 -1.4424  0.5208
 1943SOL    HW216759   8.263   7.487   4.003 -1.4138  0.7895 -1.0274
 1944SOL     OW16760   3.337   3.865   1.437  0.5185 -0.0470  0.6798
 1944SOL    HW116761   3.393   3.874   1.519 -0.2613  1.0436  1.1157
 1944SOL    HW216762   3.251   3.819   1.460 -0.7320  2.3825  1.0006
 1945SOL     OW16763   7.020   9.807   0.734 -0.3239 -0.4060  0.4783
 1945SOL    HW116764   6.986   9.714   0.743  1.0375 -0.8675  0.8806
 1945SOL    HW216765   6.955   9.870   0.776 -1.8445 -1.0351 -0.8502
 1946SOL     OW16766   5.420   5.029   0.398 -0.6061  0.1048  0.2665
 1946SOL    HW116767   5.425   4.938   0.440 -0.0593  0.0648  0.1130
 1946SOL    HW216768   5.499   5.083   0.425  0.4673 -0.3827 -1.7732
 1947SOL     OW16769   1.922   0.969   1.268 -0.6584  0.7603  0.4303
 1947SOL    HW116770   1.923   0.898   1.339  0.7091  0.3280 -0.0030
 1947SOL    HW216771   1.828   1.000   1.253 -1.0019  0.6334  2.2075
 1948SOL     OW16772   1.192   6.259   1.536 -0.1983 -0.3974  0.0620
 1948SOL    HW116773   1.219   6.172   1.495  0.7964  0.7489 -1.7924
 1948SOL    HW216774   1.265   6.291   1.596 -0.3633 -0.5982  0.3731
 1949SOL     OW16775   2.679   5.389   4.685 -0.1471  0.2523  0.0572
 1949SOL    HW116776   2.611   5.421   4.620 -0.7060  0.7150  0.8593
 1949SOL    HW216777   2.771   5.410   4.651 -0.3733 -0.7821 -1.2439
 1950SOL     OW16778   1.951   0.303   3.235  0.5615 -0.0933 -0.0406
 1950SOL    HW116779   1.878   0.345   3.289  0.6721 -0.4241  0.3686
 1950SOL    HW216780   1.933   0.317   3.137  0.6175  0.9239  0.0932
 1951SOL     OW16781   1.169   2.074   1.137  0.5687  0.5478  0.8318
 1951SOL    HW116782   1.130   2.152   1.087 -0.7621  0.4418  1.6794
 1951SOL    HW216783   1.144   2.080   1.233 -1.0154 -1.8355  0.6010
 1952SOL     OW16784   1.728   4.618   0.750  0.0598  0.0894  0.4800
 1952SOL    HW116785   1.659   4.687   0.728 -1.0361 -0.9051  0.7902
 1952SOL    HW216786   1.704   4.574   0.837  0.7821 -0.6568  0.3028
 1953SOL     OW16787   2.549   6.607   4.641 -0.3149  0.3207 -0.2446
 1953SOL    HW116788   2.629   6.553   4.614 -0.9077 -0.7317  0.0697
 1953SOL    HW216789   2.478   6.600   4.570  0.0855  1.7286 -0.8021
 1954SOL     OW16790   9.553   4.776   1.883  0.0694  0.1219  0.6540
 1954SOL    HW116791   9.539   4.866   1.925  2.0686  0.8998 -0.2730
 1954SOL    HW216792   9.590   4.787   1.791 -0.0717 -1.6523  0.3664
 1955SOL     OW16793   1.043   7.720   4.823 -0.0032  0.1808  0.3397
 1955SOL    HW116794   1.006   7.675   4.904 -1.3795 -2.3895 -1.6240
 1955SOL    HW216795   0.969   7.765   4.773  0.5593  0.3824 -0.3175
 1956SOL     OW16796   0.148   8.086   4.494 -0.2920  0.1604 -0.0797
 1956SOL    HW116797   0.226   8.042   4.540 -0.1332  0.1224 -0.3855
 1956SOL    HW216798   0.159   8.079   4.395 -0.1497  1.0843 -0.1385
 1957SOL     OW16799   1.039   5.397   4.398  0.2640 -0.2776  0.3554
 1957SOL    HW116800   1.085   5.438   4.477 -0.0669  0.2637  0.2730
 1957SOL    HW216801   1.084   5.428   4.314 -1.4255  1.8364  0.1691
 1958SOL     OW16802   9.454   7.638   1.843  0.4033  0.1106 -0.1587
 1958SOL    HW116803   9.370   7.657   1.894 -0.3805  0.6614 -1.6161
 1958SOL    HW216804   9.476   7.716   1.786  1.8333 -0.1029  0.0934
 1959SOL     OW16805   5.751   0.316   2.978 -0.1871  0.4542  0.0760
 1959SOL    HW116806   5.694   0.236   2.995  1.8468 -1.1885 -0.5873
 1959SOL    HW216807   5.757   0.371   3.061 -1.9248  0.1463  0.4228
 1960SOL     OW16808   6.568   0.905   4.239 -0.2639  0.1341  0.6043
 1960SOL    HW116809   6.494   0.839   4.243  0.3854 -0.6561 -0.2918
 1960SOL    HW216810   6.600   0.926   4.332 -1.5382  0.4167  0.9813
 1961SOL     OW16811   3.156   1.345   0.493  1.0184 -0.2323  0.6309
 1961SOL    HW116812   3.223   1.302   0.432  0.1333  0.3304 -0.7541
 1961SOL    HW216813   3.067   1.303   0.480  0.8953 -0.3565  1.8174
 1962SOL     OW16814   7.287   3.085   5.351  0.3632  0.0893 -0.2797
 1962SOL    HW116815   7.333   3.135   5.277 -0.3369 -1.1908 -1.6030
 1962SOL    HW216816   7.209   3.138   5.383 -1.2981 -0.7759 -2.7195
 1963SOL     OW16817   2.638   4.900   5.457  0.3971 -0.7184 -0.0755
 1963SOL    HW116818   2.711   4.960   5.425  0.3991 -0.0932  1.0808
 1963SOL    HW216819   2.615   4.834   5.385  1.1030  0.0007 -0.9703
 1964SOL     OW16820   0.262   3.834   4.262 -0.4709 -0.0944 -0.1850
 1964SOL    HW116821   0.338   3.773   4.281  0.2327  1.3032  1.6466
 1964SOL    HW216822   0.293   3.910   4.205 -1.0364 -0.7170 -1.3422
 1965SOL     OW16823   2.673   2.313   3.300  0.3858  0.1151  0.0477
 1965SOL    HW116824   2.742   2.259   3.348 -0.4370 -1.1998 -0.2429
 1965SOL    HW216825   2.716   2.395   3.261  2.1135 -1.4821 -1.4999
 1966SOL     OW16826   9.294   9.820   4.730  0.3150 -0.2210  0.4711
 1966SOL    HW116827   9.285   9.726   4.763 -1.6987 -0.5716 -0.9810
 1966SOL    HW216828   9.328   9.820   4.636 -2.5186  0.3091 -0.6155
 1967SOL     OW16829   5.246   1.093   2.847  0.6621  0.3812 -0.1563
 1967SOL    HW116830   5.185   1.162   2.885 -0.5634  0.5209 -2.3078
 1967SOL    HW216831   5.198   1.006   2.838  1.4013 -0.0546  0.0767
 1968SOL     OW16832   8.256   2.489   0.145  0.1079  0.2872 -0.4098
 1968SOL    HW116833   8.167   2.518   0.178  0.3212  0.6329 -0.1349
 1968SOL    HW216834   8.247   2.453   0.052 -0.2866  0.4994 -0.4533
 1969SOL     OW16835   9.636   7.654   5.634  0.5029  0.0411  0.7566
 1969SOL    HW116836   9.617   7.700   5.721 -0.9727  0.5445  0.1801
 1969SOL    HW216837   9.654   7.557   5.651  2.8588  0.6337  1.9002
 1970SOL     OW16838   1.148   0.169   3.344  0.0671  0.6100 -0.4161
 1970SOL    HW116839   1.231   0.139   3.392  2.1692  1.5781 -3.3278
 1970SOL    HW216840   1.113   0.252   3.388  1.1722  0.7112  0.3027
 1971SOL     OW16841   2.920   1.290   3.996 -0.2959  0.4399  0.3403
 1971SOL    HW116842   2.965   1.224   3.937 -1.6406  0.4645 -0.7384
 1971SOL    HW216843   2.895   1.247   4.083 -1.7686 -0.6601 -0.6182
 1972SOL     OW16844   0.289   2.937   1.216 -0.2472  0.4068 -0.2040
 1972SOL    HW116845   0.198   2.895   1.212 -0.6337  1.0423  1.4376
 1972SOL    HW216846   0.280   3.033   1.243  0.9469  0.3497  0.4053
 1973SOL     OW16847   9.536   5.854   2.772 -0.1990 -0.2188 -0.4391
 1973SOL    HW116848   9.536   5.950   2.744 -0.5114 -0.5608 -1.6456
 1973SOL    HW216849   9.470   5.803   2.717  0.8971 -1.3768 -0.7176
 1974SOL     OW16850   1.715   1.195   1.054  0.2888 -0.2711 -0.2571
 1974SOL    HW116851   1.685   1.287   1.078 -0.8852 -0.0619 -2.4106
 1974SOL    HW216852   1.812   1.185   1.076  0.2770  1.2746  0.5513
 1975SOL     OW16853   6.227   1.232   2.595  0.2387 -0.0187 -0.4560
 1975SOL    HW116854   6.143   1.207   2.644  0.4590  1.9833  1.0436
 1975SOL    HW216855   6.272   1.307   2.644  2.6863 -0.7809 -1.4909
 1976SOL     OW16856   7.527   9.723   5.322 -0.0464 -0.2991  0.1988
 1976SOL    HW116857   7.506   9.626   5.334  2.8697 -1.1652 -1.1783
 1976SOL    HW216858   7.514   9.748   5.226  0.3203  0.3703  0.3217
 1977SOL     OW16859   2.214   0.359   4.681 -0.4585  0.1882  0.3338
 1977SOL    HW116860   2.301   0.329   4.641 -1.4614 -1.8714 -0.4043
 1977SOL    HW216861   2.163   0.279   4.712 -0.8048  1.5909  3.5245
 1978SOL     OW16862   2.513   4.709   0.857 -0.0705  0.2600 -0.4020
 1978SOL    HW116863   2.415   4.720   0.839 -0.4639 -1.7793  0.2688
 1978SOL    HW216864   2.549   4.790   0.902 -1.0682  1.7252 -2.1710
 1979SOL     OW16865   8.387   7.906   2.808  0.4326  0.8521 -0.2415
 1979SOL    HW116866   8.377   7.873   2.902 -0.9278  1.5081 -0.1498
 1979SOL    HW216867   8.376   7.830   2.744  0.1066  0.6316  0.0799
 1980SOL     OW16868   3.962   3.850   0.175 -0.4960  0.3435  0.2925
 1980SOL    HW116869   4.009   3.928   0.134  2.3101 -1.4161 -0.0263
 1980SOL    HW216870   4.027   3.774   0.185 -2.5593 -1.1946  2.6842
 1981SOL     OW16871   6.452   1.275   3.918 -0.0403  0.1582  0.8713
 1981SOL    HW116872   6.496   1.192   3.953  0.8347  0.2068 -0.0963
 1981SOL    HW216873   6.518   1.350   3.917 -0.4423  0.5072  0.4490
 1982SOL     OW16874   1.390   9.674   0.800 -1.1256  0.4025 -0.0071
 1982SOL    HW116875   1.480   9.714   0.818 -2.3798  3.0353  0.6229
 1982SOL    HW216876   1.363   9.616   0.878  0.0813 -0.5566 -0.2862
 1983SOL     OW16877   4.724   3.113   2.700 -0.3611  0.1655  0.3754
 1983SOL    HW116878   4.771   3.081   2.617  2.2816 -0.9059  2.2174
 1983SOL    HW216879   4.639   3.060   2.712 -0.0284 -0.6854 -0.8589
 1984SOL     OW16880   3.031   0.925   3.307 -0.0527  0.0115 -0.0689
 1984SOL    HW116881   3.046   0.973   3.393  1.3499  0.0962 -0.3580
 1984SOL    HW216882   2.977   0.842   3.324 -0.7199  0.6041  0.7230
 1985SOL     OW16883   0.796   0.667   1.804  0.1042 -0.1471 -0.2898
 1985SOL    HW116884   0.779   0.569   1.814 -0.7180 -0.0728 -0.9203
 1985SOL    HW216885   0.895   0.684   1.799  0.2627 -0.8906  0.2935
 1986SOL     OW16886   2.359   8.973   3.043 -0.0336  0.3351  0.6690
 1986SOL    HW116887   2.350   9.045   2.975  2.1965  0.4465  0.4685
 1986SOL    HW216888   2.406   9.009   3.124 -3.5926  0.5249  2.8187
 1987SOL     OW16889   0.404   7.396   4.708  0.3308  0.4099 -0.4543
 1987SOL    HW116890   0.445   7.377   4.797  0.6207  1.0956 -0.4393
 1987SOL    HW216891   0.474   7.391   4.637 -0.3006 -2.3509 -0.9552
 1988SOL     OW16892   9.288   6.797   3.456  0.0322  0.0399 -0.1069
 1988SOL    HW116893   9.312   6.820   3.362  0.3484  0.2006  0.0137
 1988SOL    HW216894   9.220   6.862   3.490  2.5904  2.2032  1.0031
 1989SOL     OW16895   3.147   5.061   0.549 -0.4667  0.1521 -0.0166
 1989SOL    HW116896   3.064   5.023   0.508 -0.2098 -0.5078  0.0727
 1989SOL    HW216897   3.134   5.067   0.648 -1.3850  2.4800 -0.2510
 1990SOL     OW16898   1.292   5.698   1.705 -0.3786  0.0224 -0.1932
 1990SOL    HW116899   1.259   5.733   1.793  0.9096  0.4110  0.1368
 1990SOL    HW216900   1.328   5.605   1.717 -1.4843 -0.4660 -0.5874
 1991SOL     OW16901   3.730   8.585   3.033  0.1788  0.3984 -0.0145
 1991SOL    HW116902   3.740   8.492   2.998  0.9200 -0.2579  1.8817
 1991SOL    HW216903   3.656   8.632   2.984 -0.4982 -1.3318 -0.6640
 1992SOL     OW16904   2.470   9.980   0.152  0.6239 -0.3341 -0.1458
 1992SOL    HW116905   2.534  10.005   0.080 -0.0216 -0.4842 -0.7778
 1992SOL    HW216906   2.509   9.908   0.209  1.4091  0.2492  0.0690
 1993SOL     OW16907   7.225   9.070   2.462  0.2661 -0.1139 -0.2491
 1993SOL    HW116908   7.170   9.147   2.428 -0.3385 -0.7667 -0.7593
 1993SOL    HW216909   7.234   9.078   2.561  0.9066  1.0664 -0.3839
 1994SOL     OW16910   9.406   9.826   4.497  0.1873  0.1077  0.5404
 1994SOL    HW116911   9.467   9.814   4.418  1.2279 -0.4306  1.4120
 1994SOL    HW216912   9.388   9.923   4.512 -0.0754  0.2060 -0.4020
 1995SOL     OW16913   2.083   8.006   5.370  0.1777 -0.1749  0.4755
 1995SOL    HW116914   2.011   7.937   5.359 -0.1812  0.0990  1.1023
 1995SOL    HW216915   2.111   8.008   5.466  1.4131 -0.6746  0.1329
 1996SOL     OW16916   7.567   1.514   4.590 -0.0273  0.2403  0.3750
 1996SOL    HW116917   7.549   1.480   4.498  1.5983 -1.4106  0.6324
 1996SOL    HW216918   7.666   1.527   4.602 -0.4176  2.7915  1.0914
 1997SOL     OW16919   1.105   7.821   3.162 -0.2361  0.0323 -0.3163
 1997SOL    HW116920   1.010   7.831   3.134  0.4465 -1.0715 -3.2062
 1997SOL    HW216921   1.108   7.777   3.252 -2.4688  1.7461  0.6366
 1998SOL     OW16922   1.513   2.275   2.830 -0.0908  0.0713  0.5409
 1998SOL    HW116923   1.473   2.271   2.739  0.1637 -0.2149  0.4410
 1998SOL    HW216924   1.493   2.364   2.872 -0.6461  0.0052  0.4113
 1999SOL     OW16925   2.908   6.054   0.245 -0.3230  0.1468 -0.1747
 1999SOL    HW116926   2.875   6.140   0.285  1.4395  1.4453 -1.4530
 1999SOL    HW216927   3.004   6.065   0.218 -0.6510 -1.6141 -2.1404
 2000SOL     OW16928   7.168   9.002   4.252 -0.0984  0.0909 -0.1107
 2000SOL    HW116929   7.074   9.000   4.285  0.1300  1.4410  0.6737
 2000SOL    HW216930   7.202   8.908   4.241 -1.6783 -0.3998 -0.8579
 2001SOL     OW16931   9.040   3.930   3.789  0.0280  0.3222 -0.2959
 2001SOL    HW116932   9.101   3.862   3.746  1.4433 -0.1975  2.3719
 2001SOL    HW216933   8.946   3.914   3.760  0.8160 -0.5448 -2.4644
 2002SOL     OW16934   3.425   5.219   3.995 -0.5877 -0.0259  0.5999
 2002SOL    HW116935   3.430   5.123   4.023  2.1664 -0.8836 -2.5368
 2002SOL    HW216936   3.447   5.278   4.072 -1.6998 -1.9107  2.4034
 2003SOL     OW16937   9.984   9.552   5.256  0.0363 -0.1083  0.0451
 2003SOL    HW116938   9.924   9.523   5.330 -1.4517  0.2521 -0.9741
 2003SOL    HW216939  10.059   9.486   5.245 -0.1869 -0.5816  1.3287
 2004SOL     OW16940   8.959   5.200   2.060 -0.5122 -0.6729  0.5698
 2004SOL    HW116941   9.027   5.155   2.118  0.2937  0.9051  0.8672
 2004SOL    HW216942   8.920   5.278   2.108 -1.0685 -0.3702 -0.3629
 2005SOL     OW16943   9.622   7.260   1.424 -0.1006  0.3623 -0.3916
 2005SOL    HW116944   9.568   7.261   1.507 -0.1173  1.8413 -0.4178
 2005SOL    HW216945   9.719   7.263   1.448 -0.0324 -1.4208 -0.3721
 2006SOL     OW16946   7.147   8.616   1.912  0.3026  0.3144  0.1461
 2006SOL    HW116947   7.074   8.656   1.967 -1.2074 -2.0966  0.0119
 2006SOL    HW216948   7.180   8.532   1.956  2.9417  1.3177  0.1444
 2007SOL     OW16949   2.284   6.061   4.188 -0.1093 -0.2272 -0.0426
 2007SOL    HW116950   2.218   6.122   4.144  0.0141 -0.7861 -1.0137
 2007SOL    HW216951   2.286   6.079   4.287 -0.0729  1.3293 -0.3202
 2008SOL     OW16952   0.015   8.423   5.310 -0.3417 -0.6295 -0.1931
 2008SOL    HW116953  -0.048   8.380   5.246  0.1807 -0.2053 -0.9960
 2008SOL    HW216954  -0.002   8.521   5.313 -1.2121 -0.8072  1.2821
 2009SOL     OW16955   8.637   1.487   0.670  1.2170 -0.0581 -0.1804
 2009SOL    HW116956   8.689   1.436   0.738  1.3510  1.3527  0.7770
 2009SOL    HW216957   8.568   1.427   0.630  2.4467 -1.4625 -0.2483
 2010SOL     OW16958   4.995   6.254   2.268 -0.3691 -0.1032 -0.6643
 2010SOL    HW116959   5.010   6.157   2.251  0.0733  0.1122 -1.5012
 2010SOL    HW216960   5.017   6.307   2.186  0.0020  0.7612 -0.0149
 2011SOL     OW16961   5.763   9.182   2.187  0.5007 -0.1820  0.0751
 2011SOL    HW116962   5.730   9.232   2.266  1.0237  1.5222 -0.7629
 2011SOL    HW216963   5.863   9.180   2.188  0.5005 -0.6201 -0.2654
 2012SOL     OW16964   3.567   7.155   4.234  0.3256  0.2620  0.2115
 2012SOL    HW116965   3.570   7.067   4.282  0.8942  0.2942  0.2353
 2012SOL    HW216966   3.481   7.202   4.256 -0.5496 -0.8430 -0.7772
 2013SOL     OW16967   9.031   7.129   0.118 -0.0349 -0.2239 -0.6235
 2013SOL    HW116968   9.005   7.203   0.055 -0.6712  0.0812 -0.0171
 2013SOL    HW216969   8.961   7.058   0.115 -0.1045 -0.1697 -0.1979
 2014SOL     OW16970   3.376   3.703   2.022  0.3971  0.3691 -0.2750
 2014SOL    HW116971   3.455   3.759   1.999  0.2111  0.1547 -1.4842
 2014SOL    HW216972   3.376   3.683   2.120  2.0013  0.0996 -0.3248
 2015SOL     OW16973   5.602   8.694   1.876 -0.0965 -0.4992  0.9315
 2015SOL    HW116974   5.659   8.615   1.853  1.0453  0.7775 -0.7460
 2015SOL    HW216975   5.627   8.728   1.966  0.2227 -1.3415  1.1635
 2016SOL     OW16976   7.549   9.778   0.867 -0.3668  0.2315  0.1978
 2016SOL    HW116977   7.556   9.763   0.769 -0.2688  0.1508  0.2167
 2016SOL    HW216978   7.621   9.726   0.914 -0.5981  0.0364  0.3329
 2017SOL     OW16979   3.629   2.621   1.004 -0.0858 -0.3847 -0.4841
 2017SOL    HW116980   3.665   2.534   0.970  1.4458  0.3977 -0.9303
 2017SOL    HW216981   3.642   2.692   0.934  0.6049  0.6497  0.6627
 2018SOL     OW16982   0.499   2.778   3.398  0.4140 -0.2996 -0.0495
 2018SOL    HW116983   0.440   2.745   3.324  1.4885  0.4932 -1.2685
 2018SOL    HW216984   0.547   2.861   3.369  1.4235 -0.4068  1.2599
 2019SOL     OW16985   0.027   9.150   2.176 -0.1881  0.3387 -0.9256
 2019SOL    HW116986   0.062   9.221   2.115  0.9134 -0.5200 -1.3154
 2019SOL    HW216987   0.102   9.117   2.234 -0.8730  0.0454 -0.2035
 2020SOL     OW16988   8.172   7.938   3.232  0.1551  0.0300 -0.1341
 2020SOL    HW116989   8.181   8.005   3.305 -2.6424 -0.0281  0.3098
 2020SOL    HW216990   8.118   7.861   3.263 -0.4618 -0.3375 -2.0322
 2021SOL     OW16991   7.145   7.647   3.646 -0.6799 -0.7201  0.2403
 2021SOL    HW116992   7.150   7.746   3.635 -0.8399 -0.6378  0.8935
 2021SOL    HW216993   7.238   7.611   3.658 -0.7738 -0.4027  2.0518
 2022SOL     OW16994   8.531   4.819   0.379  0.5523  0.5642  0.1293
 2022SOL    HW116995   8.619   4.820   0.425  0.5231  0.2453  0.1902
 2022SOL    HW216996   8.465   4.874   0.430  0.5242  0.2241  0.4611
 2023SOL     OW16997   6.102   4.242   0.385  0.5138 -0.1331  0.3304
 2023SOL    HW116998   6.153   4.192   0.315 -0.6548 -0.6329 -0.1784
 2023SOL    HW216999   6.038   4.180   0.429  0.3763  0.4803  0.9888
 2024SOL     OW17000   3.120   0.480   1.574  0.3850  0.4421 -0.0510
 2024SOL    HW117001   3.136   0.493   1.672  1.2666 -1.2843  0.0479
 2024SOL    HW217002   3.027   0.447   1.559  0.1856  0.8929  0.1787
 2025SOL     OW17003   2.380   1.647   2.086  0.3008 -0.2949  0.3919
 2025SOL    HW117004   2.340   1.643   2.178  0.1089 -2.8843  0.2353
 2025SOL    HW217005   2.307   1.662   2.019  0.4356  1.5515  0.6291
 2026SOL     OW17006   2.723   9.638   3.189  0.5925  0.2462 -0.1265
 2026SOL    HW117007   2.653   9.581   3.147 -1.2693  0.7674  2.1118
 2026SOL    HW217008   2.813   9.609   3.159 -0.3667 -3.1989  0.1679
 2027SOL     OW17009   3.172   6.588   0.480 -0.3505  0.2053 -0.7413
 2027SOL    HW117010   3.139   6.503   0.522 -0.1476  0.5851  0.2057
 2027SOL    HW217011   3.184   6.657   0.551 -0.2218  0.9342 -1.4702
 2028SOL     OW17012   1.048   7.216   4.407  0.0092 -0.1190 -0.4769
 2028SOL    HW117013   1.127   7.218   4.470 -0.4850 -0.5812  0.1620
 2028SOL    HW217014   1.053   7.135   4.350  0.1713  0.0225 -0.6649
 2029SOL     OW17015   8.271   9.982   5.014  0.2334 -0.8138  0.1816
 2029SOL    HW117016   8.172   9.992   5.004  0.5112 -0.0482 -2.1514
 2029SOL    HW217017   8.312  10.073   5.025  0.9581 -0.8498 -2.0196
 2030SOL     OW17018   1.889   3.302   5.153  0.0748  0.2798  0.1122
 2030SOL    HW117019   1.911   3.213   5.112  0.2878  1.2035 -1.8385
 2030SOL    HW217020   1.793   3.323   5.136  0.1383  0.6191  0.1727
 2031SOL     OW17021   0.468   4.542   5.398 -0.6534  0.8160  0.2986
 2031SOL    HW117022   0.567   4.533   5.388 -0.8727  0.4728 -1.6764
 2031SOL    HW217023   0.423   4.524   5.310 -2.6295 -1.3484  1.6876
 2032SOL     OW17024   1.722   8.785   5.106  0.1724  0.3357  0.5271
 2032SOL    HW117025   1.713   8.695   5.148 -1.0227  0.1969  0.0056
 2032SOL    HW217026   1.812   8.794   5.064  0.3408 -0.5649  0.6991
 2033SOL     OW17027   7.614   0.127   3.557 -0.2316  0.3722  0.0428
 2033SOL    HW117028   7.529   0.170   3.527 -1.9968 -1.2400  2.4915
 2033SOL    HW217029   7.652   0.071   3.483 -0.9482  1.6048 -1.2768
 2034SOL     OW17030   3.631   8.606   0.153  0.6540  0.4896  0.3039
 2034SOL    HW117031   3.659   8.604   0.057  0.0998  0.6273  0.1368
 2034SOL    HW217032   3.629   8.700   0.186  0.8600  0.4417  0.4525
 2035SOL     OW17033   1.512   9.461   3.707 -0.0655  0.4919 -0.7602
 2035SOL    HW117034   1.576   9.508   3.768  0.8691  0.2441 -1.5389
 2035SOL    HW217035   1.517   9.362   3.723  0.4117  0.3994 -1.4473
 2036SOL     OW17036   6.230   8.985   3.108 -0.0480  0.6398 -0.0158
 2036SOL    HW117037   6.218   8.888   3.127  0.5858  0.7158  0.8244
 2036SOL    HW217038   6.326   9.009   3.118  0.0703  1.0145 -1.8949
 2037SOL     OW17039   9.312   1.998   1.011 -0.5039  0.0512  0.0010
 2037SOL    HW117040   9.240   2.050   1.058 -0.8875 -0.7375  0.2913
 2037SOL    HW217041   9.270   1.930   0.951  0.0071 -0.2666  0.0063
 2038SOL     OW17042   8.517   3.314   0.509 -0.2671 -0.3927 -0.0500
 2038SOL    HW117043   8.461   3.354   0.582  0.0339  0.3109 -0.2002
 2038SOL    HW217044   8.486   3.221   0.490 -1.3708 -0.0220 -0.1017
 2039SOL     OW17045   7.898   0.389   0.684  0.3144  0.1334 -0.0735
 2039SOL    HW117046   7.890   0.400   0.783  1.1139 -0.9534  0.1255
 2039SOL    HW217047   7.834   0.451   0.638  0.2365  0.9414  1.1052
 2040SOL     OW17048   7.759   7.451   2.969 -0.3410  0.4598  0.4376
 2040SOL    HW117049   7.661   7.460   2.954 -0.3762  1.9909  1.4431
 2040SOL    HW217050   7.793   7.532   3.017  1.2507 -0.4645  0.9192
 2041SOL     OW17051   8.230   5.951   1.298  0.3123  0.1889 -0.4597
 2041SOL    HW117052   8.222   6.031   1.239 -0.9466  0.5133  0.1405
 2041SOL    HW217053   8.181   5.874   1.256  0.9621 -0.0983 -0.7115
 2042SOL     OW17054   3.830   3.770   1.085 -0.0512 -0.0072  0.6998
 2042SOL    HW117055   3.769   3.692   1.094 -0.4364  0.3299  1.0290
 2042SOL    HW217056   3.859   3.779   0.989  1.3677 -1.5662  0.9650
 2043SOL     OW17057   4.447   5.974   2.281 -0.3649 -0.1542 -0.1614
 2043SOL    HW117058   4.415   5.897   2.225 -2.9158 -0.3579  1.4660
 2043SOL    HW217059   4.390   6.054   2.262  1.2885  0.9095 -0.7121
 2044SOL     OW17060   4.484   1.365   4.013  0.7280 -0.5479 -0.0127
 2044SOL    HW117061   4.550   1.433   4.044 -1.4681  0.5439  2.4889
 2044SOL    HW217062   4.502   1.277   4.058 -0.0166 -0.0177  1.3500
 2045SOL     OW17063   4.675   8.430   0.503 -0.3989 -0.3149 -0.0138
 2045SOL    HW117064   4.668   8.375   0.587 -0.3380  0.0318  0.2209
 2045SOL    HW217065   4.639   8.522   0.521 -1.6258 -0.6444 -0.7504
 2046SOL     OW17066   1.517   2.045   3.296 -0.2502  0.2655 -0.0083
 2046SOL    HW117067   1.552   2.055   3.389 -0.6209  1.8168 -0.0273
 2046SOL    HW217068   1.593   2.053   3.231 -0.2453  1.0058  0.0815
 2047SOL     OW17069   0.262   9.641   5.002  0.3686 -0.0986  0.3336
 2047SOL    HW117070   0.265   9.547   4.968  1.2058  0.7509 -2.1033
 2047SOL    HW217071   0.288   9.703   4.928 -0.4114  2.0731  1.8380
 2048SOL     OW17072   1.791   3.884   4.985  0.1490  0.1179 -0.3389
 2048SOL    HW117073   1.750   3.830   4.911 -0.4645 -2.4769  1.8426
 2048SOL    HW217074   1.741   3.867   5.070  3.5125 -0.3313  1.6269
 2049SOL     OW17075   0.904   1.294   0.202  0.2036 -0.0298 -0.2153
 2049SOL    HW117076   0.970   1.219   0.213  0.4756  0.1372 -0.7031
 2049SOL    HW217077   0.885   1.334   0.292  2.4714  1.3717 -0.3179
 2050SOL     OW17078   7.968   7.738   3.364 -0.3183  0.0996  0.3764
 2050SOL    HW117079   7.933   7.772   3.452  0.9239  1.0622  0.5205
 2050SOL    HW217080   7.892   7.708   3.307 -1.0854 -1.4251  2.1408
 2051SOL     OW17081   8.416   8.751   4.822 -0.1051  0.6371 -0.3227
 2051SOL    HW117082   8.482   8.681   4.796  0.5287 -0.1000  3.0054
 2051SOL    HW217083   8.462   8.824   4.872 -1.0593  2.5825 -2.1878
 2052SOL     OW17084   8.188   8.120   4.184 -0.0816 -0.1291 -0.3988
 2052SOL    HW117085   8.156   8.085   4.096  0.3298  0.8759 -0.9441
 2052SOL    HW217086   8.253   8.054   4.224 -1.5132 -1.3748 -0.0608
 2053SOL     OW17087   7.985   3.655   2.021 -0.0209  0.3192  0.3269
 2053SOL    HW117088   7.965   3.577   2.080 -2.3029  0.8283  0.2854
 2053SOL    HW217089   7.916   3.726   2.035  1.3492  1.8580 -0.4922
 2054SOL     OW17090   5.401   7.605   3.137  0.3634 -0.2523 -0.4671
 2054SOL    HW117091   5.367   7.578   3.047  1.9948  1.2157 -1.5712
 2054SOL    HW217092   5.475   7.543   3.164 -0.2888 -0.8405 -0.0150
 2055SOL     OW17093   8.911   5.731   3.009 -0.3936  0.1968  0.0285
 2055SOL    HW117094   8.956   5.709   3.095  1.7175  1.4268 -0.7337
 2055SOL    HW217095   8.830   5.788   3.027 -0.6339 -0.5338  1.2763
 2056SOL     OW17096   1.061   3.829   1.377 -0.4942 -0.2220  0.0458
 2056SOL    HW117097   1.076   3.783   1.290 -1.0388 -0.6249  0.1671
 2056SOL    HW217098   0.993   3.779   1.430 -0.4268  0.2226  0.5524
 2057SOL     OW17099   3.084   5.382   5.431  0.2690 -0.3580  0.3572
 2057SOL    HW117100   3.016   5.385   5.358  3.2424  0.5838 -2.4675
 2057SOL    HW217101   3.081   5.292   5.475 -2.1642 -0.6443 -0.3289
 2058SOL     OW17102   1.267   4.730   1.684  0.0856 -0.2969 -0.4227
 2058SOL    HW117103   1.363   4.758   1.678 -0.8077  3.0723 -0.1594
 2058SOL    HW217104   1.216   4.769   1.607 -1.2622 -1.3519 -0.0872
 2059SOL     OW17105   9.264   0.052   4.909  0.0662  0.1237 -0.2024
 2059SOL    HW117106   9.300   0.140   4.879 -1.1021  1.2595  1.6791
 2059SOL    HW217107   9.283  -0.017   4.839  0.5805  1.9472 -1.8928
 2060SOL     OW17108   7.638   9.208   3.766  0.2633  0.0858 -0.1616
 2060SOL    HW117109   7.591   9.250   3.844  0.6365  0.3373 -0.0708
 2060SOL    HW217110   7.585   9.224   3.683 -0.8499 -1.3551  0.2332
 2061SOL     OW17111   9.932   2.590   4.631 -0.4151 -0.0846  0.0396
 2061SOL    HW117112   9.940   2.601   4.532 -2.7714 -0.8426 -0.2523
 2061SOL    HW217113   9.873   2.662   4.668  0.5758  0.2873  0.9394
 2062SOL     OW17114   9.616   0.126   4.950  0.2704 -0.1001 -0.4346
 2062SOL    HW117115   9.701   0.086   4.984  1.2224  2.3886  0.2799
 2062SOL    HW217116   9.553   0.138   5.027  0.0456 -0.1549 -0.6140
 2063SOL     OW17117   8.069   1.466   1.036 -0.3951 -0.0913 -0.1562
 2063SOL    HW117118   8.041   1.434   0.945 -0.6957  1.4060 -0.6080
 2063SOL    HW217119   8.010   1.426   1.105  0.2147 -1.7300 -0.5531
 2064SOL     OW17120   2.220   8.537   2.713  0.0589 -0.3330 -0.2154
 2064SOL    HW117121   2.317   8.514   2.709  0.5036  1.5319 -0.5005
 2064SOL    HW217122   2.203   8.618   2.657 -1.8418 -1.2115 -0.9616
 2065SOL     OW17123   3.609   5.181   3.105 -0.1800 -0.6896  0.3023
 2065SOL    HW117124   3.670   5.204   3.180  0.3435 -0.5799 -0.1485
 2065SOL    HW217125   3.625   5.087   3.076  0.5710 -0.3226 -0.5392
 2066SOL     OW17126   2.196   5.695   3.868  0.2737  0.0586  0.2677
 2066SOL    HW117127   2.248   5.748   3.934 -0.1386  1.0448 -0.1837
 2066SOL    HW217128   2.164   5.756   3.795 -0.4236 -0.7660 -0.1193
 2067SOL     OW17129   8.300   9.693   4.063  0.1034  0.1347 -0.3698
 2067SOL    HW117130   8.325   9.616   4.005 -2.1659 -0.5136 -0.5338
 2067SOL    HW217131   8.308   9.666   4.159  0.5477  0.1209 -0.4090
 2068SOL     OW17132   5.181   7.782   3.923 -0.1275  0.1127 -0.2500
 2068SOL    HW117133   5.083   7.762   3.914 -0.1889  0.2382  0.1198
 2068SOL    HW217134   5.232   7.697   3.933 -0.5278  0.1431  2.7240
 2069SOL     OW17135   4.361   8.859   1.619  0.1688  0.8687  0.1967
 2069SOL    HW117136   4.294   8.787   1.606 -1.0226  2.3641 -2.2855
 2069SOL    HW217137   4.419   8.866   1.538  0.3673  2.5720  0.4670
 2070SOL     OW17138   3.805   4.467   3.239 -0.1246 -0.0936  0.5305
 2070SOL    HW117139   3.897   4.502   3.252  0.5988 -1.3336 -1.1132
 2070SOL    HW217140   3.750   4.535   3.190  0.3780 -0.0066  0.0853
 2071SOL     OW17141   1.201   7.675   4.468  0.0619 -0.4696  0.4046
 2071SOL    HW117142   1.292   7.710   4.445 -0.5270  1.6580  1.2541
 2071SOL    HW217143   1.195   7.658   4.566  0.2461 -2.8042  0.0598
 2072SOL     OW17144   7.418   3.603   5.588 -0.2161  0.1256 -0.3131
 2072SOL    HW117145   7.506   3.633   5.553 -0.5202 -0.6273 -1.7643
 2072SOL    HW217146   7.430   3.521   5.643  0.1061  0.5594  0.2603
 2073SOL     OW17147   3.516   0.544   3.291  0.4605  0.2860 -0.6192
 2073SOL    HW117148   3.479   0.524   3.201  0.1732 -2.0842 -0.0132
 2073SOL    HW217149   3.452   0.601   3.342 -0.2037  0.1150 -1.2568
 2074SOL     OW17150   8.303   8.503   5.288  0.4504 -0.3168 -0.6825
 2074SOL    HW117151   8.344   8.417   5.259  1.1123 -0.2150 -0.0592
 2074SOL    HW217152   8.219   8.485   5.339  0.1407 -0.5574 -1.2792
 2075SOL     OW17153   4.288   9.709   4.147  0.2907  0.4677 -0.3635
 2075SOL    HW117154   4.279   9.743   4.053 -0.6378 -1.7044 -1.0863
 2075SOL    HW217155   4.370   9.749   4.188  1.1462  0.8522 -2.3649
 2076SOL     OW17156   1.620   9.179   5.301  0.6812 -0.8037 -0.4857
 2076SOL    HW117157   1.697   9.215   5.353 -0.3955  2.6542 -1.0896
 2076SOL    HW217158   1.612   9.230   5.215 -0.4860 -3.1415 -1.8167
 2077SOL     OW17159   4.105   2.575   1.594  0.5044 -0.1908  0.2559
 2077SOL    HW117160   4.140   2.525   1.516 -0.5111 -2.6956  1.3470
 2077SOL    HW217161   4.008   2.598   1.579  0.5702  0.1652  0.3658
 2078SOL     OW17162   3.732   9.280   5.521 -0.4290  0.2852 -0.0433
 2078SOL    HW117163   3.678   9.256   5.602  2.0726 -2.4528  0.9031
 2078SOL    HW217164   3.816   9.326   5.548 -0.9559  2.0617 -1.3241
 2079SOL     OW17165   1.477   6.878   1.868 -0.0262  0.0246 -0.7478
 2079SOL    HW117166   1.526   6.930   1.799  0.9246 -3.7321 -3.0389
 2079SOL    HW217167   1.388   6.851   1.833 -0.5449  0.1494  0.4349
 2080SOL     OW17168   1.758   4.479   1.932 -0.4854  0.6266 -0.2181
 2080SOL    HW117169   1.741   4.421   1.853  1.3489  0.1675 -0.3150
 2080SOL    HW217170   1.694   4.457   2.006 -0.5936 -0.6605 -0.6935
 2081SOL     OW17171   2.878   1.226   4.573  0.2361 -0.3236  0.1332
 2081SOL    HW117172   2.909   1.151   4.632  3.4132  0.4761 -0.4049
 2081SOL    HW217173   2.843   1.300   4.630  2.3100  0.0216  1.0252
 2082SOL     OW17174   4.402   9.111   2.029 -0.1705 -0.2205 -0.3449
 2082SOL    HW117175   4.309   9.113   1.994  0.3572 -0.4404 -1.8007
 2082SOL    HW217176   4.405   9.056   2.113 -1.4292  0.2289  0.0005
 2083SOL     OW17177   6.997   9.673   3.412 -0.0352  0.1788 -0.0820
 2083SOL    HW117178   6.971   9.731   3.489 -0.6289 -0.6029  0.3102
 2083SOL    HW217179   7.096   9.677   3.398 -0.0002  0.7791  0.3472
 2084SOL     OW17180   4.371   9.214   4.049 -0.8602  0.1160  0.4569
 2084SOL    HW117181   4.332   9.128   4.082 -0.5455 -0.2260 -0.0615
 2084SOL    HW217182   4.319   9.291   4.086 -1.8953 -0.3293 -0.0541
 2085SOL     OW17183   4.087   7.085   2.933 -0.1317 -0.2248 -0.3020
 2085SOL    HW117184   4.115   7.061   3.026  1.7059  1.8188 -0.2804
 2085SOL    HW217185   4.002   7.137   2.936 -1.4547 -2.3677  0.0155
 2086SOL     OW17186   6.257   9.473   3.286 -0.2863  0.0670  0.1057
 2086SOL    HW117187   6.338   9.499   3.234  0.4150  0.3527  1.3373
 2086SOL    HW217188   6.272   9.383   3.328 -0.8987 -0.2158 -0.2624
 2087SOL     OW17189   8.987   3.404   4.989 -0.2633  0.3978  0.5076
 2087SOL    HW117190   9.012   3.466   4.915 -2.0903  2.6881  1.7229
 2087SOL    HW217191   9.031   3.433   5.074  0.9268 -1.5303  0.5687
 2088SOL     OW17192   2.683   4.858   4.218  0.6055  0.3146 -0.4724
 2088SOL    HW117193   2.756   4.792   4.198 -1.2016 -1.8895 -0.0213
 2088SOL    HW217194   2.716   4.924   4.286  2.0982 -0.7965 -0.0750
 2089SOL     OW17195   1.595   3.818   4.283  0.2211 -0.2416  0.2266
 2089SOL    HW117196   1.684   3.777   4.304  0.0191 -1.9603 -2.1011
 2089SOL    HW217197   1.527   3.783   4.348  0.8732 -0.3742  0.8441
 2090SOL     OW17198   8.492   6.621   1.711  0.8148  0.1586  0.3558
 2090SOL    HW117199   8.421   6.550   1.709  0.4834  0.4599  1.2011
 2090SOL    HW217200   8.576   6.585   1.670  0.3385 -0.3821 -0.1551
 2091SOL     OW17201   6.182   0.040   0.963 -0.0319  0.3741 -0.0205
 2091SOL    HW117202   6.144   0.116   0.910 -0.2598 -1.2080 -2.2042
 2091SOL    HW217203   6.250   0.075   1.027  1.7333  2.1820 -2.7555
 2092SOL     OW17204   0.692   2.336   2.658  0.0282  0.1961 -0.0550
 2092SOL    HW117205   0.731   2.317   2.568  0.6985 -0.6665  0.4046
 2092SOL    HW217206   0.626   2.265   2.682 -0.1030  0.3874  0.1622
 2093SOL     OW17207   1.748   9.719   1.963  0.0433  0.2530 -0.3011
 2093SOL    HW117208   1.797   9.663   1.897 -0.7668  0.3493 -0.9953
 2093SOL    HW217209   1.649   9.701   1.955 -0.0333 -0.0284  1.1462
 2094SOL     OW17210   4.109   8.998   0.621 -0.6746  0.0911 -0.3899
 2094SOL    HW117211   4.148   9.032   0.706 -0.5561  1.4292 -0.9719
 2094SOL    HW217212   4.010   8.984   0.633 -0.6770  0.3792 -0.0786
 2095SOL     OW17213   2.850   1.893   2.070 -1.1367  0.1902  0.0167
 2095SOL    HW117214   2.792   1.812   2.074 -1.1993  0.2410  0.1888
 2095SOL    HW217215   2.792   1.975   2.062 -1.2129  0.4062  2.3224
 2096SOL     OW17216   9.011   3.627   1.705  0.5034 -0.1059  0.3627
 2096SOL    HW117217   9.023   3.664   1.797  0.8528 -1.6182  0.9514
 2096SOL    HW217218   9.099   3.628   1.657  1.2198 -3.0387  1.5160
 2097SOL     OW17219   3.388   7.825   0.923 -0.3045 -0.1927  0.2189
 2097SOL    HW117220   3.432   7.798   0.837 -0.7536 -1.2099  0.2893
 2097SOL    HW217221   3.450   7.881   0.977 -0.7947  2.3228 -1.7251
 2098SOL     OW17222   9.487   9.626   4.056 -0.2295 -0.4229  0.0379
 2098SOL    HW117223   9.470   9.655   3.962  0.0629  0.4827  0.2567
 2098SOL    HW217224   9.550   9.548   4.056 -0.3084 -0.4894 -0.5148
 2099SOL     OW17225   8.417   7.273   1.286  0.4290 -0.0252 -0.2962
 2099SOL    HW117226   8.387   7.179   1.272 -0.9465  0.4140 -0.4240
 2099SOL    HW217227   8.375   7.332   1.217  1.4052  0.6531 -0.3126
 2100SOL     OW17228   8.082   2.980   1.048 -0.1244  0.2888 -0.2914
 2100SOL    HW117229   7.987   2.979   1.015 -0.5125 -0.5647  0.8492
 2100SOL    HW217230   8.094   2.910   1.117  1.4762  0.0807 -0.7643
 2101SOL     OW17231   1.410   5.894   1.538  0.2012  0.4769  0.1473
 2101SOL    HW117232   1.332   5.949   1.510  0.8355 -0.2770 -3.2304
 2101SOL    HW217233   1.378   5.814   1.588 -1.2917 -0.3894 -2.1321
 2102SOL     OW17234   0.819   9.218   3.921 -0.1199  0.3478  0.3972
 2102SOL    HW117235   0.847   9.312   3.902  2.1881  0.0158  1.8533
 2102SOL    HW217236   0.720   9.214   3.934 -0.3631  2.3836 -0.6475
 2103SOL     OW17237   4.020   3.030   3.416 -0.4187  0.0823 -0.1489
 2103SOL    HW117238   3.932   3.068   3.443 -1.7105 -1.6303 -1.8122
 2103SOL    HW217239   4.058   3.082   3.339 -0.0090  0.7607  0.5066
 2104SOL     OW17240   3.720   1.221   4.478 -0.2366 -0.2130 -0.0252
 2104SOL    HW117241   3.783   1.297   4.491 -0.4166  0.0465 -0.6317
 2104SOL    HW217242   3.759   1.138   4.517 -0.5376  0.4221  1.6369
 2105SOL     OW17243   8.579   8.927   1.631  0.2017 -0.0246 -0.6888
 2105SOL    HW117244   8.598   9.004   1.692  1.0056  0.0163 -0.9909
 2105SOL    HW217245   8.624   8.845   1.667 -0.1411 -0.2170 -0.7010
 2106SOL     OW17246   8.377   0.280   4.514 -0.7606 -0.7156 -0.8980
 2106SOL    HW117247   8.371   0.207   4.582 -1.5538  0.1364 -0.0457
 2106SOL    HW217248   8.285   0.314   4.493 -0.3377  0.5616 -0.7255
 2107SOL     OW17249   9.383   0.492   3.979 -0.1954  0.1738 -0.5753
 2107SOL    HW117250   9.298   0.536   3.951 -1.0216 -1.7032 -1.1089
 2107SOL    HW217251   9.379   0.472   4.077  0.2182  1.3595 -0.3161
 2108SOL     OW17252   8.568   3.618   0.109 -0.2692  0.2470 -1.0584
 2108SOL    HW117253   8.469   3.624   0.103 -0.3118  0.4820 -0.1456
 2108SOL    HW217254   8.594   3.535   0.159 -0.0539  1.0019  0.1137
 2109SOL     OW17255   7.691   7.042   2.327  0.3199 -0.0181  0.4385
 2109SOL    HW117256   7.726   7.081   2.241  0.5783  1.4618  1.1841
 2109SOL    HW217257   7.759   6.979   2.365 -0.4925 -1.9345 -1.2603
 2110SOL     OW17258   8.282   6.796   2.539  0.4582 -0.1115  0.1790
 2110SOL    HW117259   8.307   6.745   2.622  1.9182 -0.4032 -0.4268
 2110SOL    HW217260   8.214   6.743   2.487  1.8526 -1.3933 -0.3681
 2111SOL     OW17261   0.318   3.774   2.186 -0.7590  0.2743  0.6384
 2111SOL    HW117262   0.253   3.703   2.212 -0.3906  0.0109  0.8462
 2111SOL    HW217263   0.382   3.738   2.119 -0.2526  0.2530  1.1327
 2112SOL     OW17264   0.833   6.089   5.227  0.6406  0.1055 -0.5475
 2112SOL    HW117265   0.883   6.175   5.215  0.3309  0.2747 -0.6352
 2112SOL    HW217266   0.792   6.062   5.140 -0.3405  0.5415 -0.2331
 2113SOL     OW17267   9.362   4.819   5.119 -0.2013  0.2498  0.4668
 2113SOL    HW117268   9.454   4.842   5.087 -0.3698 -0.2138 -0.3636
 2113SOL    HW217269   9.297   4.888   5.087 -0.1239  0.6466  1.1616
 2114SOL     OW17270   9.550   2.771   1.875 -0.2783  0.5002 -0.7875
 2114SOL    HW117271   9.640   2.763   1.832 -0.6285 -0.6783 -1.3199
 2114SOL    HW217272   9.491   2.698   1.841 -0.4774 -0.6411  1.9037
 2115SOL     OW17273   1.608   4.213   5.513  0.3616  0.0011 -0.0694
 2115SOL    HW117274   1.595   4.143   5.443  0.4101  0.2817 -0.3610
 2115SOL    HW217275   1.687   4.269   5.489  2.6085 -2.1630  2.0639
 2116SOL     OW17276   1.248   3.126   3.262 -0.6647 -0.5439  0.6844
 2116SOL    HW117277   1.330   3.127   3.319 -0.8528 -0.6822  0.9593
 2116SOL    HW217278   1.185   3.198   3.293  0.5095  1.3682 -1.2401
 2117SOL     OW17279   1.765   1.771   5.287  0.3683 -0.2335  0.2941
 2117SOL    HW117280   1.758   1.782   5.386  0.3961  0.1281  0.2586
 2117SOL    HW217281   1.835   1.703   5.266  1.4075  0.7503  0.4864
 2118SOL     OW17282   7.215   8.229   2.599 -0.1958  0.7485 -0.2106
 2118SOL    HW117283   7.173   8.318   2.581 -0.1813  0.3758 -2.1571
 2118SOL    HW217284   7.296   8.217   2.542  0.1570 -0.2659  0.4730
 2119SOL     OW17285   2.672   0.913   3.352  0.0455  0.1166 -0.5253
 2119SOL    HW117286   2.702   0.880   3.441 -0.4415  0.0861 -0.3742
 2119SOL    HW217287   2.706   1.006   3.337 -0.6412  0.4632  0.0725
 2120SOL     OW17288   9.639   7.474   3.931 -0.0779  0.0516 -0.0417
 2120SOL    HW117289   9.697   7.555   3.923  1.1149 -0.7192  0.6874
 2120SOL    HW217290   9.627   7.433   3.840  1.9865 -0.7818  0.0400
 2121SOL     OW17291   4.371   2.720   5.636  0.2603  0.3790  0.4369
 2121SOL    HW117292   4.399   2.708   5.541  0.4657  1.0635  0.4089
 2121SOL    HW217293   4.295   2.785   5.640 -0.4060 -0.4170  0.6428
 2122SOL     OW17294   0.740   9.661   0.101  0.5881 -0.0847  0.7623
 2122SOL    HW117295   0.732   9.647   0.200 -1.1848 -0.0119  0.6484
 2122SOL    HW217296   0.778   9.579   0.059  1.0379 -0.2412  1.4616
 2123SOL     OW17297   6.931   9.238   1.400 -0.0739  0.0528 -0.0988
 2123SOL    HW117298   6.943   9.246   1.301 -1.1594 -0.5246 -0.2817
 2123SOL    HW217299   6.925   9.329   1.440 -0.6465  0.2784 -0.6914
 2124SOL     OW17300   7.081   1.320   3.576 -0.0971  0.3039 -0.5248
 2124SOL    HW117301   6.992   1.332   3.619 -0.7117 -0.8191 -1.4630
 2124SOL    HW217302   7.110   1.225   3.587  0.7405  0.5388 -0.6856
 2125SOL     OW17303   7.666   2.478   3.463 -0.2664  0.0463 -0.4873
 2125SOL    HW117304   7.759   2.514   3.453  0.2588 -0.8164  1.0986
 2125SOL    HW217305   7.606   2.551   3.495  0.5726 -0.1926  1.6863
 2126SOL     OW17306   2.311   7.758   1.595  0.4211 -0.7615 -0.0269
 2126SOL    HW117307   2.341   7.681   1.539  0.4476 -0.4095 -0.4933
 2126SOL    HW217308   2.222   7.736   1.636 -0.4249 -0.3158 -1.6072
 2127SOL     OW17309   8.593   0.682   1.522 -0.0130 -0.6986 -0.3024
 2127SOL    HW117310   8.591   0.600   1.580 -0.3483 -0.3334  0.1971
 2127SOL    HW217311   8.525   0.747   1.554  1.0223  0.2470 -0.0004
 2128SOL     OW17312   0.890   8.633   3.959  0.2978 -0.9402  0.1172
 2128SOL    HW117313   0.935   8.602   3.875 -0.9919 -0.5042 -0.7501
 2128SOL    HW217314   0.859   8.553   4.011 -1.3796 -1.1881 -1.2078
 2129SOL     OW17315   8.382   7.329   2.592  0.0135  0.0787  0.5742
 2129SOL    HW117316   8.464   7.309   2.646  1.2618  2.0412 -0.4957
 2129SOL    HW217317   8.352   7.246   2.545  0.3408 -1.0694  2.3402
 2130SOL     OW17318   4.436   3.438   5.435 -0.1882 -0.0348  0.3703
 2130SOL    HW117319   4.443   3.408   5.531 -2.5353 -0.3654  0.4706
 2130SOL    HW217320   4.340   3.436   5.407  0.4784  0.1684 -1.9764
 2131SOL     OW17321   0.658   1.752   0.286 -0.4955  0.1319 -0.0653
 2131SOL    HW117322   0.633   1.673   0.229  1.5570 -1.7387  1.5080
 2131SOL    HW217323   0.621   1.739   0.378  1.8846 -0.2260  0.8785
 2132SOL     OW17324   0.139   9.624   0.508 -0.0469 -0.3045  0.6615
 2132SOL    HW117325   0.095   9.675   0.434  0.4422 -1.1031 -0.2018
 2132SOL    HW217326   0.196   9.551   0.468  3.1254  1.5259  1.6572
 2133SOL     OW17327   8.033   3.303   2.085  0.2707 -0.5879  0.2404
 2133SOL    HW117328   8.001   3.251   2.006 -1.4768  0.3074  0.3346
 2133SOL    HW217329   8.122   3.344   2.064  1.3983 -3.0783 -0.0436
 2134SOL     OW17330   8.531   2.513   5.138  0.2914  0.1964  0.0319
 2134SOL    HW117331   8.492   2.425   5.112  0.1223  0.0370  0.8226
 2134SOL    HW217332   8.535   2.572   5.057 -1.6605  0.2386 -0.0777
 2135SOL     OW17333   3.456   1.320   4.597 -0.1086  0.3002  0.0357
 2135SOL    HW117334   3.364   1.282   4.609 -0.9607  1.6484 -2.0014
 2135SOL    HW217335   3.479   1.322   4.500  1.8155  0.6041  0.4770
 2136SOL     OW17336   0.066   6.741   4.619 -0.0309  0.0392 -0.3138
 2136SOL    HW117337   0.087   6.713   4.525  2.3188  2.2143 -0.4776
 2136SOL    HW217338   0.148   6.778   4.662 -1.4690  0.5239  2.0971
 2137SOL     OW17339   3.704   5.791   4.278  0.7807  0.1963 -0.0200
 2137SOL    HW117340   3.674   5.717   4.339  0.0325  1.1231  0.7634
 2137SOL    HW217341   3.777   5.758   4.219  0.3312 -1.2232  0.1898
 2138SOL     OW17342   0.989   0.077   1.940 -0.3098 -0.6494 -0.3251
 2138SOL    HW117343   0.950   0.132   1.866 -1.2464 -0.6401  0.1692
 2138SOL    HW217344   0.970  -0.020   1.923  0.7993 -0.7725 -0.8768
 2139SOL     OW17345   4.352   0.376   1.037  0.0491  0.2716  0.2839
 2139SOL    HW117346   4.303   0.457   1.005 -0.8494 -0.3781  0.0029
 2139SOL    HW217347   4.401   0.398   1.121 -1.7058  0.6138  1.2491
 2140SOL     OW17348   9.724   3.995   2.360  0.3301  0.0941  0.5630
 2140SOL    HW117349   9.767   3.933   2.294 -1.3540  0.2527 -0.7233
 2140SOL    HW217350   9.778   3.997   2.444  1.7074 -1.2605 -0.2644
 2141SOL     OW17351   8.499   6.731   2.397 -0.3709  0.0503 -0.6477
 2141SOL    HW117352   8.481   6.636   2.370  0.1338 -0.2364 -0.0183
 2141SOL    HW217353   8.416   6.772   2.434 -1.7085  1.2132 -4.7305
 2142SOL     OW17354   3.687   2.434   0.464  0.2816 -0.1242  0.2288
 2142SOL    HW117355   3.707   2.361   0.529  2.8906  0.4903  0.2018
 2142SOL    HW217356   3.773   2.470   0.428 -0.9596  2.7588  0.0050
 2143SOL     OW17357   0.430   8.943   3.227 -0.0522 -0.1239 -0.3394
 2143SOL    HW117358   0.370   8.997   3.168  0.5354  0.3901 -0.4762
 2143SOL    HW217359   0.485   9.005   3.283 -0.6039 -0.6119  0.7478
 2144SOL     OW17360   7.979   6.882   0.862  0.0374  0.5195  0.0066
 2144SOL    HW117361   7.965   6.800   0.917  2.3969  1.0984  1.5775
 2144SOL    HW217362   7.960   6.862   0.766 -2.8251 -0.8834  0.8280
 2145SOL     OW17363   4.017   1.699   3.844 -0.0964 -0.0673  0.0310
 2145SOL    HW117364   3.953   1.776   3.839  0.4717  0.4076 -0.0176
 2145SOL    HW217365   4.012   1.657   3.934 -0.5333 -0.0784  0.0015
 2146SOL     OW17366   9.566   3.567   1.221  0.5681 -0.2868 -0.1207
 2146SOL    HW117367   9.555   3.667   1.219 -2.1381 -0.5280  0.4774
 2146SOL    HW217368   9.501   3.525   1.158  2.2416 -1.6448 -0.9460
 2147SOL     OW17369   8.647   6.987   2.725  0.0206  0.3452  0.2434
 2147SOL    HW117370   8.681   6.942   2.642  2.7645  1.4305  0.7259
 2147SOL    HW217371   8.660   6.926   2.803 -2.0086 -0.4391 -0.0087
 2148SOL     OW17372   1.253   6.713   2.697  0.1795  0.1360  0.2525
 2148SOL    HW117373   1.215   6.806   2.688  0.1643  0.2197  1.1127
 2148SOL    HW217374   1.245   6.665   2.610  0.8763  1.2041 -0.4189
 2149SOL     OW17375   3.795   1.744   0.062  0.0088 -0.3477 -0.2946
 2149SOL    HW117376   3.820   1.648   0.074 -1.5334 -1.1350 -2.7886
 2149SOL    HW217377   3.729   1.770   0.132  0.6060 -1.0532  0.5374
 2150SOL     OW17378   8.844   0.074   0.149 -0.1560 -0.0980 -0.2008
 2150SOL    HW117379   8.881   0.156   0.105  1.2266 -0.6540 -0.1139
 2150SOL    HW217380   8.852   0.082   0.248  0.1771 -0.4159 -0.1987
 2151SOL     OW17381   6.309   7.797   2.141 -0.6627  0.3227  0.1622
 2151SOL    HW117382   6.324   7.845   2.054 -2.9159  0.8306  0.0133
 2151SOL    HW217383   6.384   7.733   2.157  1.7383  2.9275 -0.2831
 2152SOL     OW17384   4.623   0.793   2.650  0.5041 -0.5733  0.1018
 2152SOL    HW117385   4.558   0.718   2.633  0.0030  0.0662 -0.8792
 2152SOL    HW217386   4.673   0.813   2.565 -1.1183  1.8349 -0.3328
 2153SOL     OW17387   3.849   7.891   2.365 -0.7221 -0.2114  0.3795
 2153SOL    HW117388   3.927   7.905   2.303 -0.5344  3.6154  1.3590
 2153SOL    HW217389   3.877   7.834   2.442  0.7913  0.1968  0.1461
 2154SOL     OW17390   3.638   0.318   1.355 -0.8011  0.0054 -0.0038
 2154SOL    HW117391   3.553   0.352   1.395 -1.5910 -2.3544  0.4103
 2154SOL    HW217392   3.714   0.378   1.382 -2.3407  2.2646 -0.5722
 2155SOL     OW17393   2.392   4.868   4.345  0.9382  0.0631 -0.6666
 2155SOL    HW117394   2.313   4.878   4.285  1.5084  1.1666 -1.2665
 2155SOL    HW217395   2.475   4.859   4.289  1.2537 -0.9510 -0.0470
 2156SOL     OW17396   2.139   0.754   4.434 -0.4282  0.0107  0.3533
 2156SOL    HW117397   2.141   0.698   4.517  0.8273 -1.6246 -0.7416
 2156SOL    HW217398   2.231   0.786   4.413 -0.7803  0.6192 -0.2848
 2157SOL     OW17399   1.816   2.983   1.453 -0.3420 -0.5084  0.6363
 2157SOL    HW117400   1.840   3.080   1.462  0.1354 -0.4338 -1.2702
 2157SOL    HW217401   1.762   2.955   1.532 -0.7114  1.3826  1.0840
 2158SOL     OW17402   7.733   1.456   4.060 -0.1238  0.1319  0.1239
 2158SOL    HW117403   7.661   1.508   4.015  1.3103  0.8542 -1.3978
 2158SOL    HW217404   7.785   1.516   4.121 -1.1002 -0.4981  1.5959
 2159SOL     OW17405   9.271   5.965   1.510 -0.0766 -0.0561  0.5285
 2159SOL    HW117406   9.335   6.043   1.509 -0.2382  0.0994 -3.6610
 2159SOL    HW217407   9.298   5.899   1.441 -1.0140 -2.9356  2.8318
 2160SOL     OW17408   7.349   1.369   4.650 -0.1564  0.2054 -0.6660
 2160SOL    HW117409   7.291   1.379   4.569  0.9267  1.7276 -1.2678
 2160SOL    HW217410   7.419   1.440   4.650  1.4861 -1.3741  0.2504
 2161SOL     OW17411   5.222   0.899   4.042 -0.3419  0.2156 -0.1823
 2161SOL    HW117412   5.171   0.869   3.962 -0.1634 -0.0269 -0.2043
 2161SOL    HW217413   5.266   0.987   4.022  1.1995 -0.7258 -0.9725
 2162SOL     OW17414   0.780   6.184   1.407  0.7764  0.1968  0.2652
 2162SOL    HW117415   0.734   6.168   1.494  0.5974  1.4483  0.4130
 2162SOL    HW217416   0.716   6.224   1.342  0.7247 -1.3561 -0.6804
 2163SOL     OW17417   2.576   8.980   4.846 -0.8825 -0.1298 -0.0167
 2163SOL    HW117418   2.652   8.915   4.842 -0.5614  0.2189  0.3812
 2163SOL    HW217419   2.575   9.025   4.935  0.0972  1.8522 -0.9955
 2164SOL     OW17420   1.508   4.941   3.434 -0.5546  0.5428  0.0184
 2164SOL    HW117421   1.478   4.845   3.432  0.7624  0.1223 -0.1998
 2164SOL    HW217422   1.495   4.982   3.344  1.1762 -0.1718 -0.5788
 2165SOL     OW17423   9.239   3.232   4.914 -0.2117 -0.6677  0.1002
 2165SOL    HW117424   9.165   3.295   4.893 -0.6999 -1.5756 -0.9477
 2165SOL    HW217425   9.243   3.216   5.012 -0.0593  1.0028  0.3900
 2166SOL     OW17426   0.783   2.721   3.566  0.7462  0.0643 -0.4146
 2166SOL    HW117427   0.758   2.792   3.500  1.5408 -0.0485 -0.8424
 2166SOL    HW217428   0.710   2.711   3.633  0.1022  0.4595 -1.0489
 2167SOL     OW17429   8.740   4.962   3.283 -0.0768 -0.1916  0.2319
 2167SOL    HW117430   8.730   4.921   3.192 -0.3895 -1.7089  0.9416
 2167SOL    HW217431   8.820   5.022   3.283  0.1951 -0.5360 -0.9145
 2168SOL     OW17432   3.702   8.245   3.315  0.0189 -0.0287 -0.0235
 2168SOL    HW117433   3.606   8.228   3.339  0.5773  0.9872  3.2254
 2168SOL    HW217434   3.719   8.344   3.316  0.8426 -0.1367 -1.7852
 2169SOL     OW17435   3.975   5.498   1.421  0.2170  0.2790  0.6057
 2169SOL    HW117436   3.927   5.517   1.335 -0.1094 -1.1471  0.4551
 2169SOL    HW217437   4.047   5.431   1.405  0.4426  0.3381  1.3608
 2170SOL     OW17438   4.976   9.093   2.963  0.5269 -0.2565 -0.0254
 2170SOL    HW117439   4.949   9.101   2.867 -2.2602 -0.4166  0.6931
 2170SOL    HW217440   4.918   9.026   3.009 -0.0474  1.7967  2.4033
 2171SOL     OW17441   2.743   2.855   2.415 -0.0909 -0.1361  0.0210
 2171SOL    HW117442   2.647   2.882   2.405 -0.2888 -0.5958  0.6341
 2171SOL    HW217443   2.748   2.766   2.460  0.6217 -0.1303 -0.0388
 2172SOL     OW17444   6.649   8.712   4.471  0.0044  0.2525  0.1617
 2172SOL    HW117445   6.593   8.636   4.440  0.7207 -0.6292  1.0005
 2172SOL    HW217446   6.745   8.685   4.473  0.0892  0.5743  2.1990
 2173SOL     OW17447   5.169   8.621   2.921 -0.2112  0.5721  0.0310
 2173SOL    HW117448   5.073   8.624   2.896 -0.2010 -0.5534 -0.1720
 2173SOL    HW217449   5.215   8.549   2.868  0.3884 -0.0172  1.3403
 2174SOL     OW17450   6.759   9.880   2.570  0.0150 -0.0439  0.0191
 2174SOL    HW117451   6.756   9.858   2.667  3.3317  0.2846  0.2468
 2174SOL    HW217452   6.849   9.857   2.533 -1.0507  0.1948 -2.9083
 2175SOL     OW17453   3.436   2.060   4.108 -0.2432 -0.2849  0.2032
 2175SOL    HW117454   3.432   2.069   4.207 -0.8750  2.5246 -0.0454
 2175SOL    HW217455   3.519   2.105   4.074 -1.0451  0.5270 -0.7058
 2176SOL     OW17456   8.434   6.483   3.993  0.0507  0.4543  0.0413
 2176SOL    HW117457   8.385   6.425   4.058  0.8508  0.2475  0.4628
 2176SOL    HW217458   8.531   6.488   4.019 -0.2025  2.8253  0.6456
 2177SOL     OW17459   3.551   7.562   0.458  0.0861  0.1577  0.4512
 2177SOL    HW117460   3.499   7.527   0.536  0.3762 -0.3550  0.4148
 2177SOL    HW217461   3.647   7.573   0.483  0.5955 -1.9227 -0.3910
 2178SOL     OW17462   1.901   7.953   2.932  0.0970  0.6597 -0.3087
 2178SOL    HW117463   1.947   7.867   2.954 -0.6734  0.0769 -0.9695
 2178SOL    HW217464   1.872   7.952   2.836 -1.6095  0.8829  0.1961
 2179SOL     OW17465   3.028   3.303   4.194  0.8011  0.4306  0.2495
 2179SOL    HW117466   3.013   3.323   4.097  3.5842  0.3179 -0.2261
 2179SOL    HW217467   3.126   3.292   4.211  0.1842 -1.6189  2.6812
 2180SOL     OW17468   0.033   2.482   4.891 -0.3469 -0.3567 -0.2891
 2180SOL    HW117469  -0.027   2.418   4.938 -1.3935  0.2744 -0.7321
 2180SOL    HW217470  -0.012   2.514   4.807  0.4789  0.3743 -0.4621
 2181SOL     OW17471   4.473   8.553   1.659 -0.1846 -0.3572 -0.0537
 2181SOL    HW117472   4.439   8.488   1.591 -0.3110  0.6389 -0.9412
 2181SOL    HW217473   4.569   8.572   1.641 -0.6164  1.0648 -0.8543
 2182SOL     OW17474   2.609   9.812   1.194 -1.1282 -0.7268 -0.2226
 2182SOL    HW117475   2.594   9.910   1.207 -1.4356 -0.7893 -0.1061
 2182SOL    HW217476   2.525   9.770   1.159 -0.2837 -0.5429 -2.5288
 2183SOL     OW17477   9.624   8.986   1.841  0.2739  0.4084 -0.1714
 2183SOL    HW117478   9.667   9.067   1.880 -0.0412  0.4642  0.0620
 2183SOL    HW217479   9.526   9.002   1.831  0.0045 -0.4144  1.0791
 2184SOL     OW17480   2.764   7.574   4.108 -0.0952  0.8468 -0.2305
 2184SOL    HW117481   2.795   7.492   4.060  0.5295  1.5080 -0.9669
 2184SOL    HW217482   2.665   7.584   4.096 -0.4483 -0.6562  1.1921
 2185SOL     OW17483   4.211   8.053   5.515 -0.6833 -0.1868 -0.2112
 2185SOL    HW117484   4.305   8.025   5.495 -0.6292 -1.8868  2.2121
 2185SOL    HW217485   4.147   7.992   5.469 -0.5921  0.4865 -1.2260
 2186SOL     OW17486   9.724   8.632   3.127 -0.0518 -0.2523  0.2991
 2186SOL    HW117487   9.746   8.556   3.188 -1.1028 -1.4551 -0.7880
 2186SOL    HW217488   9.698   8.596   3.037 -1.7135  1.3159  0.1238
 2187SOL     OW17489   7.869   1.587   2.362  0.3973  0.0305  0.7453
 2187SOL    HW117490   7.792   1.637   2.401  1.1543  1.5752  0.2817
 2187SOL    HW217491   7.878   1.498   2.409 -1.3189  0.0607  1.1571
 2188SOL     OW17492   1.807   6.666   2.978  0.2611  0.3879 -0.1869
 2188SOL    HW117493   1.879   6.735   2.973  1.1996 -0.6263 -0.9690
 2188SOL    HW217494   1.840   6.588   3.032 -1.0638  0.8633  1.3359
 2189SOL     OW17495   8.597   9.260   4.303 -0.4603 -0.0732  0.3419
 2189SOL    HW117496   8.604   9.165   4.336  1.2626 -0.1772 -0.2628
 2189SOL    HW217497   8.528   9.265   4.232 -1.3685 -0.6486  1.1703
 2190SOL     OW17498   3.661   0.815   0.715  0.4241  0.4387  0.2547
 2190SOL    HW117499   3.747   0.764   0.712  0.1552 -0.0591  0.8067
 2190SOL    HW217500   3.612   0.805   0.629  1.1827  1.1795 -0.2609
 2191SOL     OW17501   9.106   1.767   2.234 -0.1615  0.0645 -0.4900
 2191SOL    HW117502   9.087   1.865   2.226 -1.4597 -0.2337 -1.1512
 2191SOL    HW217503   9.135   1.745   2.327 -2.6991  0.6037  0.4549
 2192SOL     OW17504   0.811   2.919   5.016 -0.2093  0.3531 -0.3491
 2192SOL    HW117505   0.873   2.850   4.978 -0.7606 -0.6605  0.5653
 2192SOL    HW217506   0.795   2.900   5.113 -2.6199  0.0943 -0.7701
 2193SOL     OW17507   4.192   2.379   4.241 -0.4059  0.3220 -0.2269
 2193SOL    HW117508   4.242   2.336   4.316  1.0074  0.8261 -0.8664
 2193SOL    HW217509   4.094   2.367   4.256 -0.1837  0.8995  2.0085
 2194SOL     OW17510   4.947   1.880   2.237  0.4764 -0.2085  0.0665
 2194SOL    HW117511   4.931   1.803   2.299  1.4156 -0.2624  0.2383
 2194SOL    HW217512   4.971   1.845   2.146  0.6914 -0.1169  0.0890
 2195SOL     OW17513   2.324   9.253   2.959 -0.2613 -0.3075 -0.0811
 2195SOL    HW117514   2.262   9.290   3.029 -0.6218 -0.5043 -0.2918
 2195SOL    HW217515   2.395   9.319   2.938 -1.0377  0.3639 -0.6319
 2196SOL     OW17516   8.145   8.197   3.696  0.3362 -0.1352  0.6154
 2196SOL    HW117517   8.101   8.148   3.620 -0.8118  0.0493  1.1422
 2196SOL    HW217518   8.153   8.135   3.774  0.5620 -0.0175  0.6845
 2197SOL     OW17519   3.057   5.198   4.159 -0.3196  0.1127 -0.0044
 2197SOL    HW117520   3.074   5.189   4.061  2.3102 -0.4606  0.4476
 2197SOL    HW217521   3.121   5.138   4.208 -1.8872  0.0823  2.0411
 2198SOL     OW17522   3.649   5.179   4.374  0.2658  0.0134  0.5064
 2198SOL    HW117523   3.687   5.262   4.334  1.2974 -0.8188 -0.2447
 2198SOL    HW217524   3.698   5.099   4.339 -0.9055 -0.9349  1.0028
 2199SOL     OW17525   7.863   1.282   1.676  0.1792 -0.1349 -1.1420
 2199SOL    HW117526   7.822   1.342   1.745  0.6252  0.6549 -1.5613
 2199SOL    HW217527   7.929   1.221   1.719  0.3391  0.2464 -0.8475
 2200SOL     OW17528   1.388   8.078   4.282  0.1328 -0.0177  0.4244
 2200SOL    HW117529   1.321   8.100   4.212  1.1855 -0.0042 -0.6009
 2200SOL    HW217530   1.344   8.073   4.371 -0.9966  1.2600 -0.0556
 2201SOL     OW17531   1.685   5.102   0.770  0.8192 -0.6614  0.1783
 2201SOL    HW117532   1.640   5.176   0.721  1.1534 -0.3366  0.3546
 2201SOL    HW217533   1.685   5.122   0.868  1.9539 -0.3138  0.1189
 2202SOL     OW17534   2.018   7.935   4.953  0.3276  0.7166 -0.0460
 2202SOL    HW117535   1.992   7.995   5.029  1.2201 -0.6748  1.3887
 2202SOL    HW217536   2.003   7.840   4.978  2.7219  0.1018 -0.7612
 2203SOL     OW17537   1.816   6.611   2.008  0.1118 -0.0279 -0.1530
 2203SOL    HW117538   1.762   6.528   2.021  2.7511 -1.3720  2.9280
 2203SOL    HW217539   1.786   6.680   2.073  0.8584 -0.1188  0.2848
 2204SOL     OW17540   9.090   5.084   1.848  0.2520  0.4511  0.0513
 2204SOL    HW117541   9.055   5.167   1.892  0.4551  0.4102  0.2948
 2204SOL    HW217542   9.054   5.077   1.755 -0.5874  0.2749  0.3881
 2205SOL     OW17543   4.282   2.612   0.421  0.0760 -0.4861 -0.7151
 2205SOL    HW117544   4.357   2.632   0.358 -0.7172  1.5083 -1.0731
 2205SOL    HW217545   4.228   2.695   0.436 -1.0356 -1.4622  0.9000
 2206SOL     OW17546   9.027   7.289   2.697  0.4309 -0.3266  0.0822
 2206SOL    HW117547   9.070   7.205   2.663  1.3994  0.3335 -0.3601
 2206SOL    HW217548   9.034   7.360   2.627 -2.3217 -0.4895 -0.4086
 2207SOL     OW17549   1.605   0.262   1.365 -0.0337  0.6224  0.9251
 2207SOL    HW117550   1.565   0.179   1.405 -1.4529 -0.2343 -2.1313
 2207SOL    HW217551   1.539   0.305   1.304  1.7383  2.3930  0.2160
 2208SOL     OW17552   4.529   1.580   3.457  0.6930 -0.4860 -0.2668
 2208SOL    HW117553   4.494   1.673   3.470 -1.6352 -1.0669 -2.0601
 2208SOL    HW217554   4.598   1.579   3.385  1.3883 -0.0154  0.3864
 2209SOL     OW17555   9.194   6.132   0.504  0.0819 -0.0825  0.2661
 2209SOL    HW117556   9.176   6.061   0.436 -0.7275  0.7827 -0.4536
 2209SOL    HW217557   9.155   6.219   0.472  0.5858  0.5657  1.3709
 2210SOL     OW17558   4.529   2.752   1.636  0.5308 -0.0868 -0.1658
 2210SOL    HW117559   4.591   2.698   1.578  2.2304  0.2911  1.2455
 2210SOL    HW217560   4.582   2.798   1.707 -1.0936  2.1762 -0.3636
 2211SOL     OW17561   2.953   1.176   0.458 -0.4819 -0.2629  0.4958
 2211SOL    HW117562   2.892   1.155   0.534 -0.4705 -1.3190  0.2218
 2211SOL    HW217563   2.998   1.092   0.427 -0.0698  0.2498 -0.3143
 2212SOL     OW17564   9.131   2.307   3.966 -0.0461  0.0445  0.1220
 2212SOL    HW117565   9.047   2.287   4.016  0.4810 -0.8132  0.6732
 2212SOL    HW217566   9.188   2.370   4.019  0.0358 -0.0389  0.1341
 2213SOL     OW17567   9.037   0.872   3.580  0.4395 -0.1451 -0.3670
 2213SOL    HW117568   9.051   0.952   3.638  1.1921 -0.4261 -0.1640
 2213SOL    HW217569   8.989   0.801   3.631  2.4888 -0.9997  0.4266
 2214SOL     OW17570   4.593   9.326   1.144  0.0870 -0.1956 -0.1328
 2214SOL    HW117571   4.654   9.322   1.223  1.0637 -0.5595 -0.9079
 2214SOL    HW217572   4.610   9.409   1.093  1.1680 -1.1485 -1.3422
 2215SOL     OW17573   7.781   8.334   2.486  0.2555 -0.1664 -0.8724
 2215SOL    HW117574   7.875   8.315   2.516 -0.4527 -0.2529  1.3877
 2215SOL    HW217575   7.725   8.252   2.499 -0.4623  0.3368 -0.7843
 2216SOL     OW17576   2.531   6.098   3.420  0.4038 -0.5730  0.0859
 2216SOL    HW117577   2.627   6.072   3.417  0.3465 -0.8438  0.5471
 2216SOL    HW217578   2.523   6.193   3.449  0.4621 -1.0159  1.5876
 2217SOL     OW17579   3.331   7.805   1.360 -0.0272 -0.3199 -0.0973
 2217SOL    HW117580   3.266   7.747   1.409 -2.1650  0.1889 -2.2736
 2217SOL    HW217581   3.423   7.791   1.398 -0.9930 -2.8167  1.4372
 2218SOL     OW17582   8.129   0.118   2.864  0.0740  0.0968 -0.0537
 2218SOL    HW117583   8.074   0.054   2.810  1.0325  0.9512 -2.0888
 2218SOL    HW217584   8.128   0.208   2.819  0.0748  1.0887  1.8968
 2219SOL     OW17585   2.510   5.943   2.399 -0.0446  0.3939  0.1841
 2219SOL    HW117586   2.529   5.856   2.446  1.3908 -0.3155 -1.6671
 2219SOL    HW217587   2.413   5.946   2.373 -0.6828  0.4503  2.4341
 2220SOL     OW17588   2.451   3.390   5.449  0.2590  0.1257 -0.4298
 2220SOL    HW117589   2.434   3.314   5.511 -1.0026 -0.5897 -1.6105
 2220SOL    HW217590   2.515   3.454   5.491  1.1267 -1.4398  0.6923
 2221SOL     OW17591   9.039   7.480   3.259 -0.3511 -0.1348 -0.0969
 2221SOL    HW117592   9.076   7.389   3.244 -1.7797 -0.5539 -1.0957
 2221SOL    HW217593   8.947   7.487   3.220 -1.0563  1.1198  1.7246
 2222SOL     OW17594   2.222   2.974   1.131  0.2275 -0.5374  0.1698
 2222SOL    HW117595   2.316   3.001   1.108 -0.5970  0.5524 -2.1147
 2222SOL    HW217596   2.196   2.894   1.077 -0.2804 -0.6362  0.5594
 2223SOL     OW17597   0.888   2.516   4.727 -0.0287 -0.2258  0.3401
 2223SOL    HW117598   0.872   2.528   4.629  0.6540  2.0683  0.4674
 2223SOL    HW217599   0.949   2.438   4.741 -2.0179 -2.0540 -0.8669
 2224SOL     OW17600   8.352   1.208   3.000  0.3982 -0.3254 -0.2887
 2224SOL    HW117601   8.444   1.240   3.021 -0.1323  1.6191 -0.7858
 2224SOL    HW217602   8.286   1.280   3.021 -0.5797  0.0379 -4.1297
 2225SOL     OW17603   4.632   0.259   2.015  0.3398 -0.1496  0.0033
 2225SOL    HW117604   4.565   0.216   2.075  0.1117  0.7009  0.3687
 2225SOL    HW217605   4.614   0.357   2.009  2.2677  0.2920  1.0445
 2226SOL     OW17606   5.230   2.130   1.969  0.3982 -0.4738 -0.1598
 2226SOL    HW117607   5.227   2.170   2.060 -0.3139 -0.0450 -0.3672
 2226SOL    HW217608   5.238   2.203   1.901 -0.7526 -0.6890 -0.5317
 2227SOL     OW17609   3.320   0.981   3.528  0.9657  0.4089 -0.1782
 2227SOL    HW117610   3.300   0.892   3.488  2.3340 -0.1623  0.3680
 2227SOL    HW217611   3.375   0.969   3.611 -1.9659  1.5791  1.9944
 2228SOL     OW17612   8.164   0.389   2.771  0.1413  0.1463  0.4775
 2228SOL    HW117613   8.218   0.443   2.835  0.6205  1.8846 -1.3486
 2228SOL    HW217614   8.078   0.435   2.752  0.3229  0.0415 -0.6805
 2229SOL     OW17615   7.816   5.045   0.306 -0.0797  0.0457  0.0225
 2229SOL    HW117616   7.823   5.096   0.392  0.4292 -0.7281  0.4420
 2229SOL    HW217617   7.870   5.091   0.236  1.8027 -0.8664  0.8552
 2230SOL     OW17618   7.003   1.067   0.876  0.2234 -0.1408  0.0462
 2230SOL    HW117619   6.909   1.050   0.847  0.6186 -2.0547 -0.1814
 2230SOL    HW217620   7.054   1.110   0.802 -0.5955  1.3958  0.3521
 2231SOL     OW17621   5.298   0.666   1.718 -0.4359 -0.2108  0.2432
 2231SOL    HW117622   5.287   0.765   1.714 -1.1945 -0.2704  0.8986
 2231SOL    HW217623   5.290   0.635   1.813 -0.1412 -0.8960  0.0497
 2232SOL     OW17624   0.225   3.138   4.550  0.3577  0.1062  0.4212
 2232SOL    HW117625   0.190   3.220   4.595  1.3057  0.3986  0.6482
 2232SOL    HW217626   0.284   3.088   4.614 -0.6900 -1.0673  0.4802
 2233SOL     OW17627   4.164   1.246   3.572  0.0052  0.4565  0.1062
 2233SOL    HW117628   4.242   1.215   3.518  0.7240  2.5922 -0.1505
 2233SOL    HW217629   4.134   1.336   3.539 -3.0153 -0.6366 -0.2175
 2234SOL     OW17630   0.025   6.781   0.277  0.6207  0.0989  0.4180
 2234SOL    HW117631   0.085   6.861   0.285  1.3081 -0.3007 -0.5460
 2234SOL    HW217632   0.053   6.711   0.342  0.9624  0.0629  0.2322
 2235SOL     OW17633   9.504   0.500   2.537 -0.2838 -0.4692 -0.1479
 2235SOL    HW117634   9.440   0.512   2.462 -2.8741 -3.7720  1.4055
 2235SOL    HW217635   9.508   0.583   2.591 -0.2490  1.1021 -2.4924
 2236SOL     OW17636   7.797   1.548   4.884  0.1266 -0.4343 -0.0998
 2236SOL    HW117637   7.845   1.503   4.959 -2.3515 -2.3455  0.3939
 2236SOL    HW217638   7.836   1.519   4.796  1.3756 -0.1297  0.3418
 2237SOL     OW17639   1.767   6.135   4.015  0.2102 -0.4096  0.0685
 2237SOL    HW117640   1.715   6.061   3.974  1.9133 -0.6252 -1.7689
 2237SOL    HW217641   1.822   6.100   4.091 -0.3367 -0.6669  0.3495
 2238SOL     OW17642   9.209   8.828   2.196 -0.8725 -0.2013 -0.2751
 2238SOL    HW117643   9.225   8.912   2.144  0.3527  0.5761  1.2976
 2238SOL    HW217644   9.286   8.812   2.258 -0.7308 -2.9207 -1.0851
 2239SOL     OW17645   9.638   3.359   3.717  0.5477 -0.6758  0.3565
 2239SOL    HW117646   9.670   3.367   3.623 -2.0892 -0.5951 -0.5485
 2239SOL    HW217647   9.648   3.264   3.748 -0.6464 -1.1599 -0.7474
 2240SOL     OW17648   0.726   6.353   4.725  0.3084  0.2069 -0.1070
 2240SOL    HW117649   0.718   6.325   4.629  0.2801 -1.2604  0.3149
 2240SOL    HW217650   0.635   6.361   4.764  0.3108  1.0369 -0.2547
 2241SOL     OW17651   8.589   2.335   1.231 -0.0575  0.0801  0.1580
 2241SOL    HW117652   8.604   2.421   1.183 -1.8276  0.8662  0.9627
 2241SOL    HW217653   8.593   2.351   1.329  0.4872 -0.9279  0.2983
 2242SOL     OW17654   3.853   3.827   2.192  0.6734  0.2394  0.1046
 2242SOL    HW117655   3.864   3.756   2.262 -0.3766 -0.6731 -0.6367
 2242SOL    HW217656   3.890   3.794   2.105  2.8082  1.7174  0.4153
 2243SOL     OW17657   0.196   3.636   5.283 -0.3207  0.1132 -0.8689
 2243SOL    HW117658   0.198   3.735   5.268  0.6122  0.8739  3.7007
 2243SOL    HW217659   0.102   3.606   5.296 -0.2231  1.4126  3.3274
 2244SOL     OW17660   0.344   9.654   3.034  0.1183 -0.1265  0.0645
 2244SOL    HW117661   0.276   9.580   3.037  0.8433 -0.7349  2.5374
 2244SOL    HW217662   0.311   9.731   3.088  1.1480 -0.1954  0.7880
 2245SOL     OW17663   6.848   7.994   2.767  0.0835  0.0703  0.1868
 2245SOL    HW117664   6.756   8.015   2.734  0.5641  1.1256 -0.4786
 2245SOL    HW217665   6.864   8.042   2.853  0.0324 -0.1002  0.2933
 2246SOL     OW17666   0.014   1.633   5.371 -0.0093  0.2148 -0.4749
 2246SOL    HW117667   0.029   1.538   5.400 -0.2121 -0.1922 -1.6638
 2246SOL    HW217668  -0.070   1.638   5.318  0.8254  0.7687 -1.7536
 2247SOL     OW17669   9.829   3.957   4.777 -0.1691 -0.0106  0.2804
 2247SOL    HW117670   9.928   3.967   4.784 -0.1567 -0.1828  0.3738
 2247SOL    HW217671   9.799   3.884   4.839 -0.2712 -0.4169 -0.2442
 2248SOL     OW17672   6.234   0.489   2.064 -0.0383 -0.2321  1.2871
 2248SOL    HW117673   6.303   0.560   2.074  0.7783 -0.7618 -0.4877
 2248SOL    HW217674   6.273   0.401   2.091  1.1181 -1.1084 -2.9318
 2249SOL     OW17675   6.150   8.479   3.823 -0.0214 -0.2965 -0.6342
 2249SOL    HW117676   6.112   8.572   3.824 -0.2026 -0.3701  0.1350
 2249SOL    HW217677   6.117   8.430   3.904  0.1452 -1.0021 -0.9976
 2250SOL     OW17678   5.906   0.910   3.396 -0.3045  0.2454  0.0139
 2250SOL    HW117679   5.912   0.826   3.342  0.1845  0.2290  0.0911
 2250SOL    HW217680   5.994   0.929   3.438 -0.2334  1.1565 -0.5360
 2251SOL     OW17681   8.251   9.506   1.451  0.4469  0.0945  0.4433
 2251SOL    HW117682   8.252   9.606   1.460  1.8462  0.2245 -0.9952
 2251SOL    HW217683   8.158   9.475   1.430  0.6765  1.4813 -2.9747
 2252SOL     OW17684   4.200   3.590   0.769 -0.0655  0.1575  0.0860
 2252SOL    HW117685   4.189   3.608   0.671 -1.7575  1.7244  0.5281
 2252SOL    HW217686   4.267   3.518   0.782  2.2706  1.8300 -2.1086
 2253SOL     OW17687   8.134   4.357   1.621 -0.0453 -0.6520  0.1927
 2253SOL    HW117688   8.179   4.320   1.540  0.8591  0.0758  0.3519
 2253SOL    HW217689   8.051   4.405   1.594 -0.6474 -1.8633 -0.1215
 2254SOL     OW17690   8.216   2.079   3.621 -0.7103 -0.8723  0.4492
 2254SOL    HW117691   8.188   2.104   3.713 -3.3565  3.5330 -1.3467
 2254SOL    HW217692   8.136   2.048   3.569  0.1352 -0.3186 -1.2374
 2255SOL     OW17693   3.908   5.965   3.932 -0.0585 -0.2742 -0.4701
 2255SOL    HW117694   3.907   6.048   3.876  2.5214  0.1104 -0.0140
 2255SOL    HW217695   3.814   5.938   3.953 -0.9480  3.6776  1.0520
 2256SOL     OW17696   5.271   0.990   1.986  0.0965  0.7853  0.4294
 2256SOL    HW117697   5.267   0.932   1.904 -1.2635  1.1579  0.2205
 2256SOL    HW217698   5.343   0.957   2.046  0.0728 -0.4516 -0.1994
 2257SOL     OW17699   8.704   4.501   2.723  0.0584  0.5686 -0.3650
 2257SOL    HW117700   8.633   4.563   2.757  1.0651  1.4761  0.1222
 2257SOL    HW217701   8.782   4.555   2.689  0.5683 -0.4147 -0.7729
 2258SOL     OW17702   2.202   4.263   3.690  0.5777  0.1560  0.2890
 2258SOL    HW117703   2.267   4.320   3.638  0.0863  0.7896  0.3672
 2258SOL    HW217704   2.171   4.313   3.771  1.0311 -0.6793  0.9824
 2259SOL     OW17705   8.970   3.663   2.019  0.0499 -0.3600 -0.3087
 2259SOL    HW117706   9.026   3.741   2.046 -2.4103  1.0551  0.9161
 2259SOL    HW217707   9.006   3.580   2.060  1.0583  0.5656  0.7258
 2260SOL     OW17708   8.423   8.866   4.435 -0.0920 -0.2622 -0.7313
 2260SOL    HW117709   8.365   8.896   4.359  0.2947 -3.5408 -2.3778
 2260SOL    HW217710   8.371   8.869   4.520 -1.2703  1.1313 -1.4869
 2261SOL     OW17711   8.715   4.629   0.011  0.1870 -0.6489  0.2021
 2261SOL    HW117712   8.622   4.640   0.046  0.4882 -0.1778  0.8638
 2261SOL    HW217713   8.711   4.597  -0.084 -0.6984  1.6739 -0.5747
 2262SOL     OW17714   2.980   7.747   1.331 -0.1694  0.1841  0.1607
 2262SOL    HW117715   3.003   7.826   1.275 -1.5838  1.8645  1.9043
 2262SOL    HW217716   3.057   7.683   1.332  0.9981  1.5467 -1.2194
 2263SOL     OW17717   9.831   4.869   3.679  0.3818  0.0831  0.2866
 2263SOL    HW117718   9.834   4.783   3.731  0.9733 -0.9315 -1.4102
 2263SOL    HW217719   9.843   4.946   3.742  2.3419 -1.1824  1.5073
 2264SOL     OW17720   0.450   9.113   4.547  0.2594  0.6340  0.3005
 2264SOL    HW117721   0.384   9.057   4.597  1.0816 -0.4685  0.1630
 2264SOL    HW217722   0.421   9.122   4.452  0.3795  0.0497  0.2107
 2265SOL     OW17723   6.822   0.683   2.630 -0.6891  0.6881 -0.3753
 2265SOL    HW117724   6.795   0.779   2.623 -0.0774  1.0927  2.3622
 2265SOL    HW217725   6.919   0.678   2.655 -0.8760 -0.6450  0.0974
 2266SOL     OW17726   0.771   6.677   3.533 -0.4382 -0.3850 -0.1932
 2266SOL    HW117727   0.831   6.752   3.562 -0.6696 -0.4132  0.3611
 2266SOL    HW217728   0.827   6.601   3.499 -0.1841 -0.1671 -0.2682
 2267SOL     OW17729   3.068   7.960   2.825 -0.4062 -0.2049  0.3033
 2267SOL    HW117730   3.133   8.035   2.837  0.3469 -0.9518  0.9200
 2267SOL    HW217731   3.075   7.924   2.733 -0.0450 -0.1882  0.3234
 2268SOL     OW17732   0.192   9.109   5.380  0.0762  0.1087 -0.2191
 2268SOL    HW117733   0.242   9.025   5.359 -0.5764 -0.1442 -0.8029
 2268SOL    HW217734   0.215   9.139   5.473  1.8101  0.3817 -0.7211
 2269SOL     OW17735   1.653   1.417   4.976  0.0902 -0.3208  0.1778
 2269SOL    HW117736   1.746   1.431   5.008  0.0107  3.7157 -1.0372
 2269SOL    HW217737   1.589   1.442   5.049 -0.0265 -0.5366  0.1471
 2270SOL     OW17738   0.417   7.178   0.936  0.2714 -0.0949  0.2490
 2270SOL    HW117739   0.404   7.210   1.029 -0.7136  0.5241 -0.0929
 2270SOL    HW217740   0.328   7.164   0.892  0.7249  0.5404 -0.9013
 2271SOL     OW17741   9.055   4.555   0.970  0.2559 -0.2450 -0.2112
 2271SOL    HW117742   9.023   4.590   1.058  1.3915 -0.5689  0.3407
 2271SOL    HW217743   9.071   4.457   0.977  1.7633 -0.0249 -0.3410
 2272SOL     OW17744   9.980   2.651   4.355 -0.3920  0.1501 -0.1858
 2272SOL    HW117745   9.942   2.577   4.299  0.0877 -1.3786  1.4743
 2272SOL    HW217746  10.080   2.641   4.360 -0.2677  1.2145 -0.3705
 2273SOL     OW17747   4.550   9.578   3.603 -0.0080 -0.2474  0.1200
 2273SOL    HW117748   4.642   9.546   3.578  0.9590  1.5712  1.2004
 2273SOL    HW217749   4.526   9.544   3.693 -1.2446 -2.3383 -0.9610
 2274SOL     OW17750   8.096   7.100   3.351 -0.6189 -0.2446  0.6924
 2274SOL    HW117751   8.185   7.110   3.306 -0.2801  0.4439  1.5028
 2274SOL    HW217752   8.079   7.003   3.370 -0.5862 -0.5045 -0.5406
 2275SOL     OW17753   1.488   9.669   1.926  0.1211 -0.2947  0.3532
 2275SOL    HW117754   1.467   9.589   1.870  0.5449 -2.2460  2.8890
 2275SOL    HW217755   1.403   9.708   1.962  0.0126 -0.4024  0.2118
 2276SOL     OW17756   5.742   7.339   4.016 -0.1620  0.0281  0.5033
 2276SOL    HW117757   5.666   7.379   3.965  0.8229 -0.0204 -1.0395
 2276SOL    HW217758   5.822   7.333   3.957  0.3173 -2.3039  1.3475
 2277SOL     OW17759   0.223   3.876   1.938  0.0012 -0.0696  0.3182
 2277SOL    HW117760   0.251   3.879   1.842 -2.0801 -0.7751 -0.3363
 2277SOL    HW217761   0.240   3.785   1.975 -0.0983 -0.0855  0.3257
 2278SOL     OW17762   7.942   2.469   4.775  0.2302  0.1961  0.3133
 2278SOL    HW117763   8.017   2.535   4.786  1.5363 -1.3716  0.9353
 2278SOL    HW217764   7.870   2.490   4.842 -1.0002  3.1533 -1.8484
 2279SOL     OW17765   2.662   3.061   4.961  0.2703 -0.0045  0.0734
 2279SOL    HW117766   2.590   3.039   5.028  0.8413  0.4291  0.8438
 2279SOL    HW217767   2.726   2.985   4.956  0.8775  0.4377  0.9060
 2280SOL     OW17768   4.195   3.869   0.646 -0.3933 -0.2107  0.1438
 2280SOL    HW117769   4.261   3.919   0.702 -0.2987 -0.5078  0.2992
 2280SOL    HW217770   4.115   3.845   0.701 -0.8866  0.6428 -0.1908
 2281SOL     OW17771   8.695   6.027   0.675 -0.5024  0.1511  0.3140
 2281SOL    HW117772   8.736   5.968   0.744 -1.1447  0.2330  0.7705
 2281SOL    HW217773   8.723   6.122   0.691  1.4501 -0.1474 -1.0907
 2282SOL     OW17774   1.631   5.089   1.790 -0.2956 -0.1265 -0.1885
 2282SOL    HW117775   1.588   5.055   1.873 -2.1014  2.0666 -0.1791
 2282SOL    HW217776   1.565   5.085   1.715 -0.1473  2.1575 -0.4565
 2283SOL     OW17777   4.705   6.117   1.971 -0.2049  0.3353 -0.2887
 2283SOL    HW117778   4.720   6.076   2.061  0.5568  0.1886 -0.4714
 2283SOL    HW217779   4.632   6.068   1.924 -0.4255  0.2416  0.1479
 2284SOL     OW17780   0.575   4.065   2.298 -0.3285  0.6929  0.1596
 2284SOL    HW117781   0.514   4.072   2.218 -0.3456  3.3309  0.3805
 2284SOL    HW217782   0.541   3.993   2.358 -1.6987  0.2941 -1.0385
 2285SOL     OW17783   1.274   1.283   5.205 -0.2175 -0.2288 -0.0614
 2285SOL    HW117784   1.247   1.292   5.109  0.5044  0.7767 -0.1765
 2285SOL    HW217785   1.309   1.190   5.221 -1.2542 -0.7135 -0.5292
 2286SOL     OW17786   8.217   4.542   1.336 -0.2566 -0.2844  0.0080
 2286SOL    HW117787   8.276   4.474   1.380 -0.6383 -2.2332 -2.3805
 2286SOL    HW217788   8.196   4.615   1.401  1.1468 -1.8203  2.2652
 2287SOL     OW17789   0.702   3.562   4.217 -0.1320 -0.6467  0.2510
 2287SOL    HW117790   0.700   3.467   4.246  1.6617 -1.1438 -1.1352
 2287SOL    HW217791   0.792   3.601   4.237  0.0484 -0.0455 -1.5745
 2288SOL     OW17792   9.917   1.039   0.866  0.6567 -0.0517  0.2194
 2288SOL    HW117793   9.917   1.032   0.966 -0.3530 -0.5745  0.1913
 2288SOL    HW217794   9.827   1.015   0.831  1.4693 -1.5361 -0.9335
 2289SOL     OW17795   9.072   2.528   2.572 -0.3286  0.3403  0.1060
 2289SOL    HW117796   9.096   2.431   2.570 -0.8074  0.2316 -0.3532
 2289SOL    HW217797   8.973   2.538   2.570 -0.3486  0.7859  2.1547
 2290SOL     OW17798   3.208   9.692   1.519  0.3536 -0.0716 -0.6520
 2290SOL    HW117799   3.166   9.745   1.445 -0.2051  0.4455  0.0212
 2290SOL    HW217800   3.195   9.594   1.502 -2.4829  0.1013  0.2897
 2291SOL     OW17801   0.943   2.137   2.182 -0.6850  0.2372 -0.1024
 2291SOL    HW117802   1.028   2.183   2.209  1.2885 -3.7272  0.9440
 2291SOL    HW217803   0.912   2.078   2.257 -1.3619 -2.4370 -2.4204
 2292SOL     OW17804   3.859   6.611   2.052  0.0926  0.1665 -0.2652
 2292SOL    HW117805   3.837   6.699   2.011  0.8252  1.3610  1.8366
 2292SOL    HW217806   3.870   6.622   2.151 -1.6639 -2.6397  0.3014
 2293SOL     OW17807   2.886   1.981   3.055  0.3674  0.0470 -0.0581
 2293SOL    HW117808   2.975   1.936   3.060  1.0544  1.5156  1.4313
 2293SOL    HW217809   2.837   1.967   3.141  0.3687  1.6644  0.2190
 2294SOL     OW17810   3.371   8.930   4.458  0.3291 -0.4878 -0.3730
 2294SOL    HW117811   3.429   9.008   4.438  1.8766 -1.7363 -0.8156
 2294SOL    HW217812   3.292   8.930   4.396 -0.5471  1.5721  0.6720
 2295SOL     OW17813   0.420   8.823   1.681  0.2886  0.1344  0.2109
 2295SOL    HW117814   0.459   8.885   1.613 -2.0402 -0.8639 -2.1580
 2295SOL    HW217815   0.493   8.769   1.723  1.7245 -0.1446 -2.4846
 2296SOL     OW17816   8.279   3.893   1.715 -0.1770 -0.1904 -0.2628
 2296SOL    HW117817   8.247   3.983   1.744 -2.2871 -1.3793  1.2657
 2296SOL    HW217818   8.275   3.830   1.792 -0.2331 -2.0019 -1.7065
 2297SOL     OW17819   2.750   0.557   0.260 -0.2651 -0.5123  0.2137
 2297SOL    HW117820   2.720   0.650   0.284  0.3269 -0.3525  0.3453
 2297SOL    HW217821   2.849   0.550   0.272 -0.3053 -1.1561  0.1776
 2298SOL     OW17822   4.182   0.980   0.492  0.0769  0.6636 -0.4488
 2298SOL    HW117823   4.233   0.897   0.514  0.6546  1.4149  1.1630
 2298SOL    HW217824   4.233   1.034   0.425  0.9487  0.9382  0.4217
 2299SOL     OW17825   5.545   0.447   2.779  0.2128 -0.0858  0.1169
 2299SOL    HW117826   5.578   0.423   2.870 -0.6098 -1.0236  0.1809
 2299SOL    HW217827   5.454   0.487   2.786  0.9052  1.5648 -0.1424
 2300SOL     OW17828   4.462   0.728   5.018  0.2120  0.3824  0.0261
 2300SOL    HW117829   4.432   0.728   5.114 -0.6043  0.7720 -0.2216
 2300SOL    HW217830   4.558   0.701   5.013  0.3787  0.7818  0.9881
 2301SOL     OW17831   4.112   0.344   1.713  0.4081 -0.6531  0.6437
 2301SOL    HW117832   4.205   0.361   1.679  0.8353 -0.1341  2.0226
 2301SOL    HW217833   4.049   0.407   1.670  0.4567 -1.8876 -1.3116
 2302SOL     OW17834   4.264   9.680   2.545  0.1009 -0.0608 -0.1490
 2302SOL    HW117835   4.182   9.627   2.525  0.6194 -0.6131 -0.8483
 2302SOL    HW217836   4.342   9.618   2.552  0.6580  0.5859 -0.6314
 2303SOL     OW17837   1.069   7.891   5.255  0.3123  0.0967 -0.0123
 2303SOL    HW117838   1.136   7.958   5.221  0.8695  0.7119  2.1608
 2303SOL    HW217839   0.977   7.917   5.224  0.9464 -0.2128 -2.2188
 2304SOL     OW17840   2.282   3.439   5.023  0.1944  0.0940  0.2823
 2304SOL    HW117841   2.245   3.499   4.952  0.4072  0.8230  0.7793
 2304SOL    HW217842   2.259   3.477   5.113  2.4550  0.7534  0.6124
 2305SOL     OW17843   0.304   6.538   3.494  0.1058  0.0645 -0.3970
 2305SOL    HW117844   0.350   6.455   3.525  0.3509 -0.6764 -2.6009
 2305SOL    HW217845   0.364   6.616   3.506  0.2234 -0.2201  0.8695
 2306SOL     OW17846   8.734   1.989   4.785  0.0210 -0.2681  0.1741
 2306SOL    HW117847   8.763   1.893   4.784  0.0898 -0.2777  1.4017
 2306SOL    HW217848   8.754   2.028   4.875  0.4182  1.0349 -0.4692
 2307SOL     OW17849   3.260   1.928   0.455  0.4864 -0.5362  0.3763
 2307SOL    HW117850   3.241   1.859   0.524  0.1999 -0.2966  0.5368
 2307SOL    HW217851   3.183   1.936   0.392 -0.1410  0.7403  1.2840
 2308SOL     OW17852   2.583   8.410   4.091  0.1593 -0.6032 -0.1509
 2308SOL    HW117853   2.582   8.321   4.138 -2.9062 -1.0076 -0.8833
 2308SOL    HW217854   2.532   8.477   4.145  0.0433 -0.0372 -0.9572
 2309SOL     OW17855   2.051   4.827   4.717  0.2559 -0.1123 -0.3812
 2309SOL    HW117856   2.094   4.812   4.806 -0.3435 -1.0466 -0.2379
 2309SOL    HW217857   2.054   4.925   4.695  0.0758  0.1828  0.8370
 2310SOL     OW17858   3.162   5.643   5.479  0.2748  0.2688 -0.4223
 2310SOL    HW117859   3.159   5.636   5.579 -0.1370  0.5338 -0.4099
 2310SOL    HW217860   3.133   5.557   5.438  0.7516  0.0594 -0.3125
 2311SOL     OW17861   0.250   3.779   4.653 -0.6056 -0.0770 -0.6672
 2311SOL    HW117862   0.188   3.839   4.702 -0.2175 -1.6932  1.8934
 2311SOL    HW217863   0.337   3.825   4.638 -0.3524  0.0868  1.1781
 2312SOL     OW17864   1.161   6.508   3.283 -0.0105 -0.4260 -0.4486
 2312SOL    HW117865   1.176   6.606   3.272 -0.7193 -0.2126  0.4116
 2312SOL    HW217866   1.083   6.480   3.227 -0.7173 -0.2122  0.4069
 2313SOL     OW17867   2.180   5.927   4.536 -0.0437 -0.0056 -0.2050
 2313SOL    HW117868   2.113   5.989   4.496  0.7314  1.1633  0.2951
 2313SOL    HW217869   2.214   5.966   4.622  0.0900 -1.3481  0.3605
 2314SOL     OW17870   2.331   0.807   1.259 -0.2903  0.0598 -0.0101
 2314SOL    HW117871   2.353   0.870   1.334 -0.2817  0.0235  0.0184
 2314SOL    HW217872   2.349   0.852   1.172  0.8381 -0.3045  0.0267
 2315SOL     OW17873   9.989   6.734   1.093 -0.2346  0.5742 -0.4502
 2315SOL    HW117874  10.000   6.650   1.041  0.9933  0.2551  0.3135
 2315SOL    HW217875   9.900   6.734   1.138  0.5983 -1.2794  1.2402
 2316SOL     OW17876   8.491   8.970   5.596  0.8746  0.5235  0.0109
 2316SOL    HW117877   8.437   8.886   5.590  0.0932  0.9683  0.7302
 2316SOL    HW217878   8.509   8.991   5.692  0.4756  1.5565 -0.1406
 2317SOL     OW17879   8.750   9.995   2.931  0.5429  0.3921 -0.4244
 2317SOL    HW117880   8.695  10.026   3.008 -0.0349  0.9259 -1.0450
 2317SOL    HW217881   8.759  10.069   2.865 -0.2907 -0.5548 -1.6153
 2318SOL     OW17882   1.186   3.257   1.623 -0.1917 -0.6374 -0.2108
 2318SOL    HW117883   1.193   3.243   1.524  0.0067  0.2716 -0.3357
 2318SOL    HW217884   1.200   3.171   1.671  1.0459 -0.8480 -0.9272
 2319SOL     OW17885   9.646   5.648   3.589 -0.4018  0.2734 -0.8779
 2319SOL    HW117886   9.582   5.624   3.515 -0.1375  1.2401 -1.4190
 2319SOL    HW217887   9.694   5.732   3.566 -1.3697  1.3843  1.0550
 2320SOL     OW17888   1.769   9.431   4.544  0.0698 -0.1420 -0.3954
 2320SOL    HW117889   1.758   9.332   4.559  0.7927 -0.2503 -0.5391
 2320SOL    HW217890   1.847   9.464   4.598  0.0467  0.2823 -0.6236
 2321SOL     OW17891   8.685   2.574   1.105 -0.3740 -0.3446  0.3198
 2321SOL    HW117892   8.729   2.608   1.022  1.3065  0.0157  1.3302
 2321SOL    HW217893   8.622   2.642   1.140  0.0683  0.1437  0.1801
 2322SOL     OW17894   6.268   9.965   2.493  0.2638 -0.3890  0.2004
 2322SOL    HW117895   6.345   9.925   2.543  0.4571  0.1802  0.3662
 2322SOL    HW217896   6.234   9.899   2.426  2.4354  0.1809 -1.5304
 2323SOL     OW17897   0.757   3.762   0.756 -0.4817 -0.6484  0.0611
 2323SOL    HW117898   0.805   3.843   0.723 -1.2208  0.0134  0.5899
 2323SOL    HW217899   0.779   3.684   0.698  1.9949 -0.5922  0.8518
 2324SOL     OW17900   2.148   2.457   0.948 -0.0872  0.2876  0.1175
 2324SOL    HW117901   2.094   2.420   1.023 -0.2995 -0.6043 -0.4670
 2324SOL    HW217902   2.099   2.445   0.862  1.5545 -1.7056 -0.6012
 2325SOL     OW17903   6.814   9.727   3.194  0.4171  0.2680  0.5158
 2325SOL    HW117904   6.719   9.698   3.207  0.8506 -1.4525 -0.0700
 2325SOL    HW217905   6.870   9.694   3.270  0.9457 -0.5844 -0.2353
 2326SOL     OW17906   3.477   8.165   4.589  0.0243  0.1351  0.0188
 2326SOL    HW117907   3.550   8.182   4.523  0.1910 -1.0450 -0.1108
 2326SOL    HW217908   3.512   8.179   4.681  0.0277  0.9273 -0.0948
 2327SOL     OW17909   0.130   7.539   0.112  0.0841 -0.6628  0.4740
 2327SOL    HW117910   0.080   7.548   0.025 -1.6767  0.2848  1.5544
 2327SOL    HW217911   0.221   7.580   0.102  0.0160 -0.8453 -1.0116
 2328SOL     OW17912   4.073   8.222   1.780 -1.0625  0.3313  0.5757
 2328SOL    HW117913   4.043   8.313   1.810  0.0832  0.9804 -0.2334
 2328SOL    HW217914   4.172   8.215   1.788 -1.1477 -0.8710  0.6696
 2329SOL     OW17915   1.885   1.530   4.062  0.7251  0.2327 -0.1854
 2329SOL    HW117916   1.920   1.624   4.054  0.7912  0.2231 -0.0261
 2329SOL    HW217917   1.892   1.484   3.974  0.5673  0.4220 -0.2982
 2330SOL     OW17918   0.082   7.371   3.422  0.0263  0.0862 -0.5145
 2330SOL    HW117919   0.025   7.290   3.407 -1.2468  0.6507  1.2291
 2330SOL    HW217920   0.111   7.374   3.517  2.3198  0.2568 -1.1867
 2331SOL     OW17921   0.247   9.585   1.107 -0.7102  0.4382 -0.0955
 2331SOL    HW117922   0.324   9.539   1.152 -0.2227  0.2909 -1.0744
 2331SOL    HW217923   0.260   9.684   1.113 -1.2164  0.4498  1.0610
 2332SOL     OW17924   5.910   1.392   3.312 -0.3334  0.1238 -0.1134
 2332SOL    HW117925   5.947   1.455   3.380  0.5346  0.0900 -0.5597
 2332SOL    HW217926   5.857   1.321   3.360  0.8427 -0.2940  0.5915
 2333SOL     OW17927   3.129   7.261   4.609  0.2795  0.5264  0.8469
 2333SOL    HW117928   3.178   7.319   4.673  0.5970  0.4202  0.7014
 2333SOL    HW217929   3.126   7.167   4.644  1.0181  0.3303  0.4055
 2334SOL     OW17930   9.785   1.217   0.127 -0.7170 -0.0543 -0.2981
 2334SOL    HW117931   9.689   1.231   0.153 -0.3265  1.0477  0.5897
 2334SOL    HW217932   9.812   1.288   0.062  0.8843  2.6823  3.1798
 2335SOL     OW17933   9.351   4.969   1.235  0.0760  0.5824  0.1264
 2335SOL    HW117934   9.325   4.936   1.326 -0.6864  0.5341 -0.1007
 2335SOL    HW217935   9.399   4.896   1.186 -0.0871  0.3899  0.2507
 2336SOL     OW17936   1.012   7.110   4.703  0.2025  0.2317 -0.7899
 2336SOL    HW117937   1.023   7.102   4.604  1.7355 -1.6777 -0.5084
 2336SOL    HW217938   0.951   7.038   4.735  0.0666  0.5634 -0.3093
 2337SOL     OW17939   9.682   0.072   4.703  0.1414  1.2129  0.6623
 2337SOL    HW117940   9.642   0.075   4.795  0.0285 -2.3827  0.8126
 2337SOL    HW217941   9.780   0.054   4.711 -0.3718 -2.1107  0.0744
 2338SOL     OW17942   8.718   7.615   3.573  0.2329 -0.0106 -0.2412
 2338SOL    HW117943   8.758   7.588   3.660  0.3638 -1.9952 -0.8896
 2338SOL    HW217944   8.783   7.672   3.522  0.1355  1.1914  0.9600
 2339SOL     OW17945   9.944   9.687   2.136 -0.1704 -0.0771  0.6267
 2339SOL    HW117946   9.865   9.719   2.190  1.1377 -0.2532  2.7149
 2339SOL    HW217947   9.989   9.765   2.093 -1.2456  0.0703 -0.2396
 2340SOL     OW17948   5.879   3.691   0.019  0.6483 -0.2860  0.0595
 2340SOL    HW117949   5.917   3.624   0.082  1.0707 -0.8039 -0.7442
 2340SOL    HW217950   5.902   3.783   0.051  0.7254 -0.5393  0.7453
 2341SOL     OW17951   0.405   4.526   1.869  0.0686  0.4311  0.1349
 2341SOL    HW117952   0.349   4.444   1.858  0.0442  0.2586  1.4791
 2341SOL    HW217953   0.438   4.532   1.963 -2.7935  3.8013  1.0246
 2342SOL     OW17954   8.324   3.220   5.321  0.0129 -0.1327 -0.0439
 2342SOL    HW117955   8.410   3.237   5.273  0.0279 -1.3815 -0.4938
 2342SOL    HW217956   8.285   3.306   5.352  1.6606  0.4102  0.5794
 2343SOL     OW17957   1.442   7.473   3.565 -0.4487  0.0561  0.3381
 2343SOL    HW117958   1.365   7.463   3.628 -0.0334  1.0010  1.0014
 2343SOL    HW217959   1.491   7.557   3.585  0.0571  0.0568 -0.8573
 2344SOL     OW17960   0.874   4.753   3.152 -0.2619 -0.5733 -0.3458
 2344SOL    HW117961   0.950   4.778   3.092 -0.9756  0.6151 -0.7813
 2344SOL    HW217962   0.876   4.810   3.234  0.8291 -2.3294  0.8849
 2345SOL     OW17963   0.492   1.604   4.312  0.0786  0.1316  0.0868
 2345SOL    HW117964   0.536   1.609   4.402  2.3122  0.2033 -0.9574
 2345SOL    HW217965   0.546   1.657   4.246 -1.2001 -0.4135 -1.4226
 2346SOL     OW17966   2.369   1.830   1.723  0.4839 -1.0273  0.4518
 2346SOL    HW117967   2.390   1.732   1.716 -0.8564 -1.2182 -1.0925
 2346SOL    HW217968   2.359   1.869   1.632  5.5273  1.6280  0.8133
 2347SOL     OW17969   0.697   5.337   3.176 -0.2167 -0.3970 -0.2870
 2347SOL    HW117970   0.778   5.383   3.141 -0.1136  0.1301  0.6272
 2347SOL    HW217971   0.619   5.357   3.117  0.0251  0.2050 -0.4031
 2348SOL     OW17972   3.086   5.354   0.848 -0.4120  0.2873 -0.3020
 2348SOL    HW117973   3.092   5.438   0.794 -0.5854 -0.6118 -1.7366
 2348SOL    HW217974   2.990   5.329   0.860 -0.4213  0.9563  1.2042
 2349SOL     OW17975   8.999   6.852   2.788 -0.5493 -0.5756 -0.5462
 2349SOL    HW117976   8.953   6.941   2.795  0.8091  0.0201  1.3212
 2349SOL    HW217977   9.053   6.850   2.704  1.2981  1.3202  0.5474
 2350SOL     OW17978   0.219   3.318   0.687 -0.4499 -0.5595 -0.0871
 2350SOL    HW117979   0.133   3.320   0.635  0.0330  2.7114 -0.9048
 2350SOL    HW217980   0.292   3.283   0.629 -0.5212  0.1853 -0.6369
 2351SOL     OW17981   8.105   6.282   2.155  0.1165 -0.5166  0.1182
 2351SOL    HW117982   8.080   6.337   2.235 -2.6792  0.4494 -1.3720
 2351SOL    HW217983   8.073   6.188   2.168 -0.9377 -0.1992 -0.1347
 2352SOL     OW17984   9.352   8.066   1.354  0.0994  0.1530 -0.3702
 2352SOL    HW117985   9.378   8.151   1.399  0.6715 -0.0972 -0.2291
 2352SOL    HW217986   9.423   8.039   1.289  0.7185 -1.1053  0.8163
 2353SOL     OW17987   2.718   7.197   0.183 -0.1940  0.4155  0.0509
 2353SOL    HW117988   2.628   7.234   0.160 -0.7247 -1.0446 -0.2265
 2353SOL    HW217989   2.769   7.178   0.099 -0.4317 -0.7299  0.1609
 2354SOL     OW17990   8.105   3.416   4.060 -0.4682 -0.0407 -0.0505
 2354SOL    HW117991   8.143   3.328   4.088 -0.1438  0.3523  0.7869
 2354SOL    HW217992   8.037   3.445   4.127 -0.2278  0.5667 -0.0673
 2355SOL     OW17993   0.375   2.453   2.906  0.2106 -0.3500 -0.2768
 2355SOL    HW117994   0.401   2.409   2.992 -0.5582  1.0884  0.7203
 2355SOL    HW217995   0.408   2.547   2.906  0.6340 -0.4880 -1.7826
 2356SOL     OW17996   4.501   9.132   1.754 -0.2902 -0.1748  0.2537
 2356SOL    HW117997   4.489   9.106   1.850  1.2387 -0.7610  0.2883
 2356SOL    HW217998   4.552   9.061   1.706  0.3333  0.8552 -0.6317
 2357SOL     OW17999   2.260   6.001   4.789 -0.0184 -0.0649 -0.1252
 2357SOL    HW118000   2.308   6.068   4.846 -0.8454 -0.7919  1.4598
 2357SOL    HW218001   2.170   5.983   4.827 -0.3092 -1.1277 -1.2720
 2358SOL     OW18002   4.666   1.610   1.662 -0.3112  0.1265  0.0393
 2358SOL    HW118003   4.697   1.595   1.568  0.8422  2.6428 -0.0246
 2358SOL    HW218004   4.583   1.666   1.662 -0.8723 -0.6884  0.5001
 2359SOL     OW18005   4.540   1.729   1.386 -0.2847 -0.5310  0.0684
 2359SOL    HW118006   4.493   1.744   1.473 -0.0137 -1.0773  0.3088
 2359SOL    HW218007   4.495   1.655   1.336 -0.2550 -0.4211 -0.1244
 2360SOL     OW18008   9.834   7.030   4.624 -0.2550  0.4882  0.0621
 2360SOL    HW118009   9.875   7.076   4.703 -0.6938  0.0091  0.5709
 2360SOL    HW218010   9.793   6.943   4.652  0.9445 -0.4328 -0.9757
 2361SOL     OW18011   3.127   1.478   4.375  0.1548 -0.1749 -0.0944
 2361SOL    HW118012   3.161   1.441   4.461 -2.4641  0.9961  1.5158
 2361SOL    HW218013   3.068   1.411   4.330  0.9840 -0.5314 -0.6688
 2362SOL     OW18014   8.562   6.804   0.491 -0.4284 -0.2732 -0.1320
 2362SOL    HW118015   8.617   6.880   0.456 -2.8661  0.7272 -1.9886
 2362SOL    HW218016   8.519   6.831   0.577  1.3531 -0.7761  0.9206
 2363SOL     OW18017   2.238   6.582   0.389  0.0674 -0.1826 -0.1237
 2363SOL    HW118018   2.267   6.492   0.423  0.3730  0.2229  0.7138
 2363SOL    HW218019   2.189   6.571   0.303  1.4870 -1.0013 -0.8376
 2364SOL     OW18020   7.505   9.758   1.704 -0.0546 -0.2306  0.1924
 2364SOL    HW118021   7.485   9.661   1.720 -1.3982 -0.1283 -0.7635
 2364SOL    HW218022   7.471   9.812   1.781 -0.3797 -0.4131  0.1804
 2365SOL     OW18023   3.239   3.323   0.313 -0.3028  0.3189  0.0712
 2365SOL    HW118024   3.178   3.247   0.337  0.3675 -0.0037  0.7663
 2365SOL    HW218025   3.289   3.301   0.230  0.4816 -0.3398  0.7152
 2366SOL     OW18026   4.722   8.339   4.778 -0.5740  0.3921  0.2280
 2366SOL    HW118027   4.801   8.369   4.831 -2.6070 -0.1365  3.7308
 2366SOL    HW218028   4.728   8.241   4.762 -0.6637  0.2915  0.7909
 2367SOL     OW18029   2.664   3.623   4.047 -0.2461  0.4711  0.1541
 2367SOL    HW118030   2.595   3.625   3.975  0.1803  1.7007 -0.2352
 2367SOL    HW218031   2.748   3.664   4.013  0.7210 -1.1236  0.5960
 2368SOL     OW18032   3.114   8.621   4.192 -0.6283  0.1900  0.6290
 2368SOL    HW118033   3.026   8.590   4.158 -0.1149 -0.0917 -0.4723
 2368SOL    HW218034   3.152   8.553   4.254 -0.8203 -0.0620  0.4707
 2369SOL     OW18035   5.184   2.283   2.888  0.2166 -0.3765 -0.1535
 2369SOL    HW118036   5.197   2.229   2.806 -0.1438 -2.8833  1.3850
 2369SOL    HW218037   5.270   2.326   2.914 -0.0960  1.9822 -2.8476
 2370SOL     OW18038   4.960   3.465   1.869 -0.0291 -0.3658 -0.0772
 2370SOL    HW118039   5.037   3.409   1.840  0.4620  0.0586  0.3985
 2370SOL    HW218040   4.918   3.509   1.790  0.4097 -0.3458 -0.2962
 2371SOL     OW18041   7.221   0.590   3.643 -0.3342 -0.0313 -0.0839
 2371SOL    HW118042   7.234   0.555   3.550 -0.1188  0.8345 -0.3904
 2371SOL    HW218043   7.177   0.680   3.639 -1.3426 -0.4791  0.7064
 2372SOL     OW18044   8.045   7.123   1.004 -0.2861  0.0982 -0.3633
 2372SOL    HW118045   7.992   7.048   0.965  0.1842 -0.4697  0.0876
 2372SOL    HW218046   8.083   7.096   1.092  1.2122  0.3022 -0.9254
 2373SOL     OW18047   3.229   4.790   0.743 -0.6003  0.0263 -0.1298
 2373SOL    HW118048   3.215   4.889   0.741  2.3099  0.4545 -1.7154
 2373SOL    HW218049   3.208   4.751   0.653  2.1548 -0.1859 -0.7065
 2374SOL     OW18050   9.207   1.742   1.294 -0.1321  0.7409 -0.7856
 2374SOL    HW118051   9.142   1.695   1.235  0.1326  1.6257 -1.8067
 2374SOL    HW218052   9.203   1.704   1.386 -0.5254 -0.6912 -1.3851
 2375SOL     OW18053   4.903   3.871   2.219 -0.6108 -0.2370 -0.4299
 2375SOL    HW118054   4.979   3.806   2.218 -0.5745 -0.2638  1.9915
 2375SOL    HW218055   4.841   3.850   2.143  0.7959 -1.3964 -1.2908
 2376SOL     OW18056   2.410   0.203   4.940 -0.4736  0.3156 -1.0413
 2376SOL    HW118057   2.367   0.267   5.004  0.3345  1.1171 -1.2811
 2376SOL    HW218058   2.501   0.238   4.915 -0.5202 -0.3204 -2.1124
 2377SOL     OW18059   4.774   9.843   0.998  0.0903 -0.1743  0.8570
 2377SOL    HW118060   4.862   9.878   0.966 -0.8054  0.1875 -1.2688
 2377SOL    HW218061   4.706   9.916   0.998 -1.1866 -1.3180 -1.2835
 2378SOL     OW18062   7.564   2.593   0.459 -0.4340  0.0739  0.6365
 2378SOL    HW118063   7.617   2.508   0.460  0.1120  0.3672 -1.4743
 2378SOL    HW218064   7.622   2.670   0.486  0.6332  0.5893 -2.9175
 2379SOL     OW18065   1.568   1.704   0.363 -0.4359 -0.2916 -0.5896
 2379SOL    HW118066   1.629   1.764   0.415 -0.0493 -1.3305  0.1538
 2379SOL    HW218067   1.544   1.624   0.417 -1.5229 -0.4721 -1.3203
 2380SOL     OW18068   5.905   0.085   4.242  0.0876 -0.0924  0.0965
 2380SOL    HW118069   6.001   0.105   4.219  0.1157 -0.0923  0.2171
 2380SOL    HW218070   5.847   0.112   4.165  0.1214  0.5081  0.2835
 2381SOL     OW18071   1.830   6.077   2.093  0.4504 -0.3877 -0.3761
 2381SOL    HW118072   1.896   6.040   2.158  1.3668  1.5604 -0.1729
 2381SOL    HW218073   1.877   6.134   2.026 -1.0832  1.6067  0.1968
 2382SOL     OW18074   3.338   0.478   0.035 -0.2736 -0.0204  0.3381
 2382SOL    HW118075   3.409   0.408   0.041  0.4433  0.5686 -0.9754
 2382SOL    HW218076   3.322   0.518   0.125  1.3084  0.0807  0.5794
 2383SOL     OW18077   3.327   7.035   3.541  0.1618 -0.4021  0.0273
 2383SOL    HW118078   3.278   7.058   3.458  1.5535 -0.0335 -0.7112
 2383SOL    HW218079   3.262   7.007   3.612 -1.1186  0.4871 -0.7830
 2384SOL     OW18080   0.250   3.490   5.064 -0.0367  0.0853 -0.4059
 2384SOL    HW118081   0.188   3.411   5.057  1.8365 -1.4017 -0.8849
 2384SOL    HW218082   0.222   3.548   5.139 -2.1081 -0.4689 -0.7166
 2385SOL     OW18083   7.113   1.482   3.862 -0.1430 -0.5382  0.0598
 2385SOL    HW118084   7.212   1.478   3.877 -0.0361 -1.2041 -0.7743
 2385SOL    HW218085   7.094   1.475   3.764 -1.1016 -2.3952  0.3424
 2386SOL     OW18086   8.186   1.064   2.864 -0.5352 -0.1599 -0.2395
 2386SOL    HW118087   8.265   1.099   2.915 -0.2074  1.6697 -1.9383
 2386SOL    HW218088   8.202   0.968   2.840  0.6430 -0.1563  0.4860
 2387SOL     OW18089   2.230   7.377   5.450 -0.4616  0.6368 -0.2906
 2387SOL    HW118090   2.268   7.303   5.505 -1.4580 -0.1742 -0.6737
 2387SOL    HW218091   2.282   7.461   5.466  1.6104 -0.4771 -0.9662
 2388SOL     OW18092   4.365   4.955   5.447  0.0209  0.7232  0.6880
 2388SOL    HW118093   4.343   4.863   5.479  1.9330  0.3146  0.8855
 2388SOL    HW218094   4.446   4.989   5.495 -1.4200  3.0498  1.5644
 2389SOL     OW18095   9.516   4.186   0.832  0.3855 -0.2967  0.1579
 2389SOL    HW118096   9.518   4.263   0.897 -2.3079  0.6959 -0.8570
 2389SOL    HW218097   9.546   4.217   0.742 -1.3704 -0.2337 -0.4217
 2390SOL     OW18098   3.561   7.417   1.280  0.4071  0.2190 -0.2268
 2390SOL    HW118099   3.475   7.395   1.234  0.6900 -1.1063 -0.1498
 2390SOL    HW218100   3.577   7.516   1.275 -0.6013  0.3530 -1.1401
 2391SOL     OW18101   3.770   1.083   5.351  0.4669 -0.3838  0.7095
 2391SOL    HW118102   3.798   1.140   5.428 -0.6429  1.4285 -0.1841
 2391SOL    HW218103   3.671   1.088   5.340  0.2448 -3.2586  1.1683
 2392SOL     OW18104   6.023   9.509   3.404  0.0174  0.5652 -0.6879
 2392SOL    HW118105   5.977   9.421   3.404  1.5301 -0.2416 -1.1693
 2392SOL    HW218106   6.107   9.503   3.349  1.1801  1.7485  0.9259
 2393SOL     OW18107   3.757   6.716   2.354  0.2852 -0.1268  0.2188
 2393SOL    HW118108   3.741   6.779   2.278  0.1753  3.6903  3.1992
 2393SOL    HW218109   3.850   6.727   2.387 -0.1106 -0.6331  1.5252
 2394SOL     OW18110   4.241   4.394   2.326 -0.5056 -0.1891  0.1630
 2394SOL    HW118111   4.181   4.410   2.405 -1.6072  0.3304 -0.7594
 2394SOL    HW218112   4.216   4.456   2.252  0.5152 -0.6777 -0.6010
 2395SOL     OW18113   9.819   0.424   2.977  0.2186 -0.4255 -0.0483
 2395SOL    HW118114   9.880   0.489   2.933  0.6042  0.1719  1.3469
 2395SOL    HW218115   9.760   0.472   3.042 -0.5230 -1.2572 -0.0896
 2396SOL     OW18116   3.327   9.741   0.722 -0.0810 -0.0756  0.6403
 2396SOL    HW118117   3.378   9.714   0.640  0.3962  0.2023  0.8426
 2396SOL    HW218118   3.355   9.833   0.749  0.4063 -0.5021  1.6212
 2397SOL     OW18119   8.595   4.250   0.041  0.1941 -0.4798  0.2108
 2397SOL    HW118120   8.659   4.246   0.118 -0.5848 -0.2183  0.8724
 2397SOL    HW218121   8.558   4.342   0.033  0.5692 -0.4013 -0.7295
 2398SOL     OW18122   4.328   0.556   1.976 -0.4165 -0.2437  0.5293
 2398SOL    HW118123   4.305   0.592   2.066  0.6699  1.2300  0.2219
 2398SOL    HW218124   4.316   0.456   1.976 -1.0581 -0.1759  2.0957
 2399SOL     OW18125   1.239   8.927   3.924  0.1465  0.0329 -0.0224
 2399SOL    HW118126   1.237   8.846   3.867  1.8579 -0.7083  0.9487
 2399SOL    HW218127   1.288   8.907   4.009 -0.3371  1.7718  0.6874
 2400SOL     OW18128   1.428   5.578   4.625 -0.1309 -0.0705 -0.0413
 2400SOL    HW118129   1.443   5.488   4.584 -0.5465  0.0318 -0.4327
 2400SOL    HW218130   1.458   5.649   4.561 -1.0916  0.0991 -0.3193
 2401SOL     OW18131   7.569   5.554   5.142 -0.2446  0.5044  0.3715
 2401SOL    HW118132   7.533   5.574   5.233 -0.5811 -0.4628  0.4600
 2401SOL    HW218133   7.493   5.549   5.076 -0.3258 -1.7452  0.5961
 2402SOL     OW18134   9.507   8.458   2.672 -0.6244 -0.2710  0.0127
 2402SOL    HW118135   9.570   8.427   2.743 -2.3758 -1.5400  1.0526
 2402SOL    HW218136   9.418   8.480   2.713 -1.4784 -0.4600 -1.6939
 2403SOL     OW18137   5.937   0.936   5.000 -0.2767  0.6901 -0.6726
 2403SOL    HW118138   5.962   0.961   5.093  0.5015 -1.0957 -0.3850
 2403SOL    HW218139   5.919   0.837   4.995 -0.6042  0.8110 -2.3502
 2404SOL     OW18140   9.512   8.468   0.884  0.1555  0.4548 -0.0595
 2404SOL    HW118141   9.540   8.373   0.874  0.3019  0.3720  1.1020
 2404SOL    HW218142   9.547   8.521   0.807 -1.6321 -0.8146 -1.8056
 2405SOL     OW18143   2.562   6.888   0.296  0.4643 -0.6051  0.0436
 2405SOL    HW118144   2.487   6.950   0.272  2.2891  1.6621 -0.0102
 2405SOL    HW218145   2.583   6.898   0.394  0.9080 -0.9967 -0.0119
 2406SOL     OW18146   2.373   8.689   5.632  0.5975 -0.3566  0.2515
 2406SOL    HW118147   2.394   8.761   5.565 -0.3388 -1.6863 -1.4928
 2406SOL    HW218148   2.345   8.731   5.718  1.2671  1.3791 -0.3597
 2407SOL     OW18149   7.540   0.182   3.164  0.1692  0.2153 -0.0755
 2407SOL    HW118150   7.475   0.201   3.090 -2.2157 -1.5441  1.4893
 2407SOL    HW218151   7.576   0.089   3.154  0.6642  0.3514  0.3806
 2408SOL     OW18152   2.035   5.135   4.905 -0.8116 -0.2068 -0.3913
 2408SOL    HW118153   2.128   5.160   4.876 -0.0587 -0.8084  1.4091
 2408SOL    HW218154   2.039   5.050   4.958 -1.9483  1.3057  2.2339
 2409SOL     OW18155   7.130   0.092   0.660  0.0329 -0.2372  0.4436
 2409SOL    HW118156   7.180   0.077   0.575 -2.7076 -0.5816 -1.1632
 2409SOL    HW218157   7.093   0.005   0.693 -1.4101  0.3408  0.3838
 2410SOL     OW18158   1.249   7.110   0.116  0.3463  0.9972  0.4868
 2410SOL    HW118159   1.181   7.180   0.092 -0.6398 -0.0162  0.3062
 2410SOL    HW218160   1.318   7.150   0.177  0.5267  2.4795 -0.6593
 2411SOL     OW18161   6.467   8.078   2.493  0.1681  0.0874 -0.2571
 2411SOL    HW118162   6.498   8.068   2.587 -0.1358 -0.2007 -0.1823
 2411SOL    HW218163   6.413   8.161   2.483 -1.5608 -0.9392  0.3197
 2412SOL     OW18164   0.547   7.491   2.401  0.1133  1.0755 -0.1765
 2412SOL    HW118165   0.462   7.530   2.437  0.6721  2.0262  0.1125
 2412SOL    HW218166   0.623   7.515   2.461  0.5763  0.1281 -0.3743
 2413SOL     OW18167   8.952   6.891   2.034  0.1521  0.5590  0.9770
 2413SOL    HW118168   8.957   6.991   2.041 -0.2571  0.7097 -0.7567
 2413SOL    HW218169   9.041   6.852   2.057  0.2050  1.2963  2.0456
 2414SOL     OW18170   3.775   8.448   5.019  0.1137 -0.0316 -0.8050
 2414SOL    HW118171   3.828   8.421   4.939  0.3567 -1.4903 -0.1587
 2414SOL    HW218172   3.836   8.491   5.087  0.0279  0.5499 -1.0897
 2415SOL     OW18173   2.644   7.500   2.686 -0.4251  0.2954  0.0808
 2415SOL    HW118174   2.576   7.532   2.620 -0.3262  0.6279  0.1386
 2415SOL    HW218175   2.731   7.483   2.639 -0.3447  0.5664  0.1284
 2416SOL     OW18176   8.596   7.140   5.159  0.4419  0.1895  0.0770
 2416SOL    HW118177   8.593   7.213   5.091 -2.1820  0.0269 -0.0216
 2416SOL    HW218178   8.582   7.051   5.114 -0.9554  0.0500  0.7546
 2417SOL     OW18179   2.651   3.257   1.267 -0.0864  0.1782 -0.3971
 2417SOL    HW118180   2.671   3.341   1.318 -1.9602 -0.0915  0.8108
 2417SOL    HW218181   2.737   3.210   1.247  0.9176  1.9268 -0.3185
 2418SOL     OW18182   3.241   5.720   4.013  0.4635 -0.1184 -0.3213
 2418SOL    HW118183   3.166   5.754   3.956 -0.1266 -0.5846  0.1846
 2418SOL    HW218184   3.276   5.635   3.973 -0.6276 -0.9983  0.5723
 2419SOL     OW18185   9.639   2.079   4.447  0.4858 -0.0596 -0.3111
 2419SOL    HW118186   9.700   2.146   4.403 -1.9075  1.3594 -1.6040
 2419SOL    HW218187   9.591   2.027   4.376  0.1370 -1.0807  0.6765
 2420SOL     OW18188   9.528   8.005   1.969 -0.4752 -0.2575 -0.5389
 2420SOL    HW118189   9.452   7.994   1.905  0.4006  2.0850 -2.0294
 2420SOL    HW218190   9.597   7.935   1.950 -0.4211  0.1447 -1.8899
 2421SOL     OW18191   4.922   1.987   4.948  0.0021  0.4460 -0.3765
 2421SOL    HW118192   4.845   2.024   4.895  0.3815  1.2151 -0.3947
 2421SOL    HW218193   4.914   1.887   4.952  0.1850  0.3372 -2.2227
 2422SOL     OW18194   9.378   7.290   0.952 -0.6563  0.2574 -0.1425
 2422SOL    HW118195   9.477   7.302   0.958 -0.3323 -2.5384  1.0092
 2422SOL    HW218196   9.341   7.355   0.886  1.6399  2.7068  0.8819
 2423SOL     OW18197   1.855   8.141   4.167 -0.5019 -0.1914  0.2846
 2423SOL    HW118198   1.860   8.041   4.174  0.7737 -0.0249  1.8957
 2423SOL    HW218199   1.846   8.181   4.258  1.9065  1.3010 -0.0927
 2424SOL     OW18200   0.431   6.826   0.789 -0.1514  0.1099  0.2749
 2424SOL    HW118201   0.346   6.794   0.746  0.6183 -1.3341 -0.2199
 2424SOL    HW218202   0.487   6.873   0.722  0.7779 -1.6109 -0.1984
 2425SOL     OW18203   2.263   5.992   2.033  0.1220  0.3505  0.2117
 2425SOL    HW118204   2.192   5.954   1.974  2.0121 -0.4882 -1.5773
 2425SOL    HW218205   2.319   5.918   2.071  1.5083  1.1255 -0.2976
 2426SOL     OW18206   1.098   6.811   0.084  0.0699  0.1428  0.3794
 2426SOL    HW118207   1.155   6.729   0.079  1.8840  1.4351 -0.4317
 2426SOL    HW218208   1.148   6.884   0.130 -1.1991  1.0871  0.2909
 2427SOL     OW18209   9.891   3.644   4.598  0.0587  0.4879 -0.4512
 2427SOL    HW118210   9.979   3.642   4.553 -0.3384  0.8248 -1.2460
 2427SOL    HW218211   9.846   3.732   4.581 -0.8674 -0.0630 -0.9056
 2428SOL     OW18212   9.214   2.859   4.295 -0.8298  0.3666  0.1067
 2428SOL    HW118213   9.295   2.807   4.324 -1.6719 -0.8868  0.2475
 2428SOL    HW218214   9.199   2.935   4.358  1.0061  1.4291 -0.6794
 2429SOL     OW18215   9.902   7.351   0.475 -0.1547  0.2620  0.2218
 2429SOL    HW118216   9.879   7.448   0.484 -0.0400  0.2690  0.4293
 2429SOL    HW218217   9.862   7.300   0.551  0.2769  0.2305  0.4266
 2430SOL     OW18218   1.003   6.818   0.746  0.0620 -0.3239 -0.2904
 2430SOL    HW118219   0.914   6.782   0.717  0.9568 -1.7035 -1.4452
 2430SOL    HW218220   0.998   6.846   0.841 -1.4055 -1.1358 -0.1069
 2431SOL     OW18221   4.344   4.005   0.838  0.1091 -0.5448 -0.1174
 2431SOL    HW118222   4.400   3.951   0.901 -1.6100 -1.4884  0.6255
 2431SOL    HW218223   4.318   4.091   0.883  0.3091 -0.4472 -0.1849
 2432SOL     OW18224   2.811   9.381   4.190  0.3970 -0.1020  0.4814
 2432SOL    HW118225   2.846   9.329   4.112 -2.5330  0.8798 -1.5457
 2432SOL    HW218226   2.738   9.442   4.160  1.7447  3.1114  3.3265
 2433SOL     OW18227   8.175   7.453   3.647 -0.2232 -0.1172 -0.6778
 2433SOL    HW118228   8.182   7.479   3.743 -2.3665  0.5283 -0.6554
 2433SOL    HW218229   8.143   7.359   3.640  1.3273 -0.6490 -0.7721
 2434SOL     OW18230   0.161   1.525   1.037 -0.3420 -0.4758  0.0013
 2434SOL    HW118231   0.187   1.439   1.079 -0.4331 -0.0443  0.9482
 2434SOL    HW218232   0.151   1.512   0.938  0.5484 -1.3234  0.0191
 2435SOL     OW18233   9.265   5.386   4.437  0.2226  0.2436  0.1929
 2435SOL    HW118234   9.297   5.302   4.394  4.0165  1.4955  0.4015
 2435SOL    HW218235   9.284   5.464   4.376 -1.1091  1.2200  0.9910
 2436SOL     OW18236   4.210   0.625   2.236 -0.0146 -0.1909  1.1428
 2436SOL    HW118237   4.236   0.649   2.330  1.1438  1.3845  0.4482
 2436SOL    HW218238   4.198   0.526   2.229  0.0993 -0.3536  2.8947
 2437SOL     OW18239   4.377   1.224   2.269  0.0071 -0.4744  0.2970
 2437SOL    HW118240   4.422   1.228   2.179 -0.7685  0.0561 -0.0743
 2437SOL    HW218241   4.424   1.285   2.332  1.2499 -1.6880  0.5790
 2438SOL     OW18242   2.613   1.188   2.835  0.5277  0.1281 -0.5224
 2438SOL    HW118243   2.677   1.164   2.908 -1.5988 -2.5655  0.5714
 2438SOL    HW218244   2.522   1.200   2.874 -0.3776 -0.0327 -2.5394
 2439SOL     OW18245   0.850   3.428   1.664  0.7812 -0.0717  0.1041
 2439SOL    HW118246   0.910   3.404   1.739  1.7269  0.3310 -0.5202
 2439SOL    HW218247   0.810   3.345   1.626  0.3927 -0.2860  0.9639
 2440SOL     OW18248   6.131   8.031   1.947  0.3360 -0.3343  0.3734
 2440SOL    HW118249   6.103   8.122   1.976 -1.2865 -0.0199 -2.0076
 2440SOL    HW218250   6.229   8.029   1.929  0.3858  0.9256  0.4995
 2441SOL     OW18251   3.289   2.813   4.926  0.0535  0.6443  0.0411
 2441SOL    HW118252   3.313   2.734   4.983 -1.4220  0.6528  0.6985
 2441SOL    HW218253   3.243   2.882   4.983 -0.6399  1.0406 -0.9929
 2442SOL     OW18254   0.780   0.262   3.914  0.0133  0.2522 -0.5092
 2442SOL    HW118255   0.867   0.308   3.934  0.3721 -1.1936  1.4037
 2442SOL    HW218256   0.704   0.326   3.930  0.5443  0.4299  1.5449
 2443SOL     OW18257   1.916   6.452   4.596 -0.0709  0.3022  0.2382
 2443SOL    HW118258   1.849   6.518   4.629 -0.9860 -0.4900 -0.0018
 2443SOL    HW218259   1.874   6.361   4.594  1.2567 -0.3330  0.8450
 2444SOL     OW18260   3.111   5.007   1.153 -0.1080  0.2188  0.0962
 2444SOL    HW118261   3.059   4.932   1.112 -1.4813  1.2747 -0.1287
 2444SOL    HW218262   3.198   5.017   1.106 -0.4475 -0.4441 -0.6802
 2445SOL     OW18263   2.712   4.032   4.771  0.3588  0.7874 -0.0626
 2445SOL    HW118264   2.637   4.068   4.716  0.7286  1.3773 -0.1852
 2445SOL    HW218265   2.770   4.108   4.802 -0.2604  0.5457  1.7438
 2446SOL     OW18266   3.767   1.087   4.997  0.2958 -0.0240  0.1995
 2446SOL    HW118267   3.775   1.187   4.991  1.2205 -0.1459 -0.8174
 2446SOL    HW218268   3.837   1.052   5.060  1.2904 -0.1979 -0.9822
 2447SOL     OW18269   8.849   4.423   1.413 -0.1960 -0.3333 -0.5171
 2447SOL    HW118270   8.925   4.446   1.352 -0.2388  1.8203  0.1812
 2447SOL    HW218271   8.763   4.430   1.364 -0.2134  1.1874 -0.3064
 2448SOL     OW18272   8.069   2.245   2.497  0.1050 -0.1466  0.0050
 2448SOL    HW118273   8.062   2.229   2.595  0.4025  0.7691  0.1798
 2448SOL    HW218274   8.082   2.158   2.450 -0.9278 -0.6834  0.6924
 2449SOL     OW18275   3.274   5.055   3.776  0.2346 -0.2625  1.6104
 2449SOL    HW118276   3.259   5.004   3.690  0.9863  1.1095  0.6547
 2449SOL    HW218277   3.307   4.992   3.846 -0.6760 -1.4642  0.9890
 2450SOL     OW18278   0.064   9.995   3.896  0.0234  0.4571  0.6721
 2450SOL    HW118279  -0.001  10.011   3.821 -0.2473  0.0762  0.8235
 2450SOL    HW218280   0.157  10.011   3.863  0.1825 -2.9297 -0.7092
 2451SOL     OW18281   8.263   1.867   1.727  0.0806  0.0692 -0.3976
 2451SOL    HW118282   8.184   1.924   1.702  1.3479  1.8162 -0.5534
 2451SOL    HW218283   8.264   1.784   1.671 -1.0707  0.5398 -1.1274
 2452SOL     OW18284   0.560   5.806   5.145 -0.5309  0.5407  0.4464
 2452SOL    HW118285   0.589   5.797   5.240  0.0475  2.0963  0.4350
 2452SOL    HW218286   0.461   5.821   5.141 -0.6199  0.0436  0.7730
 2453SOL     OW18287   3.513   4.698   5.431 -0.1550  0.2531 -0.3387
 2453SOL    HW118288   3.594   4.741   5.472  0.0466  0.8562 -1.3544
 2453SOL    HW218289   3.475   4.758   5.361 -2.2167  0.5197  0.9732
 2454SOL     OW18290   8.540   4.720   2.808 -0.4181 -0.3874 -0.1017
 2454SOL    HW118291   8.519   4.737   2.904 -1.8397  0.0978 -0.4810
 2454SOL    HW218292   8.563   4.806   2.763 -2.3099 -0.1962 -0.7744
 2455SOL     OW18293   1.036   5.028   4.641 -0.1049 -0.8752  0.2382
 2455SOL    HW118294   1.033   4.932   4.614 -2.1160 -0.4744 -1.0959
 2455SOL    HW218295   1.012   5.085   4.563 -0.2295  0.6420  1.3582
 2456SOL     OW18296   2.511   2.729   1.070  0.0225  0.3467  0.5254
 2456SOL    HW118297   2.476   2.697   1.158  1.2169 -3.0729 -0.1710
 2456SOL    HW218298   2.608   2.751   1.079  0.5465 -1.5438 -0.2586
 2457SOL     OW18299   1.313   1.709   1.122 -0.0892 -0.2978 -0.1343
 2457SOL    HW118300   1.311   1.753   1.211  0.6225 -0.1151 -0.2078
 2457SOL    HW218301   1.244   1.751   1.062 -0.4759 -0.3339  0.2828
 2458SOL     OW18302   0.344   2.129   0.816 -0.1169 -0.2424  0.2473
 2458SOL    HW118303   0.304   2.192   0.882 -0.4150 -0.8508  0.6618
 2458SOL    HW218304   0.438   2.156   0.795 -0.6014  0.9732 -0.4316
 2459SOL     OW18305   8.792   1.982   2.972 -0.2693 -0.3102 -0.3386
 2459SOL    HW118306   8.736   1.925   2.912  0.4188  0.5902 -1.8592
 2459SOL    HW218307   8.876   1.933   2.995 -0.1471 -0.3290 -0.8121
 2460SOL     OW18308   2.784   1.484   3.040 -0.1763 -0.2885  0.2112
 2460SOL    HW118309   2.811   1.413   3.106  0.8319  0.5747  0.7313
 2460SOL    HW218310   2.838   1.474   2.957  0.4692  0.3148  0.5584
 2461SOL     OW18311   4.304   3.814   3.762 -0.3919  0.2891 -0.4919
 2461SOL    HW118312   4.290   3.912   3.775  0.2320  0.5009 -1.3299
 2461SOL    HW218313   4.388   3.785   3.809 -0.3730  0.2375 -0.5574
 2462SOL     OW18314   1.298   4.218   0.131  0.0422 -0.0129  0.1091
 2462SOL    HW118315   1.266   4.249   0.220  2.8557  0.6111  0.9476
 2462SOL    HW218316   1.312   4.119   0.133  0.4887  0.0548  0.5065
 2463SOL     OW18317   3.909   1.956   4.173 -0.4346  0.0332 -0.0612
 2463SOL    HW118318   3.970   1.942   4.095 -0.7370  2.3828 -0.7495
 2463SOL    HW218319   3.964   1.971   4.255 -0.1042 -0.0924 -0.2582
 2464SOL     OW18320   5.738   0.351   3.482 -0.5054 -0.2670 -0.2474
 2464SOL    HW118321   5.805   0.310   3.544 -1.4622  1.5409  2.0904
 2464SOL    HW218322   5.657   0.293   3.477 -1.0436  0.3130  1.4557
 2465SOL     OW18323   1.528   6.589   5.594  0.3252  0.7542  0.2345
 2465SOL    HW118324   1.608   6.568   5.651  0.7851  1.9719  0.0649
 2465SOL    HW218325   1.554   6.586   5.498 -0.5902 -1.8410  0.0551
 2466SOL     OW18326   0.989   1.396   1.237 -0.0878  0.1363 -0.0768
 2466SOL    HW118327   0.944   1.475   1.195  0.4851  1.5184  1.8249
 2466SOL    HW218328   0.921   1.341   1.286 -0.2471  0.3017 -0.1133
 2467SOL     OW18329   4.460   7.545   2.427 -0.4040  0.3185  0.1132
 2467SOL    HW118330   4.501   7.540   2.335  1.0021  1.6465  0.6528
 2467SOL    HW218331   4.410   7.631   2.437  0.3328  0.6519  0.9507
 2468SOL     OW18332   4.487   0.933   5.585 -0.3251  0.3083  0.6590
 2468SOL    HW118333   4.404   0.879   5.568 -0.3353  0.6041 -0.2194
 2468SOL    HW218334   4.472   1.027   5.556 -0.2227  0.7410  1.9752
 2469SOL     OW18335   0.207   7.768   3.230  0.0425 -0.0060  0.4493
 2469SOL    HW118336   0.226   7.866   3.229  1.0977 -0.2152 -1.2978
 2469SOL    HW218337   0.134   7.747   3.166 -2.4307  0.0253  3.1324
 2470SOL     OW18338   9.158   3.625   0.890  0.5125  0.3176  0.0817
 2470SOL    HW118339   9.117   3.535   0.874  1.1466 -0.1867  1.2315
 2470SOL    HW218340   9.146   3.651   0.986 -1.6131  2.4671 -0.7137
 2471SOL     OW18341   0.670   8.721   4.684  0.3478  0.4342  0.4485
 2471SOL    HW118342   0.570   8.723   4.681  0.3526  0.1737  0.0456
 2471SOL    HW218343   0.707   8.768   4.604  0.5459  0.0859  0.3351
 2472SOL     OW18344   5.350   5.787   0.775 -0.1522  0.3574  0.2971
 2472SOL    HW118345   5.373   5.854   0.846  0.8878 -0.3757  0.6759
 2472SOL    HW218346   5.274   5.730   0.806  0.5289 -0.1944  0.9946
 2473SOL     OW18347   3.243   2.221   5.306  0.2794  0.2004 -0.2116
 2473SOL    HW118348   3.173   2.227   5.235  0.4999  1.4911 -0.3174
 2473SOL    HW218349   3.298   2.304   5.307 -0.4411  0.6947  2.2350
 2474SOL     OW18350   8.750   8.983   0.127  0.5075  0.0258  0.1154
 2474SOL    HW118351   8.706   9.035   0.200  0.3464 -0.6387  0.4947
 2474SOL    HW218352   8.770   9.043   0.050 -0.1901  0.5315  0.3288
 2475SOL     OW18353   6.942   9.837   1.256 -0.1118 -0.5434  0.1699
 2475SOL    HW118354   6.958   9.934   1.270  2.4631 -0.6662 -1.6557
 2475SOL    HW218355   6.853   9.812   1.295 -0.3564  2.2996  1.5535
 2476SOL     OW18356   9.543   6.040   1.848 -0.6815 -0.1803  0.0266
 2476SOL    HW118357   9.633   5.999   1.833 -0.5653  0.1547 -0.1834
 2476SOL    HW218358   9.551   6.140   1.848 -0.9561 -0.1508  0.5851
 2477SOL     OW18359   0.660   5.421   3.465 -0.2853 -0.3978  0.0012
 2477SOL    HW118360   0.665   5.466   3.376 -0.2614  0.2155  0.3040
 2477SOL    HW218361   0.738   5.449   3.521 -0.2471 -0.8547  0.1762
 2478SOL     OW18362   0.078   8.549   0.729  0.4882 -0.6208  0.5957
 2478SOL    HW118363   0.130   8.527   0.811  1.7377 -2.7275 -0.7234
 2478SOL    HW218364   0.055   8.646   0.729  1.4187 -0.3760  2.8858
 2479SOL     OW18365   1.956   0.862   3.275  0.4676 -0.8291 -0.3423
 2479SOL    HW118366   1.866   0.896   3.302  2.4522  4.1782  0.4704
 2479SOL    HW218367   1.973   0.886   3.179  1.6885 -0.0222  0.0670
 2480SOL     OW18368   2.206   7.019   4.317  0.1777  0.2927 -0.2138
 2480SOL    HW118369   2.125   6.961   4.305 -0.3884  0.4456  2.5166
 2480SOL    HW218370   2.279   6.985   4.258 -0.5838 -2.3920  0.2869
 2481SOL     OW18371   3.353   6.333   2.714 -0.4099  0.3353 -0.0587
 2481SOL    HW118372   3.376   6.428   2.695 -0.0113  0.3310  0.3906
 2481SOL    HW218373   3.261   6.314   2.682 -0.4000  0.8087 -0.3699
 2482SOL     OW18374   0.892   4.000   4.885  0.4295 -0.5826 -0.6876
 2482SOL    HW118375   0.929   4.042   4.802 -0.4203 -0.9380 -1.2595
 2482SOL    HW218376   0.933   4.043   4.966 -0.1842  1.1171 -1.2574
 2483SOL     OW18377   9.181   2.543   5.543 -0.5783 -0.4159  0.5401
 2483SOL    HW118378   9.163   2.594   5.459  0.9500 -1.3945 -0.4198
 2483SOL    HW218379   9.230   2.601   5.608  0.0411 -0.2746 -0.0487
 2484SOL     OW18380   4.080   5.227   2.568  0.5371  0.7842  0.2219
 2484SOL    HW118381   4.036   5.310   2.602  1.2903  1.7296 -1.0550
 2484SOL    HW218382   4.045   5.206   2.476 -1.0698 -1.4215  1.2811
 2485SOL     OW18383   2.656   4.744   3.140 -0.0027  0.7142  0.4037
 2485SOL    HW118384   2.738   4.694   3.166 -0.7202 -0.5471  0.3062
 2485SOL    HW218385   2.575   4.688   3.160 -0.8100  1.7259  0.0278
 2486SOL     OW18386   4.129   3.566   2.284 -0.0453  0.4887 -0.4349
 2486SOL    HW118387   4.042   3.598   2.319 -0.0792  0.4103 -0.4454
 2486SOL    HW218388   4.114   3.509   2.204  0.0743  1.2426 -0.9991
 2487SOL     OW18389   2.894   1.566   4.962  0.2634  0.0263 -0.5853
 2487SOL    HW118390   2.840   1.603   5.037  1.7381  0.9928  0.0094
 2487SOL    HW218391   2.981   1.615   4.955  0.9437 -1.2917 -1.7374
 2488SOL     OW18392   5.777   1.360   4.178 -0.4525 -0.1981  0.2475
 2488SOL    HW118393   5.806   1.308   4.097 -0.6034  1.1616 -0.7049
 2488SOL    HW218394   5.751   1.297   4.250 -0.0016 -1.4486 -0.6490
 2489SOL     OW18395   8.498   5.923   4.790 -0.5316 -0.4795 -0.1576
 2489SOL    HW118396   8.441   5.927   4.872  0.2652  1.3799  0.3265
 2489SOL    HW218397   8.479   6.002   4.732  0.7573 -0.4076 -0.5081
 2490SOL     OW18398   7.413   2.476   2.508  0.0686 -0.5627  0.3391
 2490SOL    HW118399   7.383   2.386   2.475  2.1265 -1.5268  1.0010
 2490SOL    HW218400   7.467   2.521   2.438 -2.6131  1.0706 -0.7584
 2491SOL     OW18401   3.968   9.145   1.160 -0.3205  0.5403  0.0442
 2491SOL    HW118402   3.993   9.208   1.233  0.0214  1.3947 -0.8058
 2491SOL    HW218403   4.018   9.059   1.171 -0.5195  0.5436  0.9952
 2492SOL     OW18404   3.522   0.172   2.418  0.1589  0.7408  0.0007
 2492SOL    HW118405   3.456   0.247   2.414 -0.1655  0.3730 -1.8940
 2492SOL    HW218406   3.499   0.103   2.350  0.5707 -1.0129  1.5925
 2493SOL     OW18407   5.649   7.635   2.972  0.3951  0.6729  0.0173
 2493SOL    HW118408   5.591   7.696   2.918  1.4339  1.6697  0.0079
 2493SOL    HW218409   5.724   7.601   2.915 -0.6479 -1.3372 -0.2310
 2494SOL     OW18410   3.800   9.601   1.203 -0.5711 -0.0196 -0.2452
 2494SOL    HW118411   3.716   9.603   1.149 -0.7055  0.9238 -0.0085
 2494SOL    HW218412   3.800   9.677   1.267 -0.1431 -0.7989  0.6863
 2495SOL     OW18413   9.104   8.470   0.190 -0.1970  0.0585  0.1358
 2495SOL    HW118414   9.021   8.419   0.211 -0.4397  0.4524  0.1243
 2495SOL    HW218415   9.087   8.533   0.114 -0.0010  0.4261  0.3950
 2496SOL     OW18416   0.205   0.442   0.656 -0.4530  0.2390 -0.0415
 2496SOL    HW118417   0.228   0.472   0.563 -1.4953 -0.3705 -0.5035
 2496SOL    HW218418   0.137   0.369   0.652  0.1048 -0.3578  1.1812
 2497SOL     OW18419   8.529   0.538   1.950 -0.5246 -0.7235 -0.0760
 2497SOL    HW118420   8.574   0.521   2.038  0.0938 -0.3408 -0.3094
 2497SOL    HW218421   8.444   0.588   1.965 -0.7827 -1.2789  0.3587
 2498SOL     OW18422   3.458   8.344   0.821  0.6224 -0.6022 -0.4141
 2498SOL    HW118423   3.382   8.333   0.884 -0.6687 -0.0808 -1.8343
 2498SOL    HW218424   3.458   8.269   0.755 -0.9456  1.3451 -2.7064
 2499SOL     OW18425   8.095   3.080   5.637 -0.2502  0.7481  0.0966
 2499SOL    HW118426   8.144   2.993   5.632 -0.9073  0.4025 -0.5400
 2499SOL    HW218427   8.155   3.151   5.672  1.1746  0.6741 -2.0784
 2500SOL     OW18428   1.258   1.626   2.402 -0.2134  0.5841 -0.2878
 2500SOL    HW118429   1.354   1.624   2.429  0.1779  0.2038 -1.6387
 2500SOL    HW218430   1.200   1.607   2.481  1.0149 -3.9527 -0.3452
 2501SOL     OW18431   9.862   4.299   2.629  0.5543  0.3392 -0.4906
 2501SOL    HW118432   9.913   4.334   2.551 -1.1702 -0.2191 -1.8729
 2501SOL    HW218433   9.825   4.376   2.682  0.8768  0.6894 -0.7740
 2502SOL     OW18434   1.124   3.975   2.021 -0.3194  0.1603  0.5511
 2502SOL    HW118435   1.033   4.014   2.030 -0.5220  0.1443 -1.3607
 2502SOL    HW218436   1.181   4.005   2.098 -1.3777  1.6810  0.7463
 2503SOL     OW18437   9.831   8.245   4.052 -0.2067  0.6033 -0.0324
 2503SOL    HW118438   9.905   8.252   4.119 -0.0261  0.7380 -0.2461
 2503SOL    HW218439   9.869   8.237   3.960 -0.4270 -1.3987  0.0271
 2504SOL     OW18440   8.176   0.811   1.242 -0.1792 -0.0371 -0.2361
 2504SOL    HW118441   8.198   0.804   1.339 -1.7014  1.2809  0.2230
 2504SOL    HW218442   8.136   0.900   1.223  1.3827  0.2444 -2.3548
 2505SOL     OW18443   8.630   8.134   0.642 -0.0866  0.3740 -0.2779
 2505SOL    HW118444   8.582   8.095   0.563 -1.0855 -0.0580  0.5232
 2505SOL    HW218445   8.617   8.074   0.721  0.3980  1.1102  0.3628
 2506SOL     OW18446   3.198   5.659   2.173  0.4328  0.2657 -0.2822
 2506SOL    HW118447   3.173   5.658   2.270  0.6465  1.6264 -0.2027
 2506SOL    HW218448   3.128   5.611   2.120 -0.7126  1.2337  0.3189
 2507SOL     OW18449   0.664   4.325   2.469  0.2084 -0.0073 -0.0437
 2507SOL    HW118450   0.616   4.259   2.412 -0.8600 -1.5632  2.5915
 2507SOL    HW218451   0.688   4.283   2.557  2.0607  2.2335  0.5749
 2508SOL     OW18452   2.967   7.719   0.701  0.6042 -0.3098 -0.1275
 2508SOL    HW118453   2.888   7.740   0.642 -0.1163 -0.6753  0.6941
 2508SOL    HW218454   2.935   7.702   0.794  1.7324  0.1998  0.3604
 2509SOL     OW18455   9.421   6.932   4.537 -0.0713  0.4878 -0.9127
 2509SOL    HW118456   9.456   7.020   4.569 -0.2103  0.0068  0.5688
 2509SOL    HW218457   9.427   6.929   4.437  1.6405  1.4633 -0.8657
 2510SOL     OW18458   8.530   2.017   1.616  0.4581 -0.3388  0.6459
 2510SOL    HW118459   8.561   2.025   1.522  0.6582  1.7329  0.8680
 2510SOL    HW218460   8.548   1.925   1.650 -0.3961 -1.3642 -1.6072
 2511SOL     OW18461   4.438   4.266   2.968 -0.2684 -0.4389 -0.0420
 2511SOL    HW118462   4.524   4.243   2.921 -0.2414  0.6556 -0.5363
 2511SOL    HW218463   4.376   4.188   2.962  0.2119 -0.7738 -0.8060
 2512SOL     OW18464   7.536   5.322   4.135  0.1580  0.3150  0.2905
 2512SOL    HW118465   7.491   5.248   4.085 -0.2596  0.2221  0.8020
 2512SOL    HW218466   7.482   5.406   4.124  0.2826  0.3892  0.2520
 2513SOL     OW18467   5.163   1.191   4.491  0.2177  0.2449  0.1774
 2513SOL    HW118468   5.231   1.264   4.499 -0.3607  0.9411 -1.1990
 2513SOL    HW218469   5.128   1.188   4.398 -1.8664  0.0895  0.9422
 2514SOL     OW18470   9.860   0.032   5.064  0.6297  0.3280 -0.3101
 2514SOL    HW118471   9.850  -0.062   5.095 -2.7674  1.2066  1.4881
 2514SOL    HW218472   9.936   0.076   5.113  0.3336 -0.6034  1.0017
 2515SOL     OW18473   7.095   0.548   3.870  0.1743  0.5445  0.4537
 2515SOL    HW118474   7.151   0.568   3.789  1.2714  1.0206  1.3233
 2515SOL    HW218475   7.144   0.487   3.931  0.9381  3.1342  2.5355
 2516SOL     OW18476   6.995   0.415   2.224  0.3419 -0.2034  0.3680
 2516SOL    HW118477   7.058   0.429   2.148  0.6645 -1.2210  0.4379
 2516SOL    HW218478   6.966   0.503   2.261  1.5767  0.2636  0.2152
 2517SOL     OW18479   2.892   3.752   3.951  0.3237  0.5044  0.3495
 2517SOL    HW118480   2.988   3.774   3.971 -0.1079  2.6211  0.2606
 2517SOL    HW218481   2.884   3.720   3.857  1.0382 -0.3422  0.5701
 2518SOL     OW18482   1.771   9.926   2.327  0.3312 -0.2807  0.4791
 2518SOL    HW118483   1.827   9.948   2.246 -1.2104  1.8413 -0.0647
 2518SOL    HW218484   1.700   9.860   2.302  0.1067  0.0692  0.1844
 2519SOL     OW18485   2.372   9.529   5.180  0.4789  0.0065 -0.2175
 2519SOL    HW118486   2.435   9.606   5.165  1.9563 -0.8273  1.5108
 2519SOL    HW218487   2.425   9.445   5.190 -1.0527 -1.0264 -0.6773
 2520SOL     OW18488   8.332   4.627   5.108 -0.7478  0.1944  0.4312
 2520SOL    HW118489   8.356   4.722   5.128  2.3163 -0.7491  1.4412
 2520SOL    HW218490   8.381   4.596   5.027 -1.1118 -0.7841  0.5744
 2521SOL     OW18491   8.672   8.762   5.050 -0.8430  0.4233  0.6139
 2521SOL    HW118492   8.765   8.742   5.020 -1.5640 -1.4967 -0.4999
 2521SOL    HW218493   8.635   8.837   4.995 -0.7155 -0.3216 -0.5152
 2522SOL     OW18494   6.380   1.490   1.978  0.1078  0.2225 -0.2644
 2522SOL    HW118495   6.287   1.512   1.948  0.0846  1.1995  0.4820
 2522SOL    HW218496   6.446   1.527   1.912 -0.0524 -1.5458 -1.4441
 2523SOL     OW18497   2.455   5.103   5.420  0.0557  0.1825 -0.1129
 2523SOL    HW118498   2.480   5.159   5.341 -1.3532 -1.2468 -1.6300
 2523SOL    HW218499   2.522   5.029   5.429  1.9305  2.0599  1.9046
 2524SOL     OW18500   1.470   4.660   4.914 -0.5771 -0.6589 -0.2351
 2524SOL    HW118501   1.551   4.692   4.864 -0.0022  1.3699  1.8929
 2524SOL    HW218502   1.499   4.598   4.987 -0.8425  0.4409  0.8304
 2525SOL     OW18503   5.916   8.592   3.672 -0.8743  0.2912 -0.0576
 2525SOL    HW118504   6.004   8.561   3.636 -0.8766 -1.3952  1.3667
 2525SOL    HW218505   5.854   8.610   3.596  0.5703  1.1385 -1.0613
 2526SOL     OW18506   0.268   7.334   4.133  0.5984  0.1497  0.0775
 2526SOL    HW118507   0.204   7.383   4.074  0.3398 -0.7071 -0.3751
 2526SOL    HW218508   0.241   7.344   4.228  1.4997  2.2497  0.1451
 2527SOL     OW18509   8.538   0.526   5.320  0.0930  0.5579  0.5777
 2527SOL    HW118510   8.501   0.540   5.228  2.5295  1.9327 -0.2140
 2527SOL    HW218511   8.550   0.428   5.336  1.2777  0.3981 -1.2254
 2528SOL     OW18512   2.837   5.517   4.329  0.2563 -0.5400 -0.2566
 2528SOL    HW118513   2.757   5.570   4.357  0.1702 -0.0306 -1.4399
 2528SOL    HW218514   2.824   5.421   4.353 -0.0583 -0.2204  0.9165
 2529SOL     OW18515   9.879   3.081   5.621  0.1454  0.0817 -0.0043
 2529SOL    HW118516   9.830   3.060   5.537 -0.0978 -1.0111  0.4005
 2529SOL    HW218517   9.960   3.024   5.628  1.6095  1.9997 -0.7497
 2530SOL     OW18518   2.221   8.793   3.392 -0.0259  0.0817  0.0114
 2530SOL    HW118519   2.190   8.868   3.451  0.5403 -0.2864  0.7941
 2530SOL    HW218520   2.321   8.798   3.382 -0.1316  0.2282 -1.0540
 2531SOL     OW18521   0.886   3.865   2.867 -0.1290  0.1931 -0.1902
 2531SOL    HW118522   0.931   3.870   2.778 -0.6540  1.5894 -0.3924
 2531SOL    HW218523   0.935   3.801   2.926 -0.4553 -1.6662 -1.8732
 2532SOL     OW18524   1.363   9.086   5.079 -0.3567  0.4277  0.2504
 2532SOL    HW118525   1.422   9.165   5.090 -0.1982  0.0935  2.0385
 2532SOL    HW218526   1.286   9.109   5.019  0.2090  1.6287 -0.0176
 2533SOL     OW18527   4.709   3.055   3.819  0.3826  0.3329 -0.0435
 2533SOL    HW118528   4.792   3.066   3.764  0.9990  1.0883  1.0342
 2533SOL    HW218529   4.729   2.999   3.899 -0.1461  0.5364  0.2377
 2534SOL     OW18530   7.828   4.403   0.227 -0.4116 -0.0207 -0.2261
 2534SOL    HW118531   7.784   4.335   0.168 -1.3385 -0.6339  1.1509
 2534SOL    HW218532   7.855   4.359   0.313  1.3221  0.7618 -0.3426
 2535SOL     OW18533   1.776   5.433   1.527  0.4686 -0.0506  0.4032
 2535SOL    HW118534   1.790   5.334   1.526 -1.5137 -0.3287 -0.9570
 2535SOL    HW218535   1.713   5.457   1.601 -1.1097 -0.1124 -0.9004
 2536SOL     OW18536   3.675   9.737   0.101 -0.7630  0.5219  0.2436
 2536SOL    HW118537   3.768   9.708   0.121 -0.9118  1.1074  1.8220
 2536SOL    HW218538   3.616   9.718   0.180 -1.3984  2.7158  0.3386
 2537SOL     OW18539   7.955   2.306   3.680  0.2355 -0.1411 -0.0312
 2537SOL    HW118540   7.955   2.401   3.713  0.7438  0.1294 -0.8045
 2537SOL    HW218541   8.011   2.299   3.598  0.3351 -1.1510  0.1177
 2538SOL     OW18542   0.521   5.173   2.092  0.5613 -0.4888  0.2542
 2538SOL    HW118543   0.553   5.081   2.072 -0.4496 -0.6368 -0.7488
 2538SOL    HW218544   0.450   5.198   2.027  1.6316  1.4420 -0.1994
 2539SOL     OW18545   0.562   8.099   3.042  0.4513 -0.2859 -0.4449
 2539SOL    HW118546   0.533   8.114   2.948  2.9176 -0.9650 -1.3429
 2539SOL    HW218547   0.592   8.185   3.083 -0.0515 -0.0974 -0.4692
 2540SOL     OW18548   5.407   7.847   4.059 -0.0548 -0.7138  0.3091
 2540SOL    HW118549   5.323   7.858   4.006 -0.3674 -2.0252  0.5170
 2540SOL    HW218550   5.400   7.899   4.144 -0.3017 -0.1187 -0.0720
 2541SOL     OW18551   0.830   3.077   4.607 -0.0866 -0.0004  0.1915
 2541SOL    HW118552   0.925   3.087   4.578  0.1315 -1.5644  0.3557
 2541SOL    HW218553   0.774   3.147   4.561  0.7166 -0.7016 -1.8838
 2542SOL     OW18554   2.916   3.875   1.953  0.1198 -0.2433 -0.2887
 2542SOL    HW118555   2.838   3.889   2.014 -0.1890  0.1867 -0.7732
 2542SOL    HW218556   3.001   3.895   2.001  0.0067 -1.7680  0.5715
 2543SOL     OW18557   1.001   5.844   2.916 -0.1406  0.0673  0.1373
 2543SOL    HW118558   1.063   5.789   2.972  0.3961 -0.3100 -0.7968
 2543SOL    HW218559   0.922   5.873   2.970  0.9444  0.7146  1.4003
 2544SOL     OW18560   9.356   2.622   3.635 -0.0039 -0.7401  0.2484
 2544SOL    HW118561   9.345   2.540   3.579  0.0252 -0.1908 -0.5903
 2544SOL    HW218562   9.296   2.617   3.715  0.1226 -1.6432  0.2851
 2545SOL     OW18563   2.109   5.790   4.250 -0.1146 -0.3696  0.4326
 2545SOL    HW118564   2.182   5.725   4.230 -1.5729 -2.5354  2.0545
 2545SOL    HW218565   2.148   5.883   4.253  2.2437 -1.2839 -0.3455
 2546SOL     OW18566   1.907   9.681   2.791  0.2794  0.4345 -0.7021
 2546SOL    HW118567   1.979   9.649   2.729 -0.0143 -0.1249 -0.7569
 2546SOL    HW218568   1.823   9.696   2.740 -0.4653 -1.7307 -0.1649
 2547SOL     OW18569   6.178   0.795   1.533 -0.5711  0.4454 -0.5736
 2547SOL    HW118570   6.186   0.791   1.433  0.6260  2.5569 -0.5923
 2547SOL    HW218571   6.082   0.805   1.558 -0.9536 -0.8147 -1.4773
 2548SOL     OW18572   3.342   7.546   3.284 -0.3103  0.0398  0.0206
 2548SOL    HW118573   3.442   7.547   3.287 -0.2480 -1.1090 -1.0415
 2548SOL    HW218574   3.306   7.495   3.362 -0.0030 -0.7629 -0.3536
 2549SOL     OW18575   9.928   5.293   1.827 -0.1058 -0.1514  0.1242
 2549SOL    HW118576   9.859   5.261   1.761 -0.8690 -0.5872  1.1296
 2549SOL    HW218577   9.913   5.249   1.915  2.0779 -1.0155  0.0907
 2550SOL     OW18578   7.777   4.306   4.566 -0.1979  0.3279  0.1058
 2550SOL    HW118579   7.872   4.336   4.567  0.0120 -0.3309  0.2824
 2550SOL    HW218580   7.774   4.206   4.559 -0.8768  0.3717 -0.2882
 2551SOL     OW18581   3.043   6.369   2.266  0.0283  0.9226 -0.4251
 2551SOL    HW118582   3.012   6.348   2.359 -0.9197  1.7525 -0.5469
 2551SOL    HW218583   2.982   6.437   2.225  0.5092  0.6472 -1.6163
 2552SOL     OW18584   0.557   2.825   4.312 -0.4894 -0.0537 -0.6345
 2552SOL    HW118585   0.532   2.830   4.409 -1.0638 -1.6800 -0.6886
 2552SOL    HW218586   0.484   2.779   4.261  1.0814 -1.8024 -1.3702
 2553SOL     OW18587   3.455   1.278   3.752  0.4114 -0.0954  0.2324
 2553SOL    HW118588   3.533   1.244   3.698 -0.5405  0.4900 -1.5532
 2553SOL    HW218589   3.371   1.267   3.699 -0.3954  1.5719  1.1396
 2554SOL     OW18590   3.516   5.221   2.819 -0.2192 -0.6901 -0.5374
 2554SOL    HW118591   3.539   5.311   2.782 -2.6184  0.4274  0.5919
 2554SOL    HW218592   3.574   5.203   2.898 -1.0063  0.7304  0.3953
 2555SOL     OW18593   8.722   9.290   3.188 -0.2301 -0.2835  0.4752
 2555SOL    HW118594   8.625   9.314   3.184  0.1524  1.7905  2.8923
 2555SOL    HW218595   8.735   9.217   3.256  0.2388  1.2978  2.1024
 2556SOL     OW18596   0.092   7.652   0.360  0.1162  0.3523  0.2492
 2556SOL    HW118597   0.093   7.592   0.280  0.0550 -1.7488  1.7767
 2556SOL    HW218598   0.183   7.654   0.402  0.4782  2.4772 -0.6046
 2557SOL     OW18599   8.261   7.275   1.058 -0.0298 -0.8298  0.2755
 2557SOL    HW118600   8.338   7.232   1.011  0.7180  2.5171 -1.7263
 2557SOL    HW218601   8.175   7.238   1.021  0.5687 -2.7113  0.7012
 2558SOL     OW18602   0.936   5.289   3.317 -0.1568  0.3842 -0.1025
 2558SOL    HW118603   0.951   5.322   3.410  0.1601  0.0706 -0.0432
 2558SOL    HW218604   0.838   5.286   3.298 -0.2466 -0.2131  0.4584
 2559SOL     OW18605   1.126   0.557   2.971  0.3603  0.4985 -0.0251
 2559SOL    HW118606   1.053   0.594   2.915  1.6455  1.2927 -1.2057
 2559SOL    HW218607   1.097   0.555   3.067 -1.5530 -0.1361 -0.6008
 2560SOL     OW18608   9.310   3.551   2.441 -0.2295 -0.2010  0.5197
 2560SOL    HW118609   9.326   3.528   2.537  0.4276  1.7759  0.9205
 2560SOL    HW218610   9.217   3.586   2.430  0.0947  0.7339  0.6865
 2561SOL     OW18611   9.514   2.334   3.787  0.4790 -0.4038 -0.3296
 2561SOL    HW118612   9.433   2.290   3.826  0.6364  0.5085  1.0647
 2561SOL    HW218613   9.490   2.425   3.754  0.8550 -0.2850 -0.2783
 2562SOL     OW18614   1.089   5.981   0.473  0.2469 -0.0050 -0.1888
 2562SOL    HW118615   0.999   5.965   0.515  0.4407  1.4683  0.8391
 2562SOL    HW218616   1.100   5.922   0.394 -1.2143 -0.9539  0.2979
 2563SOL     OW18617   9.254   4.339   4.214  0.2791  0.6892  0.5016
 2563SOL    HW118618   9.196   4.397   4.157 -1.4976 -1.1335  0.4218
 2563SOL    HW218619   9.319   4.396   4.265 -1.1817  2.6995  0.1465
 2564SOL     OW18620   3.831   9.635   2.515 -0.4095 -0.9610 -0.7316
 2564SOL    HW118621   3.812   9.733   2.511  2.6311 -0.3603 -1.4880
 2564SOL    HW218622   3.789   9.597   2.598 -1.1208  1.0814 -0.1218
 2565SOL     OW18623   6.496   0.126   4.644 -0.0298 -0.4216 -0.5567
 2565SOL    HW118624   6.425   0.092   4.705 -1.6762  0.7587 -1.7765
 2565SOL    HW218625   6.498   0.068   4.562  0.8100 -0.7809 -0.2916
 2566SOL     OW18626   3.916   7.640   3.217 -0.3102 -0.0697  0.4047
 2566SOL    HW118627   3.869   7.650   3.305 -0.0892 -0.5892  0.5790
 2566SOL    HW218628   3.851   7.658   3.143 -0.7335 -0.5794  0.6522
 2567SOL     OW18629   3.666   5.786   4.908  0.1366 -0.4185 -0.3704
 2567SOL    HW118630   3.567   5.773   4.900  0.0910 -0.3717  0.0671
 2567SOL    HW218631   3.684   5.882   4.931  0.2888 -0.3985 -0.5807
 2568SOL     OW18632   7.165   2.040   3.758 -0.5417 -0.2217  0.4962
 2568SOL    HW118633   7.221   1.985   3.820 -0.5006  1.3760  1.8999
 2568SOL    HW218634   7.217   2.060   3.675  0.1051 -0.7259  0.7728
 2569SOL     OW18635   3.736   3.425   0.134 -0.1345  0.6596  0.4129
 2569SOL    HW118636   3.655   3.445   0.080 -1.0731 -0.6063  1.3184
 2569SOL    HW218637   3.727   3.470   0.224 -0.9215 -1.3429  1.3699
 2570SOL     OW18638   1.623   6.744   0.681  0.3459 -0.4812 -0.4900
 2570SOL    HW118639   1.671   6.697   0.756 -2.7288 -0.2243  1.7347
 2570SOL    HW218640   1.559   6.680   0.637 -0.4988  0.3535 -0.4855
 2571SOL     OW18641   1.207   3.672   4.645 -0.1810 -0.1746  0.3478
 2571SOL    HW118642   1.246   3.678   4.737 -1.0356  2.3357  0.5908
 2571SOL    HW218643   1.117   3.714   4.645  0.5738  1.5176 -2.0737
 2572SOL     OW18644   2.287   5.979   3.038  0.7294  0.2141 -0.1194
 2572SOL    HW118645   2.201   5.998   3.085  0.0124  0.0677 -1.3266
 2572SOL    HW218646   2.358   6.043   3.070  0.1072  0.4891  0.7120
 2573SOL     OW18647   9.055   7.251   1.663  0.2715  0.0668 -0.2567
 2573SOL    HW118648   9.101   7.324   1.612 -0.8201  1.3341  0.5253
 2573SOL    HW218649   8.959   7.275   1.674  0.3378 -0.5575  1.7499
 2574SOL     OW18650   4.209   8.995   5.024  0.0177  0.0134 -0.3206
 2574SOL    HW118651   4.294   8.984   4.972  0.6405  1.5691  0.3546
 2574SOL    HW218652   4.208   8.928   5.098  0.0347 -0.8978 -1.1329
 2575SOL     OW18653   9.654   0.583   4.173  0.2539 -0.3123  0.0809
 2575SOL    HW118654   9.724   0.549   4.235  0.2478 -1.5263 -0.5616
 2575SOL    HW218655   9.574   0.524   4.176  0.0008 -0.0171 -0.5913
 2576SOL     OW18656   2.800   4.997   1.199 -0.3339 -0.2525 -0.4050
 2576SOL    HW118657   2.883   4.961   1.158  0.3451  1.1403 -0.2987
 2576SOL    HW218658   2.818   5.088   1.237 -2.0929  0.4185 -1.0852
 2577SOL     OW18659   9.394   7.954   2.694  0.4629  0.4249  0.3061
 2577SOL    HW118660   9.343   8.035   2.725 -0.8771 -0.8447  1.4856
 2577SOL    HW218661   9.330   7.885   2.661  1.4251 -1.0135  1.3758
 2578SOL     OW18662   6.502   7.480   4.187 -0.1170  0.0810 -0.0503
 2578SOL    HW118663   6.507   7.578   4.166 -0.1099 -0.3493 -2.2105
 2578SOL    HW218664   6.411   7.458   4.220 -1.0677  0.3266 -2.4028
 2579SOL     OW18665   0.375   9.497   4.529  0.5406  0.4815 -0.0832
 2579SOL    HW118666   0.448   9.476   4.464 -0.1985  1.5177 -1.2734
 2579SOL    HW218667   0.391   9.447   4.614  2.1862  0.0580 -0.6163
 2580SOL     OW18668   2.796   3.058   1.978  0.6917 -0.1131  0.6942
 2580SOL    HW118669   2.807   3.157   1.989  0.2461 -0.1426  1.4709
 2580SOL    HW218670   2.704   3.032   2.007  1.4159 -1.0056  2.2826
 2581SOL     OW18671   2.552   9.673   2.491 -0.5794 -0.1819  0.7219
 2581SOL    HW118672   2.647   9.662   2.520 -0.1277 -1.3396 -1.0986
 2581SOL    HW218673   2.510   9.747   2.543  0.8795 -0.5968  2.5723
 2582SOL     OW18674   7.441   1.677   0.330 -0.4521 -0.0255 -0.4468
 2582SOL    HW118675   7.386   1.649   0.409  0.2808  0.0839  0.1031
 2582SOL    HW218676   7.467   1.597   0.277 -0.3706 -0.1636 -0.1987
 2583SOL     OW18677   2.145   9.620   0.623  0.1599  0.7728  0.1983
 2583SOL    HW118678   2.045   9.617   0.621  0.1304  1.2592  0.8057
 2583SOL    HW218679   2.175   9.715   0.620  0.5795  0.6666  0.9526
 2584SOL     OW18680   3.356   2.563   4.357  0.0995 -0.0157 -0.0176
 2584SOL    HW118681   3.316   2.548   4.267  0.4184 -1.4564  0.0763
 2584SOL    HW218682   3.447   2.602   4.347 -0.6702  1.7900 -0.2620
 2585SOL     OW18683   9.233   0.529   5.396  0.2048  0.6158  0.5531
 2585SOL    HW118684   9.266   0.514   5.489 -0.9460  1.4092  1.1059
 2585SOL    HW218685   9.273   0.612   5.359  0.7287  0.2556  0.3068
 2586SOL     OW18686   4.674   8.351   1.155 -0.5894  0.4448 -0.2171
 2586SOL    HW118687   4.692   8.395   1.244  1.9577  1.0385 -0.9916
 2586SOL    HW218688   4.582   8.312   1.156 -0.6197  0.4416  2.6891
 2587SOL     OW18689   4.068   1.578   5.501 -0.0686  0.8236  0.3710
 2587SOL    HW118690   4.160   1.571   5.463 -0.0914 -0.3079  0.5128
 2587SOL    HW218691   4.053   1.671   5.535  0.6527  1.2975 -0.5851
 2588SOL     OW18692   9.505   9.999   3.167 -0.2679 -0.5605  0.1654
 2588SOL    HW118693   9.455   9.967   3.087 -1.3833  1.5267  0.0113
 2588SOL    HW218694   9.494  10.098   3.176  0.5415 -0.6581  2.4177
 2589SOL     OW18695   8.414   8.303   4.153  0.2278 -0.2124 -0.2625
 2589SOL    HW118696   8.450   8.316   4.061  0.4106  0.6672 -0.0695
 2589SOL    HW218697   8.326   8.257   4.148 -0.5292  1.2835 -0.9803
 2590SOL     OW18698   2.716   2.072   2.750 -0.2670 -0.6994  0.1853
 2590SOL    HW118699   2.653   2.132   2.801 -0.8535 -1.6531  0.5956
 2590SOL    HW218700   2.663   2.001   2.704  0.6176 -2.4250  1.7629
 2591SOL     OW18701   9.114   0.161   2.694 -0.0911 -0.3868 -0.0988
 2591SOL    HW118702   9.213   0.178   2.691 -0.1396 -0.0183  0.3694
 2591SOL    HW218703   9.090   0.094   2.624  0.5940 -1.0024  0.2413
 2592SOL     OW18704   0.934   1.117   4.669 -0.0012 -0.4390 -0.4083
 2592SOL    HW118705   0.901   1.198   4.717  0.5009 -1.4024  1.5910
 2592SOL    HW218706   0.877   1.101   4.588  0.6566  2.5984 -1.5319
 2593SOL     OW18707   0.872   4.723   4.052  0.9507  0.0529  0.1098
 2593SOL    HW118708   0.856   4.649   4.117 -0.4921  0.4842  0.2728
 2593SOL    HW218709   0.927   4.689   3.976 -1.1716 -1.6979 -0.7075
 2594SOL     OW18710   1.165   1.763   0.527  0.7959  0.0517  0.1297
 2594SOL    HW118711   1.119   1.806   0.450  3.0169  0.9215 -0.7713
 2594SOL    HW218712   1.158   1.663   0.519 -3.6514  0.1273  1.7824
 2595SOL     OW18713   2.428   0.858   3.397  0.7736 -0.8107 -0.0184
 2595SOL    HW118714   2.515   0.894   3.364  0.2733  0.6435  0.1951
 2595SOL    HW218715   2.381   0.928   3.451 -1.6298 -0.7062 -2.1393
 2596SOL     OW18716   3.153   1.367   3.091 -0.4429  0.1025  0.4286
 2596SOL    HW118717   3.090   1.309   3.039  0.5516 -0.3438 -0.2790
 2596SOL    HW218718   3.226   1.311   3.130  0.1028  0.7710  0.3688
 2597SOL     OW18719   1.093   2.158   2.871  0.2615 -0.1930  0.2146
 2597SOL    HW118720   1.065   2.085   2.810 -0.3838 -1.6015  2.1419
 2597SOL    HW218721   1.171   2.128   2.926  0.5787  0.9045  0.3838
 2598SOL     OW18722   1.546   4.049   5.310  0.7210  0.0961  0.1885
 2598SOL    HW118723   1.517   4.044   5.214  1.9175  0.5930 -0.2109
 2598SOL    HW218724   1.627   3.993   5.323  0.6419  0.1380  0.8890
 2599SOL     OW18725   8.304   0.941   2.119 -0.4874  0.8063 -0.9134
 2599SOL    HW118726   8.221   0.997   2.109 -0.3206  0.9891 -1.2864
 2599SOL    HW218727   8.385   0.997   2.102 -0.3331  0.3857 -1.5889
 2600SOL     OW18728   8.772   2.898   1.862  0.6658  0.4030  0.0720
 2600SOL    HW118729   8.827   2.934   1.937  0.6046 -0.3881  0.4967
 2600SOL    HW218730   8.791   2.800   1.850 -2.4795 -0.4990  1.8415
 2601SOL     OW18731   8.470   1.697   1.266  0.1548 -0.6433 -0.1649
 2601SOL    HW118732   8.390   1.740   1.309 -0.2075 -0.8532 -0.6265
 2601SOL    HW218733   8.485   1.736   1.176  0.0207 -1.2566 -0.4531
 2602SOL     OW18734   9.316   5.884   5.149  0.3200  0.5815  0.5846
 2602SOL    HW118735   9.338   5.981   5.158  0.4054  0.6249 -0.0280
 2602SOL    HW218736   9.239   5.874   5.086  0.0569  0.2788  0.9535
 2603SOL     OW18737   2.460   3.361   2.479 -0.1467  0.7631 -0.2158
 2603SOL    HW118738   2.420   3.452   2.486  0.2305  0.9767 -0.8080
 2603SOL    HW218739   2.549   3.359   2.525 -1.2658  0.0166  1.9938
 2604SOL     OW18740   8.607   6.331   3.571 -0.1973  0.0355  0.2249
 2604SOL    HW118741   8.550   6.402   3.613 -2.9920 -2.0368  0.0938
 2604SOL    HW218742   8.569   6.307   3.481  0.1863 -2.1952  0.6404
 2605SOL     OW18743   0.638   0.272   0.418 -0.2461  0.3242  0.6695
 2605SOL    HW118744   0.609   0.205   0.350 -0.1414  0.5234  0.4299
 2605SOL    HW218745   0.728   0.308   0.393 -1.2997  2.2437 -0.4164
 2606SOL     OW18746   3.416   2.279   4.987  0.3632  0.4354  0.5565
 2606SOL    HW118747   3.384   2.371   4.964  1.2541  0.4860 -0.5243
 2606SOL    HW218748   3.488   2.285   5.055  0.6946  0.5633  0.1939
 2607SOL     OW18749   2.420   8.465   5.380 -0.4266  0.5166 -0.3223
 2607SOL    HW118750   2.519   8.450   5.386 -0.5241  0.4459  1.3537
 2607SOL    HW218751   2.400   8.561   5.402 -0.9586 -0.1120  2.0134
 2608SOL     OW18752   8.115   7.803   2.174 -0.6046  0.0208 -0.2527
 2608SOL    HW118753   8.120   7.704   2.162  0.6446  0.1780 -1.0981
 2608SOL    HW218754   8.183   7.847   2.116 -0.0946  1.2960  1.2761
 2609SOL     OW18755   0.461   9.110   2.794 -0.6534  0.1809 -0.0184
 2609SOL    HW118756   0.559   9.133   2.788 -1.0250  2.7789  2.5833
 2609SOL    HW218757   0.448   9.014   2.770  2.5838 -0.2722 -0.2185
 2610SOL     OW18758   1.271   7.180   2.255  0.1307 -0.3257  0.7065
 2610SOL    HW118759   1.322   7.203   2.338  0.0228 -1.5139  1.1255
 2610SOL    HW218760   1.335   7.160   2.181  0.2215  2.9616 -0.1774
 2611SOL     OW18761   8.384   7.334   3.464  0.3137 -0.3987  0.1030
 2611SOL    HW118762   8.438   7.337   3.380 -0.2586 -0.1695 -0.2652
 2611SOL    HW218763   8.298   7.383   3.450 -0.2213 -1.2018  0.5007
 2612SOL     OW18764   4.346   7.983   3.634 -0.4963  0.6135  0.0970
 2612SOL    HW118765   4.287   7.924   3.579 -0.2149  0.4211  0.0017
 2612SOL    HW218766   4.329   8.078   3.611 -1.7543  0.6318  1.0505
 2613SOL     OW18767   8.059   0.724   2.670  0.2882  0.4155  0.3922
 2613SOL    HW118768   8.069   0.705   2.573  1.1256 -0.2973  0.6100
 2613SOL    HW218769   8.142   0.768   2.705  0.4645 -0.4038  1.0264
 2614SOL     OW18770   7.276   5.664   5.433 -0.0246 -0.2680 -0.4534
 2614SOL    HW118771   7.279   5.566   5.453 -0.4220 -0.3856 -0.9439
 2614SOL    HW218772   7.244   5.677   5.339  1.0708  0.2907 -0.7462
 2615SOL     OW18773   0.459   6.330   4.811 -0.2032 -0.1629 -0.2710
 2615SOL    HW118774   0.412   6.409   4.849  1.4139  0.7109 -0.0357
 2615SOL    HW218775   0.440   6.249   4.867  0.1683  0.5941  0.9652
 2616SOL     OW18776   9.165   7.925   0.265  0.1246  0.0694 -0.1159
 2616SOL    HW118777   9.155   7.932   0.166 -1.7781 -0.0906  0.0550
 2616SOL    HW218778   9.191   7.832   0.289 -2.3987 -0.7093 -0.2594
 2617SOL     OW18779   3.585   5.048   5.346  0.5280 -0.0702 -0.0559
 2617SOL    HW118780   3.543   5.094   5.424 -0.8308 -0.9892 -0.2350
 2617SOL    HW218781   3.634   4.967   5.377 -2.2012 -1.9246 -0.4026
 2618SOL     OW18782   1.786   6.038   1.212 -0.0431 -0.0941 -0.1837
 2618SOL    HW118783   1.730   6.008   1.290 -0.7199 -0.9610 -0.9898
 2618SOL    HW218784   1.726   6.077   1.142  0.6752  1.6965  0.1793
 2619SOL     OW18785   0.079   9.437   3.240  0.0335 -0.3362  0.5068
 2619SOL    HW118786   0.052   9.519   3.189  0.7145 -1.0248 -0.9983
 2619SOL    HW218787   0.056   9.356   3.187  1.2110 -1.0603  1.0827
 2620SOL     OW18788   9.172   6.091   1.984 -0.2713  0.0197 -0.2457
 2620SOL    HW118789   9.252   6.091   2.043 -0.0576  2.2776 -0.4902
 2620SOL    HW218790   9.185   6.025   1.910  0.3748 -1.2557  0.9844
 2621SOL     OW18791   2.694   1.626   5.126 -0.3272  0.3335  0.1836
 2621SOL    HW118792   2.747   1.568   5.187  0.8568 -0.0680 -1.2018
 2621SOL    HW218793   2.625   1.571   5.078 -0.9347  0.5607  0.7843
 2622SOL     OW18794   9.590   9.401   4.333  0.1278  0.6424 -0.3901
 2622SOL    HW118795   9.684   9.432   4.345  0.5667 -1.0891  0.7409
 2622SOL    HW218796   9.537   9.426   4.414  0.2892 -0.8327  0.1742
 2623SOL     OW18797   2.039   7.305   4.883 -0.4420 -0.0293  0.2821
 2623SOL    HW118798   2.124   7.287   4.932  0.3158  1.1535 -0.5627
 2623SOL    HW218799   2.059   7.330   4.788 -1.8826 -2.0869 -0.6024
 2624SOL     OW18800   0.732   4.553   5.364 -0.2776 -0.2502  0.3039
 2624SOL    HW118801   0.779   4.629   5.320  0.9935 -1.1826  0.0434
 2624SOL    HW218802   0.791   4.511   5.433 -0.7971 -1.2939  0.1307
 2625SOL     OW18803   9.758   0.250   2.771  0.0506  0.0263 -0.0197
 2625SOL    HW118804   9.659   0.249   2.762  0.1330 -0.4788 -0.9436
 2625SOL    HW218805   9.785   0.320   2.837 -1.1112 -2.1192  2.8575
 2626SOL     OW18806   4.672   1.475   5.440 -0.3892 -0.0184  0.1945
 2626SOL    HW118807   4.704   1.508   5.351 -0.2002  0.4453  0.4337
 2626SOL    HW218808   4.692   1.377   5.449  0.7202  0.2100  0.2361
 2627SOL     OW18809   3.031   4.587   1.266  0.0369 -0.1993 -0.2174
 2627SOL    HW118810   3.039   4.521   1.341 -0.9496  0.7038  0.7063
 2627SOL    HW218811   3.116   4.590   1.215  0.5575 -1.1961  0.5682
 2628SOL     OW18812   3.643   4.899   3.952  0.0168 -0.0412 -0.1344
 2628SOL    HW118813   3.702   4.943   3.884  0.5969  1.4002  1.2718
 2628SOL    HW218814   3.646   4.800   3.940  1.2161  0.1249 -1.3046
 2629SOL     OW18815   0.562   8.002   5.532  0.2187  0.1620 -0.3727
 2629SOL    HW118816   0.496   7.950   5.586 -0.9033  1.0765 -0.8335
 2629SOL    HW218817   0.521   8.029   5.445  2.4085 -2.2914 -2.2301
 2630SOL     OW18818   1.553   8.668   4.765  0.6267 -0.2772  0.3435
 2630SOL    HW118819   1.476   8.618   4.804 -0.4137  0.4902 -0.6930
 2630SOL    HW218820   1.554   8.761   4.802  0.1837  0.1635 -0.7416
 2631SOL     OW18821   6.067   9.307   4.255 -0.3504 -0.6474 -0.3575
 2631SOL    HW118822   6.014   9.278   4.176 -0.7190 -0.9040 -0.0198
 2631SOL    HW218823   6.140   9.242   4.272 -0.6312 -0.9099 -0.1372
 2632SOL     OW18824   9.059   9.789   4.062  0.2202  0.4509 -0.5575
 2632SOL    HW118825   8.986   9.854   4.082  2.0249  2.3770 -0.1276
 2632SOL    HW218826   9.108   9.766   4.146 -0.0995 -1.1231 -0.7793
 2633SOL     OW18827   2.740   9.637   1.012  0.2112 -0.5762  0.1808
 2633SOL    HW118828   2.687   9.677   1.087  0.1828 -0.7178  0.2365
 2633SOL    HW218829   2.744   9.538   1.023 -1.0266 -0.7471 -0.7963
 2634SOL     OW18830   3.317   4.982   1.449  0.1031  0.3688  0.3367
 2634SOL    HW118831   3.330   5.060   1.387  2.5329 -0.5785 -0.4027
 2634SOL    HW218832   3.220   4.974   1.472 -0.3233  3.0435 -0.3087
 2635SOL     OW18833   5.125   9.162   1.255  0.0887 -0.3469  0.7485
 2635SOL    HW118834   5.197   9.188   1.190  0.7711  0.7739  1.9091
 2635SOL    HW218835   5.056   9.235   1.259 -0.2604 -0.6809  0.8181
 2636SOL     OW18836   0.048   2.093   3.817 -0.5761 -0.6182  0.2147
 2636SOL    HW118837   0.045   2.038   3.733  1.9627 -0.0467 -0.2889
 2636SOL    HW218838   0.127   2.154   3.813 -1.9062  1.2475  1.9033
 2637SOL     OW18839   3.197   1.322   5.174  0.3276 -0.0201  0.4184
 2637SOL    HW118840   3.242   1.265   5.105  0.1796  0.3434  0.0126
 2637SOL    HW218841   3.231   1.416   5.166 -0.4337  0.2371  0.1602
 2638SOL     OW18842   3.987   3.123   4.734 -0.1206  0.8238 -0.2135
 2638SOL    HW118843   3.920   3.124   4.809  1.9376  0.2250  1.6908
 2638SOL    HW218844   3.977   3.039   4.682 -1.4685  1.1664 -0.5187
 2639SOL     OW18845   0.156   5.458   2.609 -0.1600 -0.5142 -0.0606
 2639SOL    HW118846   0.063   5.457   2.647 -0.0940  0.8685  0.1393
 2639SOL    HW218847   0.210   5.529   2.654  0.6443 -0.5010 -1.0370
 2640SOL     OW18848   0.822   1.611   1.421  0.1247 -0.1663  0.7350
 2640SOL    HW118849   0.724   1.597   1.436 -0.4247  0.5210 -1.9986
 2640SOL    HW218850   0.843   1.601   1.324  2.2409  2.8543  0.8272
 2641SOL     OW18851   0.280   4.626   4.213  0.7440  0.3564  0.2438
 2641SOL    HW118852   0.210   4.563   4.181 -0.1261  0.9388  0.9708
 2641SOL    HW218853   0.369   4.580   4.212 -0.0299 -1.2552  1.7873
 2642SOL     OW18854   8.669   5.568   2.009 -0.0808  0.0271  0.3162
 2642SOL    HW118855   8.691   5.660   1.978  1.3762 -0.0754  0.9739
 2642SOL    HW218856   8.631   5.515   1.934  0.3863  0.7485 -0.4330
 2643SOL     OW18857   4.437   7.294   2.501 -0.0187 -0.2228  0.1692
 2643SOL    HW118858   4.439   7.288   2.600  1.5284 -0.8884  0.1057
 2643SOL    HW218859   4.441   7.390   2.473 -1.6314  0.0311  0.7541
 2644SOL     OW18860   4.172   0.059   3.519 -0.0410  0.4974  0.2076
 2644SOL    HW118861   4.115   0.083   3.441  0.6610 -0.6332 -0.6734
 2644SOL    HW218862   4.244   0.127   3.531  1.7381 -0.8900 -2.0599
 2645SOL     OW18863   5.688   7.326   2.981  0.2294  0.0859 -0.0438
 2645SOL    HW118864   5.691   7.231   2.949 -0.7911 -0.5190  1.5996
 2645SOL    HW218865   5.628   7.379   2.921  0.7004 -0.3253 -0.8940
 2646SOL     OW18866   5.832   0.895   2.340  0.4756  0.1948 -0.0013
 2646SOL    HW118867   5.925   0.931   2.351  1.1014 -1.2616 -0.4713
 2646SOL    HW218868   5.836   0.800   2.309 -1.1737  0.3137 -0.6408
 2647SOL     OW18869   2.652   8.469   2.352  0.2552 -0.1836 -0.0083
 2647SOL    HW118870   2.656   8.514   2.263  0.4788  0.2390  0.2176
 2647SOL    HW218871   2.631   8.536   2.423 -0.5465 -0.6291  0.1733
 2648SOL     OW18872   1.196   4.061   4.044  0.7184  0.3700 -0.0933
 2648SOL    HW118873   1.212   4.017   4.132  1.3334  0.0961 -0.3453
 2648SOL    HW218874   1.230   4.155   4.047  0.4180  0.4756  0.0728
 2649SOL     OW18875   3.134   7.839   5.159 -0.0725 -0.0938  0.2886
 2649SOL    HW118876   3.044   7.874   5.183 -0.5859 -1.1106 -0.1595
 2649SOL    HW218877   3.126   7.769   5.089  1.0670 -0.2007  0.2438
 2650SOL     OW18878   3.059   1.496   0.704  0.1772  0.0629  0.1157
 2650SOL    HW118879   3.058   1.448   0.616  0.3613 -1.0537  0.7038
 2650SOL    HW218880   2.994   1.452   0.766 -0.8624  1.6169  0.1468
 2651SOL     OW18881   3.041   1.161   1.462 -0.4517 -0.2298  0.1600
 2651SOL    HW118882   3.018   1.165   1.365 -0.3889  1.2686  0.2104
 2651SOL    HW218883   3.081   1.248   1.492  1.0082 -1.2047  1.1602
 2652SOL     OW18884   2.323   8.696   3.005  0.0581  0.0515  0.2689
 2652SOL    HW118885   2.330   8.793   3.028 -0.5587 -0.0745  0.9988
 2652SOL    HW218886   2.285   8.646   3.083  0.0128 -0.7166 -0.2425
 2653SOL     OW18887   3.392   9.283   3.007  0.3851  0.1811  0.0441
 2653SOL    HW118888   3.392   9.382   3.021 -0.1496  0.0870  0.7168
 2653SOL    HW218889   3.436   9.238   3.084 -0.6987 -0.1973  0.4580
 2654SOL     OW18890   6.397   7.320   2.306 -0.3090  0.0439 -0.0784
 2654SOL    HW118891   6.390   7.340   2.208 -1.2740  0.2967  0.0286
 2654SOL    HW218892   6.307   7.291   2.340 -0.1595  0.6888  0.8848
 2655SOL     OW18893   4.024   7.237   1.322 -0.3493 -0.2147  0.1186
 2655SOL    HW118894   4.096   7.172   1.300 -0.7864 -0.9817  0.9348
 2655SOL    HW218895   4.056   7.330   1.303  0.9372 -0.5252  0.7095
 2656SOL     OW18896   0.077   0.824   3.575  0.1886  0.2198 -0.0219
 2656SOL    HW118897   0.033   0.833   3.486 -1.2261 -1.6318  0.4596
 2656SOL    HW218898   0.007   0.820   3.646  1.2523 -0.1643  1.0180
 2657SOL     OW18899   4.071   0.477   2.686  0.4617 -0.4715  0.3418
 2657SOL    HW118900   4.010   0.398   2.687 -0.7166  0.3768 -1.0065
 2657SOL    HW218901   4.111   0.490   2.777 -1.3722 -1.0748  1.2589
 2658SOL     OW18902   2.522   4.139   5.619  0.5571  0.3798 -0.2383
 2658SOL    HW118903   2.612   4.181   5.623 -0.0488  1.4616  2.9798
 2658SOL    HW218904   2.481   4.138   5.710 -1.3926 -2.9564 -1.0658
 2659SOL     OW18905   8.978   7.202   4.406  0.6455 -0.3103  0.0306
 2659SOL    HW118906   8.948   7.295   4.387 -1.0353 -0.5468  1.3579
 2659SOL    HW218907   8.994   7.191   4.504  0.5608 -1.4768 -0.0710
 2660SOL     OW18908   1.565   1.946   5.587  0.0820  0.4157 -0.3807
 2660SOL    HW118909   1.574   2.028   5.530 -0.5071 -0.2438 -1.4337
 2660SOL    HW218910   1.481   1.952   5.640  0.4826  0.8931  0.2107
 2661SOL     OW18911   9.305   7.274   0.211  0.5782 -0.4939  0.4216
 2661SOL    HW118912   9.224   7.220   0.188  0.0595 -0.4952  2.1206
 2661SOL    HW218913   9.288   7.324   0.296  2.4896 -0.7810  0.9929
 2662SOL     OW18914   0.867   0.545   0.611  0.0218  0.3142  0.4485
 2662SOL    HW118915   0.774   0.582   0.618 -0.3215 -0.6646  1.2037
 2662SOL    HW218916   0.915   0.560   0.698 -0.1188 -1.0142  0.7598
 2663SOL     OW18917   1.885   1.928   3.452 -0.4939 -0.4049 -0.6967
 2663SOL    HW118918   1.976   1.892   3.469  0.1636  1.5609  0.1166
 2663SOL    HW218919   1.842   1.950   3.539 -0.7247  1.1143 -1.1842
 2664SOL     OW18920   9.392   2.939   4.765 -0.6303  0.2304 -0.0817
 2664SOL    HW118921   9.399   3.038   4.772 -0.6071  0.1198  1.6357
 2664SOL    HW218922   9.303   2.915   4.726 -1.7326  0.8632  1.9645
 2665SOL     OW18923   1.236   6.827   4.436  0.5359 -0.1012  0.1322
 2665SOL    HW118924   1.230   6.886   4.516 -0.0026 -0.7308  0.5595
 2665SOL    HW218925   1.144   6.807   4.402  0.3435 -4.6229  2.8944
 2666SOL     OW18926   8.296   7.417   1.913  0.1993 -0.0041  0.5410
 2666SOL    HW118927   8.212   7.467   1.932  0.2769  0.6141 -0.6540
 2666SOL    HW218928   8.296   7.387   1.817  2.2866  1.9038 -0.1100
 2667SOL     OW18929   1.438   8.602   1.704  0.0034 -0.0542 -0.1845
 2667SOL    HW118930   1.457   8.679   1.764  1.6827 -1.0734  0.6472
 2667SOL    HW218931   1.403   8.635   1.617  1.6613  1.7286 -0.2178
 2668SOL     OW18932   9.606   2.035   4.948 -0.0003 -0.5840  0.0579
 2668SOL    HW118933   9.643   2.010   4.859  1.4423 -2.0989  1.0601
 2668SOL    HW218934   9.633   1.967   5.016 -0.0265  1.1894  1.9081
 2669SOL     OW18935   8.241   8.891   1.101 -0.0767 -0.1254  0.3346
 2669SOL    HW118936   8.147   8.859   1.107  0.2550 -1.0386  0.8004
 2669SOL    HW218937   8.292   8.860   1.182  0.4447  0.9517  0.4268
 2670SOL     OW18938   2.590   2.086   1.459 -0.1122 -0.1681  0.0059
 2670SOL    HW118939   2.600   2.185   1.448  0.9725 -0.2418  0.2295
 2670SOL    HW218940   2.512   2.067   1.518  0.5676  0.6114  1.1713
 2671SOL     OW18941   1.932   8.181   0.730  0.4729  0.1367 -0.3453
 2671SOL    HW118942   1.850   8.213   0.777  1.6021  1.1800  0.9706
 2671SOL    HW218943   1.989   8.259   0.705  0.7735 -0.5350 -1.8282
 2672SOL     OW18944   2.776   9.717   4.313  0.4249 -0.0167 -0.0438
 2672SOL    HW118945   2.784   9.661   4.230  1.2736  0.7869 -0.5174
 2672SOL    HW218946   2.704   9.785   4.300  1.2108  0.7425 -0.5106
 2673SOL     OW18947   8.377   2.203   3.402 -0.5664 -0.0837 -0.1219
 2673SOL    HW118948   8.361   2.134   3.473 -1.9077 -0.9522 -1.2368
 2673SOL    HW218949   8.399   2.157   3.316 -1.1013  0.8946 -0.7879
 2674SOL     OW18950   1.508   7.748   3.105 -0.6437 -0.1321  0.3617
 2674SOL    HW118951   1.576   7.710   3.168  1.3986  0.3657 -1.4933
 2674SOL    HW218952   1.461   7.824   3.150  1.9387  1.2875  0.7614
 2675SOL     OW18953   6.656   0.461   4.968 -0.1072  0.1091 -0.1747
 2675SOL    HW118954   6.608   0.520   4.903 -1.4877  0.3952  1.0853
 2675SOL    HW218955   6.754   0.482   4.967 -0.1300  0.1975 -2.0588
 2676SOL     OW18956   1.208   9.415   0.486  0.5986  0.1858 -0.5017
 2676SOL    HW118957   1.275   9.431   0.558  0.8022 -0.5176 -0.5355
 2676SOL    HW218958   1.245   9.351   0.419 -0.2062 -0.3916 -0.3947
 2677SOL     OW18959   8.623   8.547   4.748  0.0659  0.1430 -0.3192
 2677SOL    HW118960   8.682   8.517   4.673 -0.8839  1.7490 -1.7530
 2677SOL    HW218961   8.576   8.468   4.787  1.4309 -0.8511 -0.6457
 2678SOL     OW18962   1.791   5.385   1.219 -0.1178  0.1702 -0.4005
 2678SOL    HW118963   1.753   5.477   1.231  1.1653  0.9735 -2.3786
 2678SOL    HW218964   1.877   5.378   1.270  0.1151  0.2691 -0.7828
 2679SOL     OW18965   8.107   1.331   4.065 -0.0878  0.5820  0.3992
 2679SOL    HW118966   8.153   1.405   4.015 -2.8623  2.3309  0.3695
 2679SOL    HW218967   8.107   1.351   4.162  0.5543 -0.2172  0.5806
 2680SOL     OW18968   9.955   1.247   3.267 -0.2966 -0.0231 -0.5438
 2680SOL    HW118969   9.941   1.345   3.284 -0.2276  0.1018 -1.1936
 2680SOL    HW218970  10.050   1.231   3.244 -0.2325 -0.2977 -0.1004
 2681SOL     OW18971   1.351   4.445   3.264  0.1499  0.2213 -0.5373
 2681SOL    HW118972   1.347   4.416   3.169 -0.8355 -1.9411  0.1220
 2681SOL    HW218973   1.434   4.409   3.307 -0.8250 -1.2584  0.1534
 2682SOL     OW18974   9.636   1.061   0.542  0.2820  0.6516 -0.0487
 2682SOL    HW118975   9.623   1.148   0.588  1.2822  1.0173 -0.4388
 2682SOL    HW218976   9.631   0.986   0.609  0.5584  1.0912  0.4617
 2683SOL     OW18977   0.969   8.988   0.506  0.2133  0.0620  0.8673
 2683SOL    HW118978   1.012   8.898   0.515  0.2433  0.0890  0.9940
 2683SOL    HW218979   1.014   9.040   0.433 -2.3279 -1.5441 -2.0054
 2684SOL     OW18980   7.563   5.114   0.269 -0.6043  0.0831 -0.4309
 2684SOL    HW118981   7.565   5.166   0.184 -1.0204  0.5524 -0.1560
 2684SOL    HW218982   7.650   5.065   0.280  0.0155  1.1635 -0.4167
 2685SOL     OW18983   1.722   1.409   5.302 -0.2968  0.2996  0.2882
 2685SOL    HW118984   1.797   1.465   5.267 -0.3944  1.2347  1.5339
 2685SOL    HW218985   1.639   1.428   5.249  0.4460 -1.1108 -1.4169
 2686SOL     OW18986   4.030   0.848   5.527 -0.2413  0.5853 -0.2684
 2686SOL    HW118987   3.938   0.840   5.490  0.2979 -0.9964 -1.2911
 2686SOL    HW218988   4.089   0.893   5.460  0.5216 -1.4586 -0.9929
 2687SOL     OW18989   0.523   6.158   5.285  0.6366  0.2034 -0.0512
 2687SOL    HW118990   0.495   6.119   5.197 -0.3850  1.1898 -0.1700
 2687SOL    HW218991   0.592   6.229   5.269  0.0779  0.7410 -0.1105
 2688SOL     OW18992   9.299   6.453   1.968 -0.5114  0.5362  0.0782
 2688SOL    HW118993   9.223   6.426   2.027  1.0074  1.8799  2.7174
 2688SOL    HW218994   9.274   6.536   1.917 -1.3341  0.1305 -0.1860
 2689SOL     OW18995   8.193   7.485   2.957 -0.1594  0.0051  0.5749
 2689SOL    HW118996   8.158   7.412   2.898 -1.0658 -0.3844  1.5757
 2689SOL    HW218997   8.172   7.464   3.052 -1.0737  1.9108  0.8148
 2690SOL     OW18998   8.628   9.012   0.547  0.0260 -0.4583  0.4857
 2690SOL    HW118999   8.605   8.921   0.513  0.9330 -0.9581  1.1722
 2690SOL    HW219000   8.688   9.003   0.627  2.7957  0.8041 -1.3877
 2691SOL     OW19001   8.865   6.685   0.788 -0.1327  0.4063  0.2221
 2691SOL    HW119002   8.923   6.648   0.716 -0.3237  0.0766  0.2379
 2691SOL    HW219003   8.823   6.610   0.839  0.4651  0.6191  1.0565
 2692SOL     OW19004   4.317   3.737   0.444  0.2108 -0.6525 -0.6486
 2692SOL    HW119005   4.246   3.681   0.400  0.1029 -0.7827 -0.3107
 2692SOL    HW219006   4.278   3.783   0.524  0.1951  0.2130 -1.1535
 2693SOL     OW19007   1.579   2.244   3.809  0.5000  0.1504 -0.5480
 2693SOL    HW119008   1.573   2.147   3.787 -0.8722  0.3616 -1.1092
 2693SOL    HW219009   1.588   2.255   3.908  2.1213 -0.5966 -0.5933
 2694SOL     OW19010   2.895   9.545   3.426  0.4017  0.0712 -0.0521
 2694SOL    HW119011   2.906   9.594   3.340  0.4660  1.2928  0.6353
 2694SOL    HW219012   2.887   9.447   3.408  0.5908  0.2963 -1.4257
 2695SOL     OW19013   8.357   8.137   1.291 -0.0876  0.3292 -0.1230
 2695SOL    HW119014   8.440   8.162   1.241  0.1894 -0.4834 -0.0785
 2695SOL    HW219015   8.286   8.108   1.226 -0.9307  2.6799 -0.2856
 2696SOL     OW19016   3.322   7.926   3.205 -0.3658  0.2068  0.3539
 2696SOL    HW119017   3.295   7.905   3.299  1.0120  0.6920  0.8734
 2696SOL    HW219018   3.243   7.917   3.144 -1.9515  2.5541  1.9820
 2697SOL     OW19019   1.590   9.596   2.851  0.8402  0.3496  0.2862
 2697SOL    HW119020   1.661   9.540   2.894  0.4522  1.0986  1.9116
 2697SOL    HW219021   1.519   9.536   2.814  0.8914 -0.2881  1.1901
 2698SOL     OW19022   8.219   3.341   5.006 -0.5102 -0.0735  0.1274
 2698SOL    HW119023   8.293   3.273   5.012  0.5888  1.1776  1.2441
 2698SOL    HW219024   8.252   3.429   5.043 -2.1270  0.8728 -0.6432
 2699SOL     OW19025   4.420   7.706   1.309 -0.4420  0.1646 -0.6343
 2699SOL    HW119026   4.408   7.650   1.392  0.1257  1.5065  0.3619
 2699SOL    HW219027   4.464   7.792   1.333 -0.9590  0.8825 -2.2309
 2700SOL     OW19028   3.161   3.569   2.607 -0.3929  0.1395  0.2336
 2700SOL    HW119029   3.138   3.651   2.659  0.6514  0.4298  0.2603
 2700SOL    HW219030   3.164   3.591   2.510 -0.2691  0.0983  0.2275
 2701SOL     OW19031   9.357   6.592   5.245  0.1316  0.4952  0.4666
 2701SOL    HW119032   9.349   6.686   5.213 -0.7527  0.3455  0.2343
 2701SOL    HW219033   9.303   6.532   5.185  2.5931 -0.4899 -0.8265
 2702SOL     OW19034   3.639   4.483   5.572  0.1182  0.1506 -0.0039
 2702SOL    HW119035   3.566   4.535   5.528  0.3879  1.4687  1.1060
 2702SOL    HW219036   3.725   4.498   5.524  0.3036  1.1601  0.6410
 2703SOL     OW19037   4.118   5.447   2.131  0.8009 -0.6347  0.9414
 2703SOL    HW119038   4.215   5.463   2.146  0.8912 -0.7499  0.4880
 2703SOL    HW219039   4.070   5.535   2.128  1.0015 -0.5410  0.4322
 2704SOL     OW19040   3.236   8.567   5.119 -0.2933  0.0416 -0.3844
 2704SOL    HW119041   3.149   8.615   5.116  0.3503  1.1293 -1.8438
 2704SOL    HW219042   3.306   8.626   5.160  0.2015 -0.1357 -0.9671
 2705SOL     OW19043   2.939   6.812   1.380  0.0500  0.3391  0.0256
 2705SOL    HW119044   2.903   6.783   1.468  0.4099  3.0189  1.0942
 2705SOL    HW219045   2.881   6.885   1.343  1.1661  0.7706 -0.9022
 2706SOL     OW19046   7.999   4.985   5.051 -0.0193  0.5217  0.3041
 2706SOL    HW119047   8.013   4.905   4.993 -2.5172 -0.1631  0.5570
 2706SOL    HW219048   7.997   5.068   4.995 -2.6508 -0.1557 -0.6956
 2707SOL     OW19049   0.057   3.573   3.241  0.2809  0.1786 -0.1861
 2707SOL    HW119050   0.081   3.598   3.335  0.5943  0.3841 -0.3172
 2707SOL    HW219051  -0.027   3.619   3.214  0.3914  0.4143 -0.1291
 2708SOL     OW19052   0.471   8.254   3.877  0.7157  0.3297  0.3340
 2708SOL    HW119053   0.546   8.292   3.933 -1.3173  0.8532  2.8212
 2708SOL    HW219054   0.388   8.307   3.893 -0.6472 -1.3449 -1.0091
 2709SOL     OW19055   0.055   0.354   1.828 -0.4619  0.3695  0.2143
 2709SOL    HW119056   0.116   0.341   1.906 -0.7090  1.7821  0.6678
 2709SOL    HW219057   0.084   0.295   1.753  0.5739 -0.0505  0.9267
 2710SOL     OW19058   1.338   9.667   3.697 -0.1548 -0.4005 -0.4385
 2710SOL    HW119059   1.244   9.635   3.710 -0.1746 -0.4225 -0.6256
 2710SOL    HW219060   1.396   9.590   3.670  0.9022 -1.3532  4.1288
 2711SOL     OW19061   4.035   5.173   5.307 -0.0473  0.3582  0.1819
 2711SOL    HW119062   3.943   5.200   5.334 -0.2147 -0.2953  0.2607
 2711SOL    HW219063   4.067   5.232   5.233 -0.9262 -0.0763 -0.5442
 2712SOL     OW19064   2.094   8.244   2.274  0.5848  0.8305 -0.1076
 2712SOL    HW119065   2.158   8.313   2.242  2.4103  0.1028  1.8847
 2712SOL    HW219066   2.127   8.204   2.360  0.7223 -4.0884 -2.2912
 2713SOL     OW19067   8.864   4.261   5.462 -0.2737 -0.1182  0.1040
 2713SOL    HW119068   8.898   4.300   5.547 -1.1865  0.1452  0.3414
 2713SOL    HW219069   8.828   4.169   5.479  3.1844 -1.7078 -0.6983
 2714SOL     OW19070   2.776   2.860   1.743  0.7431  0.1870  0.2692
 2714SOL    HW119071   2.797   2.849   1.840 -0.7178  1.3268  0.7438
 2714SOL    HW219072   2.686   2.903   1.733 -0.2435 -2.2231 -1.6408
 2715SOL     OW19073   0.639   8.531   0.916  0.6791  0.3294 -0.6387
 2715SOL    HW119074   0.718   8.522   0.856  0.8577 -2.3298 -0.0603
 2715SOL    HW219075   0.557   8.500   0.868  0.5490 -0.1976 -0.0776
 2716SOL     OW19076   9.604   7.203   0.174 -0.1700 -0.0621 -0.1270
 2716SOL    HW119077   9.505   7.214   0.176 -0.3357 -0.5759 -3.1506
 2716SOL    HW219078   9.628   7.118   0.128  1.6914 -0.5466  1.6332
 2717SOL     OW19079   1.355   0.023   4.985 -0.8593 -0.3994  0.6284
 2717SOL    HW119080   1.289  -0.045   5.017 -0.7101 -0.6048  0.5077
 2717SOL    HW219081   1.381   0.083   5.060  0.3316 -1.5665  1.1754
 2718SOL     OW19082   0.289   4.369   2.872 -0.0335  0.3745 -0.3169
 2718SOL    HW119083   0.378   4.405   2.899  0.2000 -1.0210  0.8539
 2718SOL    HW219084   0.276   4.381   2.774  0.7232  2.1014 -0.2289
 2719SOL     OW19085   5.066   0.737   5.011 -0.5540  0.8918 -0.3967
 2719SOL    HW119086   5.157   0.773   4.991 -0.7199 -0.1282 -3.1641
 2719SOL    HW219087   5.069   0.637   5.009 -1.2706  0.8020  1.7956
 2720SOL     OW19088   9.711   7.116   3.338 -0.0965 -0.6098 -0.1256
 2720SOL    HW119089   9.811   7.107   3.341  0.2991  2.0754 -3.1560
 2720SOL    HW219090   9.677   7.138   3.429  2.4382  1.6346  0.3310
 2721SOL     OW19091   2.291   7.478   2.801  0.0635  0.1728 -0.1051
 2721SOL    HW119092   2.317   7.526   2.717  1.8513 -1.1551 -0.3601
 2721SOL    HW219093   2.287   7.542   2.877  2.9303  0.6815 -0.3327
 2722SOL     OW19094   2.664   5.805   0.012 -0.3561  0.1870 -0.1027
 2722SOL    HW119095   2.623   5.763  -0.069 -1.1614  1.9227 -0.6073
 2722SOL    HW219096   2.610   5.779   0.093  0.0615 -1.0025 -0.1886
 2723SOL     OW19097   8.869   5.817   0.111 -0.0326 -0.0784 -0.0183
 2723SOL    HW119098   8.774   5.838   0.134 -0.0345  0.0437 -0.1346
 2723SOL    HW219099   8.871   5.742   0.046 -0.1068  0.7038 -0.9401
 2724SOL     OW19100   8.937   0.110   1.147 -0.0045 -0.2603 -0.1401
 2724SOL    HW119101   8.940   0.069   1.056  0.0908 -1.2601  0.3115
 2724SOL    HW219102   8.917   0.208   1.139 -1.6089 -0.6520 -1.1394
 2725SOL     OW19103   2.870   3.951   2.793  0.1411  0.4970  0.4394
 2725SOL    HW119104   2.850   3.948   2.695  1.4794 -0.7803  0.2057
 2725SOL    HW219105   2.784   3.942   2.844 -0.3686 -0.6875 -0.6017
 2726SOL     OW19106   7.513   7.036   4.090  0.0133  0.3281 -0.3019
 2726SOL    HW119107   7.483   7.016   3.997  3.3663 -1.6644 -1.0508
 2726SOL    HW219108   7.574   7.115   4.090  0.2648  0.1375  0.1593
 2727SOL     OW19109   1.231   0.679   4.995 -0.3903  0.5187  0.6495
 2727SOL    HW119110   1.210   0.598   5.049  0.3210  0.0856  0.2769
 2727SOL    HW219111   1.329   0.682   4.976 -0.6475  0.6473 -0.6631
 2728SOL     OW19112   8.490   4.542   4.879  0.0682 -0.1463  0.1549
 2728SOL    HW119113   8.577   4.531   4.928 -0.0861 -3.5626 -0.2338
 2728SOL    HW219114   8.508   4.562   4.783  0.3608  1.8609  0.5873
 2729SOL     OW19115   0.638   5.895   1.464  0.2701  0.0282  0.3700
 2729SOL    HW119116   0.737   5.902   1.477  0.1212  1.6543  0.7518
 2729SOL    HW219117   0.593   5.890   1.553  0.0251 -1.0365  0.1902
 2730SOL     OW19118   2.377   0.667   0.810  0.2580 -0.4312  0.3546
 2730SOL    HW119119   2.365   0.571   0.783  0.7664 -0.7042  1.1054
 2730SOL    HW219120   2.296   0.719   0.781 -0.0663 -1.0984  0.0299
 2731SOL     OW19121   5.886   9.733   2.281  0.0711 -0.1082 -0.5589
 2731SOL    HW119122   5.852   9.726   2.375  1.3171 -1.3347 -0.1730
 2731SOL    HW219123   5.816   9.774   2.223 -1.2305 -0.5860  0.6379
 2732SOL     OW19124   7.668   4.809   5.340 -0.0082  0.4926  0.4040
 2732SOL    HW119125   7.686   4.746   5.416  0.4712  0.4975  0.2930
 2732SOL    HW219126   7.634   4.896   5.376  2.2425  1.2485  0.7559
 2733SOL     OW19127   1.478   9.360   5.076 -0.1274  0.3152  0.2002
 2733SOL    HW119128   1.382   9.370   5.099 -0.8044  0.8938 -2.6815
 2733SOL    HW219129   1.517   9.450   5.054  0.6764 -0.1090 -0.1409
 2734SOL     OW19130   3.557   6.529   2.419 -0.6380 -0.4403  0.5304
 2734SOL    HW119131   3.481   6.513   2.356 -0.2264  0.4706 -0.2135
 2734SOL    HW219132   3.626   6.585   2.374 -1.1131  1.6632  2.3131
 2735SOL     OW19133   1.708   7.641   5.268  0.2831  0.1506  0.1498
 2735SOL    HW119134   1.730   7.594   5.182  2.7599  1.2085  0.1575
 2735SOL    HW219135   1.667   7.575   5.331 -0.4659 -0.9292 -1.4111
 2736SOL     OW19136   0.240   8.631   4.986  0.3082  0.0556 -0.2492
 2736SOL    HW119137   0.269   8.718   5.024 -0.7214  1.0539 -1.6631
 2736SOL    HW219138   0.312   8.563   4.997  0.5672  0.6802  2.1643
 2737SOL     OW19139   0.895   8.872   3.657  0.0861 -0.3946  0.2422
 2737SOL    HW119140   0.825   8.868   3.729 -0.7712 -0.2511 -0.5765
 2737SOL    HW219141   0.889   8.961   3.610 -0.1204 -0.9315 -0.7611
 2738SOL     OW19142   0.772   9.793   4.769  0.2649 -0.2841  0.2270
 2738SOL    HW119143   0.828   9.867   4.805  0.4868  0.1787 -1.0618
 2738SOL    HW219144   0.831   9.723   4.730  0.0218 -0.7983  0.7743
 2739SOL     OW19145   3.043   2.187   1.763 -0.4590  0.0972  0.1669
 2739SOL    HW119146   2.965   2.237   1.726 -1.7629 -1.2896  0.9909
 2739SOL    HW219147   3.097   2.247   1.821 -0.3674  1.3253 -1.1722
 2740SOL     OW19148   9.827   8.824   2.700  0.0754  0.5738  0.0672
 2740SOL    HW119149   9.827   8.726   2.719 -1.1546  0.5471 -0.0222
 2740SOL    HW219150   9.804   8.874   2.783 -1.8696  0.6424 -0.4956
 2741SOL     OW19151   9.363   9.055   3.818  0.7391  0.7337 -0.1031
 2741SOL    HW119152   9.271   9.046   3.857  1.9712  0.0357  2.6832
 2741SOL    HW219153   9.362   9.127   3.748 -1.6202  1.6485  0.8285
 2742SOL     OW19154   2.293   5.174   4.780  0.0830  0.0235 -0.3990
 2742SOL    HW119155   2.340   5.096   4.821  0.2404 -0.6211 -1.7956
 2742SOL    HW219156   2.341   5.258   4.803  0.9358 -0.4665 -0.3786
 2743SOL     OW19157   2.699   5.524   2.357  0.0364 -0.0726 -0.5190
 2743SOL    HW119158   2.798   5.527   2.370 -0.0273 -0.2898  0.0055
 2743SOL    HW219159   2.665   5.433   2.380 -0.3663  0.1751 -0.1320
 2744SOL     OW19160   0.617   7.122   3.537  0.3319 -0.2606  0.1663
 2744SOL    HW119161   0.696   7.183   3.546 -0.8437  1.5689 -1.5242
 2744SOL    HW219162   0.634   7.056   3.464  1.8231 -2.3680  2.3474
 2745SOL     OW19163   7.898   9.414   2.607 -0.3180  0.1846  0.2906
 2745SOL    HW119164   7.885   9.345   2.677 -0.1039  0.2088  0.3569
 2745SOL    HW219165   7.964   9.381   2.539  0.5426  0.7134  0.8623
 2746SOL     OW19166   4.580   9.516   4.851 -0.2849 -0.5407 -0.1925
 2746SOL    HW119167   4.660   9.559   4.893 -0.5917  0.6307 -0.7889
 2746SOL    HW219168   4.552   9.438   4.906  0.4277 -0.1188  0.7914
 2747SOL     OW19169   4.897   5.626   2.528 -0.5118  0.1759 -0.2768
 2747SOL    HW119170   4.932   5.533   2.513  0.4066  0.3939  0.4890
 2747SOL    HW219171   4.966   5.693   2.503 -1.1022  0.6589 -0.6360
 2748SOL     OW19172   4.501   0.180   4.531 -0.0176  0.1278  0.3900
 2748SOL    HW119173   4.489   0.273   4.564  0.4211  0.2297  0.2693
 2748SOL    HW219174   4.421   0.125   4.555 -0.4545  0.6386  0.1044
 2749SOL     OW19175   2.247   3.037   3.047 -0.5485  0.2834 -0.3964
 2749SOL    HW119176   2.207   3.019   3.137 -0.2615 -0.9710 -0.5159
 2749SOL    HW219177   2.328   2.980   3.035 -1.5285 -0.7856 -2.0952
 2750SOL     OW19178   2.504   7.259   0.924 -0.6947 -0.0584  0.1186
 2750SOL    HW119179   2.538   7.250   0.830  0.0741  0.5208  0.3372
 2750SOL    HW219180   2.414   7.302   0.923 -1.0475 -0.7901 -0.4040
 2751SOL     OW19181   8.235   5.262   0.459 -0.5236 -0.6421  0.4625
 2751SOL    HW119182   8.166   5.334   0.468  1.7321  1.4964  1.1368
 2751SOL    HW219183   8.251   5.220   0.549  0.6969  0.4683  0.7827
 2752SOL     OW19184   8.170   6.549   0.097 -0.2975  0.0353 -0.2842
 2752SOL    HW119185   8.192   6.628   0.154  0.7992  0.5136 -1.3603
 2752SOL    HW219186   8.245   6.484   0.100 -0.7801 -0.5225 -0.1926
 2753SOL     OW19187   7.735   8.911   1.645 -0.8815 -0.5205  0.4477
 2753SOL    HW119188   7.771   8.956   1.727 -1.6087  3.2536 -1.1787
 2753SOL    HW219189   7.638   8.891   1.659 -0.8634 -0.4247  0.7354
 2754SOL     OW19190   1.576   8.752   2.998 -0.1129 -0.5626  0.0683
 2754SOL    HW119191   1.647   8.819   3.019  0.1782 -0.7478 -0.3144
 2754SOL    HW219192   1.600   8.664   3.041 -1.4618  0.0755  2.2013
 2755SOL     OW19193   8.018   9.402   1.410 -0.9079 -0.5745  0.2860
 2755SOL    HW119194   8.042   9.322   1.354  0.2255 -0.5166  0.6820
 2755SOL    HW219195   7.921   9.398   1.432 -1.0320 -1.4297 -0.3672
 2756SOL     OW19196   4.990   5.067   1.295 -0.3960 -0.2424  0.4833
 2756SOL    HW119197   4.969   4.997   1.364 -2.2933  0.0359  0.2066
 2756SOL    HW219198   4.996   5.024   1.205  1.8700 -0.5718  0.7623
 2757SOL     OW19199   2.928   8.506   0.758  0.1807  0.1583 -0.2904
 2757SOL    HW119200   2.887   8.516   0.667 -0.2653  0.9987 -0.0023
 2757SOL    HW219201   2.928   8.595   0.804 -0.4120 -0.4395  0.8775
 2758SOL     OW19202   3.659   8.975   3.951 -0.3569  0.4188 -0.0583
 2758SOL    HW119203   3.675   8.962   3.853  2.3179  0.2943  0.3592
 2758SOL    HW219204   3.734   9.029   3.989 -1.1977  0.1439  2.0091
 2759SOL     OW19205   8.332   2.995   3.380 -0.2922  1.2620  0.2502
 2759SOL    HW119206   8.261   3.065   3.371  0.7441  2.3039  0.0471
 2759SOL    HW219207   8.394   3.020   3.455 -0.3615  0.1627  0.6761
 2760SOL     OW19208   5.114   0.795   0.933  0.1411 -0.3323  0.1848
 2760SOL    HW119209   5.047   0.864   0.905  0.7321  0.0459 -0.3124
 2760SOL    HW219210   5.076   0.704   0.918 -0.1132 -0.1214 -0.4585
 2761SOL     OW19211   0.050   7.177   1.153  0.4069  0.2562  0.1298
 2761SOL    HW119212  -0.042   7.156   1.121  0.6804  0.5011 -0.8536
 2761SOL    HW219213   0.095   7.093   1.185  1.1353 -0.5439 -2.8203
 2762SOL     OW19214   1.959   2.201   4.668  0.1089 -0.1319  0.3999
 2762SOL    HW119215   2.011   2.131   4.620 -2.0478 -1.4200 -0.1593
 2762SOL    HW219216   1.921   2.266   4.602  0.8865  0.7236  0.7854
 2763SOL     OW19217   1.499   8.281   1.055 -0.6389  0.5171 -0.9952
 2763SOL    HW119218   1.472   8.298   1.150  2.6232 -2.4514  0.5708
 2763SOL    HW219219   1.547   8.362   1.019 -1.5822  1.5278 -0.0239
 2764SOL     OW19220   4.184   0.661   3.586  0.1567 -0.3352 -0.0181
 2764SOL    HW119221   4.257   0.658   3.518 -0.4305 -0.7305 -0.6383
 2764SOL    HW219222   4.096   0.641   3.542 -0.4854  1.2222  0.5078
 2765SOL     OW19223   3.739   2.075   5.548 -0.3810  0.2410 -0.0735
 2765SOL    HW119224   3.643   2.093   5.526 -0.5037  0.5685  0.7078
 2765SOL    HW219225   3.778   2.015   5.478 -1.1281  0.1710 -0.4450
 2766SOL     OW19226   4.587   3.492   2.700  0.8093 -0.4045 -0.0965
 2766SOL    HW119227   4.667   3.468   2.754  2.3038  1.8036 -1.2648
 2766SOL    HW219228   4.580   3.591   2.692 -2.2369 -0.5331  0.2577
 2767SOL     OW19229   0.749   9.551   2.246  0.2904 -0.3321  0.4515
 2767SOL    HW119230   0.745   9.649   2.223  0.8948 -0.1581  1.0766
 2767SOL    HW219231   0.820   9.507   2.191 -0.2481 -0.5007 -0.1127
 2768SOL     OW19232   1.832   2.394   4.515  0.2883  0.2959  0.2624
 2768SOL    HW119233   1.873   2.485   4.503  0.8075  0.3288  2.1873
 2768SOL    HW219234   1.733   2.403   4.525  0.4287  0.7525  1.3429
 2769SOL     OW19235   1.873   8.165   4.463  0.3211  0.4494  0.3430
 2769SOL    HW119236   1.966   8.161   4.425  0.1310 -0.0756 -0.0776
 2769SOL    HW219237   1.844   8.073   4.489  0.6765  0.8812  2.3494
 2770SOL     OW19238   0.194   1.820   5.390 -0.3069  0.1931 -0.1242
 2770SOL    HW119239   0.274   1.803   5.332  0.4448 -0.8271  1.1729
 2770SOL    HW219240   0.125   1.751   5.372  0.1118 -0.3957  0.5125
 2771SOL     OW19241   3.332   9.966   3.517 -0.3501 -0.5615 -0.5797
 2771SOL    HW119242   3.302  10.061   3.506 -0.5101 -0.4486  0.7084
 2771SOL    HW219243   3.391   9.960   3.597 -0.5510 -1.5988 -0.5103
 2772SOL     OW19244   8.818   7.822   4.712 -0.4814 -0.0399  0.1870
 2772SOL    HW119245   8.728   7.787   4.738 -0.5111 -0.1577 -0.0777
 2772SOL    HW219246   8.867   7.852   4.794 -0.6927 -0.1383  0.3499
 2773SOL     OW19247   0.090   5.785   3.388  0.1798 -0.1538 -0.3495
 2773SOL    HW119248   0.065   5.801   3.483 -1.1846 -2.5446 -0.2552
 2773SOL    HW219249   0.009   5.794   3.330  0.5662 -0.8092 -0.9987
 2774SOL     OW19250   0.642   7.531   2.128  0.2373 -0.3905  0.3284
 2774SOL    HW119251   0.612   7.512   2.221 -0.9018 -0.8647 -0.1226
 2774SOL    HW219252   0.569   7.578   2.078  0.9203  0.0596 -0.2617
 2775SOL     OW19253   7.961   1.294   5.443  0.0732  0.2303 -0.2472
 2775SOL    HW119254   8.009   1.268   5.359  0.3281  0.9516 -0.3367
 2775SOL    HW219255   7.999   1.244   5.520 -1.2904 -1.7027 -0.7840
 2776SOL     OW19256   6.352   0.496   2.593 -0.2376  0.0236  0.2520
 2776SOL    HW119257   6.327   0.562   2.521 -0.2992 -0.8239 -0.5181
 2776SOL    HW219258   6.451   0.483   2.592 -0.2660 -0.1871  0.1405
 2777SOL     OW19259   1.184   1.499   1.396 -0.1631  0.2079 -0.0491
 2777SOL    HW119260   1.267   1.457   1.359  0.2170  0.4660  0.4974
 2777SOL    HW219261   1.105   1.472   1.341  0.3335  0.2327 -0.7756
 2778SOL     OW19262   2.886   6.227   3.714 -0.0389  0.0693 -0.0377
 2778SOL    HW119263   2.805   6.284   3.722  0.5933  0.9808 -0.0476
 2778SOL    HW219264   2.968   6.284   3.718  0.6099 -0.8555  0.1541
 2779SOL     OW19265   3.073   3.332   2.275  0.0440  0.3059  0.1317
 2779SOL    HW119266   3.137   3.306   2.203 -0.0457  0.8455 -0.1487
 2779SOL    HW219267   3.119   3.326   2.364  0.3131  0.1443 -0.0164
 2780SOL     OW19268   7.700   6.064   3.198 -0.3060 -0.5961 -0.2622
 2780SOL    HW119269   7.733   6.064   3.104  0.9485 -0.0835  0.1767
 2780SOL    HW219270   7.623   6.127   3.206 -0.8575 -1.1561 -1.0927
 2781SOL     OW19271   3.639   0.368   1.913 -0.3463  0.0274 -0.1292
 2781SOL    HW119272   3.622   0.358   2.012  1.4887  1.1625  0.3158
 2781SOL    HW219273   3.736   0.356   1.894 -0.8735 -1.5239 -2.0044
 2782SOL     OW19274   9.681   7.814   3.713 -0.0299  0.1744 -1.0342
 2782SOL    HW119275   9.621   7.734   3.711 -1.2699  1.0982 -0.7894
 2782SOL    HW219276   9.651   7.877   3.785  0.9988  0.8342 -1.1650
 2783SOL     OW19277   6.576   1.742   3.398  0.4356 -0.0218  0.1668
 2783SOL    HW119278   6.539   1.819   3.450  0.9800 -1.0158  2.0980
 2783SOL    HW219279   6.501   1.690   3.357  0.0588  1.4120 -1.0051
 2784SOL     OW19280   1.228   8.524   0.116  0.3715 -0.4306  0.5109
 2784SOL    HW119281   1.241   8.576   0.031 -0.5203 -1.9114 -0.5559
 2784SOL    HW219282   1.296   8.553   0.183  2.4195 -0.6575 -1.3981
 2785SOL     OW19283   0.688   3.612   2.520  0.0791 -0.6740  0.9969
 2785SOL    HW119284   0.670   3.537   2.583 -0.6344 -0.2598  1.2887
 2785SOL    HW219285   0.681   3.699   2.568  1.5729 -0.4440  0.8114
 2786SOL     OW19286   5.381   8.842   3.614 -0.0271  0.2203  0.2189
 2786SOL    HW119287   5.364   8.789   3.530  1.0918 -0.3114  0.3125
 2786SOL    HW219288   5.416   8.932   3.590  2.5575 -0.7478  0.1081
 2787SOL     OW19289   4.553   8.325   0.142 -0.2993 -0.9975 -0.4097
 2787SOL    HW119290   4.558   8.304   0.045 -1.3480  1.0993 -0.9485
 2787SOL    HW219291   4.636   8.375   0.170 -0.9258  0.2254 -0.7094
 2788SOL     OW19292   9.160   0.717   1.134 -0.1346  0.2440 -0.2319
 2788SOL    HW119293   9.101   0.662   1.075 -0.5786  0.9774 -0.4770
 2788SOL    HW219294   9.251   0.724   1.093  0.0941 -0.7875  0.0881
 2789SOL     OW19295   9.204   3.896   1.143 -0.1902  0.0599  0.0788
 2789SOL    HW119296   9.269   3.857   1.077  2.4539  0.9795  2.0141
 2789SOL    HW219297   9.204   3.840   1.226 -0.6892  0.9588  0.6921
 2790SOL     OW19298   6.831   1.304   3.682  0.3665 -0.5622  0.1950
 2790SOL    HW119299   6.790   1.389   3.650 -1.4220 -1.7065 -0.6449
 2790SOL    HW219300   6.826   1.301   3.782 -0.1358  0.0314  0.1910
 2791SOL     OW19301   5.917   8.123   1.798  0.0404  0.2038  0.4358
 2791SOL    HW119302   5.854   8.046   1.800  0.9719 -0.5495  0.9622
 2791SOL    HW219303   6.006   8.094   1.831  0.9777  0.9791 -1.3188
 2792SOL     OW19304   7.123   0.264   3.766  0.0427  0.1749 -0.1984
 2792SOL    HW119305   7.117   0.274   3.667 -1.5589 -0.0236 -0.1327
 2792SOL    HW219306   7.050   0.317   3.810  0.5761  0.0540  0.8695
 2793SOL     OW19307   1.966   5.016   1.155  0.5493 -0.2192 -0.6407
 2793SOL    HW119308   1.950   4.923   1.120  1.5545  0.0761 -1.9462
 2793SOL    HW219309   2.064   5.034   1.157  0.4798  0.1012  1.5760
 2794SOL     OW19310   4.258   0.333   5.573 -0.2872  0.2145 -0.0531
 2794SOL    HW119311   4.252   0.372   5.665 -2.2090 -0.1991  0.0133
 2794SOL    HW219312   4.299   0.400   5.511  1.4013  0.3508  1.1738
 2795SOL     OW19313   0.405   1.027   1.492 -0.0605 -0.2779 -0.3906
 2795SOL    HW119314   0.361   0.957   1.436 -0.2157 -1.5582  1.2876
 2795SOL    HW219315   0.345   1.052   1.568  1.8670 -1.7172  1.6622
 2796SOL     OW19316   7.795   0.253   4.903 -0.2831 -0.1802  0.1898
 2796SOL    HW119317   7.713   0.311   4.895 -0.1606  0.0101  0.3174
 2796SOL    HW219318   7.804   0.221   4.997  0.7339  1.1884  0.5624
 2797SOL     OW19319   2.784   2.389   1.008  0.4304 -0.4763  0.0304
 2797SOL    HW119320   2.687   2.409   0.994  0.6391  0.2811 -0.3563
 2797SOL    HW219321   2.822   2.347   0.926  1.4898  3.3467 -1.5626
 2798SOL     OW19322   3.464   2.784   3.144  0.2148 -0.3435  0.2544
 2798SOL    HW119323   3.516   2.869   3.137  0.4746 -0.5869 -0.7675
 2798SOL    HW219324   3.523   2.711   3.179  0.1159 -0.2210  0.6806
 2799SOL     OW19325   8.611   5.973   2.783 -0.2104  0.5277  0.4886
 2799SOL    HW119326   8.692   5.968   2.724 -0.8850  0.6004 -0.4450
 2799SOL    HW219327   8.532   6.001   2.729 -0.7397  1.0541  1.5249
 2800SOL     OW19328   2.971   0.059   1.976  0.1123 -0.6141  0.4451
 2800SOL    HW119329   2.923  -0.028   1.966  0.3286 -0.7269  0.3915
 2800SOL    HW219330   3.055   0.045   2.029  0.5669 -0.5866 -0.2722
 2801SOL     OW19331   4.234   1.325   1.282 -0.1772  0.6599  0.2820
 2801SOL    HW119332   4.287   1.243   1.260 -0.3733  0.2465  1.3119
 2801SOL    HW219333   4.191   1.360   1.199 -0.6465 -0.6745 -0.0578
 2802SOL     OW19334   6.128   9.726   2.858 -0.3605  0.2351  0.4960
 2802SOL    HW119335   6.104   9.660   2.787  1.2218  1.3699 -1.1500
 2802SOL    HW219336   6.228   9.731   2.866 -0.4961  1.3658  1.6168
 2803SOL     OW19337   1.194   7.766   3.840  0.1336 -0.1321 -0.0327
 2803SOL    HW119338   1.277   7.820   3.824 -1.1077  2.1313  0.8417
 2803SOL    HW219339   1.117   7.810   3.793 -0.5877 -2.1807 -0.7917
 2804SOL     OW19340   2.629   5.455   3.491 -0.7655  0.0386  0.1008
 2804SOL    HW119341   2.662   5.502   3.573  0.5111  0.5174 -0.6758
 2804SOL    HW219342   2.620   5.357   3.511  0.6724 -0.0320  0.4849
 2805SOL     OW19343   2.621   4.159   3.937  0.6289 -0.4347  0.4734
 2805SOL    HW119344   2.556   4.225   3.977  0.7913 -0.5791  0.9848
 2805SOL    HW219345   2.654   4.098   4.009  0.8792 -0.7423  0.0981
 2806SOL     OW19346   1.590   9.763   3.627  0.0086  0.1990  0.0829
 2806SOL    HW119347   1.634   9.678   3.655 -1.2705 -0.5816 -0.2573
 2806SOL    HW219348   1.494   9.762   3.655 -0.7271  0.3496 -2.3401
 2807SOL     OW19349   2.747   4.560   4.520  0.1993 -0.1229 -0.0178
 2807SOL    HW119350   2.692   4.478   4.531 -0.8573  0.5631 -0.1133
 2807SOL    HW219351   2.818   4.543   4.452 -0.5670 -0.6868 -0.6958
 2808SOL     OW19352   0.143   2.489   3.991  0.5481 -0.1855 -0.5072
 2808SOL    HW119353   0.130   2.563   3.925 -0.1516  1.6007  1.6059
 2808SOL    HW219354   0.231   2.500   4.037 -0.5891  0.7033  1.4953
 2809SOL     OW19355   0.757   4.137   3.143  0.3132 -0.2184 -0.2442
 2809SOL    HW119356   0.663   4.171   3.141  0.1130 -0.8068 -0.9537
 2809SOL    HW219357   0.811   4.185   3.073  0.5885  0.2415  0.2770
 2810SOL     OW19358   1.728   7.601   4.462  0.0552 -0.2951 -0.3260
 2810SOL    HW119359   1.720   7.556   4.373 -0.7665 -1.2598  0.2294
 2810SOL    HW219360   1.680   7.689   4.459  0.7183  0.0532 -1.0715
 2811SOL     OW19361   4.689   8.103   1.029 -0.1886  0.0335 -0.1232
 2811SOL    HW119362   4.694   8.201   1.045  1.0955  0.1692 -1.2689
 2811SOL    HW219363   4.704   8.054   1.116 -1.8569  0.8424  0.6338
 2812SOL     OW19364   5.064   0.290   2.530 -0.4566 -0.3095  0.2014
 2812SOL    HW119365   4.987   0.352   2.518 -1.0080 -1.1931 -0.9188
 2812SOL    HW219366   5.148   0.335   2.500 -0.7266  0.1677  0.1557
 2813SOL     OW19367   0.283   8.452   3.408 -0.0984 -0.2114  0.0292
 2813SOL    HW119368   0.313   8.389   3.336  0.1466 -0.2640  0.1792
 2813SOL    HW219369   0.249   8.400   3.486 -1.4380 -0.1600 -0.4931
 2814SOL     OW19370   2.048   2.462   1.820  0.1731 -0.3046 -0.2248
 2814SOL    HW119371   2.062   2.387   1.756 -0.8229 -0.0396 -0.7500
 2814SOL    HW219372   1.995   2.430   1.899  0.6628 -0.4156  0.0617
 2815SOL     OW19373   3.346   8.618   2.083  0.0364 -0.0703 -0.6675
 2815SOL    HW119374   3.431   8.566   2.081 -0.1131 -0.2917 -1.5303
 2815SOL    HW219375   3.366   8.715   2.097  0.4875 -0.0275 -1.5608
 2816SOL     OW19376   0.857   4.189   1.057  0.1574 -0.3109  0.2635
 2816SOL    HW119377   0.862   4.109   0.996  1.4950 -0.6804  0.8409
 2816SOL    HW219378   0.885   4.163   1.149 -0.4746  0.5836  0.7174
 2817SOL     OW19379   7.759   9.196   1.407 -0.5260 -0.6072 -0.6264
 2817SOL    HW119380   7.788   9.163   1.317  0.5420 -0.5691 -0.3023
 2817SOL    HW219381   7.665   9.227   1.401  0.4791  2.3753 -2.5576
 2818SOL     OW19382   4.315   9.419   2.941  0.5823 -0.5631 -0.0695
 2818SOL    HW119383   4.223   9.444   2.909  0.6737  0.1955  0.2592
 2818SOL    HW219384   4.380   9.491   2.917  1.7252 -2.4995 -3.1394
 2819SOL     OW19385   8.422   2.913   1.416 -0.1241  0.0251 -0.2820
 2819SOL    HW119386   8.328   2.907   1.448 -0.7073  3.5510 -1.0969
 2819SOL    HW219387   8.483   2.932   1.493 -0.0770 -1.9207  0.1926
 2820SOL     OW19388   9.580   3.274   3.363  1.0474  0.3134 -0.1300
 2820SOL    HW119389   9.625   3.360   3.388  1.3809  0.8552 -2.4633
 2820SOL    HW219390   9.525   3.289   3.281  2.2419 -2.0282 -1.3876
 2821SOL     OW19391   7.969   3.474   3.817  0.6158  0.4248  0.6231
 2821SOL    HW119392   8.017   3.439   3.897 -0.6594  0.6364  1.4904
 2821SOL    HW219393   7.972   3.574   3.818  2.7671  0.4304 -0.9442
 2822SOL     OW19394   9.098   7.995   4.068  0.1199  0.2107  0.1863
 2822SOL    HW119395   9.069   8.043   3.986  0.4270 -0.1589 -0.1393
 2822SOL    HW219396   9.058   7.903   4.069 -1.5723  0.9393  1.4779
 2823SOL     OW19397   0.187   8.896   2.320  0.1978  0.0587 -0.4550
 2823SOL    HW119398   0.125   8.831   2.365  0.0290  0.0557 -0.6902
 2823SOL    HW219399   0.220   8.961   2.387 -0.9547  0.7564 -0.5392
 2824SOL     OW19400   0.542   6.920   5.514 -0.0734  0.5950 -0.1153
 2824SOL    HW119401   0.608   6.873   5.573  0.2015  0.5357 -0.4707
 2824SOL    HW219402   0.516   6.860   5.438 -0.7681  0.5046  0.1905
 2825SOL     OW19403   2.517   7.140   4.659 -0.7350  0.0351 -0.1605
 2825SOL    HW119404   2.560   7.182   4.579 -3.4653  0.2938 -1.5609
 2825SOL    HW219405   2.560   7.052   4.678 -0.2520 -0.1570 -2.0968
 2826SOL     OW19406   6.345   7.853   2.871 -0.5106 -0.2372 -0.8577
 2826SOL    HW119407   6.360   7.855   2.772 -1.8981  1.1132 -1.0596
 2826SOL    HW219408   6.256   7.893   2.892 -0.2436 -0.5481  0.9439
 2827SOL     OW19409   6.247   7.400   4.248 -0.6752 -0.3274  1.0830
 2827SOL    HW119410   6.190   7.444   4.317  0.9801  1.6973  1.1991
 2827SOL    HW219411   6.191   7.338   4.193 -2.9480  1.5206  1.2568
 2828SOL     OW19412   2.072   7.820   3.260 -0.2365  0.4673  0.0204
 2828SOL    HW119413   1.978   7.832   3.294 -0.5022  1.7475 -1.1588
 2828SOL    HW219414   2.109   7.908   3.230  0.8461 -0.2624 -0.8290
 2829SOL     OW19415   3.230   2.693   3.075  0.1317 -0.2013  0.3565
 2829SOL    HW119416   3.177   2.754   3.017 -0.2755  0.1965  1.1291
 2829SOL    HW219417   3.325   2.724   3.080 -0.0181  0.2295  0.5436
 2830SOL     OW19418   4.297   4.274   1.197 -0.7657 -0.1110  0.6914
 2830SOL    HW119419   4.373   4.214   1.172  0.5252  0.9577  1.9878
 2830SOL    HW219420   4.237   4.227   1.262 -0.2073 -0.2919  1.0765
 2831SOL     OW19421   9.983   6.134   3.287  0.2466  0.0606 -0.4002
 2831SOL    HW119422  10.038   6.157   3.207 -0.7829 -0.6368 -1.3327
 2831SOL    HW219423  10.033   6.156   3.370  0.8932  1.8807 -1.2338
 2832SOL     OW19424   4.060   0.637   0.381  0.2618  0.1165  0.3650
 2832SOL    HW119425   4.022   0.717   0.333 -1.6692 -0.1937  1.3322
 2832SOL    HW219426   3.989   0.594   0.436  1.2692 -2.3481 -0.1969
 2833SOL     OW19427   8.066   4.095   4.875  0.3286 -0.1774  0.0250
 2833SOL    HW119428   8.002   4.170   4.890  0.4326  0.3860 -2.1479
 2833SOL    HW219429   8.040   4.017   4.932 -2.6491 -0.1729 -1.2217
 2834SOL     OW19430   2.831   9.945   0.739  0.2269 -0.2421  0.3232
 2834SOL    HW119431   2.901  10.000   0.785 -2.3033  2.8079  0.6645
 2834SOL    HW219432   2.837   9.960   0.640  1.3751 -1.6655  0.1485
 2835SOL     OW19433   8.282   9.631   2.968 -0.3543  0.2231 -0.1721
 2835SOL    HW119434   8.213   9.634   3.040 -0.0692  2.4607  0.0578
 2835SOL    HW219435   8.373   9.639   3.008 -0.1407  0.5059 -0.7016
 2836SOL     OW19436   4.241   2.037   2.193 -0.0213 -0.1430 -0.2781
 2836SOL    HW119437   4.198   2.069   2.109 -1.5643 -1.2540  0.0666
 2836SOL    HW219438   4.210   2.093   2.270 -0.0828 -0.3057 -0.1825
 2837SOL     OW19439   0.119   2.771   1.435 -0.2603 -0.1978  0.0089
 2837SOL    HW119440   0.022   2.781   1.411 -0.2791 -0.1724  0.0940
 2837SOL    HW219441   0.152   2.857   1.474  0.1682  0.2525 -1.3128
 2838SOL     OW19442   0.460   2.327   5.416 -0.2324  0.4589  0.1297
 2838SOL    HW119443   0.554   2.354   5.436 -0.5827  0.2687  2.1256
 2838SOL    HW219444   0.424   2.385   5.342  0.4351  2.6132  1.4461
 2839SOL     OW19445   1.656   4.088   3.159 -0.2523 -0.1822  0.8236
 2839SOL    HW119446   1.753   4.070   3.175 -0.2589 -0.5709  0.4248
 2839SOL    HW219447   1.632   4.064   3.065 -0.2228  2.1236  0.1996
 2840SOL     OW19448   7.920   4.238   2.164 -0.0430  0.1401 -0.3135
 2840SOL    HW119449   7.859   4.269   2.091 -0.9373 -0.9252 -0.0421
 2840SOL    HW219450   8.014   4.232   2.130 -0.2550  0.8026 -1.0289
 2841SOL     OW19451   7.668   2.705   3.051 -0.0063  0.2989  0.3420
 2841SOL    HW119452   7.607   2.626   3.045 -1.5476  1.3793  1.4776
 2841SOL    HW219453   7.614   2.789   3.062  1.6161  1.4799 -0.4084
 2842SOL     OW19454   6.873   4.259   5.350 -0.2045  0.4323 -0.2241
 2842SOL    HW119455   6.930   4.180   5.326  0.7845  1.2889 -0.7486
 2842SOL    HW219456   6.924   4.320   5.411 -0.9139  0.7221  0.0863
 2843SOL     OW19457   0.424   8.962   0.093 -0.3002  0.0203  0.0653
 2843SOL    HW119458   0.418   8.887   0.028 -2.5188  0.6099 -0.4773
 2843SOL    HW219459   0.402   8.929   0.185  0.1418 -0.2710  0.0660
 2844SOL     OW19460   0.084   8.709   5.222 -0.1104  0.4101  0.4786
 2844SOL    HW119461   0.163   8.737   5.278  0.0066 -1.5924  1.3648
 2844SOL    HW219462   0.113   8.697   5.127 -0.2743  3.6992 -0.0369
 2845SOL     OW19463   2.694   8.414   0.401  0.0699  0.2821  0.0992
 2845SOL    HW119464   2.595   8.417   0.415  0.4451  1.5079  2.9041
 2845SOL    HW219465   2.716   8.439   0.307 -2.3525 -1.5157 -1.0009
 2846SOL     OW19466   2.127   6.484   2.467  0.1965  0.1132  0.1654
 2846SOL    HW119467   2.149   6.529   2.381 -1.6887 -1.7241 -1.3538
 2846SOL    HW219468   2.091   6.392   2.448 -1.0360 -0.0220  2.8664
 2847SOL     OW19469   5.317   9.476   3.435 -1.0818  0.1060 -0.3421
 2847SOL    HW119470   5.234   9.460   3.381 -0.4634 -2.2884 -0.6028
 2847SOL    HW219471   5.315   9.418   3.517  0.7312 -0.5966 -0.7840
 2848SOL     OW19472   0.596   0.802   1.126 -0.1733  0.4200  0.1785
 2848SOL    HW119473   0.644   0.826   1.042 -1.5337  2.0161 -0.1542
 2848SOL    HW219474   0.657   0.747   1.184  0.9608 -0.2527 -1.5905
 2849SOL     OW19475   3.934   3.901   4.305  0.1083  0.0792 -0.0375
 2849SOL    HW119476   3.957   3.929   4.398 -4.0760  1.9211  0.5658
 2849SOL    HW219477   3.893   3.810   4.307 -3.1630  1.4737  0.5056
 2850SOL     OW19478   3.466   8.103   5.623  0.8120 -0.1291  0.4995
 2850SOL    HW119479   3.461   8.135   5.528  0.0874 -1.5207  0.0552
 2850SOL    HW219480   3.459   8.181   5.685 -2.2312  0.4679 -0.5150
 2851SOL     OW19481   0.358   9.187   0.647 -0.5318  0.1712  0.1695
 2851SOL    HW119482   0.348   9.101   0.697 -1.5212  0.7329  0.9465
 2851SOL    HW219483   0.451   9.221   0.659  0.0038 -1.0146 -0.5147
 2852SOL     OW19484   9.707   0.538   1.529 -0.4978 -0.1001  0.6232
 2852SOL    HW119485   9.630   0.539   1.465 -0.0156  0.4878  0.0466
 2852SOL    HW219486   9.679   0.495   1.615 -0.7912 -2.0987 -0.4370
 2853SOL     OW19487   9.327   5.891   1.791  0.2511 -0.6118 -0.2370
 2853SOL    HW119488   9.409   5.937   1.825 -0.6773  0.5417  0.5271
 2853SOL    HW219489   9.305   5.924   1.699  0.3512 -0.5366 -0.2336
 2854SOL     OW19490   0.845   6.211   0.460  0.5631  0.4526  0.4270
 2854SOL    HW119491   0.865   6.232   0.556 -1.0020  0.1281  0.8542
 2854SOL    HW219492   0.777   6.276   0.426  2.2162  1.5087 -0.9446
 2855SOL     OW19493   1.641   1.442   1.144  0.0888  0.0407 -0.0468
 2855SOL    HW119494   1.559   1.407   1.190  0.3646 -1.3578 -0.5902
 2855SOL    HW219495   1.654   1.538   1.167 -2.6467  0.7433 -1.2664
 2856SOL     OW19496   7.607   7.385   2.696  0.7753 -0.2397  0.4901
 2856SOL    HW119497   7.560   7.429   2.773  0.5927  0.2750  0.0875
 2856SOL    HW219498   7.540   7.359   2.626  0.9694 -0.4873  0.3927
 2857SOL     OW19499   3.641   3.824   2.998 -0.3176  0.2045 -0.1172
 2857SOL    HW119500   3.663   3.738   3.043  0.3745  0.1875 -0.4828
 2857SOL    HW219501   3.645   3.898   3.064 -0.8417 -0.0306  0.1813
 2858SOL     OW19502   0.118   7.459   1.676 -0.5211  0.2281 -0.7644
 2858SOL    HW119503   0.207   7.503   1.685 -0.4120 -0.1924  0.3094
 2858SOL    HW219504   0.095   7.449   1.579  1.0263 -0.4950 -1.0739
 2859SOL     OW19505   7.146   2.157   3.269 -0.5134 -0.1625  0.5603
 2859SOL    HW119506   7.219   2.217   3.302 -1.4690 -0.8081  4.0956
 2859SOL    HW219507   7.068   2.212   3.239 -0.0397  0.4405  0.4351
 2860SOL     OW19508   7.934   4.993   4.432 -0.0136 -0.6195 -0.0921
 2860SOL    HW119509   8.021   5.038   4.453  0.4269  0.2688 -3.5952
 2860SOL    HW219510   7.862   5.030   4.491  1.3823  0.7314  0.8037
 2861SOL     OW19511   0.731   3.870   3.506 -0.1762  0.4531 -0.1679
 2861SOL    HW119512   0.821   3.887   3.546 -0.0784 -0.6011  0.0543
 2861SOL    HW219513   0.660   3.897   3.571 -0.0176 -0.2829  0.3186
 2862SOL     OW19514   0.641   2.635   5.304 -0.0139 -0.0645  0.4965
 2862SOL    HW119515   0.654   2.721   5.355  1.5841 -0.5159  0.8864
 2862SOL    HW219516   0.625   2.656   5.207  1.9542  0.6384  0.3024
 2863SOL     OW19517   2.919   5.807   0.133  0.0808 -0.5227  0.4740
 2863SOL    HW119518   2.839   5.789   0.075  1.0888 -0.0646 -1.0772
 2863SOL    HW219519   2.919   5.903   0.161  1.4525  0.1285 -1.6680
 2864SOL     OW19520   8.143   6.579   3.936 -0.5131 -0.0505 -0.4860
 2864SOL    HW119521   8.103   6.625   4.016  0.7639 -0.2442  0.2844
 2864SOL    HW219522   8.241   6.565   3.952 -1.0212 -3.8568 -0.3125
 2865SOL     OW19523   2.693   2.605   3.220 -0.0790  0.3733 -0.0238
 2865SOL    HW119524   2.664   2.658   3.300 -1.2968 -1.4000  0.7314
 2865SOL    HW219525   2.784   2.635   3.192  0.2037  1.2866  1.7877
 2866SOL     OW19526   1.213   1.461   0.143  0.0359 -0.8643  0.3410
 2866SOL    HW119527   1.119   1.493   0.128 -0.0021 -0.9372  0.4206
 2866SOL    HW219528   1.275   1.539   0.142 -0.2005 -0.6468  1.6588
 2867SOL     OW19529   4.607   8.612   2.370 -0.0327  0.3213 -0.0185
 2867SOL    HW119530   4.642   8.612   2.276 -1.1830 -0.5404 -0.4552
 2867SOL    HW219531   4.507   8.619   2.368 -0.2136 -1.8330  1.0795
 2868SOL     OW19532   8.995   4.617   2.032 -0.0430 -0.1611 -0.0209
 2868SOL    HW119533   9.043   4.704   2.023  0.8482 -0.5163  1.2566
 2868SOL    HW219534   9.044   4.557   2.096 -2.0709 -0.5984  1.1757
 2869SOL     OW19535   8.969   9.677   4.808  0.2269 -0.3103 -0.5210
 2869SOL    HW119536   9.039   9.619   4.850  0.2020  0.8655  1.1869
 2869SOL    HW219537   8.998   9.702   4.715  1.7969 -0.3185 -0.0566
 2870SOL     OW19538   0.314   8.246   4.208  0.2324 -0.3845 -0.1537
 2870SOL    HW119539   0.257   8.164   4.217  0.8677 -0.9302 -0.9164
 2870SOL    HW219540   0.408   8.218   4.190  0.4993  0.5211 -0.1766
 2871SOL     OW19541   8.558   3.042   1.618 -0.2224  0.0809 -0.8598
 2871SOL    HW119542   8.532   3.016   1.712 -0.1123  2.3356 -0.1713
 2871SOL    HW219543   8.657   3.055   1.613 -0.3326  0.8398 -1.0649
 2872SOL     OW19544   4.214   2.823   2.234  0.6624  0.5702 -0.2497
 2872SOL    HW119545   4.305   2.821   2.276  1.0709 -0.0017 -1.1276
 2872SOL    HW219546   4.201   2.740   2.179 -0.2958  0.7670 -0.3317
 2873SOL     OW19547   8.271   9.536   0.693 -0.1247 -0.1721 -0.0360
 2873SOL    HW119548   8.351   9.527   0.633  0.3359  1.6236  0.2752
 2873SOL    HW219549   8.246   9.446   0.728  1.6488 -0.8014 -0.3049
 2874SOL     OW19550   7.643   7.932   4.386  0.3557  0.6373 -0.4944
 2874SOL    HW119551   7.595   7.852   4.420 -1.2162  2.3727  1.5124
 2874SOL    HW219552   7.581   7.988   4.332  1.0659  1.1986 -0.7420
 2875SOL     OW19553   1.969   7.846   4.328  0.1467 -0.0606  0.6101
 2875SOL    HW119554   1.935   7.845   4.422  4.6634 -3.7753  2.3924
 2875SOL    HW219555   2.015   7.933   4.310 -1.4403  0.9967  1.4846
 2876SOL     OW19556   2.025   6.080   2.655  0.1755  0.3755 -0.5415
 2876SOL    HW119557   1.949   6.015   2.654 -0.3462  0.9345  0.7508
 2876SOL    HW219558   2.110   6.031   2.677  0.1129 -0.1697 -1.4984
 2877SOL     OW19559   8.697   0.734   5.262  0.2787 -0.4302  0.1450
 2877SOL    HW119560   8.655   0.750   5.173 -0.4633  1.0947  0.7401
 2877SOL    HW219561   8.662   0.650   5.302 -0.0464 -0.6584 -0.6266
 2878SOL     OW19562   5.652   0.402   4.430  0.5023  0.0633  0.1069
 2878SOL    HW119563   5.553   0.401   4.415  0.6589 -0.0934 -0.9633
 2878SOL    HW219564   5.696   0.450   4.354  1.1782  0.9359  1.0304
 2879SOL     OW19565   7.405   4.443   0.048 -0.1191  0.0315  0.3353
 2879SOL    HW119566   7.433   4.410  -0.043 -0.8509  1.2620 -0.3572
 2879SOL    HW219567   7.372   4.367   0.103  0.0014 -0.6739 -0.5614
 2880SOL     OW19568   2.394   9.993   2.351 -0.4198 -0.5733 -0.4255
 2880SOL    HW119569   2.425   9.951   2.265 -2.3625 -0.7354 -1.0618
 2880SOL    HW219570   2.312   9.946   2.383  0.0108 -0.1811  1.2740
 2881SOL     OW19571   8.194   7.051   1.594 -0.1771 -0.5776 -0.0039
 2881SOL    HW119572   8.254   6.987   1.546 -0.2852 -1.2822  0.7761
 2881SOL    HW219573   8.232   7.070   1.685 -1.5655 -1.7217  0.8430
 2882SOL     OW19574   9.399   3.553   2.202 -0.2455  0.1152  0.4140
 2882SOL    HW119575   9.483   3.500   2.193  0.5426  1.3105  0.7284
 2882SOL    HW219576   9.374   3.560   2.299  0.4820  1.5962  0.5042
 2883SOL     OW19577   2.938   4.801   3.640  0.6791 -0.3177  0.3738
 2883SOL    HW119578   2.989   4.811   3.725  1.2316 -0.2044  0.0308
 2883SOL    HW219579   2.883   4.883   3.625 -0.8696 -1.1202  1.5712
 2884SOL     OW19580   4.139   8.304   4.628  0.1158  0.4693  0.6832
 2884SOL    HW119581   4.219   8.363   4.631  0.8149 -0.3885 -0.6625
 2884SOL    HW219582   4.070   8.343   4.568 -0.2972  0.9680  1.4690
 2885SOL     OW19583   1.972   8.914   4.346  0.2226  0.0628 -0.0045
 2885SOL    HW119584   1.899   8.939   4.282 -1.2216 -1.3690  1.0551
 2885SOL    HW219585   1.933   8.871   4.427  2.2389 -0.5321  0.6964
 2886SOL     OW19586   5.876   7.308   4.250 -0.7191  0.2838 -0.1730
 2886SOL    HW119587   5.950   7.257   4.206 -1.5736  0.1411 -1.4578
 2886SOL    HW219588   5.798   7.312   4.189 -2.7855 -1.9080  2.1925
 2887SOL     OW19589   9.276   9.014   5.201  0.2600 -0.1831  0.1313
 2887SOL    HW119590   9.335   8.942   5.168 -0.2340 -0.5436  0.0291
 2887SOL    HW219591   9.254   8.999   5.297  0.0066 -0.2721  0.0610
 2888SOL     OW19592   5.527   8.063   2.770  0.0950 -0.8075 -0.2467
 2888SOL    HW119593   5.473   8.001   2.826  2.1769 -1.5849  0.9903
 2888SOL    HW219594   5.547   8.020   2.682  1.0406 -1.7066  0.3846
 2889SOL     OW19595   3.879   0.814   3.613 -0.6997  0.4783  0.0549
 2889SOL    HW119596   3.889   0.731   3.559 -0.1469 -0.2990  1.3572
 2889SOL    HW219597   3.907   0.893   3.558 -1.7715 -0.1135 -1.3755
 2890SOL     OW19598   1.994   0.243   2.209 -0.1741 -0.3412  0.7542
 2890SOL    HW119599   1.989   0.184   2.290 -0.6569 -1.2049  0.1047
 2890SOL    HW219600   1.903   0.252   2.168  0.0571  0.1300  0.3356
 2891SOL     OW19601   7.264   0.110   3.940  0.1886 -0.5307  0.3725
 2891SOL    HW119602   7.241   0.172   3.865 -0.2171  0.3342  1.1935
 2891SOL    HW219603   7.181   0.082   3.987  0.6150  1.2142  2.2615
 2892SOL     OW19604   2.776   8.768   4.293 -0.2831  0.4251  0.4317
 2892SOL    HW119605   2.780   8.671   4.319 -2.2184 -0.4375 -2.3181
 2892SOL    HW219606   2.682   8.800   4.298 -0.2426  1.0767 -2.3334
 2893SOL     OW19607   2.235   7.835   4.510 -0.4482  0.3905 -0.8226
 2893SOL    HW119608   2.203   7.916   4.559 -1.7708 -0.2499 -0.5945
 2893SOL    HW219609   2.329   7.814   4.537 -1.1604  0.0494  1.4587
 2894SOL     OW19610   8.479   4.513   3.041 -0.1120 -0.3159 -0.1537
 2894SOL    HW119611   8.431   4.492   2.956  2.0003 -1.3778 -1.1152
 2894SOL    HW219612   8.455   4.445   3.111  0.5064 -1.2719 -0.8501
 2895SOL     OW19613   6.291   9.944   3.785 -0.1690  0.0178 -0.0660
 2895SOL    HW119614   6.196   9.970   3.770 -0.4958 -0.9209  0.3467
 2895SOL    HW219615   6.346   9.971   3.705 -0.1964  3.2989  0.9575
 2896SOL     OW19616   2.855   7.605   4.786 -0.1093  0.1538 -0.0325
 2896SOL    HW119617   2.756   7.596   4.776 -0.1011 -1.1217  0.8428
 2896SOL    HW219618   2.897   7.620   4.697 -1.3341  3.4160 -0.1019
 2897SOL     OW19619   2.050   5.061   3.075 -0.0222  0.3775 -0.0724
 2897SOL    HW119620   1.952   5.048   3.089 -0.0942  0.6364 -0.3276
 2897SOL    HW219621   2.088   5.113   3.151 -0.1650  0.6514 -0.1889
 2898SOL     OW19622   9.878   3.080   2.474  0.0252 -0.4969 -0.0535
 2898SOL    HW119623   9.914   3.160   2.427 -1.2420 -0.0798 -0.3280
 2898SOL    HW219624   9.857   3.008   2.408 -0.1058 -0.5548  0.0487
 2899SOL     OW19625   0.264   3.420   3.148 -0.1765 -0.1980 -0.4775
 2899SOL    HW119626   0.188   3.430   3.212 -0.0408 -1.8792 -0.0341
 2899SOL    HW219627   0.234   3.447   3.057 -0.4139  2.0921  0.2461
 2900SOL     OW19628   9.403   6.140   5.159 -0.2426  0.1500  0.1273
 2900SOL    HW119629   9.444   6.153   5.069  0.3630 -2.3612  0.0063
 2900SOL    HW219630   9.472   6.155   5.229 -0.1939  0.0487  0.1008
 2901SOL     OW19631   9.257   7.447   1.364  0.2963 -0.4553  0.1726
 2901SOL    HW119632   9.159   7.454   1.386 -0.1225  1.0552 -1.9388
 2901SOL    HW219633   9.311   7.482   1.440 -0.9810  2.0347 -0.0023
 2902SOL     OW19634   8.703   5.378   3.788  0.0677 -0.5962  0.4814
 2902SOL    HW119635   8.735   5.469   3.762 -0.1265 -0.3243  1.1624
 2902SOL    HW219636   8.620   5.387   3.843 -1.2481 -1.2956 -1.3431
 2903SOL     OW19637   8.198   0.859   1.523  0.4731 -0.3110  0.4991
 2903SOL    HW119638   8.288   0.857   1.566  0.7125 -0.0069  0.0170
 2903SOL    HW219639   8.127   0.853   1.593  0.8571  0.1458  0.9306
 2904SOL     OW19640   2.877   4.600   3.410  0.5778  0.2456 -0.3121
 2904SOL    HW119641   2.903   4.694   3.389  2.0769 -0.2434 -0.6725
 2904SOL    HW219642   2.832   4.598   3.500  1.7241  1.1239  0.2990
 2905SOL     OW19643   9.243   7.216   3.656  0.1347  0.0334 -0.0973
 2905SOL    HW119644   9.219   7.270   3.737  0.2989  0.5960 -0.4192
 2905SOL    HW219645   9.292   7.134   3.684  0.5210  0.4105  0.3529
 2906SOL     OW19646   2.340   1.680   2.349  0.0906  0.3946  0.5075
 2906SOL    HW119647   2.369   1.772   2.321 -0.5183  0.1966 -0.8013
 2906SOL    HW219648   2.373   1.662   2.442  0.4534  1.8276  0.6742
 2907SOL     OW19649   8.190   5.963   0.496  0.5909 -0.2187 -0.0546
 2907SOL    HW119650   8.130   6.041   0.516  1.4697  0.6637 -0.7525
 2907SOL    HW219651   8.274   5.971   0.549  0.5145 -0.9034  0.1675
 2908SOL     OW19652   2.011   7.066   0.901  0.7532  0.5491 -0.0155
 2908SOL    HW119653   2.102   7.047   0.864  0.7984  1.2885 -0.2964
 2908SOL    HW219654   2.017   7.140   0.967  0.3254  0.7151 -0.1628
 2909SOL     OW19655   5.246   8.551   3.179  0.1597 -0.2737 -0.5153
 2909SOL    HW119656   5.268   8.628   3.240  0.1146 -0.7352  0.0923
 2909SOL    HW219657   5.220   8.586   3.089  0.6884  0.3948 -0.4079
 2910SOL     OW19658   0.469   7.837   0.553  0.4450 -0.0882 -0.0385
 2910SOL    HW119659   0.445   7.745   0.522 -0.4577  0.0799  0.1605
 2910SOL    HW219660   0.386   7.888   0.577  0.9884  0.4806  0.6942
 2911SOL     OW19661   3.408   2.485   4.598 -0.1702 -0.2833 -0.2432
 2911SOL    HW119662   3.391   2.500   4.501  0.5775 -0.0868 -0.3516
 2911SOL    HW219663   3.463   2.402   4.609 -0.8680 -0.7009  0.0611
 2912SOL     OW19664   2.471   2.813   1.340  0.2647 -0.3197 -0.5131
 2912SOL    HW119665   2.566   2.783   1.332  0.7911  1.0598  0.3589
 2912SOL    HW219666   2.467   2.896   1.395 -1.3250  0.3547 -1.6146
 2913SOL     OW19667   4.147   8.042   4.493 -0.3080 -0.0231 -0.3085
 2913SOL    HW119668   4.124   8.107   4.566 -1.8728 -1.3451  0.4150
 2913SOL    HW219669   4.164   7.952   4.533  0.8403 -0.3078 -1.4047
 2914SOL     OW19670   3.983   3.340   4.232  0.1169  0.2684  0.3409
 2914SOL    HW119671   3.966   3.329   4.329  1.7542 -2.2451  0.3611
 2914SOL    HW219672   4.040   3.266   4.198 -2.3679 -0.2678 -3.0413
 2915SOL     OW19673   3.046   2.852   2.905  0.2648  0.5147 -0.8568
 2915SOL    HW119674   3.061   2.760   2.869 -0.5872  0.3802 -0.8893
 2915SOL    HW219675   2.958   2.886   2.872 -0.4789  0.4298  0.9807
 2916SOL     OW19676   5.569   0.331   2.202  0.1052  0.6212 -0.6562
 2916SOL    HW119677   5.622   0.260   2.249 -0.4226  1.2870  1.0058
 2916SOL    HW219678   5.630   0.387   2.147  0.9341  0.5202  0.1403
 2917SOL     OW19679   4.365   5.821   1.837  0.8483 -0.3972 -0.2865
 2917SOL    HW119680   4.353   5.732   1.793 -1.2764 -1.0604  1.4865
 2917SOL    HW219681   4.360   5.810   1.937  0.8754  1.6570 -0.0276
 2918SOL     OW19682   9.655   5.592   2.842  0.0357 -0.0797 -0.5052
 2918SOL    HW119683   9.627   5.687   2.825 -0.9976 -0.4701 -1.0286
 2918SOL    HW219684   9.609   5.532   2.777  0.0170 -1.0405  0.3872
 2919SOL     OW19685   9.852   4.324   1.790  0.5442  0.0644  0.0574
 2919SOL    HW119686   9.792   4.287   1.861  0.6802  1.5928  0.9991
 2919SOL    HW219687   9.933   4.366   1.832  1.0365  0.2564 -1.0442
 2920SOL     OW19688   4.429   7.407   3.178 -0.4306 -0.0301  0.2713
 2920SOL    HW119689   4.342   7.448   3.208  0.4136  1.6834  0.4163
 2920SOL    HW219690   4.496   7.415   3.252  0.5636  0.8464 -0.7106
 2921SOL     OW19691   3.878   5.004   5.072  0.0129  0.2460  0.0700
 2921SOL    HW119692   3.863   4.909   5.100 -0.1867  0.2842  0.0912
 2921SOL    HW219693   3.917   5.056   5.148 -2.4231  0.8488  0.9474
 2922SOL     OW19694   9.740   5.091   3.308 -0.0054 -0.0800 -0.4643
 2922SOL    HW119695   9.721   4.994   3.318 -0.4610 -0.2982 -3.0995
 2922SOL    HW219696   9.828   5.113   3.350 -0.4613 -1.3755  1.2033
 2923SOL     OW19697   9.078   4.685   5.418 -0.4621 -0.9263  0.0751
 2923SOL    HW119698   9.144   4.657   5.488  0.3507  0.2613 -0.1947
 2923SOL    HW219699   9.110   4.655   5.328 -1.2254 -1.9685  0.1536
 2924SOL     OW19700   9.507   2.714   2.145 -0.4605 -0.7602  0.3216
 2924SOL    HW119701   9.521   2.721   2.046  2.4414 -1.6986  0.5873
 2924SOL    HW219702   9.504   2.805   2.185  2.6433 -0.3852 -0.1728
 2925SOL     OW19703   8.958   7.797   2.488  0.3714  0.0704  0.2429
 2925SOL    HW119704   8.966   7.885   2.536  2.8663  0.5688 -0.9818
 2925SOL    HW219705   8.931   7.814   2.393  0.2903 -0.5418  0.1585
 2926SOL     OW19706   9.588   4.505   0.999  0.6450 -0.1310 -0.1848
 2926SOL    HW119707   9.663   4.458   1.046 -0.1731 -0.0329  1.2654
 2926SOL    HW219708   9.502   4.458   1.019  0.0717  0.8726 -0.2670
 2927SOL     OW19709   1.216   4.435   0.964  0.6560  0.2759 -0.0289
 2927SOL    HW119710   1.307   4.441   0.923 -0.4188 -2.9831 -3.1721
 2927SOL    HW219711   1.224   4.397   1.057  2.4858 -0.5679 -0.5076
 2928SOL     OW19712   1.810   3.214   2.298  0.8993  0.2256  0.7092
 2928SOL    HW119713   1.770   3.155   2.227  0.0514 -0.0805  1.4189
 2928SOL    HW219714   1.902   3.182   2.319  1.5317  0.9337 -0.9539
 2929SOL     OW19715   4.159   2.519   4.911 -0.2492 -0.0956  0.4899
 2929SOL    HW119716   4.127   2.611   4.890  3.2853  1.1820  0.3792
 2929SOL    HW219717   4.203   2.519   5.001 -1.5931 -2.0491  1.1799
 2930SOL     OW19718   8.358   6.377   5.436 -0.3943  0.5296  0.2227
 2930SOL    HW119719   8.344   6.476   5.433  0.0771  0.5703 -1.3393
 2930SOL    HW219720   8.455   6.357   5.449 -0.2135  0.3040 -1.3011
 2931SOL     OW19721   1.423   1.400   2.618 -0.1757 -0.1302  0.7805
 2931SOL    HW119722   1.327   1.385   2.592 -0.9196  2.0527  2.1262
 2931SOL    HW219723   1.435   1.378   2.715  1.0772 -1.9913  0.2121
 2932SOL     OW19724   1.124   1.896   3.329 -0.3340 -0.1394 -0.5251
 2932SOL    HW119725   1.071   1.812   3.341  1.0986 -1.2139 -1.5709
 2932SOL    HW219726   1.181   1.888   3.247  0.4431  1.5244 -0.1665
 2933SOL     OW19727   6.727   0.182   2.647  0.1661 -0.4493  0.0745
 2933SOL    HW119728   6.707   0.085   2.631 -0.5540 -0.3418  0.3436
 2933SOL    HW219729   6.765   0.222   2.563  0.7747 -1.0431  0.0602
 2934SOL     OW19730   4.722   2.386   2.788  0.1537 -0.3928  0.5468
 2934SOL    HW119731   4.686   2.375   2.881 -2.1850 -1.8946 -0.4743
 2934SOL    HW219732   4.726   2.296   2.744  1.1948  0.3190 -0.8195
 2935SOL     OW19733   8.865   9.101   2.953  0.3761  0.1146 -0.4347
 2935SOL    HW119734   8.942   9.141   3.004  0.8301 -0.0996 -0.9452
 2935SOL    HW219735   8.801   9.059   3.017  0.5249  0.5693  0.0206
 2936SOL     OW19736   9.784   3.364   2.169 -0.2744 -0.2069 -0.2125
 2936SOL    HW119737   9.863   3.303   2.161  1.4700  1.9549  0.1510
 2936SOL    HW219738   9.729   3.359   2.086  0.1159 -1.8662 -0.3874
 2937SOL     OW19739   1.009   3.953   3.583 -0.0742  0.1907 -0.5279
 2937SOL    HW119740   1.070   3.917   3.513 -0.8675 -1.4832 -0.3921
 2937SOL    HW219741   1.061   3.970   3.667  0.6258  0.9476 -1.1143
 2938SOL     OW19742   7.974   3.647   1.732 -0.3603  0.5980  0.0348
 2938SOL    HW119743   7.984   3.563   1.678 -1.9617  0.1152  0.4875
 2938SOL    HW219744   7.997   3.629   1.827 -1.1788  0.5573  0.2254
 2939SOL     OW19745   4.530   2.607   0.776 -0.4131  0.8585  0.3019
 2939SOL    HW119746   4.629   2.613   0.764 -0.4881 -0.4907 -1.0167
 2939SOL    HW219747   4.494   2.529   0.725 -2.0323  0.7406  1.5750
 2940SOL     OW19748   0.012   9.736   5.026  0.4031 -0.2526 -0.2984
 2940SOL    HW119749   0.105   9.706   5.007  0.5167  0.4856 -0.9291
 2940SOL    HW219750  -0.020   9.695   5.112  0.9771 -1.2240 -0.5514
 2941SOL     OW19751   9.092   5.516   5.180 -0.4782 -0.7405 -0.0522
 2941SOL    HW119752   9.126   5.600   5.222 -1.2987 -0.2476 -0.3575
 2941SOL    HW219753   9.147   5.495   5.099 -0.3341 -0.4363 -0.0333
 2942SOL     OW19754   0.077   6.588   2.967 -0.6191  0.1678 -0.0686
 2942SOL    HW119755   0.144   6.625   2.903 -1.9259  1.4926 -0.6947
 2942SOL    HW219756   0.122   6.526   3.031  1.6974  3.0224  1.1801
 2943SOL     OW19757   2.320   5.523   0.386 -0.0035  0.4647  0.7152
 2943SOL    HW119758   2.287   5.501   0.477  1.9520 -0.5795  1.2042
 2943SOL    HW219759   2.278   5.462   0.319  0.0755 -0.1022  1.1846
 2944SOL     OW19760   9.890   3.549   4.262 -0.3101  0.1762  0.3794
 2944SOL    HW119761   9.813   3.556   4.199  0.4672 -1.1717 -0.7434
 2944SOL    HW219762   9.891   3.629   4.322 -1.4049  1.1833 -0.9207
 2945SOL     OW19763   4.763   1.893   1.368 -0.2577 -0.5910 -0.1263
 2945SOL    HW119764   4.836   1.854   1.423 -0.3554 -0.9972 -0.2867
 2945SOL    HW219765   4.681   1.837   1.377 -1.3150  1.2112  2.0284
 2946SOL     OW19766   2.333   9.543   2.478  0.0951 -0.2798  0.8157
 2946SOL    HW119767   2.411   9.605   2.478 -1.4090  1.6858 -0.5690
 2946SOL    HW219768   2.364   9.450   2.459  2.0880  0.4901  0.2027
 2947SOL     OW19769   1.748   7.472   4.222 -0.4640  0.1752  0.3230
 2947SOL    HW119770   1.838   7.441   4.193 -0.4870  0.7724 -0.4075
 2947SOL    HW219771   1.678   7.408   4.190 -0.0774 -1.9669  3.5047
 2948SOL     OW19772   8.926   4.748   2.710 -0.3992  0.2058 -0.2650
 2948SOL    HW119773   8.927   4.720   2.614 -0.5493  0.9439 -0.4837
 2948SOL    HW219774   8.901   4.845   2.716 -0.3918  0.1597  0.5174
 2949SOL     OW19775   4.453   2.088   3.228  0.2868  0.0711 -0.1163
 2949SOL    HW119776   4.405   2.000   3.229 -0.4940  0.5008  0.0053
 2949SOL    HW219777   4.540   2.077   3.179  0.8720 -1.1256  1.1596
 2950SOL     OW19778   0.383   6.044   0.690  0.0114 -0.5018 -0.3706
 2950SOL    HW119779   0.342   6.019   0.602  0.7483 -1.4434 -0.4560
 2950SOL    HW219780   0.481   6.064   0.677  0.3012 -1.4153  0.3597
 2951SOL     OW19781   7.706   5.944   0.005  0.0428 -0.6097  0.0569
 2951SOL    HW119782   7.694   6.043  -0.000  2.4546 -0.3143 -0.3493
 2951SOL    HW219783   7.770   5.922   0.078  0.0907 -1.8274 -0.3391
 2952SOL     OW19784   6.140   1.260   3.205  0.1778  0.5580  0.0883
 2952SOL    HW119785   6.211   1.328   3.184 -1.2626  1.8510 -0.6646
 2952SOL    HW219786   6.059   1.306   3.241 -0.1377 -0.9550  1.3409
 2953SOL     OW19787   2.566   6.493   0.114 -0.5721 -0.1111  0.5766
 2953SOL    HW119788   2.638   6.472   0.181 -0.0015  1.7990  0.5807
 2953SOL    HW219789   2.609   6.522   0.028 -1.3270 -1.0150 -0.1121
 2954SOL     OW19790   2.183   8.411   0.968  0.3699  0.0067  0.3859
 2954SOL    HW119791   2.228   8.500   0.979  1.3641 -0.3971 -0.3479
 2954SOL    HW219792   2.087   8.418   0.996  0.3928  1.3527  0.1427
 2955SOL     OW19793   4.067   1.594   3.209 -0.3255 -0.3497  0.1458
 2955SOL    HW119794   4.103   1.623   3.120 -0.5484 -0.6912 -0.0531
 2955SOL    HW219795   3.967   1.598   3.207 -0.3385 -0.6732  0.2780
 2956SOL     OW19796   9.595   9.040   4.634 -0.0588  0.6693  0.2270
 2956SOL    HW119797   9.558   9.023   4.725 -1.4728  1.6741 -0.1481
 2956SOL    HW219798   9.610   9.138   4.621  0.9460  0.4532 -0.3173
 2957SOL     OW19799   1.738   5.506   0.846 -0.1988  0.6211  0.5868
 2957SOL    HW119800   1.794   5.433   0.884  0.8301 -0.1873 -2.3820
 2957SOL    HW219801   1.670   5.468   0.784  1.8912  2.2716 -2.8603
 2958SOL     OW19802   8.718   5.851   2.005 -0.6242  0.3516  0.1729
 2958SOL    HW119803   8.682   5.913   1.936  0.3942  0.2910 -0.4237
 2958SOL    HW219804   8.816   5.837   1.990 -0.8016 -1.2828  0.3758
 2959SOL     OW19805   0.615   4.418   3.345 -0.3814  0.2907 -0.2407
 2959SOL    HW119806   0.560   4.424   3.428 -0.8629  1.4205 -0.6360
 2959SOL    HW219807   0.710   4.396   3.369 -0.7176 -0.3514  0.5291
 2960SOL     OW19808   4.947   2.102   0.499 -0.1182 -0.2149  0.2021
 2960SOL    HW119809   4.854   2.074   0.523  0.3423 -0.1955  2.1128
 2960SOL    HW219810   4.963   2.085   0.402 -2.3625  0.5180 -0.3201
 2961SOL     OW19811   2.836   1.783   3.351 -0.1041  0.2463 -0.6455
 2961SOL    HW119812   2.867   1.780   3.446 -2.4471 -0.0033  0.1422
 2961SOL    HW219813   2.909   1.750   3.291  1.4351  0.4980  1.0452
 2962SOL     OW19814   1.848   3.733   4.328 -0.2127  0.2089  0.2884
 2962SOL    HW119815   1.893   3.819   4.351  0.5667  0.0122 -0.4690
 2962SOL    HW219816   1.910   3.657   4.343  0.8383  0.1660 -3.5987
 2963SOL     OW19817   1.991   6.462   5.094  0.0812  0.0412 -0.4851
 2963SOL    HW119818   2.031   6.429   5.180  1.2900  2.6408 -0.0009
 2963SOL    HW219819   1.927   6.537   5.114 -0.2242  0.1418 -1.7981
 2964SOL     OW19820   6.213   0.387   3.991  0.0261 -0.0891 -0.2594
 2964SOL    HW119821   6.268   0.456   3.945  0.9312 -0.6026  0.0131
 2964SOL    HW219822   6.271   0.308   4.012 -0.4666 -0.0498  1.3322
 2965SOL     OW19823   2.037   3.430   1.649 -0.2976 -0.2972 -0.4925
 2965SOL    HW119824   2.112   3.377   1.610  0.8700 -0.5097  1.9756
 2965SOL    HW219825   1.991   3.376   1.719 -1.0386  0.8226 -0.1123
 2966SOL     OW19826   4.222   1.807   1.408 -0.0559 -0.3808 -0.4576
 2966SOL    HW119827   4.277   1.890   1.398  0.0186 -0.2786  0.7812
 2966SOL    HW219828   4.240   1.746   1.330 -0.0519  0.7115 -1.3291
 2967SOL     OW19829   1.129   4.339   0.323  0.3247  0.0182 -0.3953
 2967SOL    HW119830   1.105   4.384   0.409 -0.5544 -1.6910  0.2663
 2967SOL    HW219831   1.070   4.259   0.309  1.8795 -0.9564 -1.5433
 2968SOL     OW19832   1.624   1.933   1.841  0.5775  0.4692 -0.6746
 2968SOL    HW119833   1.580   1.988   1.911  0.7175  1.1902 -1.1533
 2968SOL    HW219834   1.632   1.838   1.873  0.6358  0.7915  0.2718
 2969SOL     OW19835   5.263   0.528   2.811  0.4161  0.7929  0.3174
 2969SOL    HW119836   5.263   0.618   2.856  0.6654 -0.3907  2.7743
 2969SOL    HW219837   5.170   0.492   2.808  0.4957  0.5665  0.5390
 2970SOL     OW19838   4.397   5.495   2.163 -0.1803  0.1745  0.1999
 2970SOL    HW119839   4.389   5.397   2.183 -1.0094  0.8688  3.5592
 2970SOL    HW219840   4.484   5.529   2.200  0.4687  0.5929 -1.6376
 2971SOL     OW19841   9.774   0.789   1.605  0.3625  0.0101 -0.4166
 2971SOL    HW119842   9.754   0.697   1.571  1.8081 -0.2885 -0.4972
 2971SOL    HW219843   9.822   0.782   1.693 -0.2088  0.7156 -0.0349
 2972SOL     OW19844   0.536   2.074   5.281 -0.7924  0.1186 -0.0988
 2972SOL    HW119845   0.492   2.149   5.332  0.9207  1.2859 -0.3126
 2972SOL    HW219846   0.616   2.043   5.331 -0.0763  0.1142 -1.2390
 2973SOL     OW19847   2.726   8.798   2.892 -0.1460  0.4180  0.4247
 2973SOL    HW119848   2.765   8.761   2.808 -0.8445  2.5334 -0.8521
 2973SOL    HW219849   2.627   8.782   2.893  0.0137 -0.6312  1.4152
 2974SOL     OW19850   9.233   8.510   2.553  0.4356  0.0767 -0.0443
 2974SOL    HW119851   9.202   8.417   2.570 -0.0064  0.3678  0.7454
 2974SOL    HW219852   9.172   8.575   2.598  1.1025  0.7251 -0.0538
 2975SOL     OW19853   8.226   6.395   3.266 -0.2201 -0.4893  0.0775
 2975SOL    HW119854   8.159   6.372   3.195  0.3878  1.9769 -1.3269
 2975SOL    HW219855   8.311   6.345   3.249 -0.7587 -1.4736  0.2547
 2976SOL     OW19856   9.254   0.225   5.333 -0.3358 -0.1042  0.1014
 2976SOL    HW119857   9.162   0.262   5.319  0.3504  1.8022  0.5186
 2976SOL    HW219858   9.293   0.263   5.416  0.0840 -2.4596  1.0190
 2977SOL     OW19859   6.914   7.692   2.543 -0.5142  0.2422  0.2193
 2977SOL    HW119860   6.875   7.637   2.469 -0.8330  0.6501  0.0858
 2977SOL    HW219861   6.960   7.772   2.505  0.0880 -0.0120  0.4048
 2978SOL     OW19862   7.589   4.315   0.755 -0.6922  0.1695  0.1589
 2978SOL    HW119863   7.533   4.397   0.743 -1.6863 -0.3534  1.0432
 2978SOL    HW219864   7.685   4.340   0.766 -1.0049  1.2265  0.5330
 2979SOL     OW19865   8.980   0.715   0.179  0.3160 -0.1095 -0.4448
 2979SOL    HW119866   8.912   0.650   0.211  1.8393 -2.1748 -1.2539
 2979SOL    HW219867   8.949   0.755   0.093 -0.7685  0.4670  0.2077
 2980SOL     OW19868   9.714   7.413   0.038 -0.3136  0.5911 -0.1854
 2980SOL    HW119869   9.687   7.352   0.112 -0.5480 -0.0361 -0.7778
 2980SOL    HW219870   9.805   7.387   0.005 -0.7900 -0.0086 -1.0355
 2981SOL     OW19871   4.090   7.518   1.334  0.3865 -0.3245  0.4634
 2981SOL    HW119872   3.995   7.538   1.315  0.6627  0.1113 -0.4655
 2981SOL    HW219873   4.121   7.571   1.413 -0.4275 -1.2533  1.4163
 2982SOL     OW19874   8.177   2.677   1.792  0.0208 -0.6974 -0.3381
 2982SOL    HW119875   8.086   2.711   1.818  0.4589 -0.4215  0.8958
 2982SOL    HW219876   8.246   2.721   1.850  0.8825 -1.3684 -0.8495
 2983SOL     OW19877   9.399   4.073   5.272 -0.1538  0.3730 -0.4823
 2983SOL    HW119878   9.386   3.976   5.252 -1.4850  0.8089 -1.7405
 2983SOL    HW219879   9.374   4.128   5.193  0.9312  1.7360  0.1010
 2984SOL     OW19880   3.828   9.797   1.385  0.3884  0.3099 -0.1925
 2984SOL    HW119881   3.813   9.739   1.466  0.1734  1.7761  0.8460
 2984SOL    HW219882   3.761   9.871   1.385  0.9529  0.8280 -1.2657
 2985SOL     OW19883   1.735   4.548   3.055  0.2279  0.6779 -0.8829
 2985SOL    HW119884   1.640   4.519   3.043  0.5765 -0.2411 -1.4414
 2985SOL    HW219885   1.765   4.598   2.973 -0.8565  4.0390  0.6728
 2986SOL     OW19886   5.657   8.449   1.506  0.0338 -0.3629  0.4796
 2986SOL    HW119887   5.621   8.533   1.546 -1.1811 -0.0972 -1.1279
 2986SOL    HW219888   5.583   8.381   1.500  0.3083 -0.5530 -0.8700
 2987SOL     OW19889   4.886   4.069   2.962 -0.1421 -0.2338  0.2560
 2987SOL    HW119890   4.796   4.112   2.957 -0.2458 -0.0460  2.7150
 2987SOL    HW219891   4.907   4.049   3.058  2.2961 -0.5704 -0.3251
 2988SOL     OW19892   9.118   4.453   4.006  0.2474  0.4793 -0.1423
 2988SOL    HW119893   9.036   4.487   4.053 -0.2209 -0.2685 -0.3996
 2988SOL    HW219894   9.137   4.510   3.926  0.6316  1.3268  0.5461
 2989SOL     OW19895   8.899   2.740   0.338  0.4722 -0.0422  0.1374
 2989SOL    HW119896   8.969   2.671   0.355  0.2532  0.3078  2.5748
 2989SOL    HW219897   8.904   2.811   0.409 -1.7888  0.4407 -0.1544
 2990SOL     OW19898   9.004   1.828   2.902 -0.6232  0.7097 -0.3115
 2990SOL    HW119899   9.016   1.853   2.806  1.5116  2.6551  0.4048
 2990SOL    HW219900   9.092   1.834   2.949 -1.3092 -1.9483  1.4002
 2991SOL     OW19901   1.971   1.975   2.838 -0.1472  0.0811  0.3325
 2991SOL    HW119902   2.005   1.971   2.744  0.8832 -0.7029  0.7394
 2991SOL    HW219903   1.875   2.002   2.837 -0.6149 -1.5807 -1.0468
 2992SOL     OW19904   9.126   0.533   3.363  0.5348 -0.5921 -0.0970
 2992SOL    HW119905   9.207   0.506   3.312 -0.3593 -0.9871 -1.3514
 2992SOL    HW219906   9.080   0.451   3.397 -0.1835 -0.4796 -0.7595
 2993SOL     OW19907   7.144   3.441   5.581  0.3233 -0.3867 -0.1397
 2993SOL    HW119908   7.149   3.485   5.671  1.5949 -0.9488  0.0684
 2993SOL    HW219909   7.145   3.342   5.592 -2.2870 -0.5177 -0.6318
 2994SOL     OW19910   3.774   1.062   0.749 -0.4470 -0.3842 -0.0554
 2994SOL    HW119911   3.838   1.089   0.677 -0.6968 -0.1633 -0.1985
 2994SOL    HW219912   3.723   0.981   0.719  0.7730 -1.4255  0.6490
 2995SOL     OW19913   0.440   7.113   1.589  0.7409 -0.9321  0.6219
 2995SOL    HW119914   0.354   7.079   1.552  0.1927  1.5565 -0.5634
 2995SOL    HW219915   0.447   7.090   1.686 -1.6348 -0.5338  0.9267
 2996SOL     OW19916   8.388   3.507   1.265 -0.5142  0.7902 -0.2556
 2996SOL    HW119917   8.309   3.458   1.301  0.4077  1.2585  2.4808
 2996SOL    HW219918   8.468   3.447   1.263  0.1757  1.6124  1.3992
 2997SOL     OW19919   1.685   0.866   1.804 -0.3333 -0.6416 -0.1463
 2997SOL    HW119920   1.720   0.897   1.892 -1.4266 -1.3749  0.5654
 2997SOL    HW219921   1.730   0.781   1.778 -0.1734 -0.5456 -0.1824
 2998SOL     OW19922   8.865   4.378   1.888  0.2467 -0.0968 -0.1827
 2998SOL    HW119923   8.896   4.472   1.895 -0.9663  0.2529  0.7516
 2998SOL    HW219924   8.941   4.316   1.905  0.2630  0.7339  3.1168
 2999SOL     OW19925   2.919   1.485   0.273 -0.0948 -0.4805  0.1839
 2999SOL    HW119926   2.875   1.396   0.268 -0.5867 -0.2512  0.4003
 2999SOL    HW219927   2.891   1.532   0.357 -0.4721  0.2087 -0.3212
 3000SOL     OW19928   1.892   6.215   3.412  0.4412 -0.4838  0.3909
 3000SOL    HW119929   1.824   6.288   3.424 -0.8418 -1.9079  2.1425
 3000SOL    HW219930   1.971   6.251   3.362 -0.0002  2.2121  1.5065
 3001SOL     OW19931   1.566   6.401   4.355  0.4137  0.2260  0.1653
 3001SOL    HW119932   1.624   6.469   4.311 -0.6999  0.0425 -1.6137
 3001SOL    HW219933   1.601   6.309   4.334  0.1512  0.1521  0.0518
 3002SOL     OW19934   0.877   7.051   4.140  0.0054 -0.2973  0.8874
 3002SOL    HW119935   0.802   6.984   4.144 -0.3027  0.0356  0.7043
 3002SOL    HW219936   0.956   7.015   4.189  0.9404 -2.1863 -1.9005
 3003SOL     OW19937   1.527   3.874   4.022 -0.2811  0.3884 -0.0502
 3003SOL    HW119938   1.566   3.873   4.114  1.1930  0.8413 -0.6606
 3003SOL    HW219939   1.536   3.965   3.983 -1.1507  0.2656 -0.5463
 3004SOL     OW19940   1.680   0.846   5.282  0.4865 -0.3387  0.5302
 3004SOL    HW119941   1.646   0.753   5.292 -0.9907  0.2033  0.6781
 3004SOL    HW219942   1.722   0.857   5.193 -1.2051 -0.5844 -0.3188
 3005SOL     OW19943   3.221   4.671   5.175  0.6865 -0.1049 -0.0403
 3005SOL    HW119944   3.221   4.643   5.271  2.0563 -0.8968 -0.2519
 3005SOL    HW219945   3.135   4.717   5.154 -1.1917 -3.0759  0.6775
 3006SOL     OW19946   8.565   8.362   1.388 -0.6049  0.1655  0.5325
 3006SOL    HW119947   8.556   8.294   1.316  1.8188 -0.1465  0.4838
 3006SOL    HW219948   8.539   8.452   1.352 -0.0125 -0.0880 -0.5695
 3007SOL     OW19949   9.243   5.979   0.186 -0.0604  0.4038 -1.1338
 3007SOL    HW119950   9.164   6.031   0.153 -0.2805  0.9125  0.1584
 3007SOL    HW219951   9.211   5.903   0.242  0.3462  0.0569 -1.3657
 3008SOL     OW19952   3.830   5.293   0.989 -0.3264  0.2239  0.2476
 3008SOL    HW119953   3.750   5.342   0.954  0.7869  0.9019 -1.3766
 3008SOL    HW219954   3.900   5.288   0.918  1.1339 -0.2380  1.6965
 3009SOL     OW19955   3.451   2.276   0.569  0.1422 -0.2799  0.0520
 3009SOL    HW119956   3.472   2.369   0.540  1.9119 -0.9292 -0.8138
 3009SOL    HW219957   3.425   2.221   0.489 -2.6781 -0.0870  0.7949
 3010SOL     OW19958   3.952   8.917   5.409  0.5451 -0.1358  0.1941
 3010SOL    HW119959   3.925   9.000   5.361 -2.2086 -0.1186  1.7019
 3010SOL    HW219960   3.933   8.837   5.351 -0.2470  0.0506  0.1983
 3011SOL     OW19961   0.541   3.061   2.548 -0.2455 -0.4254 -0.0736
 3011SOL    HW119962   0.484   3.112   2.612  0.0637 -0.6242  0.3677
 3011SOL    HW219963   0.638   3.082   2.567 -0.1881  0.4043 -1.2220
 3012SOL     OW19964   7.231   4.219   0.641  0.3287 -0.7484  0.1765
 3012SOL    HW119965   7.209   4.146   0.705  2.4832 -0.7284  0.9537
 3012SOL    HW219966   7.224   4.185   0.547 -1.2289 -1.2130  0.4457
 3013SOL     OW19967   1.325   6.225   5.290  1.0313  0.4062  0.2748
 3013SOL    HW119968   1.316   6.133   5.251  3.2793  0.9949 -1.8001
 3013SOL    HW219969   1.372   6.219   5.378  0.5097 -0.4774  0.5059
 3014SOL     OW19970   4.056   4.716   1.367 -0.0022 -0.4080  0.2901
 3014SOL    HW119971   4.132   4.651   1.358  0.2281 -0.1476  0.3485
 3014SOL    HW219972   4.062   4.785   1.294  0.4819  0.2910  0.9928
 3015SOL     OW19973   8.642   3.131   4.003  0.1537  0.0038 -0.0795
 3015SOL    HW119974   8.623   3.209   3.943 -1.1280 -1.3542 -1.4622
 3015SOL    HW219975   8.579   3.132   4.081 -0.5903 -0.2612 -0.6761
 3016SOL     OW19976   3.437   9.675   0.989  0.4252  0.3141 -0.0302
 3016SOL    HW119977   3.398   9.730   0.915  2.8292  1.6550 -0.3722
 3016SOL    HW219978   3.456   9.582   0.955 -2.4427 -0.3725  0.1707
 3017SOL     OW19979   9.900   0.989   1.180  0.4880 -0.4781  0.3601
 3017SOL    HW119980   9.871   0.948   1.266 -0.6229 -0.2296  0.1168
 3017SOL    HW219981   9.923   1.085   1.195  0.8576 -0.5824  0.4814
 3018SOL     OW19982   4.234   3.190   2.900  0.6421 -0.5286 -0.0249
 3018SOL    HW119983   4.295   3.265   2.874  0.9151 -1.1238 -1.1654
 3018SOL    HW219984   4.211   3.136   2.818 -1.9642  0.0860  0.2538
 3019SOL     OW19985   5.796   0.967   2.601 -0.0749 -0.4353 -0.0770
 3019SOL    HW119986   5.811   0.932   2.509  2.1169 -1.9432  0.8079
 3019SOL    HW219987   5.748   0.897   2.655 -0.6922  0.1542  0.1449
 3020SOL     OW19988   1.516   8.200   3.744  0.2602  0.1568  0.4803
 3020SOL    HW119989   1.578   8.169   3.817  0.4737 -0.2003  0.1565
 3020SOL    HW219990   1.489   8.294   3.760  1.2876  0.4814  0.3732
 3021SOL     OW19991   9.928   5.995   3.667  0.1686  0.2206 -0.4467
 3021SOL    HW119992   9.969   5.911   3.703 -2.2295 -0.5603  0.6328
 3021SOL    HW219993   9.997   6.050   3.621  2.5679 -0.5878  2.0719
 3022SOL     OW19994   9.824   5.842   3.247 -0.2519  0.6115 -0.0301
 3022SOL    HW119995   9.782   5.893   3.323  0.8720  0.7271  0.5281
 3022SOL    HW219996   9.773   5.757   3.233 -2.0511  1.7949 -0.8708
 3023SOL     OW19997   9.363   9.228   2.761 -0.3379 -0.0904 -0.5488
 3023SOL    HW119998   9.449   9.225   2.710  1.2231  0.9619  1.9137
 3023SOL    HW219999   9.289   9.190   2.705  1.6390 -0.6228 -2.8663
 3024SOL     OW20000   0.563   3.816   3.046 -0.2022  0.1032  0.0587
 3024SOL    HW120001   0.528   3.910   3.051 -1.1404 -0.3546  2.6497
 3024SOL    HW220002   0.651   3.812   3.093  1.0128  0.1578 -2.1236
 3025SOL     OW20003   8.364   5.928   0.960  0.3100 -0.1797  0.4248
 3025SOL    HW120004   8.396   5.923   0.865 -0.1931 -1.9190  0.3265
 3025SOL    HW220005   8.441   5.911   1.022  0.0171 -2.3958  0.2322
 3026SOL     OW20006   4.507   3.476   2.422 -0.4280  0.2930  0.0611
 3026SOL    HW120007   4.563   3.459   2.503 -1.3134 -0.4973  0.5115
 3026SOL    HW220008   4.556   3.537   2.360 -1.2222  4.0021  2.8914
 3027SOL     OW20009   2.699   4.170   5.301 -0.1255 -0.1058  0.0020
 3027SOL    HW120010   2.741   4.128   5.221  0.9894 -0.2742  0.6658
 3027SOL    HW220011   2.619   4.223   5.273  0.3847  0.0146 -1.2427
 3028SOL     OW20012   9.044   9.748   2.301  0.4563 -0.1157  0.0820
 3028SOL    HW120013   9.123   9.808   2.290  0.3047  0.0131 -0.3021
 3028SOL    HW220014   8.999   9.768   2.388  0.8055 -0.1431  0.2702
 3029SOL     OW20015   7.202   7.070   3.127 -0.0935  0.3587  0.1033
 3029SOL    HW120016   7.144   7.007   3.076  0.1797  0.2078 -0.0163
 3029SOL    HW220017   7.247   7.022   3.202 -0.8171  0.6635  0.7479
 3030SOL     OW20018   4.257   0.116   4.662  0.3479 -0.6378 -0.0160
 3030SOL    HW120019   4.175   0.174   4.668  1.2053  0.6114 -0.1229
 3030SOL    HW220020   4.290   0.098   4.755  2.4311  2.5016 -0.0654
 3031SOL     OW20021   9.716   2.348   3.580 -0.2277  0.0875  0.3389
 3031SOL    HW120022   9.734   2.255   3.547  1.6351  0.2671  0.7845
 3031SOL    HW220023   9.660   2.343   3.663  0.0970 -0.6635  0.5203
 3032SOL     OW20024   2.594   1.995   5.578  0.1790 -0.6777 -0.1709
 3032SOL    HW120025   2.544   1.931   5.520 -1.9041 -0.2064  1.0731
 3032SOL    HW220026   2.627   1.947   5.659 -3.3000  0.2002  1.8776
 3033SOL     OW20027   3.241   7.962   0.041 -0.2941 -0.2431 -0.4824
 3033SOL    HW120028   3.273   7.868   0.031  0.5973  0.0618 -0.5419
 3033SOL    HW220029   3.307   8.024  -0.001  0.1227  0.5542  1.2916
 3034SOL     OW20030   2.816   5.306   4.964 -0.5269  0.1523  0.3061
 3034SOL    HW120031   2.895   5.338   4.910  0.4642  0.5978  1.9676
 3034SOL    HW220032   2.735   5.357   4.937  0.1743  1.1225 -0.0079
 3035SOL     OW20033   3.789   9.714   4.134  0.4455  0.3110  0.1825
 3035SOL    HW120034   3.843   9.794   4.163  0.9228 -0.2032  0.7184
 3035SOL    HW220035   3.759   9.664   4.214  0.0498  0.0076 -0.1557
 3036SOL     OW20036   0.964   8.284   0.085  0.2698 -0.0402 -0.1050
 3036SOL    HW120037   0.896   8.309   0.016  0.6392  1.1266 -0.0633
 3036SOL    HW220038   1.022   8.211   0.049 -0.0028  0.0587 -0.7604
 3037SOL     OW20039   3.365   8.423   3.674 -0.4245 -0.0675  0.1238
 3037SOL    HW120040   3.415   8.472   3.745 -1.2943 -0.1114  0.7697
 3037SOL    HW220041   3.416   8.428   3.588  1.4755 -1.4642  1.1359
 3038SOL     OW20042   9.713   9.821   2.655  0.3612 -0.2827 -0.2596
 3038SOL    HW120043   9.770   9.883   2.601 -1.2819  0.8213 -0.7580
 3038SOL    HW220044   9.689   9.741   2.600 -0.4924  0.3692 -0.8480
 3039SOL     OW20045   4.436   2.385   2.352  0.1456 -0.8938 -0.4483
 3039SOL    HW120046   4.485   2.306   2.315 -0.4837 -1.1674 -0.7004
 3039SOL    HW220047   4.355   2.403   2.297  0.6115  0.3063 -0.7425
 3040SOL     OW20048   1.927   1.641   1.911  0.1646 -0.5275  0.3865
 3040SOL    HW120049   1.922   1.614   2.007 -0.9666  0.7336  0.7100
 3040SOL    HW220050   1.835   1.653   1.874  0.5934  0.7120 -0.3417
 3041SOL     OW20051   0.530   5.556   2.244 -0.1987 -0.3258 -0.1089
 3041SOL    HW120052   0.625   5.574   2.218 -0.0224 -1.8830 -0.5651
 3041SOL    HW220053   0.469   5.604   2.181  0.2641 -1.3941 -1.3757
 3042SOL     OW20054   3.814   0.993   2.621 -0.2936 -0.2091 -0.6155
 3042SOL    HW120055   3.905   0.980   2.660 -0.6243 -1.8080 -0.3573
 3042SOL    HW220056   3.823   1.014   2.523  0.3783  0.4709 -0.4156
 3043SOL     OW20057   5.113   0.827   3.125 -0.1109 -0.0323 -0.0636
 3043SOL    HW120058   5.074   0.736   3.140  0.1333 -0.4196 -1.7085
 3043SOL    HW220059   5.103   0.852   3.029  1.4358  0.9431  0.0173
 3044SOL     OW20060   8.993   0.159   5.173  0.6425  0.1597 -0.1063
 3044SOL    HW120061   9.026   0.072   5.137  1.5212  1.0042 -1.3973
 3044SOL    HW220062   8.993   0.227   5.099 -3.0402  0.4553  0.0486
 3045SOL     OW20063   4.641   0.761   0.593  0.4198 -0.0041  0.3047
 3045SOL    HW120064   4.578   0.686   0.614  0.5272 -0.0600  0.4326
 3045SOL    HW220065   4.595   0.848   0.607  0.7802 -0.0300  1.7160
 3046SOL     OW20066   0.189   0.589   2.111  0.1813  0.1406  0.8060
 3046SOL    HW120067   0.287   0.604   2.105  0.2113 -0.4882 -0.2909
 3046SOL    HW220068   0.143   0.640   2.039 -0.1624 -0.8267  0.3357
 3047SOL     OW20069   1.757   6.023   5.109  0.0438  0.0666 -0.5276
 3047SOL    HW120070   1.824   6.002   5.180  0.4034  0.5862 -0.7137
 3047SOL    HW220071   1.779   6.111   5.068 -0.4627  0.0017 -0.9332
 3048SOL     OW20072   2.063   1.690   1.478  0.3083 -0.0836 -1.0533
 3048SOL    HW120073   1.972   1.701   1.437 -0.1559  0.8830  0.2027
 3048SOL    HW220074   2.058   1.623   1.552  0.2175  1.2636  0.1840
 3049SOL     OW20075   6.900   7.718   2.817  0.0960 -0.0326  0.2946
 3049SOL    HW120076   6.872   7.813   2.805  1.0742  0.2823  0.4350
 3049SOL    HW220077   6.930   7.681   2.729  1.9764  0.5468  0.6521
 3050SOL     OW20078   8.920   5.806   5.188  0.1231 -0.6010  0.0357
 3050SOL    HW120079   8.867   5.877   5.234  0.8563  0.1422 -0.2557
 3050SOL    HW220080   8.995   5.776   5.248  1.1130  0.4090 -0.6825
 3051SOL     OW20081   3.708   5.081   0.060  0.3349  0.6716  0.1821
 3051SOL    HW120082   3.749   5.172   0.053  0.9022  0.2791 -2.2108
 3051SOL    HW220083   3.678   5.064   0.154  1.0566  2.9589  0.8448
 3052SOL     OW20084   1.843   6.187   1.635  0.0601  0.3195 -0.0311
 3052SOL    HW120085   1.776   6.117   1.660  0.0125 -0.3821 -2.0022
 3052SOL    HW220086   1.935   6.149   1.643  0.1366  0.6663  0.7909
 3053SOL     OW20087   2.308   1.360   2.091 -0.5654 -0.4251  0.1246
 3053SOL    HW120088   2.334   1.455   2.072 -0.9226 -0.2861  0.3236
 3053SOL    HW220089   2.330   1.338   2.186 -0.9768 -0.3734  0.2324
 3054SOL     OW20090   1.653   2.561   2.075 -0.2945  0.2944  0.2541
 3054SOL    HW120091   1.586   2.550   2.148 -0.2511  0.1381  0.2689
 3054SOL    HW220092   1.720   2.488   2.079 -0.0464  0.5224  0.3188
 3055SOL     OW20093   8.238   2.594   4.569 -0.0785  0.2425  0.0404
 3055SOL    HW120094   8.219   2.686   4.604  0.3950  0.6220 -0.6944
 3055SOL    HW220095   8.153   2.553   4.538 -0.4214  0.1121  1.1222
 3056SOL     OW20096   9.468   6.566   0.417 -0.2147  0.0593  0.2242
 3056SOL    HW120097   9.504   6.473   0.406  0.4282  0.1457  1.4572
 3056SOL    HW220098   9.539   6.632   0.393  0.2180  0.2292  1.9207
 3057SOL     OW20099   0.232   1.648   4.426  0.5764  0.2483  0.1596
 3057SOL    HW120100   0.285   1.696   4.495  1.4812  0.0198 -0.3736
 3057SOL    HW220101   0.293   1.593   4.368 -0.0791  1.0597 -1.3321
 3058SOL     OW20102   8.182   3.702   4.172 -0.1317  0.3243  0.1009
 3058SOL    HW120103   8.269   3.685   4.127  0.6565  2.1744  0.8791
 3058SOL    HW220104   8.155   3.621   4.225 -0.7249 -1.6242 -3.0342
 3059SOL     OW20105   7.489   6.741   3.421  0.1504 -0.6700 -0.1495
 3059SOL    HW120106   7.507   6.652   3.380  1.4656 -0.7804  0.6655
 3059SOL    HW220107   7.575   6.786   3.443 -0.4754  1.1159 -1.1899
 3060SOL     OW20108   9.413   2.271   2.614 -0.4043  0.4691 -0.1928
 3060SOL    HW120109   9.321   2.297   2.645 -0.0354  0.6699  0.7486
 3060SOL    HW220110   9.431   2.313   2.525 -0.7531  1.4442  0.1925
 3061SOL     OW20111   9.843   1.486   3.513  0.4988  0.0610  0.6279
 3061SOL    HW120112   9.816   1.390   3.517  2.1016 -0.3505  2.8368
 3061SOL    HW220113   9.827   1.522   3.421 -0.7597 -2.1209 -0.0314
 3062SOL     OW20114   8.799   6.320   5.295 -0.3835  0.0764  0.0121
 3062SOL    HW120115   8.852   6.235   5.298  1.0139  0.8990 -0.8764
 3062SOL    HW220116   8.779   6.344   5.200 -0.8533  0.6978  0.2605
 3063SOL     OW20117   8.115   7.098   4.384 -0.0627  0.9060  0.0499
 3063SOL    HW120118   8.053   7.027   4.351 -0.0360  1.5644 -1.4938
 3063SOL    HW220119   8.195   7.104   4.323  1.0774  0.6819  1.4999
 3064SOL     OW20120   1.271   3.874   3.001 -0.6112 -0.6241  0.2798
 3064SOL    HW120121   1.334   3.920   3.063 -1.6635  2.6080 -0.9057
 3064SOL    HW220122   1.319   3.849   2.916 -0.6339  0.8746 -0.1958
 3065SOL     OW20123   2.325   2.263   3.824  0.1165 -0.1328  0.2722
 3065SOL    HW120124   2.334   2.290   3.728  1.6827 -0.7804  0.2311
 3065SOL    HW220125   2.338   2.344   3.882  1.1301 -0.0996  0.0097
 3066SOL     OW20126   0.415   5.217   2.825  0.1815  0.5523 -0.1509
 3066SOL    HW120127   0.413   5.248   2.730  1.3567 -0.0223 -0.3787
 3066SOL    HW220128   0.375   5.125   2.830 -0.8964  1.0307  0.0950
 3067SOL     OW20129   8.170   4.943   5.256 -0.0139  0.3108  0.5049
 3067SOL    HW120130   8.264   4.922   5.228 -0.0820 -0.2136  0.6615
 3067SOL    HW220131   8.114   4.956   5.174 -0.4905 -2.4302  0.3239
 3068SOL     OW20132   2.217   4.680   1.667 -0.1107 -0.2672  0.5154
 3068SOL    HW120133   2.304   4.639   1.639  0.5254 -0.2393  2.3391
 3068SOL    HW220134   2.153   4.678   1.591  1.2862 -0.8568 -0.6730
 3069SOL     OW20135   1.097   9.815   5.314  0.3032 -0.0860 -0.1019
 3069SOL    HW120136   1.020   9.820   5.251 -0.8872  1.7690  1.4494
 3069SOL    HW220137   1.151   9.734   5.294 -1.9586 -1.3387 -1.3237
 3070SOL     OW20138   7.662   0.921   3.192  0.4345  0.2358 -0.0552
 3070SOL    HW120139   7.743   0.925   3.133  1.8148  1.0243  1.8328
 3070SOL    HW220140   7.622   0.829   3.186  0.9227  0.1087 -1.7101
 3071SOL     OW20141   3.687   7.856   5.075 -0.4427  0.4871  0.4722
 3071SOL    HW120142   3.685   7.915   5.156 -1.0411  0.6617  0.3289
 3071SOL    HW220143   3.648   7.767   5.098 -0.8887  0.6390  0.2888
 3072SOL     OW20144   7.988   9.252   4.625  0.3827  0.2863  0.2969
 3072SOL    HW120145   8.001   9.172   4.567  2.5549 -0.3751  1.6693
 3072SOL    HW220146   8.068   9.264   4.684 -1.0752  1.9290  1.9775
 3073SOL     OW20147   7.449   0.331   1.898  0.3070 -0.1810  0.0127
 3073SOL    HW120148   7.475   0.269   1.972  1.1521  0.2721  0.0897
 3073SOL    HW220149   7.461   0.284   1.810  1.3530  0.0136  0.0476
 3074SOL     OW20150   6.876   8.027   3.542  0.2782  0.3621  0.0813
 3074SOL    HW120151   6.819   7.975   3.477  0.9816 -1.2256  0.7014
 3074SOL    HW220152   6.955   8.065   3.494  1.0054 -1.1351  0.0410
 3075SOL     OW20153   1.572   6.454   4.635 -1.0129 -0.2208  0.2168
 3075SOL    HW120154   1.525   6.369   4.659  1.0590 -1.3483  0.3995
 3075SOL    HW220155   1.572   6.465   4.536 -0.2803 -1.0486  0.1149
 3076SOL     OW20156   7.459   5.769   4.548 -0.5933 -0.1659  0.1029
 3076SOL    HW120157   7.376   5.745   4.599 -0.8939  0.6756  0.0022
 3076SOL    HW220158   7.476   5.700   4.477 -0.7401 -0.7847  0.6672
 3077SOL     OW20159   9.343   4.525   2.485 -0.2931 -0.2550  0.7052
 3077SOL    HW120160   9.259   4.493   2.528 -0.7999 -2.2189 -1.6448
 3077SOL    HW220161   9.414   4.455   2.495  0.4027  0.4510  0.7423
 3078SOL     OW20162   9.514   0.596   5.080 -1.0214  0.4902  0.3553
 3078SOL    HW120163   9.431   0.549   5.048 -1.1542  0.7274  0.3506
 3078SOL    HW220164   9.490   0.657   5.156 -0.7115 -0.0464  0.8887
 3079SOL     OW20165   0.426   3.862   2.428 -0.1683 -0.0949 -0.0865
 3079SOL    HW120166   0.410   3.823   2.338  0.0399 -0.2451 -0.0583
 3079SOL    HW220167   0.353   3.833   2.491  0.1946 -0.7541  0.0339
 3080SOL     OW20168   2.338   7.042   0.277  0.2868 -0.2765  0.3746
 3080SOL    HW120169   2.354   7.141   0.273  0.4082 -0.3558 -1.6328
 3080SOL    HW220170   2.260   7.020   0.218 -0.5765 -1.2206  1.8496
 3081SOL     OW20171   3.542   5.292   1.865 -0.4050 -0.1745 -0.2432
 3081SOL    HW120172   3.608   5.220   1.844 -0.3989  0.1424 -1.3911
 3081SOL    HW220173   3.455   5.271   1.819 -0.0884  1.0532 -1.4594
 3082SOL     OW20174   8.792   9.873   0.746  0.2728  0.1090  0.3940
 3082SOL    HW120175   8.719   9.933   0.714  1.0941  1.3950  0.9069
 3082SOL    HW220176   8.837   9.831   0.668  1.0295  1.7467 -0.0662
 3083SOL     OW20177   2.969   1.929   5.268  0.5386  0.1670  0.3696
 3083SOL    HW120178   2.957   1.981   5.353  1.8592  0.8634  0.1462
 3083SOL    HW220179   2.884   1.931   5.216 -0.9122 -1.9103  2.5733
 3084SOL     OW20180   6.925   9.527   1.371 -0.2533 -0.1121  0.1385
 3084SOL    HW120181   6.946   9.507   1.276 -1.1215 -1.5248  0.2250
 3084SOL    HW220182   6.861   9.603   1.375  1.0678  1.0369 -0.3237
 3085SOL     OW20183   6.234   7.503   3.714  0.2909 -0.4883  0.3267
 3085SOL    HW120184   6.314   7.457   3.752  0.3902  0.5164  1.3404
 3085SOL    HW220185   6.191   7.561   3.784 -0.3642  0.2569 -0.6683
 3086SOL     OW20186   9.428   6.008   4.239  0.0626  0.5219 -0.3316
 3086SOL    HW120187   9.404   6.102   4.215 -1.3810 -0.0470 -1.1826
 3086SOL    HW220188   9.375   5.945   4.183  1.2422 -0.8077  0.0241
 3087SOL     OW20189   4.249   6.039   1.706  0.5026 -0.2357 -0.6898
 3087SOL    HW120190   4.287   5.952   1.737  0.0233  0.1399  1.0325
 3087SOL    HW220191   4.173   6.023   1.643  0.5974 -1.0550 -0.5918
 3088SOL     OW20192   0.810   0.259   4.371  0.3619 -0.0327 -0.0958
 3088SOL    HW120193   0.812   0.176   4.315  0.2986  0.2221 -0.4783
 3088SOL    HW220194   0.782   0.337   4.314 -1.1881 -0.0375  0.6217
 3089SOL     OW20195   2.934   8.349   3.768  0.3108  0.2957 -0.0813
 3089SOL    HW120196   2.891   8.420   3.823  1.8605  0.2520  1.2400
 3089SOL    HW220197   2.875   8.268   3.765  0.0300  0.4528  1.1731
 3090SOL     OW20198   1.435   2.818   3.344 -0.1558 -0.3561 -0.3913
 3090SOL    HW120199   1.448   2.905   3.391  0.7372 -0.9537  0.5164
 3090SOL    HW220200   1.507   2.806   3.276  0.8114 -1.1663  0.7371
 3091SOL     OW20201   4.828   0.384   2.416  0.8575  0.5702  0.3432
 3091SOL    HW120202   4.788   0.472   2.391 -1.9249 -0.9828 -1.0109
 3091SOL    HW220203   4.865   0.340   2.334 -1.3231 -1.1972  0.2613
 3092SOL     OW20204   0.551   3.004   0.011 -0.6732  0.0106  0.4111
 3092SOL    HW120205   0.584   2.927   0.067 -0.1308 -1.2444 -1.5695
 3092SOL    HW220206   0.506   2.969  -0.071  0.5335  1.8081 -1.0668
 3093SOL     OW20207   1.277   4.386   4.717  0.7500 -0.2730 -0.5607
 3093SOL    HW120208   1.369   4.368   4.680  1.5915  1.1515  0.8073
 3093SOL    HW220209   1.268   4.483   4.738 -1.2949 -0.3076 -1.2237
 3094SOL     OW20210   1.262   9.186   4.766 -0.3598  0.3053  0.3815
 3094SOL    HW120211   1.294   9.270   4.810  0.3987  1.1887 -1.7944
 3094SOL    HW220212   1.167   9.197   4.737 -0.9724 -0.3992  2.0259
 3095SOL     OW20213   1.170   8.773   1.804  0.8882  0.0668  0.5775
 3095SOL    HW120214   1.269   8.766   1.817  0.8874 -1.3836 -0.0690
 3095SOL    HW220215   1.140   8.705   1.736 -0.4184  1.1229  0.0682
 3096SOL     OW20216   3.800   2.518   2.744  0.4738 -0.0652 -0.3332
 3096SOL    HW120217   3.738   2.474   2.679  1.7135 -0.5603 -1.1872
 3096SOL    HW220218   3.752   2.593   2.790 -0.7725 -0.4770 -0.9453
 3097SOL     OW20219   0.480   9.502   1.209  0.2781 -0.1485 -0.6551
 3097SOL    HW120220   0.530   9.526   1.292 -0.0905 -2.7343  0.3549
 3097SOL    HW220221   0.495   9.406   1.187 -2.9274 -0.5818 -1.2398
 3098SOL     OW20222   1.692   7.393   3.037 -0.2217 -0.3911  0.3765
 3098SOL    HW120223   1.690   7.295   3.060 -1.3052 -0.4824 -0.0628
 3098SOL    HW220224   1.638   7.444   3.104  0.2217 -0.1052  0.5204
 3099SOL     OW20225   9.978   1.277   4.168  0.0498  0.0426 -0.4722
 3099SOL    HW120226   9.966   1.234   4.079 -1.4685 -1.3877  0.3810
 3099SOL    HW220227  10.068   1.254   4.205 -0.3581 -1.6255 -0.4714
 3100SOL     OW20228   3.407   8.823   3.461 -0.2119  0.6982  0.0735
 3100SOL    HW120229   3.443   8.906   3.418  2.0717 -1.0120 -1.4172
 3100SOL    HW220230   3.357   8.769   3.394 -1.7886  0.8503  1.0698
 3101SOL     OW20231   2.557   6.083   5.585  0.2473  0.0399  0.3050
 3101SOL    HW120232   2.636   6.023   5.601  0.7042  0.8501  1.1529
 3101SOL    HW220233   2.545   6.144   5.664 -0.7571  0.4503 -0.1581
 3102SOL     OW20234   0.144   7.869   3.941 -0.1888  0.5612 -0.1899
 3102SOL    HW120235   0.061   7.837   3.896 -0.1146  1.1907 -0.7791
 3102SOL    HW220236   0.201   7.918   3.876  0.2606  0.8493  0.4098
 3103SOL     OW20237   3.522   9.790   3.389  0.2416  0.8053 -0.0164
 3103SOL    HW120238   3.477   9.824   3.306  0.5399  3.5879  0.8945
 3103SOL    HW220239   3.453   9.756   3.453 -0.2823  1.7651 -0.0606
 3104SOL     OW20240   0.262   1.690   0.420  0.7857 -0.6264 -0.1958
 3104SOL    HW120241   0.285   1.776   0.465  0.2633  0.5288 -2.0693
 3104SOL    HW220242   0.265   1.703   0.320  1.1114 -2.8805 -0.5071
 3105SOL     OW20243   8.149   0.181   1.651 -1.0568 -0.2347  0.0136
 3105SOL    HW120244   8.163   0.087   1.682 -2.9479 -0.5491 -0.0135
 3105SOL    HW220245   8.106   0.180   1.560 -0.7541  0.6502 -0.1440
 3106SOL     OW20246   8.606   8.807   4.161  0.3497  0.1441  0.1188
 3106SOL    HW120247   8.668   8.730   4.150  0.3310 -0.2911  2.6894
 3106SOL    HW220248   8.626   8.854   4.247 -0.4098  2.3069 -0.8403
 3107SOL     OW20249   9.079   4.196   1.886  0.4007  0.2550 -0.7675
 3107SOL    HW120250   9.032   4.113   1.858  1.0132 -0.6381  0.7907
 3107SOL    HW220251   9.160   4.210   1.829  1.8504 -1.7548  0.7378
 3108SOL     OW20252   8.359   3.256   1.555 -0.2088  0.2223  0.5128
 3108SOL    HW120253   8.414   3.339   1.557  1.3219 -0.6403 -2.3258
 3108SOL    HW220254   8.420   3.177   1.542 -2.0128 -0.8661 -1.5311
 3109SOL     OW20255   2.551   8.400   1.313 -0.5867 -0.4480  0.2933
 3109SOL    HW120256   2.622   8.436   1.253 -2.6826 -0.2764 -2.2149
 3109SOL    HW220257   2.566   8.302   1.328  1.4016  0.0402  1.6723
 3110SOL     OW20258   1.068   9.634   2.478  0.4165 -0.1030  0.3243
 3110SOL    HW120259   1.064   9.700   2.552 -2.0808 -0.7353  0.7946
 3110SOL    HW220260   1.063   9.541   2.516  0.8262 -0.4742 -0.5199
 3111SOL     OW20261   8.397   1.985   0.002 -0.7672 -0.0473  0.4255
 3111SOL    HW120262   8.430   2.018  -0.087  2.9649 -0.7282  1.4630
 3111SOL    HW220263   8.343   2.057   0.046  1.2314  2.0786 -0.4468
 3112SOL     OW20264   8.346   1.034   4.963 -0.1236 -0.2450  0.2651
 3112SOL    HW120265   8.352   1.021   4.864  1.1549 -0.4388  0.3603
 3112SOL    HW220266   8.325   1.129   4.983  1.2604  0.1465 -0.1466
 3113SOL     OW20267   3.176   5.532   0.388 -0.2591  0.4774  0.5145
 3113SOL    HW120268   3.139   5.441   0.373  0.9363  0.4411 -2.3723
 3113SOL    HW220269   3.267   5.525   0.429  0.6747  0.2762 -1.5323
 3114SOL     OW20270   1.348   8.788   1.518 -0.0247  0.0828  0.5584
 3114SOL    HW120271   1.383   8.882   1.515  1.6112 -0.4458  1.8308
 3114SOL    HW220272   1.251   8.787   1.493  0.1820  1.9708 -0.4182
 3115SOL     OW20273   3.295   5.173   2.421 -0.2701  0.1219 -0.1918
 3115SOL    HW120274   3.325   5.136   2.333  0.0559  0.8481 -0.3838
 3115SOL    HW220275   3.295   5.099   2.489  2.9774  0.2809  0.0791
 3116SOL     OW20276   2.223   5.247   4.322 -0.3674 -0.9120 -0.4836
 3116SOL    HW120277   2.162   5.226   4.246 -2.5258 -0.1355  0.9719
 3116SOL    HW220278   2.209   5.179   4.395 -0.2381 -0.1269  0.2811
 3117SOL     OW20279   8.500   8.070   2.625 -0.4339  0.4209 -0.1603
 3117SOL    HW120280   8.481   8.009   2.548 -1.8882  1.0795 -0.3424
 3117SOL    HW220281   8.446   8.042   2.704 -1.0444  1.3918 -0.2179
 3118SOL     OW20282   2.900   4.506   2.586  0.0752 -0.3316  0.0533
 3118SOL    HW120283   2.838   4.527   2.661 -0.3620 -2.2552  0.2492
 3118SOL    HW220284   2.988   4.551   2.602 -0.2710 -0.0889  1.3239
 3119SOL     OW20285   8.712   9.632   2.053 -0.7055  0.0866  0.0942
 3119SOL    HW120286   8.649   9.601   2.123 -2.0553  0.5858 -0.8882
 3119SOL    HW220287   8.683   9.720   2.017 -0.8735 -0.8341 -2.1281
 3120SOL     OW20288   8.608   0.727   3.844 -0.4770  0.2376  0.1717
 3120SOL    HW120289   8.544   0.669   3.792  1.4236 -0.3032 -1.6410
 3120SOL    HW220290   8.601   0.705   3.941 -1.1780 -1.6896 -0.2846
 3121SOL     OW20291   4.451   2.889   4.008 -0.3831  0.3460 -0.1693
 3121SOL    HW120292   4.445   2.988   4.023 -0.8566  0.4417 -0.9797
 3121SOL    HW220293   4.380   2.860   3.945 -0.1877 -0.5061 -0.0119
 3122SOL     OW20294   2.867   5.333   5.252  0.0192 -0.3020  0.1833
 3122SOL    HW120295   2.834   5.326   5.157 -0.2647 -3.2838  0.4611
 3122SOL    HW220296   2.789   5.348   5.312 -0.2435 -1.9574  0.2821
 3123SOL     OW20297   5.232   5.240   0.355  0.0538 -0.3089 -0.7522
 3123SOL    HW120298   5.290   5.174   0.403 -1.8128 -1.6036 -0.2108
 3123SOL    HW220299   5.213   5.318   0.414  0.1361 -0.5147 -0.4563
 3124SOL     OW20300   7.543   0.324   0.785 -0.1745  0.0003 -0.0690
 3124SOL    HW120301   7.582   0.392   0.847  1.5817 -1.0850  0.0510
 3124SOL    HW220302   7.453   0.296   0.819 -0.6775  1.8461  0.1628
 3125SOL     OW20303   9.328   0.667   1.575 -0.4762 -0.3707  0.3928
 3125SOL    HW120304   9.295   0.651   1.668 -1.2939 -0.0646  0.1607
 3125SOL    HW220305   9.359   0.581   1.535 -0.2788 -0.5323  0.8802
 3126SOL     OW20306   3.500   9.252   0.381  0.4809 -0.2748  0.4506
 3126SOL    HW120307   3.468   9.312   0.454  0.0665  0.5903 -0.4346
 3126SOL    HW220308   3.459   9.161   0.391 -2.4113  0.8370 -0.7510
 3127SOL     OW20309   0.055   4.404   0.777 -0.1234 -0.8069  0.3641
 3127SOL    HW120310   0.039   4.462   0.857  0.4862 -0.8674  0.5291
 3127SOL    HW220311   0.143   4.426   0.736 -0.6924 -0.3924 -0.6302
 3128SOL     OW20312   8.408   3.710   1.480 -0.1087  0.0244  0.0493
 3128SOL    HW120313   8.443   3.798   1.513 -1.3321  0.4454  0.2569
 3128SOL    HW220314   8.449   3.689   1.391 -0.0588  0.9614 -0.1557
 3129SOL     OW20315   3.152   2.388   2.642 -0.3971  0.7809  0.6809
 3129SOL    HW120316   3.208   2.323   2.693  0.0251 -0.4442 -1.3115
 3129SOL    HW220317   3.091   2.339   2.580  0.5475  2.2762 -1.5038
 3130SOL     OW20318   8.798   1.817   2.404  0.6627  0.5269 -0.0896
 3130SOL    HW120319   8.798   1.913   2.433 -3.7105  1.4189 -2.6404
 3130SOL    HW220320   8.797   1.813   2.304 -1.5198 -2.1056 -0.0158
 3131SOL     OW20321   0.410   9.827   4.443 -0.0689 -0.1433  0.3016
 3131SOL    HW120322   0.481   9.841   4.512 -0.0296 -1.2766  0.4932
 3131SOL    HW220323   0.447   9.771   4.369 -0.6497 -0.3897  0.1994
 3132SOL     OW20324   2.501   4.557   2.111  0.3716  0.3061  0.3560
 3132SOL    HW120325   2.444   4.520   2.185  0.6095  0.4273  0.5998
 3132SOL    HW220326   2.451   4.549   2.024  0.2804 -0.2751  0.4558
 3133SOL     OW20327   2.624   4.060   2.902 -0.3465  0.0707 -0.1993
 3133SOL    HW120328   2.551   4.022   2.846 -1.2147  1.6916 -0.2007
 3133SOL    HW220329   2.668   4.136   2.853 -0.0551  0.4654  0.6555
 3134SOL     OW20330   2.882   7.960   5.170  0.1352 -0.6852 -0.1574
 3134SOL    HW120331   2.909   7.995   5.080  2.6528  1.0588  1.2366
 3134SOL    HW220332   2.806   8.014   5.205 -0.4516 -0.9792 -0.9588
 3135SOL     OW20333   0.306   9.227   3.365 -0.1629 -0.5695 -0.2450
 3135SOL    HW120334   0.345   9.303   3.314  0.3280 -0.1604  0.7285
 3135SOL    HW220335   0.379   9.163   3.390 -0.7345 -2.0115 -2.1234
 3136SOL     OW20336   3.357   9.134   0.827 -0.0183 -0.3178 -0.9942
 3136SOL    HW120337   3.394   9.085   0.748  1.0658 -0.4999 -0.3861
 3136SOL    HW220338   3.263   9.104   0.844  0.7318 -2.4065 -0.4548
 3137SOL     OW20339   9.558   6.447   3.081  0.0092 -0.2114  0.0758
 3137SOL    HW120340   9.525   6.422   2.989 -1.6358 -0.7730  0.7971
 3137SOL    HW220341   9.605   6.369   3.122 -2.6120 -1.2605  1.1932
 3138SOL     OW20342   5.482   9.474   2.205 -0.5269 -0.3742 -0.2984
 3138SOL    HW120343   5.572   9.505   2.237 -0.7639  0.1526 -0.1424
 3138SOL    HW220344   5.491   9.383   2.164 -0.0373 -0.6043  0.3039
 3139SOL     OW20345   4.003   9.146   4.884  0.2547  0.2481  0.0122
 3139SOL    HW120346   4.038   9.146   4.791  0.6691  3.3270  0.1012
 3139SOL    HW220347   4.062   9.091   4.943  1.0451 -0.1676 -1.1659
 3140SOL     OW20348   0.213   6.487   1.262  0.3043  0.9534 -0.4357
 3140SOL    HW120349   0.282   6.551   1.227  1.5978 -0.1390  0.1090
 3140SOL    HW220350   0.145   6.470   1.191  0.9687  1.5017 -1.2165
 3141SOL     OW20351   3.642   2.387   3.743 -0.4724  0.3237 -0.2979
 3141SOL    HW120352   3.645   2.486   3.759 -0.7148  0.4398 -0.9783
 3141SOL    HW220353   3.724   2.345   3.782 -1.1267  0.5842  1.3931
 3142SOL     OW20354   7.145   7.932   2.447  1.3211 -0.3674 -0.1643
 3142SOL    HW120355   7.154   7.947   2.545 -0.2185 -0.1796 -0.0370
 3142SOL    HW220356   7.143   8.021   2.400  1.2572 -0.4302 -0.2822
 3143SOL     OW20357   3.414   9.301   2.021  0.0014 -0.2118  0.3770
 3143SOL    HW120358   3.386   9.214   2.060  0.5805 -0.2223  0.7878
 3143SOL    HW220359   3.504   9.291   1.978  0.0856  0.1828  0.4547
 3144SOL     OW20360   2.582   6.841   3.877 -0.0909 -0.2145 -0.5781
 3144SOL    HW120361   2.566   6.748   3.911  0.0392 -0.2712 -0.6738
 3144SOL    HW220362   2.512   6.866   3.811 -1.8027  0.8021  1.5405
 3145SOL     OW20363   7.577   8.097   3.215 -0.3559  0.2079  0.3390
 3145SOL    HW120364   7.624   8.042   3.283  0.3355 -0.0359 -0.3279
 3145SOL    HW220365   7.644   8.142   3.156 -0.9455  0.0639 -0.4570
 3146SOL     OW20366   4.056   8.415   5.200  0.3959 -0.0163  0.5249
 3146SOL    HW120367   4.053   8.334   5.141  2.8333  0.2883 -0.0513
 3146SOL    HW220368   4.017   8.392   5.289  2.6226 -2.3670  0.9453
 3147SOL     OW20369   2.890   4.350   2.343 -0.5460 -0.1889 -0.6540
 3147SOL    HW120370   2.829   4.377   2.269 -0.5998  0.5094 -0.3558
 3147SOL    HW220371   2.901   4.426   2.407  1.6051  0.1355 -1.3684
 3148SOL     OW20372   8.619   4.520   2.453 -0.4624  0.1598  0.4587
 3148SOL    HW120373   8.667   4.607   2.440  0.4378 -0.5665 -1.2330
 3148SOL    HW220374   8.665   4.467   2.524 -1.0502  1.0719  1.5453
 3149SOL     OW20375   1.570   4.614   0.136 -0.0040  0.2583  0.1948
 3149SOL    HW120376   1.543   4.518   0.125 -2.5530  1.0425 -0.5672
 3149SOL    HW220377   1.582   4.634   0.233 -0.3612 -0.5828  0.4197
 3150SOL     OW20378   9.528   7.924   3.902  0.4937 -0.3547  0.3188
 3150SOL    HW120379   9.509   7.856   3.973  0.2671 -0.6885 -0.0599
 3150SOL    HW220380   9.533   8.015   3.943 -1.4018 -0.3288  0.5039
 3151SOL     OW20381   0.111   4.699   0.255  0.1608 -0.0046  0.3924
 3151SOL    HW120382   0.085   4.604   0.239 -1.9821  0.7865 -1.1953
 3151SOL    HW220383   0.178   4.728   0.186  0.8587 -0.3789  0.9139
 3152SOL     OW20384   3.605   1.533   4.345  0.3079 -0.2422 -0.1805
 3152SOL    HW120385   3.526   1.473   4.359 -0.5816  1.1683  1.1384
 3152SOL    HW220386   3.577   1.612   4.290  1.1175 -0.3415 -0.7388
 3153SOL     OW20387   9.108   3.476   5.235  0.1756  0.2357 -0.6111
 3153SOL    HW120388   9.086   3.409   5.306  0.7768  1.0746  0.3856
 3153SOL    HW220389   9.198   3.516   5.254 -0.9950  2.7197 -0.1163
 3154SOL     OW20390   3.650   6.387   4.275 -0.7967  0.1659  0.3780
 3154SOL    HW120391   3.653   6.350   4.367 -2.6906  0.2765  0.5047
 3154SOL    HW220392   3.720   6.343   4.219  0.3507  0.0845  1.8518
 3155SOL     OW20393   9.513   6.991   2.927 -0.3701  0.0424 -0.1607
 3155SOL    HW120394   9.533   6.994   3.025  0.5769  1.9409 -0.3855
 3155SOL    HW220395   9.441   7.058   2.905 -0.1507  0.0562 -0.8555
 3156SOL     OW20396   1.407   0.166   5.211  0.0748  0.2453 -0.4349
 3156SOL    HW120397   1.491   0.131   5.253  0.0284 -0.8400 -1.2157
 3156SOL    HW220398   1.340   0.185   5.283  0.3313 -0.6671  0.0610
 3157SOL     OW20399   8.172   9.578   5.097  0.7354  0.4631 -1.0886
 3157SOL    HW120400   8.141   9.532   5.013  1.0086  0.5665 -1.2479
 3157SOL    HW220401   8.265   9.613   5.083  0.6481  0.7807 -0.8528
 3158SOL     OW20402   0.708   4.401   0.213 -0.6545  0.1392 -0.0929
 3158SOL    HW120403   0.757   4.323   0.250  3.4607  1.7710 -1.8433
 3158SOL    HW220404   0.661   4.374   0.129 -1.8346 -1.1468  0.9619
 3159SOL     OW20405   8.964   0.561   1.660  0.4384  0.2294  0.3286
 3159SOL    HW120406   8.984   0.656   1.637 -0.7244 -0.0375 -1.9483
 3159SOL    HW220407   8.984   0.503   1.581 -1.1902 -1.0872  0.8489
 3160SOL     OW20408   7.994   0.228   4.648 -0.1497  0.3133 -0.4024
 3160SOL    HW120409   8.037   0.303   4.596 -0.3616  1.0464  0.4679
 3160SOL    HW220410   7.948   0.266   4.728  1.3737 -0.9558  1.0999
 3161SOL     OW20411   3.852   5.167   2.804  0.1323 -0.4461  0.2986
 3161SOL    HW120412   3.821   5.205   2.716 -1.0775  1.4824  1.5259
 3161SOL    HW220413   3.861   5.240   2.871  2.1970 -1.7372  1.4992
 3162SOL     OW20414   0.037   8.355   3.576  0.2534 -0.4076 -0.3317
 3162SOL    HW120415   0.021   8.366   3.674 -2.7195  0.9530 -0.9292
 3162SOL    HW220416  -0.013   8.276   3.542 -2.4085  1.7309 -1.5415
 3163SOL     OW20417   1.811   8.753   2.662  0.8412 -0.1717 -0.4127
 3163SOL    HW120418   1.754   8.829   2.694 -0.3857 -1.2817  0.0986
 3163SOL    HW220419   1.792   8.672   2.718  1.6852 -1.0256 -1.3523
 3164SOL     OW20420   9.994   8.100   0.617 -0.2871  0.1388  0.2606
 3164SOL    HW120421   9.989   8.166   0.692  0.3183  0.5008 -0.0222
 3164SOL    HW220422   9.908   8.100   0.567 -0.4591  0.3669  0.5516
 3165SOL     OW20423   9.204   6.711   3.718 -0.9439  0.3531 -0.1771
 3165SOL    HW120424   9.162   6.796   3.748 -2.0092  0.4264 -1.8377
 3165SOL    HW220425   9.218   6.713   3.619 -0.7084 -1.2820 -0.1996
 3166SOL     OW20426   3.673   7.684   1.115 -0.0633  0.0749  0.5969
 3166SOL    HW120427   3.648   7.769   1.067  1.3235  0.4684  0.5616
 3166SOL    HW220428   3.755   7.699   1.170  0.4108 -1.3376  0.3068
 3167SOL     OW20429   7.236   0.063   0.412 -0.0627 -0.5995 -0.6983
 3167SOL    HW120430   7.233  -0.029   0.375 -2.1187 -1.0526  0.5023
 3167SOL    HW220431   7.206   0.129   0.343  0.1181 -0.9762 -1.1339
 3168SOL     OW20432   1.336   0.290   0.064 -0.2569  0.5193  0.0287
 3168SOL    HW120433   1.260   0.227   0.050  0.8208 -1.1509  1.4286
 3168SOL    HW220434   1.346   0.308   0.162  1.4581  0.3330 -0.0986
 3169SOL     OW20435   2.414   2.650   4.567 -0.3032  0.1043 -0.1860
 3169SOL    HW120436   2.341   2.599   4.522  0.7558 -1.5425 -0.0523
 3169SOL    HW220437   2.500   2.637   4.518  0.6110 -0.7014  1.5839
 3170SOL     OW20438   2.896   6.200   5.285 -0.0159  0.0880  0.2318
 3170SOL    HW120439   2.862   6.120   5.235  0.9949  1.6112 -2.9896
 3170SOL    HW220440   2.981   6.176   5.331 -0.1874 -0.9352  0.0390
 3171SOL     OW20441   0.986   1.251   4.209  0.5308  0.2081  0.8745
 3171SOL    HW120442   0.918   1.293   4.268  0.2295 -0.2624  0.8661
 3171SOL    HW220443   0.944   1.176   4.157  1.2727 -0.7460  1.6164
 3172SOL     OW20444   4.717   8.007   2.380  0.5906  0.1647  0.4274
 3172SOL    HW120445   4.754   7.997   2.473 -0.0452  1.0759  0.7809
 3172SOL    HW220446   4.680   8.099   2.368 -0.1849 -0.2526 -0.4262
 3173SOL     OW20447   0.217   6.069   1.455 -0.5365 -0.2068 -0.2535
 3173SOL    HW120448   0.222   6.159   1.499  1.5925 -0.7888  0.7390
 3173SOL    HW220449   0.236   6.079   1.357  1.5767  0.2127  0.1673
 3174SOL     OW20450   7.680   5.030   4.050  0.1880 -0.2413  0.2370
 3174SOL    HW120451   7.744   5.021   3.974  1.7364  1.8037  1.2296
 3174SOL    HW220452   7.601   5.083   4.020  0.5147  0.0535 -0.1195
 3175SOL     OW20453   2.085   9.902   3.305  0.2308 -0.5735  0.1770
 3175SOL    HW120454   2.023   9.829   3.279  0.0645 -0.5607  0.5369
 3175SOL    HW220455   2.180   9.869   3.304  0.1315 -0.8646  0.6076
 3176SOL     OW20456   0.476   5.661   4.535 -0.2096 -0.6300  0.1414
 3176SOL    HW120457   0.489   5.687   4.631  0.0498  0.3269 -0.1526
 3176SOL    HW220458   0.524   5.575   4.518  1.9792  0.5470  0.2098
 3177SOL     OW20459   0.026   4.879   1.592  0.3218  0.0348 -0.4405
 3177SOL    HW120460   0.020   4.898   1.690  1.1621  3.3296 -0.9770
 3177SOL    HW220461  -0.026   4.796   1.571  0.0223 -0.6457  2.7511
 3178SOL     OW20462   9.789   1.804   2.247  0.0624 -0.0431  0.4221
 3178SOL    HW120463   9.690   1.804   2.233  0.2475 -1.2554 -1.0207
 3178SOL    HW220464   9.826   1.894   2.226 -0.4941 -0.1245 -0.9117
 3179SOL     OW20465   9.023   6.502   0.621  0.2080  0.2235 -0.6248
 3179SOL    HW120466   8.981   6.427   0.673  0.2145  0.6586  0.0161
 3179SOL    HW220467   9.079   6.463   0.548  2.6206 -0.5379  1.5329
 3180SOL     OW20468   4.873   2.065   2.687  0.2691 -0.7906  0.3962
 3180SOL    HW120469   4.924   2.134   2.636  1.0903 -0.7855  1.2112
 3180SOL    HW220470   4.897   1.974   2.653  0.1267 -0.7368  0.1542
 3181SOL     OW20471   1.626   8.100   5.559 -0.2318  0.1979 -0.2714
 3181SOL    HW120472   1.648   8.008   5.589 -1.6647  0.3072  1.1566
 3181SOL    HW220473   1.528   8.115   5.565 -0.0073  1.8509 -0.3827
 3182SOL     OW20474   0.320   8.509   0.442  0.5127 -0.5400  0.4380
 3182SOL    HW120475   0.351   8.547   0.355  1.0610 -1.2292  0.3224
 3182SOL    HW220476   0.224   8.481   0.433 -0.0110  1.1462  0.6475
 3183SOL     OW20477   4.575   3.676   0.484 -0.5740  0.1847 -0.0090
 3183SOL    HW120478   4.483   3.714   0.476 -1.4416 -1.6521  1.0101
 3183SOL    HW220479   4.624   3.722   0.559 -1.3065 -0.0936  0.6460
 3184SOL     OW20480   7.713   2.745   1.165  0.1004 -0.0576  0.1028
 3184SOL    HW120481   7.732   2.816   1.097  0.2506 -0.0375  0.1653
 3184SOL    HW220482   7.799   2.703   1.194  0.1809  1.0417  1.4792
 3185SOL     OW20483   0.180   9.369   3.857  0.1848  0.9249 -0.7440
 3185SOL    HW120484   0.083   9.377   3.835  0.0439  1.1543 -0.0402
 3185SOL    HW220485   0.230   9.340   3.775 -0.6583 -0.5588 -0.7443
 3186SOL     OW20486   8.115   1.783   4.105 -0.2719 -0.5165 -0.4411
 3186SOL    HW120487   8.187   1.766   4.037 -0.2691 -0.0746 -0.5530
 3186SOL    HW220488   8.152   1.841   4.178 -0.7534  0.4433 -0.9445
 3187SOL     OW20489   4.936   9.875   3.723  0.4905  0.0138 -0.2984
 3187SOL    HW120490   4.909   9.874   3.626 -0.5186 -1.1712 -0.0207
 3187SOL    HW220491   4.856   9.897   3.779  0.7541 -0.6775  0.3485
 3188SOL     OW20492   7.734   7.583   2.454  0.5003  0.6767 -0.3867
 3188SOL    HW120493   7.711   7.666   2.503  0.7209  0.6901 -0.3027
 3188SOL    HW220494   7.789   7.523   2.513  0.4683  0.5391 -0.4962
 3189SOL     OW20495   1.070   3.210   4.777 -0.6909  0.5692 -0.4600
 3189SOL    HW120496   1.132   3.288   4.775 -0.2673  0.2016 -1.4834
 3189SOL    HW220497   1.100   3.140   4.712 -0.7856 -0.6669  0.7994
 3190SOL     OW20498   3.688   2.788   0.767  0.5352  0.0353  0.1846
 3190SOL    HW120499   3.611   2.803   0.705 -0.6527 -3.3993  0.7287
 3190SOL    HW220500   3.758   2.858   0.749 -0.5228  0.2517 -3.7821
 3191SOL     OW20501   9.762   3.544   1.005  0.5010 -0.0642  0.2001
 3191SOL    HW120502   9.709   3.545   1.090  0.3782  1.3644  0.1133
 3191SOL    HW220503   9.846   3.491   1.020 -0.3780 -1.3577  0.6726
 3192SOL     OW20504   0.556   7.851   4.873  0.1387 -0.4296  0.1548
 3192SOL    HW120505   0.582   7.792   4.949  0.3952  0.9417  1.1632
 3192SOL    HW220506   0.629   7.919   4.858 -1.1525  1.0524  0.5083
 3193SOL     OW20507   1.934   2.954   5.310 -1.0769 -0.2243 -0.1107
 3193SOL    HW120508   1.924   2.957   5.211  2.8192 -0.1052 -0.5807
 3193SOL    HW220509   2.001   3.023   5.339 -0.0302 -2.1764  2.2933
 3194SOL     OW20510   3.066   2.676   1.902 -0.0244 -0.1558 -0.0167
 3194SOL    HW120511   3.050   2.656   1.805 -1.0353  2.9041 -0.5357
 3194SOL    HW220512   2.994   2.633   1.957 -1.7355  1.3224 -1.0290
 3195SOL     OW20513   0.799   6.245   1.058  0.1547  0.7042 -0.2385
 3195SOL    HW120514   0.898   6.255   1.049  0.3867 -1.9392 -1.1160
 3195SOL    HW220515   0.758   6.335   1.075  2.6871  1.8257  0.2160
 3196SOL     OW20516   0.906   7.901   4.684  0.2908 -0.7826 -0.4982
 3196SOL    HW120517   0.834   7.872   4.621 -0.8507  1.2232 -0.1765
 3196SOL    HW220518   0.974   7.954   4.634 -0.5384  0.6835 -0.1080
 3197SOL     OW20519   0.441   2.648   0.867 -0.4434  0.1960 -0.0404
 3197SOL    HW120520   0.412   2.595   0.787 -0.3935 -0.2033  0.2070
 3197SOL    HW220521   0.452   2.587   0.945  2.5019  0.0728 -0.4837
 3198SOL     OW20522   1.541   8.712   5.508  0.3072  0.0463 -0.2656
 3198SOL    HW120523   1.554   8.802   5.468  1.3270 -0.3219 -0.7795
 3198SOL    HW220524   1.464   8.714   5.572  0.2004  1.2213 -0.4332
 3199SOL     OW20525   7.125   0.878   3.685 -0.0588 -0.3828  0.2700
 3199SOL    HW120526   7.194   0.950   3.683 -2.0466  1.5439 -1.2176
 3199SOL    HW220527   7.065   0.891   3.764 -0.1904 -0.6314  0.2133
 3200SOL     OW20528   0.878   6.280   0.736 -0.1501 -0.2198 -0.0525
 3200SOL    HW120529   0.975   6.303   0.744  0.0815 -1.1029 -0.2868
 3200SOL    HW220530   0.835   6.284   0.826  0.2046 -0.2710  0.1202
 3201SOL     OW20531   2.010   5.592   4.958  0.0042  0.4197  0.2239
 3201SOL    HW120532   1.970   5.588   5.049  0.5959  0.6659  0.4933
 3201SOL    HW220533   1.936   5.600   4.890 -0.5753 -2.3139  0.4875
 3202SOL     OW20534   6.922   1.058   1.156 -0.0920 -0.7105 -0.7536
 3202SOL    HW120535   6.959   1.090   1.069  0.9757  1.5564  0.5006
 3202SOL    HW220536   6.833   1.101   1.173 -0.1082 -0.8287 -0.5299
 3203SOL     OW20537   2.244   8.395   5.124 -0.2776 -0.4290 -0.4177
 3203SOL    HW120538   2.305   8.445   5.185 -0.6528  0.0483 -0.4312
 3203SOL    HW220539   2.152   8.433   5.129 -0.9537 -2.1635  0.7964
 3204SOL     OW20540   6.101   1.608   1.451  0.2085  0.1983 -0.4655
 3204SOL    HW120541   6.141   1.699   1.450  0.7670 -0.0375  0.2149
 3204SOL    HW220542   6.168   1.543   1.487  0.4883 -0.7837 -2.6254
 3205SOL     OW20543   3.975   4.243   3.947  0.6463  0.1435 -0.0444
 3205SOL    HW120544   3.939   4.149   3.940 -0.1964  0.4985 -0.6551
 3205SOL    HW220545   3.998   4.276   3.855 -1.8893  1.6072 -0.2057
 3206SOL     OW20546   1.572   9.580   4.987  0.4692  0.2582 -0.1990
 3206SOL    HW120547   1.578   9.574   4.888  1.2026  2.0021 -0.2934
 3206SOL    HW220548   1.559   9.676   5.013 -2.6614 -0.5125  1.2623
 3207SOL     OW20549   1.343   7.969   2.863 -0.9060 -0.0307 -0.1668
 3207SOL    HW120550   1.382   7.886   2.823 -0.1875  0.1087  0.2320
 3207SOL    HW220551   1.265   7.999   2.808  0.0268  0.1333 -1.4316
 3208SOL     OW20552   3.980   2.039   1.323 -0.1274  0.3724 -0.4534
 3208SOL    HW120553   4.021   1.948   1.312 -2.9133 -0.9280 -0.4218
 3208SOL    HW220554   4.006   2.076   1.412  1.3916 -0.1753 -0.6438
 3209SOL     OW20555   9.541   7.815   5.430  0.0973 -0.5344 -0.0554
 3209SOL    HW120556   9.458   7.860   5.463  0.0061 -0.2117 -0.7173
 3209SOL    HW220557   9.588   7.771   5.506  0.2325  0.7452  0.6040
 3210SOL     OW20558   9.819   9.973   2.472 -0.7001  0.1581  0.5203
 3210SOL    HW120559   9.866  10.056   2.503  1.3563 -0.3159 -1.1991
 3210SOL    HW220560   9.789   9.985   2.377  0.9583 -1.5688 -0.2633
 3211SOL     OW20561   7.827   8.077   3.962  0.7710  0.5911  0.4628
 3211SOL    HW120562   7.856   8.018   4.038 -0.2006 -0.3972  0.0814
 3211SOL    HW220563   7.727   8.078   3.958  0.7717  2.3775  0.5371
 3212SOL     OW20564   0.626   4.338   4.753 -0.2394 -0.4224  0.6784
 3212SOL    HW120565   0.613   4.426   4.707 -0.9058 -2.1041 -2.4473
 3212SOL    HW220566   0.554   4.275   4.726  2.7525 -3.3746 -0.7080
 3213SOL     OW20567   3.258   6.152   3.806  0.0023  0.4032 -0.3288
 3213SOL    HW120568   3.198   6.107   3.740 -0.3596 -1.3778  1.1516
 3213SOL    HW220569   3.220   6.242   3.829 -0.5442  0.4963 -1.5883
 3214SOL     OW20570   0.870   7.377   4.564 -0.5023 -0.2617 -1.0564
 3214SOL    HW120571   0.898   7.379   4.660 -0.3497  2.3020 -1.1303
 3214SOL    HW220572   0.932   7.317   4.513 -0.3600 -1.3479  0.3673
 3215SOL     OW20573   0.593   0.893   4.544 -0.1009 -0.0222  0.0304
 3215SOL    HW120574   0.527   0.922   4.475  0.2281  0.8740  0.0720
 3215SOL    HW220575   0.665   0.839   4.500  0.7044  1.4696 -0.5546
 3216SOL     OW20576   0.021   6.883   4.969 -0.2133  0.1258 -0.3630
 3216SOL    HW120577  -0.026   6.959   4.923 -0.1468  0.2393 -0.2420
 3216SOL    HW220578  -0.043   6.807   4.980 -0.9317  0.9668  1.5311
 3217SOL     OW20579   4.287   7.415   1.138  0.4817 -0.3221 -0.4876
 3217SOL    HW120580   4.367   7.375   1.183  0.7376  0.5315 -0.1661
 3217SOL    HW220581   4.216   7.434   1.206 -0.4343 -2.0996 -0.9326
 3218SOL     OW20582   2.908   3.360   3.587 -0.0781 -0.0714  0.4715
 3218SOL    HW120583   2.930   3.456   3.607 -2.3422 -0.0448  3.0913
 3218SOL    HW220584   2.827   3.355   3.528  0.5221 -0.3988 -0.3500
 3219SOL     OW20585   2.533   2.652   2.559 -0.5237  0.0742 -0.2872
 3219SOL    HW120586   2.520   2.739   2.606  0.7275  1.4857 -2.4460
 3219SOL    HW220587   2.490   2.579   2.612  0.7844  1.5575  2.9921
 3220SOL     OW20588   8.450   0.184   5.111  0.0024 -0.6293 -0.0097
 3220SOL    HW120589   8.535   0.148   5.072 -0.5714 -1.0035 -0.9336
 3220SOL    HW220590   8.462   0.198   5.209  2.4247  3.1133 -0.7441
 3221SOL     OW20591   4.612   8.003   4.258  0.1309 -0.2539 -0.2168
 3221SOL    HW120592   4.533   8.027   4.203  1.1985  0.7055 -1.3645
 3221SOL    HW220593   4.641   7.910   4.236  1.0214  0.3973 -1.8648
 3222SOL     OW20594   5.550   2.654   1.983  0.0303  0.1894  0.3796
 3222SOL    HW120595   5.635   2.706   1.994  0.4127 -0.6996  1.8065
 3222SOL    HW220596   5.478   2.697   2.036 -0.0063  0.0620  0.4336
 3223SOL     OW20597   1.250   5.092   1.202 -0.1675 -0.0193  0.6842
 3223SOL    HW120598   1.231   5.007   1.152  0.0077  1.0846 -1.3249
 3223SOL    HW220599   1.335   5.132   1.168 -1.9697  2.7125 -0.8026
 3224SOL     OW20600   1.810   5.750   3.027  0.2480  0.4661 -0.2689
 3224SOL    HW120601   1.867   5.757   2.946  2.6017  0.6492  1.3562
 3224SOL    HW220602   1.785   5.654   3.042  2.8000 -0.0933  0.7384
 3225SOL     OW20603   6.390   0.674   1.716  0.2676 -0.1700 -0.2515
 3225SOL    HW120604   6.430   0.594   1.671  1.1352  1.5402 -2.6808
 3225SOL    HW220605   6.329   0.721   1.652  1.0283  1.9996  0.5539
 3226SOL     OW20606   9.554   9.795   0.582 -0.1551  0.2443  0.1027
 3226SOL    HW120607   9.595   9.880   0.549  0.7476  0.0375  0.6717
 3226SOL    HW220608   9.543   9.799   0.681  3.0200 -1.5759  0.6147
 3227SOL     OW20609   2.286   7.002   2.326  0.2289 -0.8624  0.0557
 3227SOL    HW120610   2.376   7.044   2.315 -0.0589 -0.2027  0.1625
 3227SOL    HW220611   2.278   6.963   2.418 -0.1287  0.3990  0.5707
 3228SOL     OW20612   5.030   9.574   2.044 -0.4876  0.1608  0.6700
 3228SOL    HW120613   5.095   9.646   2.017 -0.4716  0.4199  1.3913
 3228SOL    HW220614   5.025   9.569   2.144 -1.1405 -0.2552  0.6204
 3229SOL     OW20615   9.297   7.596   2.957  0.4679 -0.4511  0.3273
 3229SOL    HW120616   9.363   7.570   3.028  1.1130  1.4567  0.4709
 3229SOL    HW220617   9.231   7.523   2.944  1.4573 -1.5922  1.5804
 3230SOL     OW20618   0.253   9.381   5.001  0.2318  0.3350  0.0953
 3230SOL    HW120619   0.334   9.329   4.972  0.6755  0.6963  0.6779
 3230SOL    HW220620   0.177   9.363   4.938  0.4545 -0.8372  0.1537
 3231SOL     OW20621   2.749   6.114   3.130 -0.2037  0.1865  0.0791
 3231SOL    HW120622   2.828   6.116   3.191 -0.2781 -0.2816  0.1990
 3231SOL    HW220623   2.718   6.019   3.120 -0.7279  0.3651  0.0086
 3232SOL     OW20624   4.110   5.648   0.925 -0.1077  0.1125 -0.2657
 3232SOL    HW120625   4.024   5.690   0.897 -0.6548  0.1805  1.4315
 3232SOL    HW220626   4.115   5.554   0.891  0.3014  0.9084 -2.5088
 3233SOL     OW20627   6.308   0.741   2.927  0.2242 -0.0201  0.5062
 3233SOL    HW120628   6.343   0.734   3.020  0.5330  0.6945  0.4486
 3233SOL    HW220629   6.384   0.749   2.863 -0.0175  0.6838  0.3053
 3234SOL     OW20630   1.336   5.794   0.637 -0.6285  0.6787 -0.4052
 3234SOL    HW120631   1.256   5.853   0.627 -0.5745  0.8749  0.3101
 3234SOL    HW220632   1.363   5.791   0.733  1.0016  1.6284 -0.8226
 3235SOL     OW20633   7.712   2.817   4.927 -0.7624  0.1852 -0.1569
 3235SOL    HW120634   7.783   2.870   4.973 -0.4377 -0.8383  0.5462
 3235SOL    HW220635   7.725   2.823   4.828 -1.9540  3.0832 -0.1952
 3236SOL     OW20636   1.641   7.060   0.018 -0.2009  0.1039 -0.1009
 3236SOL    HW120637   1.593   6.988   0.067 -1.4033  1.3792  0.6098
 3236SOL    HW220638   1.644   7.142   0.074  0.7433  0.7648 -1.1023
 3237SOL     OW20639   0.834   7.328   0.168  0.1989 -0.3058 -0.0588
 3237SOL    HW120640   0.842   7.236   0.128 -2.2862 -0.0072 -1.3426
 3237SOL    HW220641   0.766   7.326   0.240 -3.4544  1.4752 -3.2894
 3238SOL     OW20642   9.268   1.075   4.012  0.0665 -0.5304 -0.8211
 3238SOL    HW120643   9.273   1.160   4.065 -2.1907 -0.1986 -1.1164
 3238SOL    HW220644   9.267   0.997   4.074  0.0158 -0.2505 -0.4645
 3239SOL     OW20645   3.598   3.024   3.121  0.2756  0.1701 -0.8536
 3239SOL    HW120646   3.652   3.031   3.037  1.4838  2.7466  0.1046
 3239SOL    HW220647   3.534   3.101   3.127 -1.4503 -1.2397 -0.5026
 3240SOL     OW20648   3.517   0.911   1.582 -0.6047 -0.0373  0.4890
 3240SOL    HW120649   3.596   0.926   1.642 -1.1915  0.6508  1.0967
 3240SOL    HW220650   3.460   0.993   1.580 -2.4319 -1.2136  1.7336
 3241SOL     OW20651   2.254   5.651   4.596 -0.2860 -0.0815 -0.7590
 3241SOL    HW120652   2.225   5.595   4.518 -2.4188  0.9139 -0.7287
 3241SOL    HW220653   2.229   5.746   4.579 -1.3998  0.0389  1.4443
 3242SOL     OW20654   0.903   4.752   2.109 -0.2904 -0.0346  0.4787
 3242SOL    HW120655   0.813   4.746   2.153 -0.5327  0.4037  0.0475
 3242SOL    HW220656   0.892   4.783   2.015  0.3650  0.5998  0.6058
 3243SOL     OW20657   2.620   8.464   1.629 -0.2963  0.0411 -0.3649
 3243SOL    HW120658   2.714   8.449   1.597 -0.7085 -3.8899  0.0897
 3243SOL    HW220659   2.592   8.557   1.605  3.4441  1.0878 -1.1237
 3244SOL     OW20660   1.947   2.257   4.318  0.2740 -0.2217  0.2395
 3244SOL    HW120661   1.902   2.312   4.388 -1.7269 -0.6490 -0.6838
 3244SOL    HW220662   2.011   2.314   4.267 -0.5002  0.8359  0.4304
 3245SOL     OW20663   3.091   3.255   2.771 -0.3840  0.5878 -0.2666
 3245SOL    HW120664   3.044   3.235   2.685  0.1170 -0.6308 -0.2575
 3245SOL    HW220665   3.039   3.216   2.847  0.4435 -0.4410 -0.2247
 3246SOL     OW20666   7.891   3.010   0.596 -0.9088  0.8208  0.1382
 3246SOL    HW120667   7.878   3.015   0.497  2.2436 -1.6005 -0.4720
 3246SOL    HW220668   7.865   2.918   0.627 -1.3407  1.3966  1.4874
 3247SOL     OW20669   6.300   9.384   2.308  0.9901  0.4422  0.0016
 3247SOL    HW120670   6.259   9.443   2.239  1.0604  0.9775  0.4174
 3247SOL    HW220671   6.231   9.319   2.341  0.4163  1.4460  0.8210
 3248SOL     OW20672   7.386   1.556   4.113  0.2405  0.2119  0.4459
 3248SOL    HW120673   7.300   1.604   4.134  1.5945  2.3421  1.2910
 3248SOL    HW220674   7.383   1.522   4.020 -0.6880  2.1847 -0.2836
 3249SOL     OW20675   6.468   9.518   2.508  0.5839  0.2545  0.6821
 3249SOL    HW120676   6.453   9.466   2.592  1.1548  0.6250  1.0204
 3249SOL    HW220677   6.405   9.485   2.437  2.2856 -2.2876  0.2694
 3250SOL     OW20678   1.322   8.005   1.483 -0.3953 -0.6820 -0.0234
 3250SOL    HW120679   1.407   7.957   1.504 -0.0368 -0.1518 -0.2448
 3250SOL    HW220680   1.313   8.085   1.542 -0.5681 -0.5407 -0.2406
 3251SOL     OW20681   3.139   6.127   2.150  0.4158  0.0584  0.3040
 3251SOL    HW120682   3.174   6.128   2.057 -1.2872  0.3442 -0.3495
 3251SOL    HW220683   3.101   6.217   2.172  1.8740  0.3620  1.7071
 3252SOL     OW20684   3.618   4.725   2.783 -0.6203  0.6107  0.0730
 3252SOL    HW120685   3.565   4.721   2.698  1.8469 -0.1654 -1.4780
 3252SOL    HW220686   3.632   4.633   2.819  2.1791  0.4813 -1.1888
 3253SOL     OW20687   2.270   8.449   1.334 -0.2459  0.6988 -0.2395
 3253SOL    HW120688   2.253   8.459   1.432  0.3651 -0.8486  0.0424
 3253SOL    HW220689   2.368   8.434   1.318 -0.7231 -2.3671 -0.7429
 3254SOL     OW20690   7.548   1.399   4.898  0.0875  0.2858  0.1909
 3254SOL    HW120691   7.620   1.465   4.918 -0.9989  1.0536  1.6888
 3254SOL    HW220692   7.531   1.397   4.799  1.5052  0.7662 -0.0757
 3255SOL     OW20693   7.857   2.386   1.915  0.3325  0.2508  0.6017
 3255SOL    HW120694   7.798   2.314   1.952  1.8352 -1.4137 -0.1690
 3255SOL    HW220695   7.817   2.422   1.831 -0.0994 -0.1621  0.6277
 3256SOL     OW20696   2.908   1.553   3.895  0.4078 -0.0976 -0.2898
 3256SOL    HW120697   2.960   1.617   3.952 -0.6782 -0.1213  0.7593
 3256SOL    HW220698   2.920   1.461   3.930 -0.0438 -0.1489 -0.2691
 3257SOL     OW20699   4.265   7.969   5.181 -0.5648 -0.3023  0.9755
 3257SOL    HW120700   4.199   7.936   5.249  0.0061 -2.2129  0.6481
 3257SOL    HW220701   4.259   7.913   5.098 -0.6055  1.4148 -0.2069
 3258SOL     OW20702   0.557   2.038   0.507  0.1210 -0.3694  0.3221
 3258SOL    HW120703   0.478   1.982   0.531 -0.7813  0.6811 -0.1552
 3258SOL    HW220704   0.534   2.097   0.430  1.5065 -0.3522 -0.0899
 3259SOL     OW20705   4.631   0.758   3.813  0.4230 -0.5294  0.1746
 3259SOL    HW120706   4.546   0.787   3.768  1.3772 -0.8854 -1.9342
 3259SOL    HW220707   4.639   0.659   3.806  1.4153 -0.4136 -0.3875
 3260SOL     OW20708   5.605   0.759   4.221  0.1349 -0.7385 -0.0908
 3260SOL    HW120709   5.673   0.806   4.277 -0.1959 -0.6335  0.2268
 3260SOL    HW220710   5.645   0.675   4.182  0.7993 -0.0716 -0.8579
 3261SOL     OW20711   9.945   9.178   4.217 -0.2691  0.8244  0.6123
 3261SOL    HW120712   9.998   9.191   4.134  0.6020 -0.1011  1.0115
 3261SOL    HW220713   9.849   9.200   4.199  0.2160  2.3906 -0.1381
 3262SOL     OW20714   3.834   1.552   0.292  0.6869  0.0105  0.0565
 3262SOL    HW120715   3.823   1.637   0.344 -1.3719 -0.1256 -0.1142
 3262SOL    HW220716   3.926   1.516   0.307  0.0611 -0.2057  3.9058
 3263SOL     OW20717   1.414   5.543   0.541 -0.3497  0.3862 -0.2492
 3263SOL    HW120718   1.388   5.636   0.563 -1.2785  0.3245 -1.0652
 3263SOL    HW220719   1.403   5.527   0.443  0.0674 -0.4939 -0.1648
 3264SOL     OW20720   1.951   8.626   0.794  0.1949  0.3744  0.7363
 3264SOL    HW120721   1.942   8.528   0.806 -1.5729  0.6668  2.0018
 3264SOL    HW220722   2.045   8.654   0.814  0.4493 -0.9182  1.3636
 3265SOL     OW20723   2.379   7.848   5.138  0.1644 -0.6259 -0.8518
 3265SOL    HW120724   2.379   7.827   5.041 -0.6967  1.2323 -1.2898
 3265SOL    HW220725   2.337   7.938   5.152 -0.3816 -1.1862  1.2968
 3266SOL     OW20726   9.505   9.960   2.413 -0.1795 -0.2176  0.1754
 3266SOL    HW120727   9.572   9.971   2.339  1.0224 -0.6226  1.1797
 3266SOL    HW220728   9.437  10.032   2.408 -0.2180 -0.3448 -1.4410
 3267SOL     OW20729   1.960   2.351   1.115  0.2795 -0.2083  0.4498
 3267SOL    HW120730   1.975   2.256   1.139  0.3967 -0.3347 -0.1120
 3267SOL    HW220731   1.967   2.408   1.197 -0.0699 -0.7111  0.8353
 3268SOL     OW20732   5.892   1.236   3.963  0.6570 -0.0790 -0.5505
 3268SOL    HW120733   5.988   1.246   3.990  0.6584 -0.3085 -0.4698
 3268SOL    HW220734   5.879   1.148   3.918  0.0887 -0.9059  1.1824
 3269SOL     OW20735   1.230   9.467   3.041  0.1164  0.3118  0.4540
 3269SOL    HW120736   1.161   9.411   2.996 -0.2668  0.6926  0.5552
 3269SOL    HW220737   1.208   9.475   3.138 -0.2082  1.1794  0.3168
 3270SOL     OW20738   8.175   5.425   0.950  0.2732  0.2625  0.2400
 3270SOL    HW120739   8.205   5.336   0.985 -0.7900  0.9229  2.9675
 3270SOL    HW220740   8.211   5.497   1.008 -1.2003  1.4505 -0.2966
 3271SOL     OW20741   0.616   6.808   2.528  0.5616  0.0537  0.2363
 3271SOL    HW120742   0.614   6.820   2.627 -1.9687  0.5618  0.1466
 3271SOL    HW220743   0.623   6.898   2.484 -1.5012  0.0877 -0.0838
 3272SOL     OW20744   7.541   4.059   0.828 -0.0076  0.1365 -0.2050
 3272SOL    HW120745   7.510   4.142   0.782  0.3446  0.3522 -0.0593
 3272SOL    HW220746   7.539   4.074   0.927  1.8303  0.6294 -0.2207
 3273SOL     OW20747   7.274   7.148   4.209  0.3658 -0.4296 -0.0413
 3273SOL    HW120748   7.363   7.114   4.179  0.0817 -0.1785 -1.1805
 3273SOL    HW220749   7.288   7.224   4.273  0.9703  0.6077 -1.3928
 3274SOL     OW20750   2.134   8.356   0.707 -0.0956 -0.3494  0.3389
 3274SOL    HW120751   2.194   8.412   0.650 -1.4185  1.2533  0.4685
 3274SOL    HW220752   2.170   8.353   0.800 -0.9387  1.8755  0.7952
 3275SOL     OW20753   0.208   4.456   3.880  0.3554 -0.1354  0.1168
 3275SOL    HW120754   0.183   4.503   3.965  0.5783  0.5468 -0.1857
 3275SOL    HW220755   0.133   4.463   3.814  0.4885  0.0338 -0.0207
 3276SOL     OW20756   1.391   2.304   1.390  0.2148 -0.5817 -0.0772
 3276SOL    HW120757   1.368   2.397   1.361  1.0551 -0.2407  0.3314
 3276SOL    HW220758   1.307   2.251   1.403 -0.2238 -0.2404 -1.4699
 3277SOL     OW20759   7.462   9.058   2.322  0.3854  0.0727  0.2237
 3277SOL    HW120760   7.495   8.966   2.346  0.8457 -0.0392 -0.8499
 3277SOL    HW220761   7.377   9.076   2.373  1.1155 -0.3356  1.6141
 3278SOL     OW20762   5.037   9.912   4.227 -0.0408  0.0060 -0.1505
 3278SOL    HW120763   4.953   9.962   4.204 -1.1629 -2.3760 -1.4021
 3278SOL    HW220764   5.013   9.823   4.265  1.9315 -0.4422  0.0695
 3279SOL     OW20765   2.399   3.646   3.641  0.1809  0.0863 -0.0171
 3279SOL    HW120766   2.414   3.613   3.734 -0.1110 -0.6056 -0.2111
 3279SOL    HW220767   2.304   3.629   3.614 -0.0009  1.1592 -0.0961
 3280SOL     OW20768   1.461   7.184   3.110 -0.2160  0.4534  0.1630
 3280SOL    HW120769   1.473   7.212   3.206  1.0355  0.3115  0.0510
 3280SOL    HW220770   1.492   7.090   3.099  2.1369  1.3266 -0.9261
 3281SOL     OW20771   8.685   7.346   1.295 -0.2759 -0.4203  0.4235
 3281SOL    HW120772   8.712   7.259   1.256 -0.2355 -0.7343  1.1417
 3281SOL    HW220773   8.592   7.338   1.332 -0.4664 -0.0143  0.0329
 3282SOL     OW20774   3.812   3.462   3.040  0.4525  0.4038  0.2700
 3282SOL    HW120775   3.732   3.438   2.985  0.7773 -0.9054  0.3608
 3282SOL    HW220776   3.893   3.417   3.003  1.0839  1.3917  0.4322
 3283SOL     OW20777   8.326   4.091   0.538 -0.5538 -0.0735  0.2449
 3283SOL    HW120778   8.263   4.150   0.489 -0.9205 -1.5165 -1.0599
 3283SOL    HW220779   8.312   3.996   0.510  2.1924 -0.4304 -0.0835
 3284SOL     OW20780   2.378   8.594   2.064 -0.0669  0.3623 -0.6620
 3284SOL    HW120781   2.408   8.657   2.135  0.8244 -0.7910  0.0092
 3284SOL    HW220782   2.279   8.599   2.056 -0.1655  0.6546  0.5351
 3285SOL     OW20783   2.075   2.322   5.485  0.0134 -0.2690 -0.1741
 3285SOL    HW120784   1.976   2.316   5.478 -0.1020  1.6524 -0.4135
 3285SOL    HW220785   2.101   2.323   5.582 -0.4062  1.8634 -0.0613
 3286SOL     OW20786   8.625   3.532   4.147  0.0620  0.3050  0.3712
 3286SOL    HW120787   8.551   3.469   4.124  2.4105 -2.3416 -0.1955
 3286SOL    HW220788   8.671   3.562   4.063  1.1715  0.0119  0.8705
 3287SOL     OW20789   7.936   3.903   1.820 -0.0846  0.0240  0.0268
 3287SOL    HW120790   7.959   3.826   1.760 -2.4554  0.4409 -1.5167
 3287SOL    HW220791   7.882   3.870   1.897 -0.9891  0.0965 -0.5647
 3288SOL     OW20792   2.140   9.603   5.324  0.7028  0.0563  0.2506
 3288SOL    HW120793   2.212   9.551   5.279  1.1112  0.0022  0.9489
 3288SOL    HW220794   2.102   9.549   5.399 -0.8520 -0.3638 -0.8153
 3289SOL     OW20795   3.500   0.721   0.228 -0.1449  0.0299  0.2524
 3289SOL    HW120796   3.458   0.743   0.316 -0.4312  0.9158 -0.1061
 3289SOL    HW220797   3.557   0.797   0.199  1.2080 -0.8911  0.4217
 3290SOL     OW20798   3.736   9.899   3.525 -0.3650  0.3549 -0.6054
 3290SOL    HW120799   3.777   9.822   3.574  0.8260  2.1509  1.3550
 3290SOL    HW220800   3.644   9.874   3.495 -0.4211 -1.4759  0.9459
 3291SOL     OW20801   2.637   9.267   2.856 -0.4915  0.2316 -0.2166
 3291SOL    HW120802   2.569   9.239   2.789 -0.8686 -0.5971  0.5029
 3291SOL    HW220803   2.727   9.235   2.827 -0.8811 -1.5965  0.4799
 3292SOL     OW20804   1.886   2.805   3.309  0.3284  0.0370 -0.0003
 3292SOL    HW120805   1.871   2.746   3.388 -1.9415  0.3370 -0.1636
 3292SOL    HW220806   1.919   2.894   3.339 -1.5544  0.5122  0.7254
 3293SOL     OW20807   0.324   2.641   3.572 -0.6041 -0.2224  0.7492
 3293SOL    HW120808   0.226   2.640   3.553 -0.2807 -0.8178 -0.9986
 3293SOL    HW220809   0.372   2.681   3.494  0.6155 -0.8202  1.1838
 3294SOL     OW20810   8.836   3.370   4.670  0.0633  0.2318  0.2117
 3294SOL    HW120811   8.797   3.418   4.591  0.7704  1.3383  0.5283
 3294SOL    HW220812   8.901   3.429   4.717 -1.8282  0.3265  2.8375
 3295SOL     OW20813   1.864   2.057   1.455 -0.1724  0.3219 -0.0441
 3295SOL    HW120814   1.796   2.026   1.389 -1.0961  0.8008  0.6554
 3295SOL    HW220815   1.830   2.040   1.548  1.9634 -2.1788  0.3369
 3296SOL     OW20816   9.613   0.544   5.437  0.5061 -0.1492  0.2326
 3296SOL    HW120817   9.552   0.468   5.454  0.9777 -0.6017 -0.0796
 3296SOL    HW220818   9.561   0.622   5.403 -0.0871 -0.0706  1.3088
 3297SOL     OW20819   7.678   9.927   3.771  0.1193  0.5312 -0.5083
 3297SOL    HW120820   7.658   9.997   3.702 -1.5403 -0.4044 -1.0055
 3297SOL    HW220821   7.603   9.923   3.837  0.5902 -0.2443 -0.0178
 3298SOL     OW20822   1.871   8.277   4.707 -0.0523  0.2402 -0.4801
 3298SOL    HW120823   1.867   8.255   4.609  1.7869 -0.5916 -0.3844
 3298SOL    HW220824   1.954   8.238   4.746 -0.7608  0.6077  1.4172
 3299SOL     OW20825   7.001   3.833   0.363 -0.5928  0.2039  0.7317
 3299SOL    HW120826   6.994   3.822   0.264  0.2316 -2.5571  0.9328
 3299SOL    HW220827   6.910   3.851   0.401 -1.3106 -1.2067 -0.2819
 3300SOL     OW20828   7.811   0.316   2.217  0.0738 -0.1214 -0.2079
 3300SOL    HW120829   7.865   0.235   2.240  3.4478  1.7855 -1.0968
 3300SOL    HW220830   7.782   0.361   2.301  0.1844 -0.9700  0.2953
 3301SOL     OW20831   6.292   0.827   0.998  0.3307  0.1579  0.5916
 3301SOL    HW120832   6.270   0.924   1.009  1.8375  0.4340  1.2285
 3301SOL    HW220833   6.325   0.811   0.904 -0.0696  0.2258  0.4378
 3302SOL     OW20834   3.426   9.494   4.714 -0.6100  0.0594 -0.9324
 3302SOL    HW120835   3.354   9.487   4.782 -1.8251 -1.9256 -2.3764
 3302SOL    HW220836   3.512   9.457   4.751 -0.8265  0.5964  0.1007
 3303SOL     OW20837   9.828   5.660   3.938  0.1073  0.5750 -0.6387
 3303SOL    HW120838   9.728   5.662   3.934  0.0137 -1.7854 -0.1914
 3303SOL    HW220839   9.858   5.689   4.029 -0.2995 -0.8228 -0.0386
 3304SOL     OW20840   0.910   4.827   5.003 -0.4429  0.3304 -0.0690
 3304SOL    HW120841   0.920   4.753   4.936 -0.1822  2.4969 -2.5031
 3304SOL    HW220842   0.996   4.878   5.009  0.0379 -0.7711  3.1244
 3305SOL     OW20843   1.904   7.151   4.010  0.6163 -0.0992 -0.2854
 3305SOL    HW120844   1.939   7.210   3.937  1.3559 -0.8348 -0.5318
 3305SOL    HW220845   1.844   7.082   3.971 -0.1898  0.4379 -0.0054
 3306SOL     OW20846   2.582   6.296   4.047  0.8393 -0.5555 -0.5576
 3306SOL    HW120847   2.494   6.258   4.073  0.2135  0.4330 -1.1809
 3306SOL    HW220848   2.653   6.264   4.111 -0.4780  1.0133  1.7914
 3307SOL     OW20849   3.101   3.982   4.826  0.4809 -0.3261  0.8341
 3307SOL    HW120850   3.119   3.961   4.730 -0.3054  0.4470  0.5147
 3307SOL    HW220851   3.018   3.934   4.856 -0.2932  0.8453  0.6114
 3308SOL     OW20852   6.520   0.233   4.334 -0.9843  0.1798  0.2301
 3308SOL    HW120853   6.540   0.252   4.431  1.2515 -0.3770 -0.0896
 3308SOL    HW220854   6.547   0.139   4.313 -0.0870  0.7631 -1.2796
 3309SOL     OW20855   4.859   8.647   4.044  0.1780 -0.3085 -0.3796
 3309SOL    HW120856   4.815   8.561   4.068 -0.4710  0.4637  1.3093
 3309SOL    HW220857   4.862   8.657   3.945  0.1714 -2.2207 -0.5801
 3310SOL     OW20858   0.188   6.026   4.594 -0.6351 -0.5265 -0.0076
 3310SOL    HW120859   0.230   6.024   4.685  0.5715 -0.1311 -0.5458
 3310SOL    HW220860   0.110   5.964   4.592 -0.1552 -1.1788  1.0564
 3311SOL     OW20861   3.003   8.746   5.112 -0.0353  0.4030  0.0774
 3311SOL    HW120862   2.944   8.772   5.036 -0.5081  0.1000  0.3356
 3311SOL    HW220863   2.986   8.806   5.190  0.7151  0.9496 -0.1785
 3312SOL     OW20864   9.227   9.103   5.454 -0.0882 -0.8206 -0.3455
 3312SOL    HW120865   9.189   9.079   5.544  0.7411 -2.5170 -0.4312
 3312SOL    HW220866   9.217   9.201   5.439  0.6445 -0.3646  2.0156
 3313SOL     OW20867   1.458   6.583   0.561 -0.3298 -0.2856 -0.2560
 3313SOL    HW120868   1.415   6.568   0.472 -1.3008 -2.7063  0.5947
 3313SOL    HW220869   1.444   6.503   0.619  3.5045 -0.2640  0.8163
 3314SOL     OW20870   0.657   3.323   1.008  0.4120  0.1368 -0.2649
 3314SOL    HW120871   0.667   3.276   0.920  1.1731  0.8600 -0.5672
 3314SOL    HW220872   0.654   3.255   1.082 -0.5168 -0.4843 -0.8718
 3315SOL     OW20873   9.670   8.430   1.397 -0.2353  0.5193  0.4372
 3315SOL    HW120874   9.669   8.487   1.315  0.5286 -0.8958 -0.5887
 3315SOL    HW220875   9.764   8.421   1.430 -0.4853  0.7083  1.2005
 3316SOL     OW20876   7.777   8.381   2.890 -0.1025 -0.0289  0.0699
 3316SOL    HW120877   7.682   8.355   2.870 -0.4050  2.2063 -1.6931
 3316SOL    HW220878   7.835   8.355   2.813 -0.1106  2.7184 -0.9128
 3317SOL     OW20879   0.026   7.027   2.842  0.2551  0.1095 -0.2264
 3317SOL    HW120880  -0.068   6.998   2.825 -0.5771  2.0074  0.9381
 3317SOL    HW220881   0.056   7.087   2.768  0.4382 -0.2552 -0.4467
 3318SOL     OW20882   5.980   7.334   3.858 -0.4643  0.5353  0.0846
 3318SOL    HW120883   5.990   7.305   3.763 -0.3579  1.3473 -0.1605
 3318SOL    HW220884   6.005   7.431   3.866 -3.8852  1.4715  0.2560
 3319SOL     OW20885   2.437   1.536   3.197 -0.2794 -0.2223 -0.2794
 3319SOL    HW120886   2.399   1.557   3.287  0.4948  1.3039 -0.2771
 3319SOL    HW220887   2.368   1.557   3.127 -0.9457 -1.5820 -0.0434
 3320SOL     OW20888   0.041   4.944   1.040 -0.2585  0.3915  0.0389
 3320SOL    HW120889   0.074   4.993   0.960 -0.3939  0.8115  0.2385
 3320SOL    HW220890  -0.019   5.003   1.094 -2.5009 -0.8298 -1.0659
 3321SOL     OW20891   5.960   0.144   3.136  0.2682  0.5526 -0.5688
 3321SOL    HW120892   5.960   0.211   3.062 -2.6914  1.2018 -0.0665
 3321SOL    HW220893   5.978   0.191   3.223  1.7723  0.1021 -0.6230
 3322SOL     OW20894   0.956   5.747   1.237  0.0511 -0.3089  0.8043
 3322SOL    HW120895   0.956   5.846   1.227  0.5633 -0.5187 -1.7745
 3322SOL    HW220896   1.019   5.720   1.310  2.4387  1.1259 -0.6532
 3323SOL     OW20897   9.315   1.281   4.181 -0.2035  0.5365  0.1410
 3323SOL    HW120898   9.317   1.380   4.198  3.5402  0.5487  0.1184
 3323SOL    HW220899   9.385   1.237   4.237  2.3317 -1.2909 -4.1840
 3324SOL     OW20900   8.764   4.062   2.351  0.2180 -1.0337 -0.4737
 3324SOL    HW120901   8.760   4.098   2.258 -0.3683 -1.7166 -0.7209
 3324SOL    HW220902   8.803   3.970   2.349  1.1734 -0.6472  0.0838
 3325SOL     OW20903   0.835   6.526   4.917  0.2455  0.1362 -0.3559
 3325SOL    HW120904   0.803   6.475   4.837 -1.3988 -2.9550  2.1496
 3325SOL    HW220905   0.903   6.472   4.966  0.2101  1.3839  1.1018
 3326SOL     OW20906   9.542   5.046   2.003  0.4469 -0.4808 -0.3646
 3326SOL    HW120907   9.489   5.107   1.944  0.3720  1.1076  1.3137
 3326SOL    HW220908   9.492   5.031   2.088  1.8813 -0.4081  0.4992
 3327SOL     OW20909   1.888   3.637   4.725  0.3607 -0.3045 -0.1284
 3327SOL    HW120910   1.917   3.619   4.819 -0.7429  0.7763  0.4486
 3327SOL    HW220911   1.910   3.559   4.667  2.6433 -0.2665  0.6608
 3328SOL     OW20912   4.415   0.977   4.903 -0.2501  0.0271 -0.6937
 3328SOL    HW120913   4.501   1.000   4.859 -0.3707  0.1609 -0.8625
 3328SOL    HW220914   4.422   0.887   4.946 -0.5505 -0.6886 -2.1138
 3329SOL     OW20915   0.104   5.947   1.695  0.2817  0.4552 -0.6345
 3329SOL    HW120916   0.132   6.015   1.628  0.1959  0.0656 -1.0686
 3329SOL    HW220917   0.010   5.966   1.725  0.3743  0.7180 -0.5097
 3330SOL     OW20918   6.725   9.702   4.612  0.1890  0.0612  0.2897
 3330SOL    HW120919   6.688   9.757   4.686  1.8015  1.4668  0.0744
 3330SOL    HW220920   6.664   9.625   4.594 -1.4791  1.0987  1.4027
 3331SOL     OW20921   8.071   0.299   5.244  0.8497  0.0162  0.4560
 3331SOL    HW120922   8.122   0.339   5.168  0.2763 -0.6092 -0.2634
 3331SOL    HW220923   8.118   0.217   5.276  0.6826 -0.1632  0.2509
 3332SOL     OW20924   9.521   0.383   3.419  0.7463 -0.1390  0.5666
 3332SOL    HW120925   9.505   0.445   3.496  1.1363 -0.5024  0.9463
 3332SOL    HW220926   9.456   0.402   3.346 -0.5590 -0.7498  1.5598
 3333SOL     OW20927   8.618   9.259   3.988 -0.4960 -0.2061  0.0618
 3333SOL    HW120928   8.662   9.349   3.985 -0.3391 -0.3180 -1.3182
 3333SOL    HW220929   8.525   9.269   4.024 -0.1847  0.3775  0.7226
 3334SOL     OW20930   9.345   2.127   3.901 -0.3401 -0.1455 -0.0151
 3334SOL    HW120931   9.324   2.030   3.918 -0.6992 -0.1146 -0.2681
 3334SOL    HW220932   9.278   2.184   3.949 -0.6754 -0.0414 -0.5894
 3335SOL     OW20933   0.354   9.153   0.382  0.3110  0.0842 -0.2306
 3335SOL    HW120934   0.328   9.169   0.477  2.3579  1.4055  0.1347
 3335SOL    HW220935   0.395   9.062   0.374  1.3926  0.5027  0.4380
 3336SOL     OW20936   8.999   7.341   2.231  0.3998  0.1894  0.3211
 3336SOL    HW120937   8.975   7.280   2.156  0.4128  0.9636 -0.3158
 3336SOL    HW220938   8.930   7.413   2.240 -0.4874 -0.8655  2.1338
 3337SOL     OW20939   1.823   8.051   1.576 -0.2219 -0.0045 -0.6470
 3337SOL    HW120940   1.842   7.986   1.503  0.8994  0.5472 -0.8649
 3337SOL    HW220941   1.793   8.138   1.537  2.7108  1.0851 -0.6192
 3338SOL     OW20942   8.657   2.496   4.366 -0.2639 -0.0485  0.1822
 3338SOL    HW120943   8.656   2.589   4.403 -1.1945  0.4179 -0.9669
 3338SOL    HW220944   8.721   2.439   4.418  0.0879  1.1575  1.0758
 3339SOL     OW20945   9.254   6.937   0.125  0.0736  0.2596 -0.6149
 3339SOL    HW120946   9.162   6.975   0.135 -1.2497 -2.6193 -1.2623
 3339SOL    HW220947   9.287   6.955   0.032 -0.9033 -0.8823 -1.1963
 3340SOL     OW20948   9.512   7.165   4.113  0.1096  0.2830 -0.7203
 3340SOL    HW120949   9.422   7.200   4.087  0.5003  1.1688 -0.9036
 3340SOL    HW220950   9.575   7.173   4.035 -0.0151 -1.5936 -1.0168
 3341SOL     OW20951   8.790   1.599   1.649  0.2212 -0.0128  0.1999
 3341SOL    HW120952   8.811   1.506   1.679 -2.6474  0.3754  3.6696
 3341SOL    HW220953   8.722   1.596   1.576 -1.8999 -0.6565  2.1248
 3342SOL     OW20954   4.948   6.975   2.306  0.5802 -0.0305  0.6129
 3342SOL    HW120955   5.006   6.979   2.388  0.6423 -0.8173  0.6115
 3342SOL    HW220956   4.951   6.883   2.268  1.1306  0.5192 -0.7001
 3343SOL     OW20957   4.300   0.954   2.843 -0.7526  0.4235 -0.5129
 3343SOL    HW120958   4.251   0.918   2.922 -0.9494  0.2842 -0.6980
 3343SOL    HW220959   4.235   0.978   2.771 -0.7544  2.6835  0.2232
 3344SOL     OW20960   6.297   8.275   2.530 -0.1554  0.4499  0.2672
 3344SOL    HW120961   6.256   8.323   2.452  1.5176  0.6864 -0.4834
 3344SOL    HW220962   6.299   8.336   2.609 -2.0112  0.1543  0.5558
 3345SOL     OW20963   8.346   6.311   4.193 -0.1304 -0.3629 -0.1164
 3345SOL    HW120964   8.429   6.303   4.248 -0.4672 -1.0155  0.3002
 3345SOL    HW220965   8.268   6.274   4.244 -0.5588 -0.3733 -0.7773
 3346SOL     OW20966   3.593   3.148   2.127 -0.5401 -0.3397  0.1034
 3346SOL    HW120967   3.567   3.066   2.077  0.4337  0.5422 -1.8969
 3346SOL    HW220968   3.684   3.136   2.168 -0.1068 -0.0306 -0.7550
 3347SOL     OW20969   9.849   6.430   3.686  0.2631  0.5726 -1.2774
 3347SOL    HW120970   9.799   6.344   3.698 -0.2932  0.8246 -1.7809
 3347SOL    HW220971   9.786   6.507   3.694  0.9571  0.9850  0.2816
 3348SOL     OW20972   2.526   1.441   4.671 -0.1849 -0.3235  0.1813
 3348SOL    HW120973   2.483   1.532   4.673  0.8560  0.1749  0.4572
 3348SOL    HW220974   2.531   1.408   4.577  2.1303  1.2323 -0.2804
 3349SOL     OW20975   9.012   5.827   3.485 -0.4659  0.5903  0.3307
 3349SOL    HW120976   8.990   5.924   3.472  0.0854  0.4434 -1.8188
 3349SOL    HW220977   9.078   5.798   3.416  0.3918 -1.0058  1.7793
 3350SOL     OW20978   3.088   7.053   0.951 -0.0349  0.7271 -0.2765
 3350SOL    HW120979   3.168   7.005   0.988 -0.2783  1.2288  0.9512
 3350SOL    HW220980   3.112   7.096   0.864  0.9233  0.5489 -0.1131
 3351SOL     OW20981   0.175   5.711   4.914  0.4663  0.3477  0.5680
 3351SOL    HW120982   0.203   5.630   4.863  2.4543  0.1864  1.8835
 3351SOL    HW220983   0.099   5.687   4.975  0.1388 -0.1825 -0.0352
 3352SOL     OW20984   4.298   4.712   3.818 -0.4721  0.2772 -0.4858
 3352SOL    HW120985   4.364   4.774   3.860  0.4573 -0.8378 -0.2510
 3352SOL    HW220986   4.205   4.745   3.835 -0.1383 -0.1362  2.4520
 3353SOL     OW20987   9.231   7.159   4.310  0.2488 -0.2063  0.0109
 3353SOL    HW120988   9.140   7.186   4.340  0.6402  1.3254 -0.1166
 3353SOL    HW220989   9.299   7.196   4.373  1.0595  2.8035 -2.4834
 3354SOL     OW20990   5.143   3.646   0.598  0.1087  0.9089 -0.1946
 3354SOL    HW120991   5.044   3.629   0.607 -0.2244  2.0818 -1.4787
 3354SOL    HW220992   5.193   3.562   0.619 -1.2182  0.0143 -0.5445
 3355SOL     OW20993   6.030   1.106   2.715 -0.7842  0.4435  0.3089
 3355SOL    HW120994   5.949   1.084   2.661 -1.6925  1.0917  1.4029
 3355SOL    HW220995   6.061   1.024   2.763  1.4799 -0.7971 -3.0270
 3356SOL     OW20996   0.902   5.274   2.575  0.5034 -0.7999 -0.0054
 3356SOL    HW120997   0.846   5.330   2.514 -0.5925 -1.0682  0.7273
 3356SOL    HW220998   0.901   5.313   2.667  1.0822 -1.1124  0.1378
 3357SOL     OW20999   4.999   9.240   1.816  0.3426 -0.6187 -0.0097
 3357SOL    HW121000   5.010   9.254   1.718  2.1600 -0.1870  0.2406
 3357SOL    HW221001   5.058   9.165   1.846  0.0519 -0.5266  0.8098
 3358SOL     OW21002   8.016   6.717   4.146  0.2471  0.1601 -0.1306
 3358SOL    HW121003   8.037   6.707   4.244  0.7516  1.5584 -0.0781
 3358SOL    HW221004   8.035   6.811   4.118  0.6543 -0.3855 -1.7130
 3359SOL     OW21005   1.293   1.034   2.783 -0.0277 -0.3623 -0.5774
 3359SOL    HW121006   1.279   0.955   2.842  0.2858 -0.2358 -0.3333
 3359SOL    HW221007   1.206   1.082   2.770 -0.1572 -0.5724 -0.4788
 3360SOL     OW21008   3.173   6.805   2.121 -0.8335  0.2268 -0.5135
 3360SOL    HW121009   3.156   6.739   2.047 -0.5606  1.0533 -1.3113
 3360SOL    HW221010   3.221   6.885   2.085 -1.4215  1.0037  0.4017
 3361SOL     OW21011   2.987   3.721   0.660 -0.5385  0.6385  0.6055
 3361SOL    HW121012   3.049   3.701   0.736 -0.4921 -2.1671 -0.1216
 3361SOL    HW221013   2.894   3.693   0.686 -0.5132 -0.3662 -0.3782
 3362SOL     OW21014   9.519   1.588   5.263  0.0378 -0.4155 -0.2637
 3362SOL    HW121015   9.458   1.649   5.314  0.7396  0.6657 -0.7065
 3362SOL    HW221016   9.478   1.567   5.175  1.3243  2.2144 -1.5521
 3363SOL     OW21017   9.412   0.553   0.910 -0.0371 -0.0448 -0.5930
 3363SOL    HW121018   9.375   0.513   0.994 -0.6264  0.4676 -0.5979
 3363SOL    HW221019   9.494   0.606   0.931 -0.2240  0.1403 -0.3334
 3364SOL     OW21020   8.043   7.520   2.011 -0.0457  0.0940  0.3103
 3364SOL    HW121021   8.027   7.578   1.932 -1.1190  1.3828  1.4633
 3364SOL    HW221022   7.956   7.500   2.057  0.4810 -1.1984  0.7778
 3365SOL     OW21023   0.050   8.831   1.189 -0.0917 -1.0238  0.1793
 3365SOL    HW121024  -0.034   8.783   1.213  0.1205 -1.0641  0.8543
 3365SOL    HW221025   0.069   8.901   1.259  1.0023 -1.7298  0.6065
 3366SOL     OW21026   0.407   8.402   5.128  0.5511  0.1288  0.0018
 3366SOL    HW121027   0.321   8.352   5.121 -0.7838  2.3973 -0.5300
 3366SOL    HW221028   0.423   8.427   5.223  0.3641  0.1309  0.0327
 3367SOL     OW21029   9.277   5.795   1.089 -0.7233 -0.2876 -0.4126
 3367SOL    HW121030   9.350   5.863   1.096 -0.0843 -1.0701  0.5841
 3367SOL    HW221031   9.232   5.786   1.177 -0.9887 -0.9549 -0.6184
 3368SOL     OW21032   8.287   8.043   1.037  0.0391 -0.0315  0.0082
 3368SOL    HW121033   8.218   7.977   1.008  0.9830 -0.8469 -0.4219
 3368SOL    HW221034   8.377   8.013   1.006  0.3655  1.9892 -1.1004
 3369SOL     OW21035   0.611   1.625   4.556  0.4289 -0.0248  0.3306
 3369SOL    HW121036   0.601   1.587   4.648 -0.0603 -0.2692  0.1808
 3369SOL    HW221037   0.706   1.650   4.540  0.3124  1.1684  1.3656
 3370SOL     OW21038   5.507   9.878   1.780 -0.7885  0.0082  0.0346
 3370SOL    HW121039   5.505   9.896   1.878  0.9064  0.3746  0.0116
 3370SOL    HW221040   5.596   9.904   1.742 -0.4665 -2.5248 -1.1187
 3371SOL     OW21041   8.249   8.677   3.222 -0.4026 -0.2378 -0.4092
 3371SOL    HW121042   8.251   8.721   3.132 -3.9169 -0.0947 -0.4570
 3371SOL    HW221043   8.243   8.746   3.293  1.3802 -0.3951 -0.0831
 3372SOL     OW21044   8.702   1.632   2.571  0.7337  0.3429 -0.1179
 3372SOL    HW121045   8.716   1.694   2.494  0.6555  0.2461 -0.2090
 3372SOL    HW221046   8.606   1.604   2.574  0.6666  0.6028  0.2041
 3373SOL     OW21047   3.275   2.763   1.477 -0.2548 -0.7589 -0.0030
 3373SOL    HW121048   3.213   2.833   1.513  0.0675 -0.4485 -0.0501
 3373SOL    HW221049   3.222   2.697   1.422 -0.5268 -0.4356 -0.1344
 3374SOL     OW21050   2.862   3.932   2.467 -0.0155  0.2094  0.3090
 3374SOL    HW121051   2.827   3.997   2.399  0.3408  0.0530 -0.0196
 3374SOL    HW221052   2.962   3.933   2.466 -0.0110 -0.0619  0.5769
 3375SOL     OW21053   1.299   3.253   4.376 -0.2363  0.2262  0.0422
 3375SOL    HW121054   1.361   3.239   4.299 -2.0961 -2.8916 -0.9560
 3375SOL    HW221055   1.267   3.165   4.410 -1.9217  1.6805  2.3578
 3376SOL     OW21056   7.648   0.634   0.127 -0.8110 -0.0655  0.5268
 3376SOL    HW121057   7.622   0.718   0.174 -1.7628 -0.0651  0.0073
 3376SOL    HW221058   7.672   0.655   0.032  1.6947  0.0273  1.1378
 3377SOL     OW21059   4.748   1.711   0.593  0.2874  0.1352 -0.1979
 3377SOL    HW121060   4.828   1.673   0.641 -0.3300 -0.3625  0.4506
 3377SOL    HW221061   4.767   1.716   0.495  2.3111  2.9941  0.2737
 3378SOL     OW21062   6.943   8.800   2.021 -0.2016  0.7362  0.3811
 3378SOL    HW121063   6.850   8.831   1.998  0.3265  0.4641 -2.2483
 3378SOL    HW221064   7.002   8.880   2.033 -0.3873  0.8732  0.3967
 3379SOL     OW21065   2.760   8.145   2.849  0.4312 -0.0926  0.4168
 3379SOL    HW121066   2.728   8.089   2.925 -3.5599  1.9910  0.3780
 3379SOL    HW221067   2.704   8.127   2.768  1.3000  1.5322 -0.5693
 3380SOL     OW21068   0.313   9.882   3.145  0.3098 -0.4039 -0.0482
 3380SOL    HW121069   0.361   9.951   3.199  1.2440 -0.0295 -1.3291
 3380SOL    HW221070   0.268   9.926   3.067 -2.0468 -0.7638  1.0475
 3381SOL     OW21071   9.339   5.143   4.311 -0.4699  0.0778  0.2727
 3381SOL    HW121072   9.416   5.161   4.250 -0.9493 -0.4770 -0.5093
 3381SOL    HW221073   9.302   5.053   4.292 -0.8859  0.0669  1.1153
 3382SOL     OW21074   3.543   6.358   1.572  0.6424  0.3014 -0.0921
 3382SOL    HW121075   3.642   6.363   1.554  0.5719  0.4349 -0.4431
 3382SOL    HW221076   3.503   6.284   1.518  0.2860  1.2427 -1.1385
 3383SOL     OW21077   4.355   4.887   1.683  0.3727 -0.4227  0.4586
 3383SOL    HW121078   4.255   4.891   1.674  0.5269 -0.0681 -1.3113
 3383SOL    HW221079   4.380   4.905   1.778 -1.1946  0.6151  0.7074
 3384SOL     OW21080   8.697   8.683   1.011  0.1246  0.0941 -0.3193
 3384SOL    HW121081   8.605   8.716   0.992  0.4312  1.5424  0.6161
 3384SOL    HW221082   8.708   8.671   1.110  1.3045  1.0474 -0.3260
 3385SOL     OW21083   0.109   8.980   0.303 -0.1509 -0.4068 -0.5147
 3385SOL    HW121084   0.190   9.026   0.339 -0.2374  0.5007 -1.4468
 3385SOL    HW221085   0.126   8.882   0.296  0.2116 -0.4599  1.0311
 3386SOL     OW21086   2.243   8.319   2.874  0.3509  0.2286 -0.0158
 3386SOL    HW121087   2.213   8.390   2.809  1.2187 -0.9198 -1.6995
 3386SOL    HW221088   2.163   8.271   2.910 -0.1732  1.2830  0.2517
 3387SOL     OW21089   4.799   1.578   0.985  0.5572  0.0172 -0.4823
 3387SOL    HW121090   4.768   1.668   1.015 -0.5331 -0.3292 -0.5484
 3387SOL    HW221091   4.836   1.584   0.892  1.0090  0.4922 -0.2757
 3388SOL     OW21092   9.107   4.856   3.978 -0.2893  0.2624 -0.3388
 3388SOL    HW121093   9.043   4.924   4.015 -0.0977  0.2795 -0.0378
 3388SOL    HW221094   9.198   4.872   4.017 -0.6545 -1.3552  1.2328
 3389SOL     OW21095   0.491   3.571   0.988  0.2141 -0.6064 -0.0010
 3389SOL    HW121096   0.395   3.558   0.963  0.5713 -0.5900 -1.4361
 3389SOL    HW221097   0.533   3.482   1.005  0.5103 -0.7878 -1.5921
 3390SOL     OW21098   1.442   8.638   3.256  0.1010  0.0875  0.0263
 3390SOL    HW121099   1.517   8.584   3.217  0.1699  0.3215 -0.1643
 3390SOL    HW221100   1.478   8.702   3.323  0.0931  0.3097 -0.1794
 3391SOL     OW21101   4.619   7.049   2.494 -0.1423  0.1952  0.0014
 3391SOL    HW121102   4.674   7.089   2.420 -0.4675  0.6573  0.0095
 3391SOL    HW221103   4.529   7.093   2.496 -1.1971 -1.8250 -1.2072
 3392SOL     OW21104   8.152   0.754   5.314 -0.5506 -0.4824  0.3211
 3392SOL    HW121105   8.176   0.725   5.221  0.4703 -0.3672  0.5401
 3392SOL    HW221106   8.103   0.680   5.361 -1.1656 -0.4974 -0.3454
 3393SOL     OW21107   9.278   3.236   0.213 -0.3664 -0.1710  0.6836
 3393SOL    HW121108   9.202   3.225   0.149  0.1379  1.2675 -0.1871
 3393SOL    HW221109   9.281   3.157   0.274 -2.5358 -0.2596  0.7225
 3394SOL     OW21110   0.167   4.213   3.759 -0.2653  0.1152 -0.0897
 3394SOL    HW121111   0.109   4.133   3.772 -0.4371  0.1064 -0.8640
 3394SOL    HW221112   0.163   4.271   3.840 -0.8331 -0.2184  0.1238
 3395SOL     OW21113   8.742   0.554   0.206  0.9365  0.5437 -0.2908
 3395SOL    HW121114   8.753   0.484   0.276 -1.8498  1.6970  1.4011
 3395SOL    HW221115   8.748   0.512   0.116 -0.0574 -1.7723  0.6809
 3396SOL     OW21116   1.390   5.434   1.781 -0.0164  0.8416  0.1766
 3396SOL    HW121117   1.473   5.414   1.833  0.7671 -1.9265 -2.0004
 3396SOL    HW221118   1.311   5.435   1.843  1.0615 -1.1018  1.6467
 3397SOL     OW21119   1.737   6.748   2.225 -0.4431  0.1168 -0.5144
 3397SOL    HW121120   1.759   6.699   2.309 -0.3544 -1.1048 -1.2335
 3397SOL    HW221121   1.638   6.752   2.214 -0.4467 -1.1415 -1.1359
 3398SOL     OW21122   3.844   2.624   3.966 -0.3138  0.0536  0.0221
 3398SOL    HW121123   3.787   2.687   3.912  0.3095  0.5323 -0.0864
 3398SOL    HW221124   3.933   2.666   3.982 -0.8847  0.4200  2.4234
 3399SOL     OW21125   4.936   9.387   3.037 -0.1369  0.3590  0.0417
 3399SOL    HW121126   4.952   9.288   3.038  0.4044  0.4411 -0.0223
 3399SOL    HW221127   4.987   9.428   2.962 -1.0907  0.5764 -0.4972
 3400SOL     OW21128   3.959   4.513   4.016 -0.3604  0.3979 -0.4923
 3400SOL    HW121129   3.964   4.416   3.993 -0.5559  0.5458 -1.1570
 3400SOL    HW221130   4.013   4.530   4.099 -0.1219 -0.2300 -0.5144
 3401SOL     OW21131   4.610   2.649   2.711 -0.5286  0.6832  0.0801
 3401SOL    HW121132   4.607   2.553   2.737 -1.1379  0.3702 -1.1123
 3401SOL    HW221133   4.529   2.696   2.748 -1.9265  0.0187 -2.0175
 3402SOL     OW21134   9.047   9.144   3.390  0.5696  0.4849  0.2460
 3402SOL    HW121135   9.097   9.187   3.316 -1.7812 -0.3993 -1.9331
 3402SOL    HW221136   9.006   9.059   3.357 -2.1644  1.0757  1.9968
 3403SOL     OW21137   8.736   0.311   2.360 -0.1300  0.1369  0.2839
 3403SOL    HW121138   8.694   0.278   2.444  2.9316  0.9371  2.2433
 3403SOL    HW221139   8.794   0.240   2.321 -0.6603  0.1487 -0.5433
 3404SOL     OW21140   7.781   2.448   0.691 -0.4376 -0.1198  0.1564
 3404SOL    HW121141   7.745   2.368   0.643  0.1127 -0.4445  0.2841
 3404SOL    HW221142   7.720   2.472   0.767 -0.8914 -0.0841 -0.2156
 3405SOL     OW21143   7.641   2.533   0.916  0.2489  0.3447 -0.0424
 3405SOL    HW121144   7.624   2.556   1.012 -0.8144 -1.8621  0.3159
 3405SOL    HW221145   7.558   2.495   0.875  0.9054  0.5842 -1.6568
 3406SOL     OW21146   9.081   5.080   2.337  0.0411 -0.0453  0.0449
 3406SOL    HW121147   9.094   5.005   2.402 -2.9627 -1.8456 -1.3486
 3406SOL    HW221148   8.985   5.107   2.336  0.4925  1.6167 -1.8780
 3407SOL     OW21149   5.252   9.186   4.137 -0.2299  0.4100 -0.2737
 3407SOL    HW121150   5.167   9.141   4.164 -1.0603  0.8585 -2.0428
 3407SOL    HW221151   5.323   9.117   4.124 -0.4872 -0.0306  0.5999
 3408SOL     OW21152   1.596   0.380   3.998 -0.6634 -1.0469 -0.1635
 3408SOL    HW121153   1.521   0.388   4.064 -0.0792  1.1294  0.2679
 3408SOL    HW221154   1.557   0.359   3.908 -1.7076 -1.1358  0.2939
 3409SOL     OW21155   3.683   3.815   4.912  0.2382  0.5451  0.5389
 3409SOL    HW121156   3.617   3.793   4.840 -0.4381  0.3415  1.2171
 3409SOL    HW221157   3.733   3.733   4.938  0.4745  0.6165  0.3121
 3410SOL     OW21158   3.166   4.532   0.875 -0.3715 -1.1201 -0.2224
 3410SOL    HW121159   3.160   4.626   0.840 -0.1908 -0.9640  0.1567
 3410SOL    HW221160   3.138   4.468   0.803  0.6763 -0.8481 -0.8881
 3411SOL     OW21161   9.962   7.894   0.314  0.0724 -0.4234  0.0532
 3411SOL    HW121162  10.000   7.810   0.351  0.7894 -0.1861 -0.1493
 3411SOL    HW221163  10.035   7.956   0.287 -0.3879  1.4304  2.7880
 3412SOL     OW21164   0.819   7.797   4.249  0.1069 -0.4492  0.0182
 3412SOL    HW121165   0.733   7.777   4.202  0.2762 -0.5416 -0.2585
 3412SOL    HW221166   0.895   7.764   4.193  0.1647 -4.2514  2.1591
 3413SOL     OW21167   8.553   1.297   0.994 -0.2275  0.0596  0.1209
 3413SOL    HW121168   8.641   1.276   1.037 -0.1711  0.4174  0.1792
 3413SOL    HW221169   8.494   1.341   1.061 -1.1095 -1.8183  0.6197
 3414SOL     OW21170   9.847   3.278   0.867 -0.2860  0.0090  0.4088
 3414SOL    HW121171   9.893   3.332   0.938  1.9546 -0.2750 -0.7840
 3414SOL    HW221172   9.764   3.325   0.839  0.6105  1.8765  0.7645
 3415SOL     OW21173   7.720   2.769   5.268  0.3421 -0.3661  0.2875
 3415SOL    HW121174   7.790   2.829   5.227 -0.1745  1.4326  1.9533
 3415SOL    HW221175   7.726   2.775   5.367 -1.3676 -1.1636  0.4452
 3416SOL     OW21176   5.100   5.201   0.934  0.0207  0.0043 -0.4574
 3416SOL    HW121177   5.069   5.106   0.937 -0.8882  0.2640 -1.2298
 3416SOL    HW221178   5.110   5.236   1.027  1.3437 -1.1540 -0.1454
 3417SOL     OW21179   9.054   4.731   5.094  0.3060  0.3907  0.5911
 3417SOL    HW121180   8.977   4.792   5.112  0.6451  1.7995 -2.3983
 3417SOL    HW221181   9.131   4.784   5.058  1.8179 -1.3389  1.2021
 3418SOL     OW21182   2.376   5.356   0.088  0.6444  0.1123 -0.0819
 3418SOL    HW121183   2.351   5.282   0.025  0.6049  0.8909 -0.9874
 3418SOL    HW221184   2.434   5.319   0.161 -0.0428 -0.9742 -0.0619
 3419SOL     OW21185   8.268   6.324   4.473  0.3654  0.5971  0.0745
 3419SOL    HW121186   8.306   6.335   4.565  0.4716 -1.0232  0.2386
 3419SOL    HW221187   8.178   6.280   4.480  0.4968  0.2238 -0.6141
 3420SOL     OW21188   9.617   5.650   4.456  0.3319  0.1973  0.0527
 3420SOL    HW121189   9.628   5.749   4.466  0.0257  0.0297  2.1887
 3420SOL    HW221190   9.526   5.630   4.419  0.0774  0.6779  0.4137
 3421SOL     OW21191   3.197   9.347   2.377  0.1633 -0.1974  0.0700
 3421SOL    HW121192   3.293   9.371   2.361  0.3060 -0.0372  1.1468
 3421SOL    HW221193   3.138   9.405   2.320  0.6427  0.6486  0.4400
 3422SOL     OW21194   0.479   4.172   1.580 -0.5867 -0.3353  0.4222
 3422SOL    HW121195   0.479   4.272   1.591  0.1199 -0.1081 -1.4814
 3422SOL    HW221196   0.530   4.131   1.656  1.4628  0.9391 -0.2286
 3423SOL     OW21197   8.045   2.003   0.791  0.1517  0.2753  0.5205
 3423SOL    HW121198   8.070   1.921   0.740 -0.2521 -0.3183  1.2702
 3423SOL    HW221199   8.116   2.073   0.779  0.3185 -0.0454 -0.4147
 3424SOL     OW21200   0.361   6.183   2.266  0.1911  0.0242  0.1480
 3424SOL    HW121201   0.363   6.221   2.174  0.9805  0.1557  0.2141
 3424SOL    HW221202   0.267   6.163   2.292  0.0983 -1.4623 -1.2753
 3425SOL     OW21203   4.836   4.951   2.184  0.0437  0.1572  0.1995
 3425SOL    HW121204   4.812   4.955   2.087  0.1040 -0.5690  0.1531
 3425SOL    HW221205   4.935   4.951   2.193  0.1746 -4.4091  0.0097
 3426SOL     OW21206   0.292   5.215   1.926  0.6016  0.9643  0.2197
 3426SOL    HW121207   0.335   5.178   1.844  1.4649  1.1532  0.5830
 3426SOL    HW221208   0.229   5.289   1.901  1.3382  1.4436 -0.2201
 3427SOL     OW21209   4.031   3.036   5.159 -0.9047 -0.0881  0.0940
 3427SOL    HW121210   4.001   3.131   5.143 -1.3884  0.1411  2.2649
 3427SOL    HW221211   3.955   2.974   5.138 -0.8679  0.0509 -0.4744
 3428SOL     OW21212   4.020   8.618   4.195  0.1524  0.0967 -0.4447
 3428SOL    HW121213   4.089   8.574   4.138  1.7017  0.7596  0.9009
 3428SOL    HW221214   3.942   8.644   4.138  0.6065 -1.4635 -1.8199
 3429SOL     OW21215   1.945   9.817   3.628 -0.2815 -0.2546  0.2719
 3429SOL    HW121216   1.886   9.896   3.616  0.6792  0.8550  2.6289
 3429SOL    HW221217   2.041   9.844   3.616  0.1132 -0.8628  1.8904
 3430SOL     OW21218   6.082   8.986   2.857  0.9491 -0.1577  1.0323
 3430SOL    HW121219   5.983   8.992   2.870  0.8310  1.2948 -0.3776
 3430SOL    HW221220   6.128   9.009   2.942  0.0751 -0.6055  1.6321
 3431SOL     OW21221   7.911   5.732   5.208  0.1545 -0.0958 -1.0629
 3431SOL    HW121222   7.937   5.673   5.285 -0.8519 -1.7624 -1.9639
 3431SOL    HW221223   7.822   5.773   5.226  1.4550  2.2790  0.1658
 3432SOL     OW21224   0.240   5.855   1.112  0.0306 -0.1441  0.2963
 3432SOL    HW121225   0.287   5.859   1.024  0.0473 -0.1001  0.3070
 3432SOL    HW221226   0.266   5.770   1.160  2.3765  1.2223  1.5554
 3433SOL     OW21227   0.924   0.427   1.929  0.2076 -0.1667  0.6612
 3433SOL    HW121228   0.934   0.373   2.012  1.5322 -1.7750 -0.5073
 3433SOL    HW221229   0.983   0.508   1.934 -0.8868  0.5677  1.9131
 3434SOL     OW21230   1.537   8.627   0.514 -0.1366 -0.7823 -0.4105
 3434SOL    HW121231   1.624   8.580   0.528  0.2718  0.0284 -0.2179
 3434SOL    HW221232   1.548   8.724   0.535 -1.5722 -1.0101  1.5169
 3435SOL     OW21233   7.580   7.969   2.314 -0.3077  0.3927  0.6721
 3435SOL    HW121234   7.560   8.031   2.239 -0.0906 -0.6882 -0.2983
 3435SOL    HW221235   7.644   7.898   2.283 -0.6123 -0.3642  1.7202
 3436SOL     OW21236   2.958   7.129   1.620 -0.3792 -0.1723 -0.0602
 3436SOL    HW121237   2.990   7.176   1.703 -3.4472  1.6572  0.1638
 3436SOL    HW221238   2.917   7.042   1.645 -1.4260  0.4380  0.3765
 3437SOL     OW21239   0.607   8.164   5.121  0.6725 -0.2005 -0.2864
 3437SOL    HW121240   0.677   8.201   5.060  0.9888 -0.6026 -0.1634
 3437SOL    HW221241   0.535   8.232   5.133  1.6821  0.7244  0.6312
 3438SOL     OW21242   1.119   7.611   3.388 -0.6487  0.3255  0.0514
 3438SOL    HW121243   1.144   7.569   3.475  1.0265 -0.8450 -0.9509
 3438SOL    HW221244   1.027   7.583   3.361 -0.5833 -0.5226  0.7169
 3439SOL     OW21245   4.666   8.614   1.288  0.3790  0.2328  0.3999
 3439SOL    HW121246   4.573   8.623   1.252  0.3729 -3.3545 -0.7179
 3439SOL    HW221247   4.731   8.622   1.213  0.8114  0.0001  0.7525
 3440SOL     OW21248   3.274   7.106   1.552 -0.0635 -0.5336  0.3303
 3440SOL    HW121249   3.181   7.074   1.535 -0.5629  0.4965  1.0550
 3440SOL    HW221250   3.305   7.158   1.472  0.7292 -2.7225 -0.8199
 3441SOL     OW21251   3.227   0.003   3.845  0.3735  0.1947 -0.4335
 3441SOL    HW121252   3.185   0.038   3.762  0.6869  0.9830 -0.2653
 3441SOL    HW221253   3.215   0.070   3.919  1.5847  0.2598 -0.2868
 3442SOL     OW21254   7.981   5.210   0.099  0.8261  0.2271  0.3579
 3442SOL    HW121255   8.066   5.254   0.130 -0.4749  1.1625  2.7254
 3442SOL    HW221256   7.907   5.277   0.097 -0.6245 -1.2779  1.6750
 3443SOL     OW21257   0.718   1.814   1.976  0.6014  0.0438 -0.2385
 3443SOL    HW121258   0.629   1.827   2.019  0.7841 -0.3754  0.2629
 3443SOL    HW221259   0.776   1.757   2.034  0.9749 -0.2168 -0.8595
 3444SOL     OW21260   1.535   7.897   1.911  0.2986 -0.0611 -0.6120
 3444SOL    HW121261   1.523   7.996   1.903  1.8238  0.2149  0.2351
 3444SOL    HW221262   1.450   7.850   1.886 -0.7965  1.5009  0.1309
 3445SOL     OW21263   2.644   3.768   1.629  0.3063 -0.0614  0.2335
 3445SOL    HW121264   2.553   3.808   1.637  0.3529  0.4046 -1.3530
 3445SOL    HW221265   2.638   3.669   1.640 -0.9487 -0.4493 -3.2362
 3446SOL     OW21266   7.198   0.414   2.003  0.1380  0.1360 -0.4731
 3446SOL    HW121267   7.228   0.405   2.097 -2.1668 -1.0401  0.1865
 3446SOL    HW221268   7.276   0.400   1.941  1.3389 -0.6570  1.1958
 3447SOL     OW21269   2.813   0.004   1.248 -0.4453 -0.0686  0.4277
 3447SOL    HW121270   2.900   0.023   1.294 -0.2434  0.8329 -0.3040
 3447SOL    HW221271   2.830  -0.045   1.163 -0.9197 -2.9806  1.9615
 3448SOL     OW21272   2.698   6.446   5.034  0.2219 -0.3519 -0.5228
 3448SOL    HW121273   2.638   6.501   4.976 -0.4827 -0.3922  0.1653
 3448SOL    HW221274   2.687   6.349   5.009  1.1388 -0.2219 -1.4361
 3449SOL     OW21275   8.186   5.866   2.976  0.3751 -0.1355 -0.2638
 3449SOL    HW121276   8.279   5.837   2.954  0.3485  0.4775 -1.2124
 3449SOL    HW221277   8.168   5.849   3.073  1.5702 -0.0106 -0.0131
 3450SOL     OW21278   5.533   1.225   2.324  1.0227  0.1309  0.2117
 3450SOL    HW121279   5.523   1.147   2.387 -0.8540 -0.7224 -1.0857
 3450SOL    HW221280   5.606   1.206   2.259  1.1972 -0.1442  0.4858
 3451SOL     OW21281   8.634   7.559   1.123  0.2745  0.2769 -0.1211
 3451SOL    HW121282   8.552   7.609   1.148  0.5749  0.2251  0.9995
 3451SOL    HW221283   8.637   7.472   1.173  1.5874  0.8062  0.7640
 3452SOL     OW21284   0.822   8.379   5.487 -0.0537  0.2760 -0.0035
 3452SOL    HW121285   0.819   8.459   5.428 -0.2029 -0.6369 -1.2497
 3452SOL    HW221286   0.840   8.297   5.432  1.3353 -0.3894  1.3958
 3453SOL     OW21287   3.777   3.087   0.390 -0.5288 -0.2368  0.0073
 3453SOL    HW121288   3.842   3.079   0.314  0.7234  0.2543  0.9961
 3453SOL    HW221289   3.701   3.023   0.376  1.1213 -2.2055 -0.2593
 3454SOL     OW21290   7.038   4.367   0.105 -0.0443 -0.4354  0.0552
 3454SOL    HW121291   7.033   4.415   0.018 -0.4276 -1.3232 -0.4132
 3454SOL    HW221292   7.061   4.432   0.178 -0.2462  0.3959 -0.6217
 3455SOL     OW21293   8.908   8.241   4.815 -0.3383  0.2937 -1.1149
 3455SOL    HW121294   9.007   8.243   4.805 -0.3024 -0.1293 -0.8703
 3455SOL    HW221295   8.869   8.174   4.751 -0.4933  0.6720 -1.4177
 3456SOL     OW21296   8.292   2.565   0.643  0.2196  0.3536 -0.3083
 3456SOL    HW121297   8.307   2.660   0.671  1.3975  0.9387 -2.8238
 3456SOL    HW221298   8.377   2.513   0.657 -0.3522 -0.2943  0.8416
 3457SOL     OW21299   5.478   1.963   1.918 -0.3238  0.5116 -0.1678
 3457SOL    HW121300   5.382   1.943   1.937 -0.7546  0.5483 -2.1853
 3457SOL    HW221301   5.522   1.999   2.000 -2.1104  0.7596  0.6963
 3458SOL     OW21302   3.246   1.505   3.961  0.0455  0.0067 -0.1688
 3458SOL    HW121303   3.222   1.414   3.995 -0.2014  0.2423  0.2892
 3458SOL    HW221304   3.228   1.509   3.862  2.2187 -1.1554 -0.6472
 3459SOL     OW21305   1.093   1.383   4.436 -0.3735  0.0424  0.3612
 3459SOL    HW121306   1.179   1.355   4.480 -0.3116 -0.6532 -0.2043
 3459SOL    HW221307   1.083   1.337   4.349 -1.9096 -0.7954  0.9586
 3460SOL     OW21308   3.081   0.066   1.296 -0.1380 -0.4674 -0.1161
 3460SOL    HW121309   3.079   0.145   1.235 -0.8203 -0.1515  0.3037
 3460SOL    HW221310   3.122   0.093   1.383  1.6165 -1.1324 -0.7212
 3461SOL     OW21311   5.092   0.271   2.815  0.2325  0.4400 -0.0610
 3461SOL    HW121312   5.110   0.271   2.717 -1.6285  0.1665 -0.4211
 3461SOL    HW221313   5.024   0.341   2.836 -2.7280 -2.4928  0.3594
 3462SOL     OW21314   8.020   5.606   5.493  0.2796  0.0846 -0.0925
 3462SOL    HW121315   8.009   5.506   5.494  0.7565  0.0228 -1.1765
 3462SOL    HW221316   8.100   5.631   5.547 -0.4330 -0.0343  1.0510
 3463SOL     OW21317   2.790   0.810   1.007  0.2471  0.0418 -0.1377
 3463SOL    HW121318   2.840   0.785   1.090 -0.6751  2.5849  1.2264
 3463SOL    HW221319   2.852   0.853   0.942  1.0470 -2.2804 -0.9531
 3464SOL     OW21320   0.326   4.820   0.130  0.1092 -0.1658  0.1780
 3464SOL    HW121321   0.423   4.833   0.149 -0.0087  0.0810  0.5990
 3464SOL    HW221322   0.287   4.904   0.094  0.1529 -0.3975 -0.4166
 3465SOL     OW21323   0.207   1.159   2.268 -0.7774 -0.3591 -0.0110
 3465SOL    HW121324   0.245   1.143   2.176  1.2459 -1.1460  0.9118
 3465SOL    HW221325   0.237   1.085   2.328 -0.7742  0.9913  1.6576
 3466SOL     OW21326   1.866   7.828   5.378  0.1743  0.7213 -0.7599
 3466SOL    HW121327   1.815   7.757   5.331  1.0633 -1.0812  0.9147
 3466SOL    HW221328   1.806   7.875   5.443  0.3491 -0.6051  0.3675
 3467SOL     OW21329   0.030   6.443   4.999 -0.1027 -0.5305 -0.3134
 3467SOL    HW121330   0.064   6.431   4.906  0.1199 -1.8295 -0.0699
 3467SOL    HW221331   0.087   6.391   5.062  1.2540  2.2586  0.8680
 3468SOL     OW21332   8.584   3.268   3.349 -0.1000  0.6271 -0.5141
 3468SOL    HW121333   8.549   3.360   3.330 -1.6984 -0.1162 -1.2250
 3468SOL    HW221334   8.546   3.204   3.283  1.0652 -0.5510 -0.0600
 3469SOL     OW21335   1.106   8.496   0.829 -0.8254  0.1393  0.5823
 3469SOL    HW121336   1.101   8.408   0.781  1.2017  0.3741 -0.0992
 3469SOL    HW221337   1.200   8.530   0.827 -1.2085  1.3771  2.5650
 3470SOL     OW21338   9.591   7.829   4.255 -0.9702  0.3686  0.1989
 3470SOL    HW121339   9.651   7.862   4.182 -1.8435 -0.6306 -1.0030
 3470SOL    HW221340   9.501   7.871   4.246 -0.8150  0.9295  1.2507
 3471SOL     OW21341   8.657   4.164   0.428  0.2485  0.0409  0.4494
 3471SOL    HW121342   8.739   4.111   0.448  0.1761 -0.0612  0.4749
 3471SOL    HW221343   8.670   4.217   0.344 -0.0546 -0.8003 -0.1358
 3472SOL     OW21344   3.292   6.734   3.749  0.7335  0.1767  0.7485
 3472SOL    HW121345   3.327   6.640   3.760  0.0391  0.0049  1.5807
 3472SOL    HW221346   3.226   6.737   3.675  0.3993 -0.1012  1.0311
 3473SOL     OW21347   4.079   7.932   2.183  0.3522 -0.1383 -0.4237
 3473SOL    HW121348   4.082   7.832   2.183 -0.5096 -0.1656 -1.0354
 3473SOL    HW221349   4.162   7.968   2.140  0.0761 -0.6100 -1.3509
 3474SOL     OW21350   9.871   4.004   1.110  0.0493  0.1818  0.1020
 3474SOL    HW121351   9.905   4.098   1.112 -0.8748  0.4975  1.3035
 3474SOL    HW221352   9.898   3.957   1.193 -0.5902 -0.2184  0.0890
 3475SOL     OW21353   1.942   4.882   5.056 -0.7630  0.6605 -0.0109
 3475SOL    HW121354   1.963   4.802   5.000 -0.5567  0.5762  0.1872
 3475SOL    HW221355   1.843   4.891   5.065 -0.7768  0.0708  0.4782
 3476SOL     OW21356   4.855   4.197   0.508 -0.8359  0.4817 -0.2888
 3476SOL    HW121357   4.825   4.102   0.506 -0.0774  0.2309 -0.0800
 3476SOL    HW221358   4.884   4.221   0.601  0.6732  0.3689 -0.7151
 3477SOL     OW21359   3.331   8.138   0.394 -0.0655 -0.0836 -0.6487
 3477SOL    HW121360   3.348   8.120   0.491 -0.9690 -0.2864 -0.5212
 3477SOL    HW221361   3.403   8.097   0.339 -1.9106 -3.9963 -0.3491
 3478SOL     OW21362   8.870   0.476   4.626  0.1629  0.0590  0.3148
 3478SOL    HW121363   8.815   0.432   4.697  1.8339 -0.9393  1.0288
 3478SOL    HW221364   8.845   0.439   4.536  1.0439 -1.8721  0.8346
 3479SOL     OW21365   9.361   9.312   3.636 -0.5325  0.0839 -0.5096
 3479SOL    HW121366   9.415   9.369   3.574  1.5964 -0.2723  0.9662
 3479SOL    HW221367   9.298   9.370   3.687  1.0617  1.0579  0.4112
 3480SOL     OW21368   7.000   0.516   4.680 -0.4087 -0.3302 -0.1077
 3480SOL    HW121369   7.057   0.479   4.607 -0.6534 -0.0474 -0.4487
 3480SOL    HW221370   7.024   0.612   4.696 -1.9839  0.3323 -1.4970
 3481SOL     OW21371   2.961   5.984   4.440 -0.4736  0.3191  0.0756
 3481SOL    HW121372   3.034   5.971   4.373  0.4088 -0.9981  1.2637
 3481SOL    HW221373   2.881   6.023   4.395  0.0898 -0.5823 -1.7504
 3482SOL     OW21374   9.932   4.909   3.025 -0.5329 -0.0632 -0.2793
 3482SOL    HW121375   9.991   4.884   2.948  1.2673  0.5154  0.8672
 3482SOL    HW221376   9.910   5.006   3.020  1.0072  0.3684  0.8238
 3483SOL     OW21377   9.392   8.882   2.442  0.0468  0.4395  0.3906
 3483SOL    HW121378   9.439   8.911   2.359 -1.7558  1.3327 -0.3592
 3483SOL    HW221379   9.453   8.825   2.497  1.4815  0.3633 -1.2295
 3484SOL     OW21380   5.577   8.487   2.231 -0.2333 -0.3144  0.5136
 3484SOL    HW121381   5.478   8.475   2.232 -0.2800  0.0822  1.3832
 3484SOL    HW221382   5.611   8.494   2.325  0.7134 -1.1818  0.2483
 3485SOL     OW21383   1.989   1.713   1.062 -0.2613 -0.2750  0.0860
 3485SOL    HW121384   2.003   1.806   1.030  1.1320 -0.6325 -0.3634
 3485SOL    HW221385   1.906   1.675   1.021 -2.6544  1.8424  2.7129
 3486SOL     OW21386   8.594   1.351   4.973 -0.0771  0.3790  0.3838
 3486SOL    HW121387   8.574   1.263   5.015 -0.6347 -0.0539 -0.7643
 3486SOL    HW221388   8.578   1.346   4.875  1.3514  1.3364  0.0784
 3487SOL     OW21389   1.993   5.028   4.424  0.3771 -0.2840 -0.0870
 3487SOL    HW121390   1.929   5.104   4.422  0.8675  0.1071 -1.3002
 3487SOL    HW221391   2.079   5.057   4.466  0.1665 -0.4956  0.4997
 3488SOL     OW21392   9.204   6.747   1.084 -0.5673 -0.6376  0.3156
 3488SOL    HW121393   9.304   6.750   1.091 -0.6125 -0.5269  0.9259
 3488SOL    HW221394   9.178   6.733   0.989  0.0644 -2.1697  0.3579
 3489SOL     OW21395   8.322   1.453   5.287  0.1839  0.0161  0.3538
 3489SOL    HW121396   8.409   1.443   5.334  1.4906  0.2243 -1.9209
 3489SOL    HW221397   8.272   1.532   5.323  0.2850 -0.9323  2.6251
 3490SOL     OW21398   1.381   8.034   4.555 -0.0271  0.0863  0.4123
 3490SOL    HW121399   1.411   7.947   4.594  0.7743  0.3111  0.3174
 3490SOL    HW221400   1.374   8.102   4.627 -0.7814 -0.0866  0.5057
 3491SOL     OW21401   6.474   9.785   1.905 -0.3479 -0.0960  0.6556
 3491SOL    HW121402   6.411   9.709   1.922  0.5216 -2.0090 -3.8457
 3491SOL    HW221403   6.565   9.761   1.940 -0.6171 -0.1229  1.3387
 3492SOL     OW21404   1.416   7.561   0.514 -0.7041  0.3124 -0.3511
 3492SOL    HW121405   1.393   7.656   0.493 -0.3719  0.8443  1.6076
 3492SOL    HW221406   1.413   7.548   0.613 -0.0703 -1.5542 -0.5741
 3493SOL     OW21407   7.410   3.677   0.530  0.2068 -0.3903  0.1283
 3493SOL    HW121408   7.323   3.683   0.580  0.3185 -0.3886  0.3243
 3493SOL    HW221409   7.423   3.759   0.475  0.1878 -0.2926  0.2692
 3494SOL     OW21410   8.783   5.310   3.137 -0.3875 -0.3310  0.0299
 3494SOL    HW121411   8.833   5.363   3.068 -0.2101 -0.1356  0.3088
 3494SOL    HW221412   8.685   5.326   3.125 -0.3969 -0.9002 -0.6690
 3495SOL     OW21413   8.574   3.359   3.852  0.7167  0.0903 -0.2881
 3495SOL    HW121414   8.598   3.442   3.802 -0.9469 -0.6482 -2.4226
 3495SOL    HW221415   8.515   3.383   3.929  0.3893  0.9138 -0.7848
 3496SOL     OW21416   8.899   5.075   0.950 -0.3103 -0.1108 -0.0919
 3496SOL    HW121417   8.953   5.071   1.034 -0.0476  1.4040 -0.1614
 3496SOL    HW221418   8.879   5.171   0.928  0.0897 -0.4484 -2.0505
 3497SOL     OW21419   0.999   0.936   1.851 -0.1010 -0.2252  0.1331
 3497SOL    HW121420   1.019   1.016   1.794  0.1655 -0.2904  0.1339
 3497SOL    HW221421   1.016   0.853   1.798 -0.4699 -0.2819  0.1012
 3498SOL     OW21422   9.201   8.227   3.269 -0.4186 -0.6752 -0.2544
 3498SOL    HW121423   9.257   8.231   3.186 -0.5232  0.1240 -0.2935
 3498SOL    HW221424   9.128   8.296   3.263 -0.1795 -0.3382  0.6815
 3499SOL     OW21425   2.217   8.471   1.612  0.2874 -0.0140  0.7794
 3499SOL    HW121426   2.135   8.422   1.580 -0.7821  2.5863 -0.6008
 3499SOL    HW221427   2.190   8.542   1.677  1.4112  1.0811  0.0704
 3500SOL     OW21428   3.599   1.197   4.121 -0.0174 -0.2776  0.0398
 3500SOL    HW121429   3.573   1.279   4.070 -0.7461 -0.9784 -0.7502
 3500SOL    HW221430   3.698   1.185   4.118  0.0714  0.4673 -0.0047
 3501SOL     OW21431   4.589   9.913   2.363  0.1110 -0.4743  0.0015
 3501SOL    HW121432   4.569   9.922   2.266 -1.1448  1.0180  0.3676
 3501SOL    HW221433   4.688   9.902   2.376  0.5016  1.2428 -1.3369
 3502SOL     OW21434   0.778   1.946   5.399 -0.1626  0.4034 -0.1884
 3502SOL    HW121435   0.829   1.996   5.469  0.5111  0.3841 -0.6553
 3502SOL    HW221436   0.804   1.849   5.403 -0.2202  0.3800 -0.3738
 3503SOL     OW21437   6.248   0.754   2.460 -0.4985 -0.0602 -0.1353
 3503SOL    HW121438   6.156   0.742   2.423 -1.0213 -0.0915  1.1366
 3503SOL    HW221439   6.245   0.820   2.536  0.5795  0.1873 -0.3049
 3504SOL     OW21440   8.504   8.677   2.100 -0.1739 -0.0209  0.1816
 3504SOL    HW121441   8.440   8.644   2.031 -0.9284 -0.4297  1.0613
 3504SOL    HW221442   8.501   8.616   2.180  0.1610  0.8440  0.8615
 3505SOL     OW21443   4.276   0.636   1.587 -0.0783 -0.1030 -0.4383
 3505SOL    HW121444   4.277   0.605   1.491  0.6806 -2.8842  0.4082
 3505SOL    HW221445   4.187   0.677   1.608 -1.3615 -2.2311 -1.5169
 3506SOL     OW21446   2.086   4.481   2.283  0.1972 -0.3393 -0.3258
 3506SOL    HW121447   2.003   4.444   2.324  0.1205 -0.5674 -0.6812
 3506SOL    HW221448   2.083   4.467   2.184  0.2445  0.4779 -0.4415
 3507SOL     OW21449   8.678   2.652   4.737 -0.1849 -0.0830 -0.2763
 3507SOL    HW121450   8.761   2.597   4.744 -2.5140 -4.0934 -2.2539
 3507SOL    HW221451   8.676   2.699   4.649  1.3427  2.5219  1.0181
 3508SOL     OW21452   4.673   1.227   1.281  0.1200  0.7945  0.6740
 3508SOL    HW121453   4.767   1.240   1.251  0.4987 -1.6588  0.7091
 3508SOL    HW221454   4.671   1.209   1.379 -0.3159  0.0277  0.5262
 3509SOL     OW21455   9.825   9.268   2.832 -0.0776  0.4536 -0.0674
 3509SOL    HW121456   9.809   9.333   2.906  1.4368  0.7726 -0.0039
 3509SOL    HW221457   9.828   9.317   2.745  1.2197  0.5202 -0.0040
 3510SOL     OW21458   8.982   3.744   5.214  0.2941 -0.0075 -0.6705
 3510SOL    HW121459   9.043   3.666   5.224 -0.5591 -0.5150  0.8161
 3510SOL    HW221460   9.010   3.817   5.276  1.1413  0.9322 -2.1176
 3511SOL     OW21461   4.635   0.058   5.467  0.2411  0.4543  0.1473
 3511SOL    HW121462   4.683   0.116   5.533 -0.5584  1.3637 -0.0604
 3511SOL    HW221463   4.551   0.022   5.509 -1.0532  2.2618 -0.8640
 3512SOL     OW21464   5.329   9.141   3.564  0.0982  0.3513  0.3466
 3512SOL    HW121465   5.253   9.182   3.615  1.1026  2.0837  0.4580
 3512SOL    HW221466   5.409   9.135   3.623 -0.1446 -2.2113  0.4713
 3513SOL     OW21467   4.464   1.294   2.524 -0.0416 -0.1716 -0.1115
 3513SOL    HW121468   4.463   1.384   2.566 -1.5499 -0.4018  0.3788
 3513SOL    HW221469   4.557   1.256   2.526  0.2153  0.5379  1.4408
 3514SOL     OW21470   6.802   8.188   3.252 -0.4075 -0.0988 -0.0786
 3514SOL    HW121471   6.878   8.215   3.310  0.8938 -0.7801 -1.4266
 3514SOL    HW221472   6.720   8.174   3.308  0.6360 -0.0778  1.4804
 3515SOL     OW21473   4.834   2.754   5.635  0.1632  0.4899 -0.4668
 3515SOL    HW121474   4.894   2.675   5.650 -1.5141 -0.5927  0.6567
 3515SOL    HW221475   4.875   2.835   5.676  0.0790 -0.5859  1.8153
 3516SOL     OW21476   2.598   8.521   0.026  0.4120  0.0930  0.4937
 3516SOL    HW121477   2.547   8.601   0.057  1.8365  1.4348 -0.5391
 3516SOL    HW221478   2.551   8.438   0.055 -2.3729  1.2838 -0.4490
 3517SOL     OW21479   2.920   9.815   1.634 -0.3077 -0.2235 -0.1484
 3517SOL    HW121480   2.964   9.904   1.621  1.0086 -0.7678  0.4828
 3517SOL    HW221481   2.909   9.770   1.545  1.7278 -0.6860 -0.1806
 3518SOL     OW21482   4.699   1.978   0.509 -0.7838  0.0378  0.5757
 3518SOL    HW121483   4.640   2.028   0.572 -0.0033 -0.0893  1.4135
 3518SOL    HW221484   4.716   1.887   0.546  0.1481  0.1669  0.4554
 3519SOL     OW21485   3.390   1.121   0.941 -0.7191  0.0963 -0.0684
 3519SOL    HW121486   3.371   1.194   1.006 -0.6542 -0.7833  0.9519
 3519SOL    HW221487   3.330   1.043   0.960 -0.7912 -0.1249 -1.1450
 3520SOL     OW21488   3.123   6.499   4.420 -0.2974 -0.2163 -0.2312
 3520SOL    HW121489   3.073   6.550   4.350 -3.3003 -0.3956  1.6702
 3520SOL    HW221490   3.067   6.421   4.450  0.5116  0.3868  2.9712
 3521SOL     OW21491   9.838   8.386   0.790 -0.0523 -0.0227 -0.0622
 3521SOL    HW121492   9.928   8.424   0.766  0.2895 -0.1653  0.9358
 3521SOL    HW221493   9.766   8.448   0.759  0.3863  0.0409 -0.9632
 3522SOL     OW21494   5.561   6.948   2.612 -0.8143 -0.2274 -0.0525
 3522SOL    HW121495   5.630   6.956   2.684 -1.4347  0.7984  0.4509
 3522SOL    HW221496   5.599   6.900   2.533  0.2960 -0.1489  0.4343
 3523SOL     OW21497   5.921   4.091   0.035 -1.0149  0.4033 -0.2509
 3523SOL    HW121498   5.867   4.152   0.093 -2.2770 -0.4706 -0.5034
 3523SOL    HW221499   6.007   4.137   0.010 -0.9215  1.2013  1.4264
 3524SOL     OW21500   2.800   3.405   3.062  0.1458 -0.4088 -0.2342
 3524SOL    HW121501   2.769   3.487   3.014  2.2815 -0.4206 -1.7018
 3524SOL    HW221502   2.898   3.412   3.080  0.0844 -2.0491  0.8356
 3525SOL     OW21503   0.319   9.086   3.027  0.0116 -0.3668  0.2433
 3525SOL    HW121504   0.236   9.032   3.012 -1.3305  1.8061 -0.3413
 3525SOL    HW221505   0.377   9.082   2.945 -0.7900  0.2975 -0.3595
 3526SOL     OW21506   1.902   7.868   1.409 -0.0590  0.1450 -0.5190
 3526SOL    HW121507   1.837   7.823   1.348 -1.6302  1.1677  0.3809
 3526SOL    HW221508   1.970   7.916   1.354 -0.5024 -0.2944 -1.4671
 3527SOL     OW21509   0.664   1.993   2.380  0.4646 -0.3151 -0.2236
 3527SOL    HW121510   0.707   2.082   2.371 -0.9913  0.7185  2.4517
 3527SOL    HW221511   0.567   2.000   2.359  0.6487 -1.6627 -1.6672
 3528SOL     OW21512   5.383   0.907   4.287 -1.0352  0.8055 -0.4549
 3528SOL    HW121513   5.468   0.855   4.293 -0.8716  0.9302 -1.5330
 3528SOL    HW221514   5.343   0.896   4.195 -1.7209  1.4569 -0.2441
 3529SOL     OW21515   9.135   7.233   0.559  0.0229 -0.4428  0.5527
 3529SOL    HW121516   9.200   7.300   0.596  0.0479 -0.5490  0.6980
 3529SOL    HW221517   9.153   7.143   0.599 -1.1686 -0.1744  1.7398
 3530SOL     OW21518   7.854   6.327   2.646 -0.5640  0.0447  0.3950
 3530SOL    HW121519   7.840   6.237   2.686  0.0051 -0.4556 -0.5080
 3530SOL    HW221520   7.912   6.319   2.565 -0.1256  1.2862  0.5771
 3531SOL     OW21521   4.458   8.212   1.737 -0.1774 -1.1317 -0.2900
 3531SOL    HW121522   4.418   8.294   1.696  1.1566 -1.1280 -1.6519
 3531SOL    HW221523   4.477   8.229   1.833  0.7274  0.4229 -0.7260
 3532SOL     OW21524   3.166   8.186   1.738  0.5528 -0.0701  0.5884
 3532SOL    HW121525   3.071   8.154   1.738  0.8240 -0.8807  0.8443
 3532SOL    HW221526   3.171   8.272   1.789  0.0493 -0.3346  1.0985
 3533SOL     OW21527   5.502   0.208   3.404  0.0585  0.1840  0.2788
 3533SOL    HW121528   5.484   0.170   3.495  0.6092  1.1827  0.8198
 3533SOL    HW221529   5.416   0.234   3.361 -0.1278  0.9439  1.0803
 3534SOL     OW21530   1.933   9.555   3.514 -0.1604  0.3271 -0.2228
 3534SOL    HW121531   1.924   9.638   3.570  1.0400  0.8119 -0.7057
 3534SOL    HW221532   2.011   9.567   3.452 -0.6202 -0.7647 -1.0044
 3535SOL     OW21533   0.452   3.705   3.903  0.0062  0.3863 -0.1686
 3535SOL    HW121534   0.473   3.791   3.856 -0.8649  0.2517 -0.8177
 3535SOL    HW221535   0.451   3.630   3.837 -1.5865  0.2522 -0.0090
 3536SOL     OW21536   8.970   2.757   5.018 -0.3122 -0.4776 -0.3991
 3536SOL    HW121537   8.888   2.731   5.069 -0.3434  1.4990  0.5664
 3536SOL    HW221538   9.043   2.691   5.036 -1.2790 -1.5110 -0.2360
 3537SOL     OW21539   8.974   1.953   1.765 -0.0588  0.0363 -0.0873
 3537SOL    HW121540   8.952   2.045   1.732 -2.6235 -0.3226  0.4766
 3537SOL    HW221541   9.001   1.958   1.861  1.3819  0.3660 -0.4974
 3538SOL     OW21542   1.518   6.255   3.461 -0.3624  0.5161 -0.1840
 3538SOL    HW121543   1.486   6.261   3.556  0.2056 -1.2674  0.1394
 3538SOL    HW221544   1.510   6.160   3.429  2.3569  0.4850 -0.8823
 3539SOL     OW21545   3.584   3.078   3.787 -0.6843  0.5723 -0.0764
 3539SOL    HW121546   3.677   3.116   3.782  0.1950 -1.4920 -0.1823
 3539SOL    HW221547   3.536   3.096   3.702  0.4716 -0.3935 -0.9549
 3540SOL     OW21548   0.520   8.464   4.784 -0.0717 -0.1194 -0.2725
 3540SOL    HW121549   0.467   8.547   4.771  1.2498  0.6982 -0.6157
 3540SOL    HW221550   0.616   8.488   4.800  0.3969 -1.5851 -0.7701
 3541SOL     OW21551   8.547   7.713   1.831  0.3189  0.2503  0.1025
 3541SOL    HW121552   8.486   7.791   1.826  1.2375  0.9465 -0.3416
 3541SOL    HW221553   8.534   7.666   1.918 -0.9778  0.2760 -0.0714
 3542SOL     OW21554   7.685   0.460   3.488  0.4922  0.3461  0.5068
 3542SOL    HW121555   7.701   0.393   3.560 -0.6018 -0.4381  0.0370
 3542SOL    HW221556   7.613   0.523   3.517 -2.7402 -2.3303 -1.3925
 3543SOL     OW21557   7.557   2.005   3.482 -0.3086 -0.1410 -0.1534
 3543SOL    HW121558   7.582   2.102   3.482 -0.7223 -0.0090  1.4927
 3543SOL    HW221559   7.457   1.996   3.485 -0.2320 -0.5805  1.9927
 3544SOL     OW21560   6.870   0.043   3.491  0.3372  0.3068 -0.6824
 3544SOL    HW121561   6.947   0.107   3.496  1.7364 -1.3544 -0.3725
 3544SOL    HW221562   6.842   0.017   3.584 -1.0890  1.4570 -0.7761
 3545SOL     OW21563   5.140   0.139   3.082 -0.4680  0.2529 -0.2278
 3545SOL    HW121564   5.149   0.040   3.084 -0.5387  0.2434 -0.3677
 3545SOL    HW221565   5.184   0.175   2.999  0.8052  0.4617  0.5317
 3546SOL     OW21566   8.562   3.209   4.456  0.5697  0.0216  0.0453
 3546SOL    HW121567   8.497   3.267   4.407 -0.6737 -1.0074  0.4542
 3546SOL    HW221568   8.655   3.230   4.425  0.0706  1.6591 -0.3865
 3547SOL     OW21569   2.950   0.300   0.573  0.1113  0.2897 -0.2078
 3547SOL    HW121570   2.892   0.381   0.582 -0.0362  0.0737  0.7820
 3547SOL    HW221571   3.011   0.293   0.652  1.6150  0.6028 -1.3082
 3548SOL     OW21572   3.019   6.250   4.826 -0.3174  0.0938  0.4481
 3548SOL    HW121573   3.019   6.328   4.888 -1.4380  0.9333 -0.5831
 3548SOL    HW221574   2.930   6.205   4.827  0.0658 -0.6849  0.4251
 3549SOL     OW21575   8.354   8.545   0.189 -0.6039 -0.0761 -0.1419
 3549SOL    HW121576   8.448   8.549   0.222 -0.8272  2.4018  0.2939
 3549SOL    HW221577   8.314   8.637   0.191 -3.0924 -1.1150 -0.1314
 3550SOL     OW21578   3.785   2.645   5.079 -0.3227 -0.1790 -0.4637
 3550SOL    HW121579   3.821   2.553   5.063 -0.7409 -0.2124 -1.2585
 3550SOL    HW221580   3.705   2.660   5.021 -0.3687  0.6245 -0.2062
 3551SOL     OW21581   9.434   0.386   4.223  0.2385 -0.5399 -0.2157
 3551SOL    HW121582   9.478   0.300   4.247 -0.7747 -0.8187  0.7004
 3551SOL    HW221583   9.369   0.411   4.295  3.4201  3.0889  1.5743
 3552SOL     OW21584   8.845   2.426   3.353  0.4934  0.0547  0.2802
 3552SOL    HW121585   8.779   2.437   3.279 -0.2386 -0.9990  0.7673
 3552SOL    HW221586   8.825   2.491   3.426 -1.3272 -1.6488  1.3578
 3553SOL     OW21587   7.959   6.074   5.525 -0.2845 -0.3375  0.3494
 3553SOL    HW121588   7.973   6.007   5.599 -2.6401  0.2872  1.4327
 3553SOL    HW221589   8.031   6.143   5.528  0.8760 -1.5337  0.6685
 3554SOL     OW21590   9.974   9.627   2.427  0.1545  0.4082 -1.0360
 3554SOL    HW121591  10.040   9.567   2.473 -0.4957  0.0893 -0.5059
 3554SOL    HW221592   9.986   9.620   2.328 -1.0978 -1.9810 -1.0471
 3555SOL     OW21593   5.382   0.864   0.851  0.1742  0.0345 -0.3383
 3555SOL    HW121594   5.373   0.933   0.780  0.5240 -1.4069 -1.8132
 3555SOL    HW221595   5.292   0.844   0.890 -0.0167  0.8486 -0.3532
 3556SOL     OW21596   4.067   1.190   2.892 -0.6131 -1.0686 -0.3881
 3556SOL    HW121597   4.144   1.247   2.862 -0.6672 -1.7613 -1.8844
 3556SOL    HW221598   4.102   1.109   2.938 -0.5411  0.2896  2.0156
 3557SOL     OW21599   3.092   1.943   4.355  0.1101  0.3960 -0.7711
 3557SOL    HW121600   3.181   1.909   4.323  0.9994  0.8601  1.1551
 3557SOL    HW221601   3.086   2.041   4.337  0.7103  0.7063  0.6427
 3558SOL     OW21602   9.675   8.502   1.116  0.1946 -0.0389 -0.2152
 3558SOL    HW121603   9.740   8.427   1.129  0.9277  0.4297 -1.1595
 3558SOL    HW221604   9.610   8.477   1.045  0.1023  0.0025 -0.1451
 3559SOL     OW21605   4.047   2.730   1.830 -0.3089  0.0405  0.0919
 3559SOL    HW121606   4.039   2.826   1.802  2.3740  0.5640  0.9529
 3559SOL    HW221607   4.041   2.671   1.750  1.0614  1.1260 -0.8413
 3560SOL     OW21608   2.106   5.872   3.617  0.2576  0.4712  0.1956
 3560SOL    HW121609   2.195   5.867   3.572  0.7567 -1.4020  1.3215
 3560SOL    HW221610   2.037   5.902   3.552  1.5984  1.3395 -0.8481
 3561SOL     OW21611   2.522   1.231   0.485  0.7422 -0.7104 -1.1134
 3561SOL    HW121612   2.462   1.168   0.535 -0.0883  0.7758 -0.1930
 3561SOL    HW221613   2.603   1.251   0.540  0.3964 -0.0063 -0.8443
 3562SOL     OW21614   1.940   9.308   1.954  0.2336  0.0437 -0.2879
 3562SOL    HW121615   1.854   9.322   2.002 -0.4636  0.7502 -1.7012
 3562SOL    HW221616   2.016   9.308   2.020 -0.5884  2.0373  0.7062
 3563SOL     OW21617   1.630   6.273   1.080  0.3274  0.1718 -0.0769
 3563SOL    HW121618   1.616   6.185   1.036  1.7211 -0.2863  0.3637
 3563SOL    HW221619   1.688   6.331   1.022 -0.4485  0.7489 -0.2907
 3564SOL     OW21620   5.641   0.244   4.888  0.6892 -0.1042  0.1959
 3564SOL    HW121621   5.559   0.299   4.906  0.4835  0.2785 -1.8791
 3564SOL    HW221622   5.721   0.294   4.920  0.4981  1.3955 -1.6330
 3565SOL     OW21623   4.836   2.010   2.938 -0.1643 -0.1918  0.4055
 3565SOL    HW121624   4.865   2.017   2.843  0.9175 -3.2014  0.4363
 3565SOL    HW221625   4.902   2.055   2.998  1.2332 -1.6868  0.0046
 3566SOL     OW21626   8.749   4.569   0.520  0.4197  0.8485  0.1709
 3566SOL    HW121627   8.681   4.521   0.464 -0.8043  2.3388  0.3174
 3566SOL    HW221628   8.833   4.516   0.523 -0.4018 -0.5658 -0.8492
 3567SOL     OW21629   9.991   5.917   0.955  0.3874  0.4136 -0.5463
 3567SOL    HW121630   9.969   5.870   0.869 -1.0469 -1.3982  0.7511
 3567SOL    HW221631  10.075   5.880   0.993  0.2257  0.1483 -0.4398
 3568SOL     OW21632   8.328   6.047   3.642  0.0561  0.0216 -0.2326
 3568SOL    HW121633   8.296   6.131   3.598 -0.4323  0.4262  0.8748
 3568SOL    HW221634   8.403   6.009   3.589 -0.6860  0.3592 -1.5460
 3569SOL     OW21635   2.344   0.419   2.871 -0.2190  0.5821 -0.1328
 3569SOL    HW121636   2.390   0.474   2.802 -1.0237 -1.1133 -2.0794
 3569SOL    HW221637   2.328   0.474   2.953  0.1172  2.8412 -1.5450
 3570SOL     OW21638   4.020   0.648   2.486 -0.0358  0.0979  0.0411
 3570SOL    HW121639   4.102   0.704   2.476  1.3783 -1.6295  1.7938
 3570SOL    HW221640   4.032   0.582   2.560 -3.0343 -0.1485  0.3893
 3571SOL     OW21641   1.414   5.340   1.489 -0.3174 -0.5253  0.5890
 3571SOL    HW121642   1.426   5.356   1.587 -1.4872  1.1969  0.4710
 3571SOL    HW221643   1.337   5.278   1.475  0.3004 -1.3426  0.7838
 3572SOL     OW21644   1.054   0.052   1.194  0.4415 -0.2699 -0.4914
 3572SOL    HW121645   0.983   0.069   1.262  0.9655 -1.3604  0.3535
 3572SOL    HW221646   1.124   0.123   1.200  0.4793 -0.3513  0.1311
 3573SOL     OW21647   3.598   4.564   4.866 -0.4554 -0.8462 -0.4432
 3573SOL    HW121648   3.503   4.561   4.898 -0.3647 -0.4324 -0.1256
 3573SOL    HW221649   3.601   4.604   4.774 -0.4645  0.3416  0.0619
 3574SOL     OW21650   9.560   9.494   4.974  0.0811  0.4648 -0.2232
 3574SOL    HW121651   9.531   9.505   5.069 -1.8670  3.0135 -1.0614
 3574SOL    HW221652   9.514   9.415   4.934  1.4722 -1.0658  1.1260
 3575SOL     OW21653   0.254   8.279   3.185  0.0010  0.7557  0.3326
 3575SOL    HW121654   0.172   8.258   3.131  0.5292 -2.4802  0.6846
 3575SOL    HW221655   0.318   8.331   3.129 -0.4344 -0.5489 -1.4348
 3576SOL     OW21656   8.806   5.768   1.686 -0.2280  0.3457 -0.0748
 3576SOL    HW121657   8.805   5.697   1.757 -0.3358  0.8556  0.4430
 3576SOL    HW221658   8.900   5.790   1.662 -0.1788  0.4740  0.2265
 3577SOL     OW21659   8.890   4.855   0.106 -0.3399 -0.4944  0.2025
 3577SOL    HW121660   8.822   4.804   0.052  1.7587 -0.5408 -2.5201
 3577SOL    HW221661   8.978   4.809   0.100  0.7204  1.4117  0.8250
 3578SOL     OW21662   9.812   5.116   2.001 -0.6101  0.2308  0.2581
 3578SOL    HW121663   9.717   5.090   1.989 -0.5789 -0.4956  1.4792
 3578SOL    HW221664   9.847   5.076   2.086  1.1980 -0.7022 -0.9005
 3579SOL     OW21665   7.925   3.204   2.996  0.7627 -0.2205  0.0567
 3579SOL    HW121666   7.957   3.116   3.032 -1.4232 -1.4100 -0.7812
 3579SOL    HW221667   7.884   3.190   2.906 -1.1459  1.3751  0.6428
 3580SOL     OW21668   7.540   2.008   2.141  0.0285 -1.0968  0.1074
 3580SOL    HW121669   7.537   1.916   2.180 -2.0126 -0.2601  2.0022
 3580SOL    HW221670   7.452   2.030   2.101  0.9777 -0.5085 -1.7056
 3581SOL     OW21671   7.861   2.174   3.235  0.9921 -0.3267  0.6073
 3581SOL    HW121672   7.859   2.074   3.244 -0.3615 -0.4076 -0.3603
 3581SOL    HW221673   7.770   2.211   3.251  1.2418  0.6439 -0.1227
 3582SOL     OW21674   1.234   7.974   1.202 -0.4267 -0.5851 -0.0168
 3582SOL    HW121675   1.258   7.985   1.299  2.6382  1.1234 -0.9379
 3582SOL    HW221676   1.239   7.877   1.178 -0.5183 -0.9476  1.3443
 3583SOL     OW21677   8.362   8.371   4.786 -0.3392  0.1494  0.3987
 3583SOL    HW121678   8.327   8.326   4.868 -0.3492 -0.0116  0.3072
 3583SOL    HW221679   8.350   8.311   4.707  1.2168 -0.3902  0.5502
 3584SOL     OW21680   7.887   1.996   5.022 -0.2758  0.0099 -0.5645
 3584SOL    HW121681   7.859   1.976   5.116 -2.3274  0.5662 -1.0259
 3584SOL    HW221682   7.933   2.084   5.018 -2.3914  1.1478 -0.4361
 3585SOL     OW21683   2.911   7.693   0.968  0.8671  0.2423  0.2792
 3585SOL    HW121684   2.848   7.766   0.993 -0.6431 -1.3761  1.2952
 3585SOL    HW221685   3.004   7.718   0.996  0.2108  1.3373  1.5215
 3586SOL     OW21686   9.249   1.077   4.647 -0.3768 -0.1487  1.3313
 3586SOL    HW121687   9.238   1.150   4.580 -0.1143 -0.8264  0.5452
 3586SOL    HW221688   9.339   1.034   4.635 -0.8919 -1.2045  1.1758
 3587SOL     OW21689   3.428   9.135   4.806  0.1282 -0.6785  0.4157
 3587SOL    HW121690   3.422   9.035   4.804  0.4528 -0.7510  2.0013
 3587SOL    HW221691   3.491   9.167   4.736 -1.4228 -1.4519 -1.3724
 3588SOL     OW21692   4.704   4.006   0.877 -0.4043  0.1727  0.0904
 3588SOL    HW121693   4.663   4.043   0.793 -0.7515 -0.9312 -0.2378
 3588SOL    HW221694   4.643   4.023   0.954 -0.6367  0.1418 -0.0864
 3589SOL     OW21695   7.222   9.819   0.315  0.2642  0.1583  0.5763
 3589SOL    HW121696   7.271   9.771   0.241  0.0131  0.8900 -0.0622
 3589SOL    HW221697   7.126   9.831   0.289  0.1054  0.1414  1.1552
 3590SOL     OW21698   0.060   0.412   3.247 -0.3366 -0.3446  0.0933
 3590SOL    HW121699   0.098   0.498   3.214  2.6572 -1.5372  0.2544
 3590SOL    HW221700   0.012   0.429   3.334  0.6468  1.0980  0.3878
 3591SOL     OW21701   7.019   1.915   2.751 -0.0769 -0.1110  0.7958
 3591SOL    HW121702   7.086   1.976   2.708 -1.0796  0.3640 -0.0993
 3591SOL    HW221703   6.927   1.952   2.737 -0.5386 -0.8131  1.9375
 3592SOL     OW21704   6.604   9.303   3.301  0.2155 -0.5369 -0.3634
 3592SOL    HW121705   6.576   9.377   3.239 -0.6124 -1.4739 -1.1179
 3592SOL    HW221706   6.700   9.315   3.324 -0.3810  1.8783  1.0699
 3593SOL     OW21707   9.148   3.553   4.024  0.1156  0.2560  0.1740
 3593SOL    HW121708   9.088   3.632   4.016 -1.0667 -0.6887 -0.3598
 3593SOL    HW221709   9.094   3.469   4.026  1.4671 -0.6979 -1.6424
 3594SOL     OW21710   3.088   9.426   1.507  0.1063  0.3221  0.3522
 3594SOL    HW121711   3.097   9.359   1.582  0.1100 -0.3167 -0.2169
 3594SOL    HW221712   2.991   9.439   1.486  0.1461 -0.2401 -0.1934
 3595SOL     OW21713   2.633   0.335   3.215 -0.1390  0.2190 -0.4629
 3595SOL    HW121714   2.674   0.249   3.185 -0.4702  0.5855 -2.0322
 3595SOL    HW221715   2.533   0.325   3.217 -0.0871 -0.1235  1.6034
 3596SOL     OW21716   2.802   3.237   3.805  0.3620  0.3124 -0.4233
 3596SOL    HW121717   2.734   3.174   3.768  1.5691 -1.2555 -0.0253
 3596SOL    HW221718   2.845   3.288   3.730 -0.6184  0.6603 -0.7471
 3597SOL     OW21719   9.375   8.281   2.965 -0.6679  0.1983  0.0485
 3597SOL    HW121720   9.350   8.377   2.979 -0.6779  0.1124  0.6372
 3597SOL    HW221721   9.315   8.240   2.896 -0.1107  0.8421 -0.8244
 3598SOL     OW21722   4.902   5.453   0.925  0.0245 -0.4110  0.3968
 3598SOL    HW121723   4.987   5.506   0.929  0.7557 -1.5920  0.6434
 3598SOL    HW221724   4.871   5.447   0.831 -0.4510  1.0576  0.4469
 3599SOL     OW21725   4.299   3.607   5.082  0.2079 -0.0014 -0.3655
 3599SOL    HW121726   4.329   3.513   5.096  1.2060 -0.0295 -2.4508
 3599SOL    HW221727   4.296   3.626   4.984 -3.2078  1.1141 -0.1068
 3600SOL     OW21728   9.202   1.557   3.596  0.2071  0.1374 -0.1320
 3600SOL    HW121729   9.145   1.639   3.601  0.9293  0.8405 -2.5512
 3600SOL    HW221730   9.294   1.578   3.628 -0.3340 -0.4720  1.8686
 3601SOL     OW21731   0.500   0.468   4.145  0.2611 -0.2959 -0.5018
 3601SOL    HW121732   0.515   0.409   4.224  0.6460 -0.4370 -0.6778
 3601SOL    HW221733   0.408   0.455   4.109 -0.1571  0.2595  0.3354
 3602SOL     OW21734   8.195   7.276   0.631 -0.2131  0.2421  0.0362
 3602SOL    HW121735   8.166   7.336   0.556 -2.2663 -0.1543  0.4791
 3602SOL    HW221736   8.116   7.254   0.687  0.7678 -1.8873  0.6020
 3603SOL     OW21737   7.589   0.161   2.070 -0.0878 -0.5919 -0.2843
 3603SOL    HW121738   7.663   0.142   2.007 -0.6371 -3.6505 -0.0968
 3603SOL    HW221739   7.625   0.205   2.153  1.1344  0.0764 -1.1628
 3604SOL     OW21740   9.775   1.936   0.458 -0.4874  0.0608 -0.7230
 3604SOL    HW121741   9.807   1.871   0.390 -0.6707  0.0371 -0.7877
 3604SOL    HW221742   9.690   1.978   0.426 -1.5031 -1.2044  0.2698
 3605SOL     OW21743   0.747   2.958   0.890  0.4054 -0.6026  1.1185
 3605SOL    HW121744   0.767   2.860   0.886 -0.7088 -0.7750 -1.2331
 3605SOL    HW221745   0.655   2.972   0.928 -0.1270 -0.5799 -0.1674
 3606SOL     OW21746   1.253   1.360   2.294 -0.1278 -0.1974  0.2666
 3606SOL    HW121747   1.251   1.459   2.309 -0.7217 -0.1501 -0.1368
 3606SOL    HW221748   1.325   1.338   2.228  0.9371 -0.1790  1.3913
 3607SOL     OW21749   9.123   8.672   5.315 -0.1296 -0.7026  0.0971
 3607SOL    HW121750   9.216   8.673   5.350  0.4018  1.1861 -1.2640
 3607SOL    HW221751   9.063   8.720   5.380  0.2994  0.1856 -0.1518
 3608SOL     OW21752   3.000   4.323   4.946  0.0088 -0.3866 -0.0879
 3608SOL    HW121753   2.959   4.348   5.034 -0.0438  0.6785 -0.4050
 3608SOL    HW221754   3.093   4.360   4.941 -0.1622 -0.0362 -0.6746
 3609SOL     OW21755   4.190   4.255   0.917 -0.0987  0.1651  0.3547
 3609SOL    HW121756   4.217   4.282   1.010 -0.3389  0.4937  0.3304
 3609SOL    HW221757   4.124   4.181   0.921  1.5342 -1.3150  0.3959
 3610SOL     OW21758   7.550   7.295   4.505 -0.1077  0.2575 -0.4785
 3610SOL    HW121759   7.577   7.208   4.465 -1.6589  0.3201 -1.7255
 3610SOL    HW221760   7.628   7.357   4.505  0.3222 -0.2386 -2.0885
 3611SOL     OW21761   7.881   4.305   4.879 -0.0304  0.3550 -0.6847
 3611SOL    HW121762   7.847   4.380   4.937 -1.1518 -0.1685 -0.6483
 3611SOL    HW221763   7.809   4.237   4.868  0.8583 -0.5308 -1.0502
 3612SOL     OW21764   0.306   5.870   3.103  0.2002 -0.0193 -0.5289
 3612SOL    HW121765   0.260   5.844   3.188  1.2204  0.1496  0.0737
 3612SOL    HW221766   0.237   5.896   3.035 -0.5675  0.9869  0.6174
 3613SOL     OW21767   0.968   7.723   0.514 -0.3660 -0.1058 -0.4040
 3613SOL    HW121768   0.872   7.714   0.485 -0.6189  1.2911 -0.0535
 3613SOL    HW221769   1.010   7.801   0.468  0.2850 -0.0568  0.2519
 3614SOL     OW21770   7.655   7.420   2.043 -0.6988  0.2181  0.7668
 3614SOL    HW121771   7.704   7.486   2.100 -0.1666 -0.1721  0.7648
 3614SOL    HW221772   7.556   7.435   2.053 -0.5672  1.9855 -0.4088
 3615SOL     OW21773   8.515   7.088   2.975  0.3690 -0.1125 -1.0260
 3615SOL    HW121774   8.430   7.044   2.946 -0.5132  0.1811  1.0339
 3615SOL    HW221775   8.544   7.154   2.905 -1.4902  0.2907 -1.4363
 3616SOL     OW21776   1.232   7.585   2.978  0.2872 -0.4325 -0.1478
 3616SOL    HW121777   1.300   7.630   2.920 -0.2832  0.3978 -0.1953
 3616SOL    HW221778   1.203   7.648   3.050 -0.7373 -0.6234 -0.3840
 3617SOL     OW21779   3.874   0.503   1.419 -0.8432 -0.8250  0.5230
 3617SOL    HW121780   3.811   0.572   1.385  1.8781  1.1660 -0.7246
 3617SOL    HW221781   3.878   0.507   1.519 -0.0899  1.4809  0.4292
 3618SOL     OW21782   4.191   2.634   3.447  0.1416  0.0139 -0.3135
 3618SOL    HW121783   4.193   2.555   3.507  0.8359  0.5941  0.4395
 3618SOL    HW221784   4.117   2.625   3.381 -1.0109 -0.3443  1.0183
 3619SOL     OW21785   5.825   8.277   3.762  0.4350 -0.2236  0.6042
 3619SOL    HW121786   5.830   8.225   3.677 -0.6342  2.2504 -1.0438
 3619SOL    HW221787   5.912   8.324   3.777  1.2767 -2.1381  1.9062
 3620SOL     OW21788   3.014   6.397   0.893  0.4061 -0.1207  0.4434
 3620SOL    HW121789   3.018   6.414   0.992  0.9866  0.9789  0.2307
 3620SOL    HW221790   2.974   6.307   0.877 -1.6524  0.5462  1.6116
 3621SOL     OW21791   8.399   6.258   1.199 -0.1417 -0.2285 -0.5816
 3621SOL    HW121792   8.494   6.227   1.208 -0.4619 -1.1077 -0.2396
 3621SOL    HW221793   8.389   6.307   1.112  0.7493  0.3260 -0.3819
 3622SOL     OW21794   9.493   8.445   3.174  0.0313  0.0091  0.0545
 3622SOL    HW121795   9.479   8.544   3.172 -0.1610 -0.0268 -0.6908
 3622SOL    HW221796   9.469   8.410   3.264  2.2319  0.9403  1.0359
 3623SOL     OW21797   7.196   5.650   5.178  0.2042 -0.5373 -0.3450
 3623SOL    HW121798   7.181   5.737   5.131  1.8185  0.9698  1.8056
 3623SOL    HW221799   7.209   5.577   5.111 -0.0051  1.0849 -2.1862
 3624SOL     OW21800   7.993   6.649   1.030 -0.6759  0.3713 -0.2039
 3624SOL    HW121801   7.940   6.686   1.107  1.7404 -0.2595  1.8398
 3624SOL    HW221802   8.007   6.551   1.045  1.9326  0.7275 -0.1427
 3625SOL     OW21803   2.637   0.056   0.455  0.1088 -1.3411  0.5076
 3625SOL    HW121804   2.637  -0.028   0.400 -0.1432 -0.7765 -0.3694
 3625SOL    HW221805   2.725   0.103   0.445  1.0139 -2.5597  2.6539
 3626SOL     OW21806   9.835   1.398   5.551 -0.0372 -0.2093 -0.2830
 3626SOL    HW121807   9.772   1.392   5.474 -1.2603 -1.2597  0.7708
 3626SOL    HW221808   9.901   1.323   5.547  0.1847 -0.0015 -0.5505
 3627SOL     OW21809   9.514   4.348   2.528 -0.2577 -0.1905  0.5128
 3627SOL    HW121810   9.588   4.369   2.463 -0.0089 -0.2953  0.7602
 3627SOL    HW221811   9.552   4.301   2.607 -0.4101  0.8615  1.2150
 3628SOL     OW21812   8.763   5.413   1.766  0.1970 -0.2835 -0.1115
 3628SOL    HW121813   8.776   5.323   1.724  0.8563  0.2961 -1.1475
 3628SOL    HW221814   8.836   5.429   1.832  0.4467 -0.2367 -0.3982
 3629SOL     OW21815   0.221   3.194   0.924  0.3942 -0.2657  0.2654
 3629SOL    HW121816   0.314   3.158   0.917  0.8493  1.0186 -0.4844
 3629SOL    HW221817   0.195   3.235   0.836 -1.1409 -1.2321  0.2521
 3630SOL     OW21818   7.819   4.013   4.523  0.4858 -0.2585  0.3565
 3630SOL    HW121819   7.821   4.057   4.433 -0.3135  2.6547  1.7093
 3630SOL    HW221820   7.912   3.994   4.553  0.8778  1.1034  0.0160
 3631SOL     OW21821   3.354   7.939   4.767  0.7211  0.3469  0.3506
 3631SOL    HW121822   3.442   7.986   4.774 -0.5744  2.8321  1.0065
 3631SOL    HW221823   3.282   8.007   4.749 -0.9330 -1.7448 -1.1503
 3632SOL     OW21824   1.273   0.488   1.603 -0.3504 -0.5069 -0.1565
 3632SOL    HW121825   1.371   0.510   1.609 -0.3963 -0.4049  0.1974
 3632SOL    HW221826   1.263   0.389   1.589 -0.1521 -0.3436 -1.5967
 3633SOL     OW21827   3.991   6.799   2.442  0.0111 -0.3874 -0.5607
 3633SOL    HW121828   3.976   6.868   2.513 -0.2184 -0.6277 -0.3724
 3633SOL    HW221829   4.020   6.844   2.357  1.6083 -0.2207  0.0597
 3634SOL     OW21830   7.398   7.326   2.530  0.3661  0.0988 -0.4997
 3634SOL    HW121831   7.343   7.298   2.608  1.7401 -0.0877  0.4028
 3634SOL    HW221832   7.374   7.270   2.450  0.3963 -1.0498  0.2988
 3635SOL     OW21833   8.526   4.193   5.256  0.2195 -0.8965 -0.0474
 3635SOL    HW121834   8.559   4.134   5.182 -1.5986 -1.1504 -0.6600
 3635SOL    HW221835   8.510   4.137   5.337  0.6688 -0.8695  0.0638
 3636SOL     OW21836   2.645   3.869   5.621 -0.4382 -0.4545 -0.1589
 3636SOL    HW121837   2.617   3.961   5.648 -0.1744 -0.7448  1.1806
 3636SOL    HW221838   2.670   3.868   5.524 -0.3776  0.8935 -0.1630
 3637SOL     OW21839   2.944   0.078   5.543 -0.6703  0.4159  0.3088
 3637SOL    HW121840   3.025   0.020   5.534 -0.4172  0.9605 -1.1568
 3637SOL    HW221841   2.905   0.068   5.634  2.2574  1.7358  1.7828
 3638SOL     OW21842   9.009   9.862   3.572 -0.5144 -0.0368  0.0199
 3638SOL    HW121843   9.051   9.835   3.486  1.6716 -0.4464  1.1550
 3638SOL    HW221844   9.066   9.829   3.648 -0.7935  2.8352  1.5600
 3639SOL     OW21845   8.339   8.250   5.199 -0.6067  0.5310  1.0259
 3639SOL    HW121846   8.420   8.285   5.152 -0.7694 -0.7785 -0.2662
 3639SOL    HW221847   8.366   8.204   5.283 -0.0876  0.7713  0.9912
 3640SOL     OW21848   1.076   8.873   1.452  0.0941  0.0596 -0.2616
 3640SOL    HW121849   1.088   8.971   1.437  0.1329  0.2310  0.8039
 3640SOL    HW221850   1.077   8.854   1.551  1.3563 -1.1854 -0.5038
 3641SOL     OW21851   4.223   3.332   5.095  0.2892  0.8144  0.0405
 3641SOL    HW121852   4.152   3.324   5.024  1.2275  0.9907 -0.9199
 3641SOL    HW221853   4.180   3.358   5.182 -0.9764 -0.2471 -0.2482
 3642SOL     OW21854   9.932   9.874   0.788  0.1673  0.0147 -0.5120
 3642SOL    HW121855   9.912   9.938   0.714 -2.4375 -0.5362 -0.3088
 3642SOL    HW221856   9.921   9.780   0.756 -2.0003 -0.2091  0.8208
 3643SOL     OW21857   9.231   1.548   0.233 -0.1351 -0.5703  0.0577
 3643SOL    HW121858   9.275   1.478   0.176  2.0675 -0.4510  1.5471
 3643SOL    HW221859   9.251   1.639   0.195 -0.2642 -0.5841 -0.0443
 3644SOL     OW21860   1.447   5.015   2.938 -0.0451 -0.3581 -0.0826
 3644SOL    HW121861   1.432   5.078   2.861  0.2105  0.1409  0.2715
 3644SOL    HW221862   1.544   4.993   2.944  0.1613  0.7944  1.0096
 3645SOL     OW21863   0.168   6.419   4.450  0.7118 -0.1259  0.1833
 3645SOL    HW121864   0.153   6.499   4.391  0.5541 -0.3112 -0.0309
 3645SOL    HW221865   0.234   6.358   4.407  1.0271  0.0165  0.4700
 3646SOL     OW21866   1.979   5.912   5.287 -0.3375  0.0842  0.1447
 3646SOL    HW121867   1.973   5.907   5.387 -1.0197  0.6259  0.1354
 3646SOL    HW221868   2.062   5.960   5.261 -1.4921  2.3572  0.5200
 3647SOL     OW21869   9.672   3.431   0.720 -0.3446  0.2268  0.5495
 3647SOL    HW121870   9.742   3.502   0.729 -0.3396  0.2069  0.6770
 3647SOL    HW221871   9.583   3.467   0.749 -0.3062  0.1228  0.8007
 3648SOL     OW21872   8.203   0.025   3.461  0.0590 -0.4953  0.0739
 3648SOL    HW121873   8.151   0.014   3.377  0.0936 -0.5401  0.0575
 3648SOL    HW221874   8.156   0.087   3.522  0.1377 -0.2979 -0.0665
 3649SOL     OW21875   7.850   8.766   2.646 -0.8858  0.5695  0.0050
 3649SOL    HW121876   7.936   8.768   2.595  0.4478 -1.7519  2.0142
 3649SOL    HW221877   7.802   8.853   2.636  1.7397  1.9385 -1.0886
 3650SOL     OW21878   4.160   3.128   2.359  0.1724 -0.2882  0.0497
 3650SOL    HW121879   4.152   3.069   2.279  1.5981 -0.1084 -0.2486
 3650SOL    HW221880   4.081   3.189   2.364 -1.3041 -2.1900  0.3626
 3651SOL     OW21881   4.315   1.613   5.153  0.2424  0.0948  0.2177
 3651SOL    HW121882   4.243   1.601   5.085  0.6460 -0.0797 -0.1774
 3651SOL    HW221883   4.361   1.701   5.137  1.3097 -0.5980 -0.6589
 3652SOL     OW21884   4.235   8.767   3.034  0.0507 -0.0129  0.1499
 3652SOL    HW121885   4.153   8.786   2.981  0.3746  0.0754 -0.3269
 3652SOL    HW221886   4.222   8.797   3.128 -0.2807  0.4598 -0.0468
 3653SOL     OW21887   9.344   3.426   0.406  0.1207  0.5762 -0.5229
 3653SOL    HW121888   9.420   3.369   0.435  0.2738  0.6355 -0.8020
 3653SOL    HW221889   9.293   3.379   0.334  0.7180  1.1222 -1.3125
 3654SOL     OW21890   3.360   2.473   5.274  0.4711  0.2136 -0.3859
 3654SOL    HW121891   3.433   2.473   5.343 -0.5306 -0.5694  0.7013
 3654SOL    HW221892   3.279   2.518   5.312 -0.1869 -0.4916 -0.9426
 3655SOL     OW21893   4.012   8.207   5.037  0.3289  0.0779  0.6539
 3655SOL    HW121894   4.059   8.168   4.959  0.1933 -0.2363  0.7266
 3655SOL    HW221895   3.930   8.153   5.057  0.6717 -0.1812  1.3652
 3656SOL     OW21896   5.894   1.006   3.794  0.0559 -0.3864 -0.9582
 3656SOL    HW121897   5.794   1.005   3.792 -0.0139 -1.8155  1.4024
 3656SOL    HW221898   5.929   0.982   3.703 -1.7096  0.8477 -2.0003
 3657SOL     OW21899   7.858   8.683   5.376  0.0308 -0.3081 -0.8010
 3657SOL    HW121900   7.944   8.717   5.338 -0.8286  1.4236 -1.2397
 3657SOL    HW221901   7.820   8.751   5.438  1.0219 -2.7623  2.6458
 3658SOL     OW21902   2.539   3.601   1.158  0.5047 -0.0167 -0.4548
 3658SOL    HW121903   2.564   3.680   1.214  0.1248 -0.4423  0.3254
 3658SOL    HW221904   2.600   3.596   1.079  0.1600  1.3951 -0.8335
 3659SOL     OW21905   5.044   9.049   2.277  0.1728  0.5223  0.6942
 3659SOL    HW121906   4.962   9.106   2.266 -0.1461  0.6100  3.2286
 3659SOL    HW221907   5.044   8.978   2.207 -1.9198  0.6845  0.4778
 3660SOL     OW21908   1.189   9.739   4.417 -0.2620 -0.1579 -0.2763
 3660SOL    HW121909   1.239   9.743   4.330 -0.5281 -0.3701 -0.4406
 3660SOL    HW221910   1.101   9.694   4.402  0.5069 -1.9747  0.4670
 3661SOL     OW21911   9.562   8.623   5.055  0.0843 -0.2801  0.6771
 3661SOL    HW121912   9.606   8.612   4.966 -0.0218 -0.5165  0.6532
 3661SOL    HW221913   9.546   8.533   5.095  1.0130 -0.1434  1.3719
 3662SOL     OW21914   8.329   7.228   0.174  0.0351  0.3322  0.2991
 3662SOL    HW121915   8.277   7.190   0.098  0.0235 -0.3818  0.6566
 3662SOL    HW221916   8.392   7.159   0.209  1.0110  1.0934  0.0641
 3663SOL     OW21917   0.037   2.063   1.760  0.4349 -1.0530 -0.7046
 3663SOL    HW121918   0.046   1.969   1.727  0.8965 -0.6791 -1.6729
 3663SOL    HW221919   0.117   2.116   1.730 -0.3637 -0.0725 -1.1410
 3664SOL     OW21920   4.962   9.280   1.489  0.1214 -0.5462 -0.1837
 3664SOL    HW121921   5.022   9.203   1.510 -0.2420 -0.4877  1.1189
 3664SOL    HW221922   5.016   9.364   1.483  0.2494 -0.5675  0.5451
 3665SOL     OW21923   1.035   1.589   3.214 -0.0408 -0.3758  0.0023
 3665SOL    HW121924   1.000   1.578   3.121 -1.0747 -0.5254  0.3965
 3665SOL    HW221925   0.958   1.601   3.277  0.5296 -2.4550  1.1306
 3666SOL     OW21926   4.158   8.095   4.812 -0.3124 -0.0736  0.3869
 3666SOL    HW121927   4.238   8.042   4.786 -1.0565 -0.8069 -0.4500
 3666SOL    HW221928   4.147   8.172   4.750 -1.6434 -1.3793 -1.0448
 3667SOL     OW21929   0.021   5.579   1.222  0.4819 -0.3198 -0.3956
 3667SOL    HW121930   0.096   5.617   1.277 -0.1962  0.1892  0.1953
 3667SOL    HW221931   0.058   5.523   1.149  1.3945 -1.9425  1.2648
 3668SOL     OW21932   2.115   4.364   1.559 -0.0065  0.1075  0.0269
 3668SOL    HW121933   2.063   4.322   1.485 -0.7335  0.5614  0.2747
 3668SOL    HW221934   2.110   4.464   1.552  2.1748  0.1856 -0.8818
 3669SOL     OW21935   7.734   2.154   2.031  0.1257  0.4682  0.0314
 3669SOL    HW121936   7.812   2.095   2.009  1.0700  0.6276  2.7695
 3669SOL    HW221937   7.661   2.098   2.070  0.0150  0.7338  0.1989
 3670SOL     OW21938   9.480   9.752   3.783 -0.1720 -0.3779 -0.5204
 3670SOL    HW121939   9.382   9.733   3.793  0.0448 -1.1731  0.1632
 3670SOL    HW221940   9.496   9.799   3.697 -1.4683  1.9480  0.4680
 3671SOL     OW21941   1.656   5.715   2.448 -0.3654  0.6939 -0.1464
 3671SOL    HW121942   1.589   5.684   2.516  0.8873  1.2237  1.3731
 3671SOL    HW221943   1.617   5.792   2.397 -0.9048  1.0657  0.7927
 3672SOL     OW21944   3.757   8.975   0.418  0.6634  0.3373 -0.0634
 3672SOL    HW121945   3.740   8.972   0.517  1.0207 -0.4694 -0.0168
 3672SOL    HW221946   3.804   8.891   0.390 -0.6709 -0.0635 -1.1524
 3673SOL     OW21947   3.548   9.709   5.503  0.0568 -0.0129  0.1952
 3673SOL    HW121948   3.562   9.758   5.589  0.5073  0.1695  0.0172
 3673SOL    HW221949   3.635   9.674   5.469 -0.1415 -0.2143 -0.1090
 3674SOL     OW21950   9.133   8.661   3.335  0.1869 -0.3302  0.0316
 3674SOL    HW121951   9.105   8.753   3.307 -2.2939 -0.7670  0.9352
 3674SOL    HW221952   9.218   8.666   3.386  1.3929  1.1666 -2.0474
 3675SOL     OW21953   2.543   8.908   4.272  0.2515 -0.2237 -0.1632
 3675SOL    HW121954   2.555   9.007   4.258  1.3324 -0.4734 -1.0181
 3675SOL    HW221955   2.456   8.879   4.232 -0.0452  0.3616  0.0415
 3676SOL     OW21956   1.956   1.204   2.276 -0.4897 -0.3355 -0.1034
 3676SOL    HW121957   2.002   1.133   2.223 -1.3421  0.6584 -2.2356
 3676SOL    HW221958   1.865   1.171   2.304  0.4147 -1.2913  1.7778
 3677SOL     OW21959   9.612   7.269   3.566  0.2495  0.6030 -0.7016
 3677SOL    HW121960   9.523   7.280   3.521  0.0979  1.9519 -0.1141
 3677SOL    HW221961   9.643   7.358   3.600  2.1206  0.2469 -1.4284
 3678SOL     OW21962   1.951   8.367   0.404  0.4754 -0.3129  0.3842
 3678SOL    HW121963   2.024   8.312   0.446 -1.2530 -2.3798  0.7528
 3678SOL    HW221964   1.931   8.330   0.313 -0.9270 -0.5146  0.7659
 3679SOL     OW21965   2.448   4.556   1.529  0.0231 -0.1665  0.4712
 3679SOL    HW121966   2.460   4.458   1.512 -1.7076  0.0636 -2.5159
 3679SOL    HW221967   2.508   4.608   1.468  1.6374  0.6635  2.7039
 3680SOL     OW21968   0.305   9.302   4.090  0.0748  0.0545 -0.1048
 3680SOL    HW121969   0.251   9.312   4.006 -0.2039 -0.7637 -0.0179
 3680SOL    HW221970   0.264   9.357   4.163 -0.7565 -0.7417  0.0240
 3681SOL     OW21971   2.986   0.994   1.684  0.0111  0.1228  0.2401
 3681SOL    HW121972   3.001   1.062   1.612 -0.3693  0.3712  0.3926
 3681SOL    HW221973   2.973   1.041   1.771 -0.4775 -0.1358  0.3082
 3682SOL     OW21974   9.393   7.680   3.982 -0.2384 -0.4633  0.4235
 3682SOL    HW121975   9.388   7.714   3.888  0.6650  1.9473  1.2102
 3682SOL    HW221976   9.449   7.597   3.985 -0.3592 -0.6065 -1.1797
 3683SOL     OW21977   3.359   9.002   3.709  0.2040 -0.2899  0.4647
 3683SOL    HW121978   3.267   8.999   3.669  0.9124 -1.2276 -1.1377
 3683SOL    HW221979   3.426   8.972   3.641  1.6317 -0.2398  1.8226
 3684SOL     OW21980   9.309   2.311   1.503  0.1013 -0.5231  0.2902
 3684SOL    HW121981   9.277   2.358   1.586 -0.6201  0.0903 -0.3277
 3684SOL    HW221982   9.276   2.217   1.503  1.0146 -0.8510  1.2272
 3685SOL     OW21983   4.459   8.930   0.517  0.3378  0.1748  0.1671
 3685SOL    HW121984   4.521   8.968   0.449  0.0029  0.2184 -0.1167
 3685SOL    HW221985   4.374   8.984   0.518  1.7161  2.4187  3.1067
 3686SOL     OW21986   7.809   3.302   2.248  0.0450 -0.7456 -0.1453
 3686SOL    HW121987   7.842   3.296   2.342 -0.2865  0.5182  0.0678
 3686SOL    HW221988   7.885   3.294   2.185  0.4600 -0.1717  0.2745
 3687SOL     OW21989   8.469   2.009   4.453  0.2249 -0.3901  0.1423
 3687SOL    HW121990   8.476   1.910   4.463 -2.2657 -0.3572  2.9313
 3687SOL    HW221991   8.553   2.052   4.486  0.3463 -1.4432  1.2271
 3688SOL     OW21992   9.233   7.488   0.796 -0.6714  0.5008 -0.0043
 3688SOL    HW121993   9.172   7.520   0.869  0.3270  0.6167  0.7880
 3688SOL    HW221994   9.202   7.525   0.709 -0.5949  2.1625  0.6591
 3689SOL     OW21995   8.872   9.775   2.572  0.2888 -0.7240  0.4479
 3689SOL    HW121996   8.790   9.748   2.520 -1.1122  0.5664  1.9358
 3689SOL    HW221997   8.879   9.719   2.654 -0.3776  0.6666  1.4760
 3690SOL     OW21998   2.105   8.598   2.001  0.2509  0.1274  0.4075
 3690SOL    HW121999   2.101   8.501   1.981  1.7953  0.2918 -0.7639
 3690SOL    HW222000   2.062   8.649   1.927 -0.3276  0.3709  0.8987
 3691SOL     OW22001   0.653   6.158   1.665  0.6981 -0.9842  0.1367
 3691SOL    HW122002   0.715   6.182   1.739  1.4507 -1.1636 -0.4234
 3691SOL    HW222003   0.560   6.148   1.700  0.1598  3.5060  0.3094
 3692SOL     OW22004   2.268   0.619   4.633 -0.0274 -0.4405  0.2593
 3692SOL    HW122005   2.251   0.523   4.655  0.9121 -0.6471  0.0964
 3692SOL    HW222006   2.250   0.676   4.713  1.0933 -0.9388  0.8634
 3693SOL     OW22007   9.708   6.247   3.189  0.4070  0.0864  0.6159
 3693SOL    HW122008   9.649   6.170   3.212 -1.1579  0.7343 -1.1042
 3693SOL    HW222009   9.797   6.234   3.232  0.0759 -2.5344  0.6299
 3694SOL     OW22010   0.901   9.917   3.116  0.2517 -0.1759  0.2807
 3694SOL    HW122011   0.940  10.003   3.086  1.5095  0.4263  3.4314
 3694SOL    HW222012   0.821   9.935   3.175 -0.5394 -1.2144 -0.4452
 3695SOL     OW22013   8.801   8.436   4.144  0.1708 -0.0086  0.2794
 3695SOL    HW122014   8.822   8.354   4.091  1.7504  0.7257 -0.2680
 3695SOL    HW222015   8.753   8.410   4.228 -1.1129 -1.2978 -0.8279
 3696SOL     OW22016   8.326   9.271   1.229  0.0659  0.0425 -0.9035
 3696SOL    HW122017   8.357   9.296   1.320 -0.1941 -0.6438 -0.6202
 3696SOL    HW222018   8.247   9.210   1.237  0.5290 -0.6518 -1.5733
 3697SOL     OW22019   2.028   4.159   1.395 -0.4664 -0.5123 -0.4721
 3697SOL    HW122020   2.036   4.064   1.427 -1.4699 -0.0103  1.3536
 3697SOL    HW222021   2.058   4.164   1.300  0.8250 -2.4168 -0.2085
 3698SOL     OW22022   4.823   7.337   2.596  0.4748  0.4537 -0.1275
 3698SOL    HW122023   4.744   7.323   2.656 -0.0053  2.4295 -0.2706
 3698SOL    HW222024   4.822   7.269   2.523 -0.3430 -0.3713  0.6304
 3699SOL     OW22025   6.475   8.386   3.651  0.8431 -0.4039 -0.3211
 3699SOL    HW122026   6.493   8.483   3.668 -0.0742 -0.6318  2.1373
 3699SOL    HW222027   6.524   8.331   3.719 -1.1332 -1.5021  0.2416
 3700SOL     OW22028   0.284   9.292   3.624  0.2658 -0.1666 -0.3213
 3700SOL    HW122029   0.316   9.217   3.566  4.5848  0.4318  1.1573
 3700SOL    HW222030   0.291   9.378   3.575 -1.9312 -0.3119 -0.9765
 3701SOL     OW22031   4.575   7.962   4.529  0.4838 -0.2674  0.6518
 3701SOL    HW122032   4.612   7.974   4.436  0.5469  1.2219  0.8588
 3701SOL    HW222033   4.522   7.877   4.533  0.4273 -0.3108 -0.7654
 3702SOL     OW22034   8.369   9.523   3.388  0.0588  0.2388 -0.0767
 3702SOL    HW122035   8.451   9.496   3.438  1.6327  1.3585 -1.9783
 3702SOL    HW222036   8.335   9.610   3.424  0.9957  0.8758 -0.6921
 3703SOL     OW22037   9.036   8.076   2.245 -0.0527 -0.1356 -0.1246
 3703SOL    HW122038   9.114   8.126   2.280  0.2367 -1.0035  0.4980
 3703SOL    HW222039   8.952   8.129   2.260 -0.1175 -1.0803  3.1785
 3704SOL     OW22040   3.345   4.319   4.709 -0.7369  0.3307  0.0802
 3704SOL    HW122041   3.318   4.415   4.710 -0.8018  0.3422 -1.3950
 3704SOL    HW222042   3.355   4.286   4.803  1.3825  2.3650  0.6279
 3705SOL     OW22043   9.922   0.991   0.120  0.3804 -0.0001 -0.1020
 3705SOL    HW122044   9.861   1.070   0.125 -0.9017 -0.8111 -2.4325
 3705SOL    HW222045   9.913   0.936   0.203 -3.0348 -0.8141 -0.9653
 3706SOL     OW22046   6.197   9.975   3.428  0.0085  0.1273 -0.0384
 3706SOL    HW122047   6.134   9.971   3.351 -0.3260  0.1787  0.2270
 3706SOL    HW222048   6.232   9.884   3.447 -0.8822 -0.1032  0.5372
 3707SOL     OW22049   3.303   7.088   2.238 -0.4100  0.3640  0.1277
 3707SOL    HW122050   3.272   7.072   2.144  1.1669  1.3396 -0.5775
 3707SOL    HW222051   3.358   7.010   2.268 -2.0065 -0.5661  0.7576
 3708SOL     OW22052   3.644   0.036   0.129  0.4016  0.3366 -0.1602
 3708SOL    HW122053   3.641  -0.062   0.146 -0.4473  0.3561 -0.1698
 3708SOL    HW222054   3.693   0.054   0.044 -0.7641 -0.1941 -0.9632
 3709SOL     OW22055   8.819   5.729   2.497 -0.5301  0.3047 -0.3188
 3709SOL    HW122056   8.787   5.814   2.454 -0.0770  0.0976 -1.0779
 3709SOL    HW222057   8.845   5.747   2.592  1.9079  1.5633 -1.1781
 3710SOL     OW22058   2.775   7.905   4.113  0.4130  0.0675  0.2196
 3710SOL    HW122059   2.785   7.835   4.043 -0.8868  0.9968 -0.9279
 3710SOL    HW222060   2.828   7.985   4.088 -2.4538  1.5834 -1.3437
 3711SOL     OW22061   1.245   5.764   2.630 -0.3367 -0.1368  0.6866
 3711SOL    HW122062   1.176   5.693   2.638 -0.7033  0.3723  2.0370
 3711SOL    HW222063   1.224   5.822   2.551 -1.9384  0.5311  1.5754
 3712SOL     OW22064   9.097   2.612   4.218  0.3560  0.2128  0.4802
 3712SOL    HW122065   9.070   2.552   4.293  0.5007  1.2358  1.3534
 3712SOL    HW222066   9.121   2.702   4.254 -2.2406  1.5750 -1.0629
 3713SOL     OW22067   9.064   4.289   1.030 -0.3846  0.1934  0.2289
 3713SOL    HW122068   9.101   4.204   0.993  0.0924 -0.2190  1.6043
 3713SOL    HW222069   8.968   4.277   1.053 -0.4089  0.1330  0.0934
 3714SOL     OW22070   3.714   9.559   5.075 -0.2254  0.1136  0.1802
 3714SOL    HW122071   3.715   9.478   5.017 -2.1079  0.4046 -0.2966
 3714SOL    HW222072   3.740   9.639   5.020 -0.1471  0.1038  0.2037
 3715SOL     OW22073   1.375   6.116   4.465  0.1928 -0.2680  0.7183
 3715SOL    HW122074   1.320   6.195   4.440  0.0164 -0.6405 -0.0955
 3715SOL    HW222075   1.470   6.131   4.438  0.0487 -0.5712  0.0449
 3716SOL     OW22076   9.472   1.226   4.945  0.0531  0.5218 -0.0204
 3716SOL    HW122077   9.552   1.268   4.900  0.0231  0.1207 -0.4549
 3716SOL    HW222078   9.501   1.143   4.992 -0.1226  0.3381 -0.2387
 3717SOL     OW22079   9.506   7.337   2.179 -0.2232 -0.1232 -0.0625
 3717SOL    HW122080   9.409   7.353   2.199 -0.2118  1.0999 -0.9811
 3717SOL    HW222081   9.521   7.337   2.080  1.0742  1.8892  0.1089
 3718SOL     OW22082   0.493   2.231   0.316 -0.1739 -0.5162 -0.2214
 3718SOL    HW122083   0.453   2.212   0.226 -1.3280  0.9402 -0.0442
 3718SOL    HW222084   0.568   2.296   0.306  0.3092 -1.0682 -0.2269
 3719SOL     OW22085   1.000   1.216   0.995  0.5591  0.2055 -0.3337
 3719SOL    HW122086   0.989   1.118   1.010 -1.4453  0.4502  0.0101
 3719SOL    HW222087   1.017   1.262   1.083  1.9134  0.1260 -0.5476
 3720SOL     OW22088   7.472   8.076   1.839 -0.4277 -0.0011 -0.0036
 3720SOL    HW122089   7.506   8.163   1.804 -0.8508  0.5430  0.9129
 3720SOL    HW222090   7.381   8.057   1.800 -0.5875  0.2568  0.2401
 3721SOL     OW22091   7.885   9.448   3.370  0.5601 -0.3366 -0.5157
 3721SOL    HW122092   7.893   9.543   3.400  1.2453 -0.8235  0.8706
 3721SOL    HW222093   7.976   9.406   3.369  0.0273 -1.5277  0.7059
 3722SOL     OW22094   8.246   0.334   5.037 -0.2463 -0.2932 -0.5097
 3722SOL    HW122095   8.214   0.287   4.954 -1.1466 -0.9320  0.1853
 3722SOL    HW222096   8.318   0.280   5.079  0.5801  0.2967 -1.1569
 3723SOL     OW22097   1.512   3.212   4.197 -0.5402 -0.1734 -0.2671
 3723SOL    HW122098   1.595   3.171   4.236 -1.3099 -1.8977 -0.3895
 3723SOL    HW222099   1.531   3.307   4.171  0.4327  0.5175  2.7886
 3724SOL     OW22100   2.215   8.487   3.562 -0.3241 -0.3008  0.2139
 3724SOL    HW122101   2.193   8.585   3.560  0.1865 -0.1933 -0.4203
 3724SOL    HW222102   2.132   8.434   3.544 -0.2746  0.0717 -1.1952
 3725SOL     OW22103   2.887   5.476   0.576 -0.3937 -0.5043 -0.1828
 3725SOL    HW122104   2.943   5.549   0.536 -2.3444  0.6556 -0.9035
 3725SOL    HW222105   2.828   5.438   0.505 -1.8880 -0.3703  0.9674
 3726SOL     OW22106   8.200   2.615   5.287  0.1567 -0.4969 -0.0872
 3726SOL    HW122107   8.170   2.540   5.229 -0.9892  0.2343 -0.4551
 3726SOL    HW222108   8.124   2.645   5.345  0.2256  1.1989 -0.8403
 3727SOL     OW22109   0.897   4.919   3.381 -0.1226  0.4090  0.2093
 3727SOL    HW122110   0.851   4.904   3.469  0.6123  0.2722  0.5704
 3727SOL    HW222111   0.995   4.929   3.395 -0.0073  0.4656 -0.5886
 3728SOL     OW22112   6.674   0.114   2.195  0.1348  0.0264  0.1648
 3728SOL    HW122113   6.724   0.110   2.108  1.2072 -1.0443  0.8209
 3728SOL    HW222114   6.586   0.160   2.180  1.4576  2.2460 -0.9016
 3729SOL     OW22115   8.138   2.621   3.490  0.5195  0.6961  0.8178
 3729SOL    HW122116   8.236   2.604   3.501  0.5444  0.4706  0.2684
 3729SOL    HW222117   8.117   2.714   3.519  0.7167  0.3911  1.9627
 3730SOL     OW22118   6.845   9.096   2.470  0.9112 -0.0868 -0.1620
 3730SOL    HW122119   6.779   9.058   2.405  1.4027  0.0775 -0.7659
 3730SOL    HW222120   6.923   9.133   2.420  1.2383  0.1567  0.5208
 3731SOL     OW22121   0.935   4.138   4.267  0.2840 -0.3772  0.2224
 3731SOL    HW122122   0.908   4.139   4.171  1.2153  1.9710 -0.0492
 3731SOL    HW222123   1.024   4.094   4.277  0.4483 -0.1107 -0.0751
 3732SOL     OW22124   7.781   9.706   0.985 -0.2002 -0.3443  0.3358
 3732SOL    HW122125   7.871   9.719   0.943 -0.8823  0.3210 -0.9514
 3732SOL    HW222126   7.783   9.741   1.078  1.1901 -1.3508  0.6981
 3733SOL     OW22127   9.906   1.480   0.350 -0.5615  0.1017  0.5080
 3733SOL    HW122128   9.892   1.386   0.319 -1.5018  0.4771 -0.2198
 3733SOL    HW222129   9.850   1.496   0.432 -0.5509  0.0850  0.5184
 3734SOL     OW22130   7.723   8.986   1.959 -0.2836 -0.4691 -0.2428
 3734SOL    HW122131   7.728   8.893   1.995 -0.0830 -0.2435  0.3233
 3734SOL    HW222132   7.752   9.050   2.029 -0.5646  0.0347 -0.5836
 3735SOL     OW22133   3.799   0.789   5.438  0.1794  0.6559  0.5632
 3735SOL    HW122134   3.802   0.848   5.357  0.7252  1.9402  1.5001
 3735SOL    HW222135   3.763   0.699   5.412  0.1604  1.1078 -1.0609
 3736SOL     OW22136   4.292   8.026   1.159 -0.3159  0.3011  0.3963
 3736SOL    HW122137   4.265   8.000   1.252  2.8399 -0.8285  1.0592
 3736SOL    HW222138   4.267   7.952   1.096  1.0300 -0.6519  0.9670
 3737SOL     OW22139   4.087   1.441   0.268  0.2067 -0.4253  0.2001
 3737SOL    HW122140   4.147   1.514   0.234  0.8604 -1.0698 -0.0442
 3737SOL    HW222141   4.087   1.365   0.204 -2.8376  0.5686 -1.0212
 3738SOL     OW22142   2.921   9.236   4.516  0.0815 -0.4818  0.4570
 3738SOL    HW122143   2.922   9.141   4.485  0.9529 -0.6803  1.0856
 3738SOL    HW222144   2.961   9.294   4.444  0.5135 -0.7265  0.4948
 3739SOL     OW22145   8.841   1.365   5.139  0.0047  0.7959  0.9454
 3739SOL    HW122146   8.754   1.334   5.101 -0.4956  1.0427  1.8626
 3739SOL    HW222147   8.889   1.287   5.179  0.3236  0.6145  0.2004
 3740SOL     OW22148   0.214   4.889   0.682 -0.1042 -0.1215  0.4370
 3740SOL    HW122149   0.199   4.986   0.698  1.0289  0.4619 -1.8304
 3740SOL    HW222150   0.153   4.857   0.610  0.2795 -0.8352  0.4219
 3741SOL     OW22151   8.226   2.077   5.365 -0.1901 -0.2354  0.5239
 3741SOL    HW122152   8.182   2.158   5.328  0.5759 -0.2570 -0.4452
 3741SOL    HW222153   8.155   2.012   5.396 -0.8728 -0.5879 -1.6988
 3742SOL     OW22154   3.569   9.031   3.442 -0.3688 -0.1449  0.2132
 3742SOL    HW122155   3.654   9.033   3.389  0.1391 -0.1696  1.0140
 3742SOL    HW222156   3.532   9.124   3.448 -0.0788 -0.0401  0.3776
 3743SOL     OW22157   8.651   7.170   2.350  0.3112  0.2564  0.1927
 3743SOL    HW122158   8.688   7.143   2.262 -0.1043  0.4088 -0.0293
 3743SOL    HW222159   8.552   7.180   2.343  0.6884  4.2950 -0.3818
 3744SOL     OW22160   4.810   3.345   2.240  0.2119  0.0917 -0.0601
 3744SOL    HW122161   4.820   3.342   2.339  0.9930  0.5534 -0.1183
 3744SOL    HW222162   4.751   3.270   2.209 -1.7157  1.1452  0.9478
 3745SOL     OW22163   9.646   0.421   4.861 -0.5519  0.1711  0.1468
 3745SOL    HW122164   9.646   0.477   4.944 -2.1587 -0.6471  0.7145
 3745SOL    HW222165   9.627   0.326   4.884  1.3982 -0.5131 -0.9051
 3746SOL     OW22166   0.377   5.340   2.295 -0.1009 -0.1467  0.0762
 3746SOL    HW122167   0.385   5.277   2.219 -0.0226 -1.3969  1.1017
 3746SOL    HW222168   0.440   5.416   2.282 -0.0509 -0.3768 -1.0686
 3747SOL     OW22169   1.520   6.918   0.234  0.2070  0.3439  0.5657
 3747SOL    HW122170   1.481   6.995   0.284  0.3938  0.1839  0.9585
 3747SOL    HW222171   1.598   6.881   0.285 -0.0817 -0.3071  0.5378
 3748SOL     OW22172   3.988   3.343   2.877  0.0350 -0.0907 -0.0677
 3748SOL    HW122173   3.991   3.389   2.789  0.6165 -1.1001 -0.5904
 3748SOL    HW222174   4.070   3.287   2.889 -0.5918 -0.9058  0.5828
 3749SOL     OW22175   1.926   6.234   1.907  0.6623 -0.4142 -0.3813
 3749SOL    HW122176   1.854   6.227   1.839  1.7959  0.0803 -1.6531
 3749SOL    HW222177   2.005   6.280   1.867  1.8945 -1.4476  0.8216
 3750SOL     OW22178   4.354   3.497   1.120 -0.1801 -0.4655  0.0788
 3750SOL    HW122179   4.369   3.510   1.218  1.0131 -3.3798  0.3354
 3750SOL    HW222180   4.291   3.421   1.106 -0.7873  0.2961 -1.4188
 3751SOL     OW22181   7.618   7.676   3.482  0.0556  0.6590  0.1692
 3751SOL    HW122182   7.670   7.697   3.565 -0.8103  0.3615  0.7985
 3751SOL    HW222183   7.635   7.581   3.455  0.8932  0.9694 -0.4072
 3752SOL     OW22184   4.920   3.093   3.616  0.1064 -0.2818 -0.3044
 3752SOL    HW122185   4.922   3.155   3.537 -1.2243 -1.4382 -1.2570
 3752SOL    HW222186   4.933   2.999   3.586 -0.9007 -0.7904  0.7889
 3753SOL     OW22187   2.694   1.995   4.855 -0.1834 -0.4519  0.2101
 3753SOL    HW122188   2.595   1.984   4.847 -0.1979  0.3401 -0.7719
 3753SOL    HW222189   2.714   2.078   4.906 -0.0225  0.0838 -0.7169
 3754SOL     OW22190   9.838   3.406   4.492  0.0328 -0.2991  0.1171
 3754SOL    HW122191   9.868   3.444   4.404  2.3234  0.1277  1.0502
 3754SOL    HW222192   9.850   3.474   4.564 -1.4478 -0.7939  0.8552
 3755SOL     OW22193   9.610   6.871   2.083 -0.3361 -0.3122 -0.0409
 3755SOL    HW122194   9.643   6.947   2.139 -1.3102  0.3724 -0.3757
 3755SOL    HW222195   9.563   6.907   2.002  1.0594 -1.2914 -1.3100
 3756SOL     OW22196   7.295   4.500   0.474  0.1935 -0.3595 -0.0680
 3756SOL    HW122197   7.308   4.412   0.520  1.5536  0.4986  1.2423
 3756SOL    HW222198   7.383   4.547   0.465 -0.4385  0.6535 -1.2210
 3757SOL     OW22199   2.195   7.730   2.689  0.2932  0.1794  0.2452
 3757SOL    HW122200   2.205   7.828   2.675  0.3757  0.0528 -0.5863
 3757SOL    HW222201   2.150   7.689   2.610 -0.9202 -0.2600  1.1565
 3758SOL     OW22202   5.216   9.964   1.379 -0.5370 -0.4044  0.7018
 3758SOL    HW122203   5.212   9.911   1.294  0.7440 -1.5726  1.3491
 3758SOL    HW222204   5.159   9.920   1.448 -1.8581  0.7363  0.3771
 3759SOL     OW22205   4.985   2.495   2.755 -0.5134  0.6767  0.8971
 3759SOL    HW122206   4.892   2.473   2.727  1.0180 -2.3815 -2.2362
 3759SOL    HW222207   5.031   2.412   2.788  1.2959  2.0102  1.8261
 3760SOL     OW22208   0.635   5.495   5.241  0.4466  0.3929 -0.3710
 3760SOL    HW122209   0.712   5.432   5.228 -0.8495 -1.4453  0.6761
 3760SOL    HW222210   0.667   5.577   5.288  1.5560 -0.8343  1.0593
 3761SOL     OW22211   8.111   3.565   0.099 -0.4365  0.4702  0.1352
 3761SOL    HW122212   8.137   3.590   0.192 -0.0311 -1.1454  0.4714
 3761SOL    HW222213   8.029   3.507   0.102  1.6185 -2.5263 -0.2514
 3762SOL     OW22214   9.799   5.755   1.553  0.0150  0.3270  0.6793
 3762SOL    HW122215   9.837   5.823   1.491 -1.9649 -0.1706 -1.1417
 3762SOL    HW222216   9.837   5.665   1.532 -0.2237  0.2506  0.5710
 3763SOL     OW22217   8.359   4.511   3.459 -0.6934  0.1335 -0.5045
 3763SOL    HW122218   8.277   4.569   3.451  0.3651  1.7653  0.1067
 3763SOL    HW222219   8.352   4.454   3.540 -0.1225  2.1447  1.0145
 3764SOL     OW22220   6.486   4.501   0.601 -0.3162 -0.4575  0.0595
 3764SOL    HW122221   6.582   4.509   0.573  0.4431 -1.0046  2.4115
 3764SOL    HW222222   6.447   4.419   0.559  0.4566 -0.6486 -0.3091
 3765SOL     OW22223   1.545   2.325   0.886  0.7859  0.1065  0.5545
 3765SOL    HW122224   1.532   2.290   0.793 -0.8526  3.3185 -0.4863
 3765SOL    HW222225   1.633   2.372   0.892  0.6992  0.2735  0.5125
 3766SOL     OW22226   4.022   8.962   1.479  0.4802 -0.1619  0.4026
 3766SOL    HW122227   4.092   9.034   1.482  0.3283  0.1403 -2.1504
 3766SOL    HW222228   4.065   8.873   1.496  1.5980 -0.0220 -1.4914
 3767SOL     OW22229   0.029   2.586   0.079 -0.4671  0.1425 -0.4886
 3767SOL    HW122230  -0.052   2.558   0.027  0.1714  0.8937 -1.9152
 3767SOL    HW222231   0.073   2.505   0.118 -1.0586 -0.4197 -0.9663
 3768SOL     OW22232   9.849   3.016   0.766 -0.5312 -0.1464 -0.0287
 3768SOL    HW122233   9.887   2.941   0.819 -1.4216  0.0415  0.9059
 3768SOL    HW222234   9.864   3.102   0.815  0.1793  0.2470 -0.9275
 3769SOL     OW22235   8.799   5.554   0.432 -0.0956 -0.5022 -0.6169
 3769SOL    HW122236   8.799   5.524   0.336  1.0334  1.2502 -1.1829
 3769SOL    HW222237   8.748   5.639   0.441 -1.5882 -1.5054  0.6449
 3770SOL     OW22238   6.809   8.918   3.797  0.1466 -0.1139 -0.1975
 3770SOL    HW122239   6.738   8.920   3.727 -0.5652  0.2888  0.5228
 3770SOL    HW222240   6.898   8.899   3.755 -0.5664 -1.8147 -0.9643
 3771SOL     OW22241   7.316   9.112   0.771 -0.5328 -0.3273 -0.1879
 3771SOL    HW122242   7.317   9.210   0.790  2.8063 -0.5739  1.3070
 3771SOL    HW222243   7.387   9.090   0.704 -0.2404 -1.8873  0.6059
 3772SOL     OW22244   0.293   0.226   4.671 -0.5224  0.0012  0.2280
 3772SOL    HW122245   0.218   0.171   4.634 -1.0803  0.1547  1.1040
 3772SOL    HW222246   0.379   0.199   4.628 -1.3401  1.1896 -2.2588
 3773SOL     OW22247   5.752   9.501   2.293 -0.3557  0.1020  0.3869
 3773SOL    HW122248   5.805   9.424   2.330 -1.7636 -0.5630  1.0614
 3773SOL    HW222249   5.812   9.580   2.284  1.4394 -1.4084 -1.5323
 3774SOL     OW22250   0.272   1.036   3.906 -0.2327  0.8156  0.6444
 3774SOL    HW122251   0.223   0.967   3.960  0.6612  0.3931  0.9456
 3774SOL    HW222252   0.286   1.001   3.813 -0.1025  0.7416  0.6914
 3775SOL     OW22253   9.667   8.269   3.727  0.4474  0.6870  0.1245
 3775SOL    HW122254   9.655   8.198   3.658  1.6198  0.4985  0.1170
 3775SOL    HW222255   9.617   8.351   3.699  0.3170  0.3695 -0.5859
 3776SOL     OW22256   9.704   9.296   1.397 -0.2821 -0.4675 -0.2996
 3776SOL    HW122257   9.721   9.334   1.306 -0.5272  0.6112  0.0971
 3776SOL    HW222258   9.606   9.280   1.409 -0.4911  1.2445  0.4761
 3777SOL     OW22259   1.155   5.535   4.634  0.0757  0.1902  0.3399
 3777SOL    HW122260   1.250   5.561   4.649  0.0419 -0.6131  1.9904
 3777SOL    HW222261   1.121   5.484   4.713 -1.9038  0.9685  0.0184
 3778SOL     OW22262   2.337   2.927   3.603 -0.0263  0.1604  0.0100
 3778SOL    HW122263   2.365   2.958   3.512 -0.5452 -1.2878 -0.6637
 3778SOL    HW222264   2.410   2.872   3.644 -1.1350 -2.2051 -1.0526
 3779SOL     OW22265   9.175   9.627   0.789  0.9743  0.2117 -0.7468
 3779SOL    HW122266   9.088   9.653   0.831  0.3768  1.4410 -2.6984
 3779SOL    HW222267   9.207   9.701   0.729  2.8080 -0.6840 -0.9033
 3780SOL     OW22268   7.323   9.605   4.666  0.1939 -0.3362  0.5670
 3780SOL    HW122269   7.396   9.555   4.620  0.8978  1.1447  0.0435
 3780SOL    HW222270   7.257   9.636   4.599  1.5481  2.3705  0.4232
 3781SOL     OW22271   7.335   1.658   2.762 -0.0216  0.2935 -0.0782
 3781SOL    HW122272   7.388   1.667   2.847  2.1740 -1.2848 -1.2286
 3781SOL    HW222273   7.314   1.750   2.727  1.7039  0.9722  0.5791
 3782SOL     OW22274   6.082   1.044   3.599  0.2871  0.0560 -0.6578
 3782SOL    HW122275   6.001   1.093   3.567  0.4290  0.2251 -0.7612
 3782SOL    HW222276   6.132   1.102   3.664 -0.1103 -0.3678  0.0280
 3783SOL     OW22277   1.271   0.938   3.091  0.5692  0.0911  0.4284
 3783SOL    HW122278   1.217   0.855   3.105  0.1148  0.3879  0.4472
 3783SOL    HW222279   1.368   0.917   3.102  0.4053 -0.2787  1.1721
 3784SOL     OW22280   7.365   1.786   3.539 -0.0796  0.0018 -0.1824
 3784SOL    HW122281   7.430   1.722   3.499 -0.7722  0.0101 -1.3363
 3784SOL    HW222282   7.370   1.780   3.639  1.0835 -0.5965 -0.2675
 3785SOL     OW22283   6.765   0.204   1.415  0.1575  0.3138  0.5107
 3785SOL    HW122284   6.796   0.246   1.500  1.1748 -0.2089  0.4029
 3785SOL    HW222285   6.743   0.276   1.349  2.1574  0.7023  0.2397
 3786SOL     OW22286   2.099   2.635   3.533 -0.1841 -0.2651  0.0863
 3786SOL    HW122287   2.002   2.616   3.513 -0.6354  2.5405 -0.6256
 3786SOL    HW222288   2.149   2.644   3.447  0.8494 -2.2072  0.4626
 3787SOL     OW22289   6.493   9.531   3.153  0.3737 -0.3040 -0.6070
 3787SOL    HW122290   6.505   9.623   3.190 -1.2745  0.4121 -1.8280
 3787SOL    HW222291   6.529   9.528   3.060 -1.3263 -0.3627 -1.2728
 3788SOL     OW22292   6.369   0.243   2.419  0.5621 -0.0297 -0.7808
 3788SOL    HW122293   6.373   0.312   2.491  1.8192 -0.5918 -0.3084
 3788SOL    HW222294   6.348   0.154   2.458  2.4672 -0.5622 -0.9426
 3789SOL     OW22295   8.742   8.782   2.072  0.5638  0.2252 -0.3993
 3789SOL    HW122296   8.809   8.709   2.082 -0.1924 -0.3916  0.2458
 3789SOL    HW222297   8.649   8.744   2.076  0.1510  1.2794  0.5057
 3790SOL     OW22298   9.277   3.549   4.926 -0.0046  0.5326 -0.6371
 3790SOL    HW122299   9.308   3.609   4.853  0.2914  1.1854  0.0214
 3790SOL    HW222300   9.351   3.535   4.992 -0.3213  0.0807 -0.3700
 3791SOL     OW22301   9.828   5.295   4.420  0.3231  0.0225 -0.0636
 3791SOL    HW122302   9.844   5.289   4.518  1.2242  2.8912  0.0119
 3791SOL    HW222303   9.912   5.274   4.371  0.3156  0.2250 -0.1638
 3792SOL     OW22304   6.932   0.753   0.055 -0.0126 -0.0472  0.2062
 3792SOL    HW122305   6.850   0.778   0.106 -0.4931 -0.3828 -0.3877
 3792SOL    HW222306   7.006   0.816   0.077 -0.9474  1.3519 -0.6051
 3793SOL     OW22307   8.787   9.406   0.151 -0.0230  0.0238 -0.4088
 3793SOL    HW122308   8.752   9.455   0.072 -1.5425  1.9122  1.3947
 3793SOL    HW222309   8.729   9.423   0.230 -0.1051 -4.0117  0.5209
 3794SOL     OW22310   3.347   5.499   3.921 -0.6001 -0.2237  0.6591
 3794SOL    HW122311   3.332   5.432   3.848 -0.4573  0.3069  0.1394
 3794SOL    HW222312   3.380   5.452   4.003  2.6508 -0.4564 -0.6744
 3795SOL     OW22313   9.602   7.801   2.435 -0.3905 -0.1829 -0.3372
 3795SOL    HW122314   9.614   7.705   2.408 -2.0068 -0.3272 -0.6096
 3795SOL    HW222315   9.512   7.812   2.478  0.6469  0.8022  1.6174
 3796SOL     OW22316   3.840   6.623   2.916 -0.3322  0.2349 -0.0042
 3796SOL    HW122317   3.818   6.533   2.953 -1.6186 -0.0841 -1.4868
 3796SOL    HW222318   3.770   6.689   2.943 -0.4918  0.3290 -0.6403
 3797SOL     OW22319   1.910   5.489   1.929 -0.2236 -0.3555 -0.1364
 3797SOL    HW122320   2.002   5.495   1.890 -0.2205  1.2677  0.1140
 3797SOL    HW222321   1.896   5.397   1.966  1.2757 -0.6332 -0.2339
 3798SOL     OW22322   1.051   6.018   4.115  0.0563  0.0940 -0.4414
 3798SOL    HW122323   1.100   6.103   4.097 -0.4031  0.4857  0.1503
 3798SOL    HW222324   1.084   5.977   4.200 -0.4497  0.2252 -0.1758
 3799SOL     OW22325   0.540   7.071   0.363 -0.3941  0.0748  0.2437
 3799SOL    HW122326   0.460   7.100   0.310  0.9444  2.0331 -0.7973
 3799SOL    HW222327   0.595   7.152   0.386  0.3301 -1.0444  2.5160
 3800SOL     OW22328   9.674   5.485   4.687  0.6675  0.2378 -0.1627
 3800SOL    HW122329   9.625   5.398   4.681  2.5242 -0.7949 -0.5919
 3800SOL    HW222330   9.667   5.533   4.599  1.3366 -0.4265 -0.5886
 3801SOL     OW22331   3.497   8.488   4.790  0.0683  0.1470 -0.3697
 3801SOL    HW122332   3.402   8.497   4.822  0.0090 -1.0894 -0.1755
 3801SOL    HW222333   3.501   8.504   4.692 -0.4608 -0.6018 -0.5095
 3802SOL     OW22334   2.649   7.101   4.971  0.4577  0.0513  0.4198
 3802SOL    HW122335   2.682   7.195   4.984 -1.8443  0.7215  1.8008
 3802SOL    HW222336   2.553   7.104   4.944  0.5473 -1.9109 -0.1579
 3803SOL     OW22337   3.426   6.574   2.664  0.9825 -0.2342  0.5853
 3803SOL    HW122338   3.391   6.667   2.655 -2.0707 -1.4540 -0.5804
 3803SOL    HW222339   3.485   6.553   2.586 -0.2455 -0.0730 -0.4034
 3804SOL     OW22340   0.295   3.804   1.695 -0.2293  0.2617  0.1539
 3804SOL    HW122341   0.316   3.706   1.696  1.0776  0.5395  1.4563
 3804SOL    HW222342   0.224   3.822   1.627 -0.0695 -1.5019 -0.5070
 3805SOL     OW22343   8.615   9.812   3.315  0.6177  0.8914  0.8545
 3805SOL    HW122344   8.714   9.799   3.317  0.5566  0.4949  2.3720
 3805SOL    HW222345   8.577   9.794   3.406 -0.9433  0.3569  0.1263
 3806SOL     OW22346   4.796   7.913   3.701  0.1699 -0.3064  0.2861
 3806SOL    HW122347   4.724   7.861   3.655 -1.0001  0.8200  0.8042
 3806SOL    HW222348   4.790   8.009   3.674  1.5034 -0.2096  0.3095
 3807SOL     OW22349   8.580   0.047   0.693 -0.8512  0.1264 -0.0164
 3807SOL    HW122350   8.493   0.077   0.731 -0.5239  0.8422  0.1621
 3807SOL    HW222351   8.577   0.053   0.593 -0.3103  2.0827  0.0648
 3808SOL     OW22352   2.812   0.290   0.960 -0.0881 -0.0292 -0.1528
 3808SOL    HW122353   2.771   0.288   1.051 -1.0633 -0.6266 -0.5945
 3808SOL    HW222354   2.853   0.380   0.944 -2.4494  1.0624 -0.2229
 3809SOL     OW22355   2.644   2.516   1.590 -0.0149 -1.2327 -0.3382
 3809SOL    HW122356   2.595   2.581   1.649  0.3397 -1.2822  0.0101
 3809SOL    HW222357   2.726   2.483   1.637 -0.2916 -2.0777 -0.4431
 3810SOL     OW22358   3.176   5.658   1.446  0.3316  0.6402 -0.6359
 3810SOL    HW122359   3.242   5.682   1.374  1.2632  1.1076  0.3599
 3810SOL    HW222360   3.197   5.710   1.529 -1.4914  1.0045 -0.3989
 3811SOL     OW22361   8.240   1.360   2.691 -0.2619  0.3651 -0.2832
 3811SOL    HW122362   8.202   1.268   2.678  0.4178  0.0795 -0.2661
 3811SOL    HW222363   8.190   1.407   2.763 -2.8122  1.2370 -2.5317
 3812SOL     OW22364   1.189   1.242   4.015 -0.3570 -0.1149 -0.5496
 3812SOL    HW122365   1.089   1.247   4.024 -0.5460 -1.5884 -1.6985
 3812SOL    HW222366   1.231   1.251   4.105 -1.6755 -2.4087  0.3446
 3813SOL     OW22367   7.930   3.676   4.489 -0.0954 -0.0972 -0.5079
 3813SOL    HW122368   7.843   3.628   4.491  0.0602 -0.3860 -0.5911
 3813SOL    HW222369   7.937   3.736   4.569 -1.7658  2.4323 -2.1845
 3814SOL     OW22370   9.532   2.367   1.051  0.9910  0.6697 -0.4365
 3814SOL    HW122371   9.467   2.360   1.127  2.1937 -0.1922  0.5232
 3814SOL    HW222372   9.622   2.393   1.087  1.0886  2.2771 -1.8027
 3815SOL     OW22373   0.791   5.192   4.165 -0.5340 -0.2824 -0.3387
 3815SOL    HW122374   0.744   5.112   4.128 -1.6790  0.5725 -0.7806
 3815SOL    HW222375   0.798   5.262   4.094  1.5708 -0.4534 -0.3155
 3816SOL     OW22376   9.420   0.320   2.740  0.2708 -0.4790 -0.1072
 3816SOL    HW122377   9.447   0.224   2.732  1.4194 -0.4504  2.7688
 3816SOL    HW222378   9.463   0.373   2.667 -0.4228 -2.1237 -1.7690
 3817SOL     OW22379   9.332   3.561   2.706  0.0318 -0.0638 -0.2815
 3817SOL    HW122380   9.379   3.562   2.794 -0.7164  1.1455  0.1118
 3817SOL    HW222381   9.265   3.636   2.702 -1.1682 -1.1458 -1.2049
 3818SOL     OW22382   1.769   5.843   3.680  0.5623 -0.4086 -0.3055
 3818SOL    HW122383   1.825   5.864   3.600 -1.7362  1.7196 -1.4276
 3818SOL    HW222384   1.826   5.846   3.762  2.1257  1.5846 -1.4153
 3819SOL     OW22385   4.522   9.170   3.336  0.4196 -0.2295 -0.5431
 3819SOL    HW122386   4.563   9.079   3.330 -1.0203 -1.0906  1.8889
 3819SOL    HW222387   4.584   9.232   3.384  0.5172 -0.4926 -0.3310
 3820SOL     OW22388   2.337   0.405   0.769  0.3237  0.0673  0.2722
 3820SOL    HW122389   2.409   0.339   0.747 -0.4584 -0.7742  0.2027
 3820SOL    HW222390   2.264   0.397   0.702  0.2359  1.0360  0.2519
 3821SOL     OW22391   8.573   9.091   1.891 -0.3913 -0.7780  0.0763
 3821SOL    HW122392   8.514   9.011   1.896  1.4340 -2.0980  1.0678
 3821SOL    HW222393   8.640   9.089   1.965 -0.7745  2.0605  0.5849
 3822SOL     OW22394   0.756   5.973   4.989  0.4692  0.5226 -0.1123
 3822SOL    HW122395   0.791   6.009   4.903 -1.1956  2.2627 -0.0953
 3822SOL    HW222396   0.705   5.889   4.971  0.5893  0.5805 -0.7431
 3823SOL     OW22397   3.894   1.759   0.474  0.0694  0.5070 -0.1173
 3823SOL    HW122398   3.867   1.835   0.533 -2.4106 -1.2286  1.0547
 3823SOL    HW222399   3.925   1.682   0.531  1.4190  0.2166 -1.2351
 3824SOL     OW22400   7.787   6.295   0.213 -0.3114  0.3291 -0.1640
 3824SOL    HW122401   7.712   6.261   0.156 -0.0140  1.1238 -1.0230
 3824SOL    HW222402   7.816   6.385   0.181  0.3026  0.4921  0.8299
 3825SOL     OW22403   9.818   2.974   0.231 -0.3001  0.1013 -0.4971
 3825SOL    HW122404   9.844   2.996   0.138  0.4681 -0.8964 -0.5212
 3825SOL    HW222405   9.875   3.025   0.295 -0.5040  0.4202 -0.5713
 3826SOL     OW22406   1.157   8.865   2.456 -0.0586 -0.1375 -0.0464
 3826SOL    HW122407   1.125   8.910   2.372  0.8478  0.2043 -0.2066
 3826SOL    HW222408   1.212   8.929   2.509  0.5993 -0.8274  0.1013
 3827SOL     OW22409   9.446   0.104   4.277  0.0767  0.4501  0.4101
 3827SOL    HW122410   9.446   0.103   4.377  0.5860 -0.1943  0.4083
 3827SOL    HW222411   9.514   0.039   4.243  0.0814  0.8494 -0.3572
 3828SOL     OW22412   1.182   3.863   0.496 -0.3680  0.1031 -0.5195
 3828SOL    HW122413   1.278   3.841   0.480 -0.2616 -0.2364  0.5926
 3828SOL    HW222414   1.175   3.947   0.549 -0.7117  0.6490 -1.4126
 3829SOL     OW22415   4.953   1.560   4.917 -0.6329 -0.1678  0.7031
 3829SOL    HW122416   4.981   1.574   4.822 -0.1356 -0.6167  0.7772
 3829SOL    HW222417   4.889   1.483   4.922 -2.2749  1.1492  0.4742
 3830SOL     OW22418   3.425   2.750   4.676 -0.4460  0.1664 -0.2213
 3830SOL    HW122419   3.436   2.657   4.642  0.1581  0.7814 -1.7618
 3830SOL    HW222420   3.333   2.761   4.714 -1.4260 -0.3511 -2.3535
 3831SOL     OW22421   4.456   9.974   3.661 -0.5422 -0.2184  0.5426
 3831SOL    HW122422   4.430  10.067   3.635 -0.1508 -0.0418  0.7887
 3831SOL    HW222423   4.473   9.920   3.578 -0.6563 -0.0420  0.4034
 3832SOL     OW22424   3.840   0.351   4.473 -0.3360  0.2274 -0.3015
 3832SOL    HW122425   3.800   0.398   4.394 -0.8213  0.5322  0.1226
 3832SOL    HW222426   3.937   0.332   4.455 -0.6249 -0.3826 -1.2739
 3833SOL     OW22427   8.001   1.266   0.709  0.7862  0.0095  0.1692
 3833SOL    HW122428   7.911   1.308   0.699  1.6261  2.2353  1.6347
 3833SOL    HW222429   7.991   1.172   0.740 -0.9689  0.9888  2.6913
 3834SOL     OW22430   4.858   7.845   3.950 -0.7965 -0.7873 -0.0864
 3834SOL    HW122431   4.834   7.865   3.855  0.7549  0.0768 -0.3228
 3834SOL    HW222432   4.914   7.920   3.987  0.2250 -1.9959  0.8953
 3835SOL     OW22433   6.497   0.020   3.028  0.4870  0.7030 -0.1077
 3835SOL    HW122434   6.513  -0.044   2.953  1.2524  0.3867  0.3170
 3835SOL    HW222435   6.476   0.110   2.991  4.5622  1.4746 -0.7440
 3836SOL     OW22436   4.815   5.252   1.356  0.2479 -0.0043  0.2582
 3836SOL    HW122437   4.877   5.177   1.332  0.8054  0.4993  0.1305
 3836SOL    HW222438   4.833   5.281   1.450 -0.4550 -0.5044  0.5580
 3837SOL     OW22439   9.698   8.758   1.696 -0.6690 -0.1220 -0.4659
 3837SOL    HW122440   9.680   8.675   1.749 -0.1589  0.6078  0.8774
 3837SOL    HW222441   9.669   8.838   1.749  0.8596  0.6814 -0.8254
 3838SOL     OW22442   9.560   7.948   0.470 -0.2440 -0.5315  0.0217
 3838SOL    HW122443   9.568   7.896   0.554  2.0961 -0.6992 -0.2902
 3838SOL    HW222444   9.633   8.016   0.465 -0.6884 -0.1397 -1.6030
 3839SOL     OW22445   3.628   5.843   2.902  0.2343  0.1457 -0.2566
 3839SOL    HW122446   3.642   5.901   2.982 -0.5400 -1.4398  1.0312
 3839SOL    HW222447   3.575   5.894   2.834  1.8264  1.8836 -0.2480
 3840SOL     OW22448   4.037   3.701   1.985 -0.3851 -0.0059  0.3267
 3840SOL    HW122449   4.032   3.610   2.026 -0.8093 -0.7826 -1.3670
 3840SOL    HW222450   4.037   3.692   1.885 -0.1219  1.8453  0.1405
 3841SOL     OW22451   4.132   3.175   3.842  0.3397  0.2657 -0.2298
 3841SOL    HW122452   4.094   3.261   3.809  1.6482  1.1341  0.4578
 3841SOL    HW222453   4.093   3.099   3.791 -0.6168  1.2874 -1.0410
 3842SOL     OW22454   3.319   2.554   5.016 -0.4252 -0.2267  0.0151
 3842SOL    HW122455   3.330   2.509   5.105 -0.3050 -0.1997  0.0150
 3842SOL    HW222456   3.230   2.533   4.978  0.8907 -3.2457 -1.5769
 3843SOL     OW22457   8.806   5.661   3.390  0.4424 -0.0155 -0.0637
 3843SOL    HW122458   8.887   5.704   3.430 -0.6892  0.2497  2.0273
 3843SOL    HW222459   8.829   5.567   3.363  1.1547 -0.3571  1.6296
 3844SOL     OW22460   8.059   8.666   1.922  0.5190 -0.1429 -0.5657
 3844SOL    HW122461   8.071   8.749   1.977  1.7193 -0.4490 -0.3577
 3844SOL    HW222462   7.963   8.637   1.927  0.4671  0.2048  0.8190
 3845SOL     OW22463   1.587   7.859   4.390  0.4020 -0.8512 -0.3140
 3845SOL    HW122464   1.521   7.926   4.355  0.9640 -0.4127 -0.5500
 3845SOL    HW222465   1.567   7.840   4.486  1.4273  1.1748  0.3352
 3846SOL     OW22466   1.788   3.634   5.274  0.6162  0.5034  0.2298
 3846SOL    HW122467   1.751   3.570   5.341  0.6736 -0.2448 -0.4378
 3846SOL    HW222468   1.727   3.638   5.195  1.8620 -0.6841 -0.8517
 3847SOL     OW22469   0.718   3.853   1.617 -0.4178  0.4448 -0.1223
 3847SOL    HW122470   0.657   3.829   1.541 -2.3168  0.8222  1.2506
 3847SOL    HW222471   0.664   3.885   1.695  1.5314  0.5602  1.2288
 3848SOL     OW22472   5.137   9.333   2.163 -0.6158  0.1608  0.0489
 3848SOL    HW122473   5.094   9.280   2.236  0.0548 -0.8008 -0.2401
 3848SOL    HW222474   5.067   9.364   2.099 -0.7444 -3.0094 -1.4771
 3849SOL     OW22475   0.607   1.193   1.385 -0.1646  0.1546  0.0990
 3849SOL    HW122476   0.569   1.285   1.372  1.2208  0.7856  0.4459
 3849SOL    HW222477   0.534   1.131   1.413 -0.9305  1.3815  0.8977
 3850SOL     OW22478   8.781   3.535   0.773  0.0760 -0.5380  0.0219
 3850SOL    HW122479   8.726   3.578   0.844  0.4268 -0.6615  0.3733
 3850SOL    HW222480   8.865   3.498   0.813 -0.7944 -2.6594 -0.0668
 3851SOL     OW22481   7.427   2.833   3.033 -0.1415 -0.2028 -0.0513
 3851SOL    HW122482   7.387   2.756   3.082 -0.4969  0.3219  0.4912
 3851SOL    HW222483   7.362   2.867   2.965  0.4960 -1.1709 -1.1586
 3852SOL     OW22484   0.592   7.474   2.930  0.6910 -0.1870 -0.4003
 3852SOL    HW122485   0.611   7.423   2.846  1.8147 -0.1309 -0.1874
 3852SOL    HW222486   0.552   7.412   2.997 -0.3197 -0.2081 -1.0154
 3853SOL     OW22487   0.003   0.207   5.555 -0.5425 -0.8788 -0.2554
 3853SOL    HW122488  -0.058   0.137   5.519 -0.5172 -0.1438 -1.7249
 3853SOL    HW222489  -0.030   0.297   5.529 -0.6453 -0.3022  1.7404
 3854SOL     OW22490   0.897   0.062   4.816  0.5182 -0.5378  0.0928
 3854SOL    HW122491   0.971   0.074   4.750 -0.4731  0.0563 -0.9329
 3854SOL    HW222492   0.868   0.152   4.849 -1.3170 -0.5955 -1.2902
 3855SOL     OW22493   2.316   4.524   1.890  0.3115  0.2331  0.0813
 3855SOL    HW122494   2.279   4.583   1.817  1.0284 -0.5875 -0.9563
 3855SOL    HW222495   2.346   4.437   1.850 -0.8857 -0.9023  1.6267
 3856SOL     OW22496   7.636   1.214   4.023  0.5359  0.1619 -0.4732
 3856SOL    HW122497   7.678   1.301   4.050  0.4496  0.4587 -1.2926
 3856SOL    HW222498   7.708   1.146   4.010  0.7193  0.4853 -1.1913
 3857SOL     OW22499   9.274   1.539   1.034 -0.3201  0.1168  0.1628
 3857SOL    HW122500   9.318   1.485   0.962  0.3276  0.1035  0.5680
 3857SOL    HW222501   9.335   1.546   1.113 -0.2645  1.6966 -0.0042
 3858SOL     OW22502   6.862   4.144   0.062  0.0820 -0.3898  0.1386
 3858SOL    HW122503   6.768   4.179   0.056  0.7109  1.1110 -1.3773
 3858SOL    HW222504   6.926   4.219   0.051  1.4876 -1.4540  0.8939
 3859SOL     OW22505   1.144   8.733   2.737  0.0542  0.0068  0.2519
 3859SOL    HW122506   1.193   8.711   2.821 -1.8734 -0.2434  1.3069
 3859SOL    HW222507   1.198   8.800   2.685  1.8073 -0.7161  1.0994
 3860SOL     OW22508   6.758   1.753   3.223  0.4954 -0.0244 -0.4183
 3860SOL    HW122509   6.696   1.761   3.301 -0.4318 -1.1369 -1.0284
 3860SOL    HW222510   6.846   1.793   3.247  1.4293 -3.5625  2.5581
 3861SOL     OW22511   2.796   9.242   2.343 -0.3001 -0.4668  0.1166
 3861SOL    HW122512   2.866   9.221   2.411 -0.7475 -1.1690  0.3616
 3861SOL    HW222513   2.809   9.336   2.311 -0.3304  0.0104  1.4642
 3862SOL     OW22514   2.777   2.026   4.594  0.5698 -0.1752  0.9668
 3862SOL    HW122515   2.862   1.973   4.587 -0.8520 -2.4984  0.7068
 3862SOL    HW222516   2.760   2.050   4.690  1.2386 -0.1686  1.0837
 3863SOL     OW22517   2.579   8.465   5.124 -0.2660  0.0824  0.0776
 3863SOL    HW122518   2.608   8.443   5.217  0.8003  0.7627 -0.0917
 3863SOL    HW222519   2.588   8.563   5.108 -0.6055 -0.0061 -0.6966
 3864SOL     OW22520   4.644   0.819   3.276 -0.1392 -0.3280  0.2297
 3864SOL    HW122521   4.644   0.901   3.220 -0.8105 -0.4451  0.0574
 3864SOL    HW222522   4.664   0.843   3.371 -0.8989  0.0996  0.2793
 3865SOL     OW22523   9.392   0.120   0.663  0.2607  0.2275 -0.1010
 3865SOL    HW122524   9.490   0.122   0.642  0.2862  1.8943  0.1536
 3865SOL    HW222525   9.340   0.139   0.579  0.0547 -2.6968 -0.7117
 3866SOL     OW22526   3.350   2.208   2.727  0.2270 -0.5619 -0.1486
 3866SOL    HW122527   3.384   2.199   2.633 -0.0234 -0.5509 -0.2412
 3866SOL    HW222528   3.304   2.124   2.754  0.1720 -0.5112 -0.0861
 3867SOL     OW22529   4.417   8.734   5.209  0.3908 -0.1720  0.0777
 3867SOL    HW122530   4.432   8.789   5.290 -1.4513 -0.2801  0.5138
 3867SOL    HW222531   4.447   8.640   5.226 -1.2598 -0.5286  1.1285
 3868SOL     OW22532   9.169   6.271   4.395 -0.1721  0.4384  1.1506
 3868SOL    HW122533   9.108   6.203   4.353 -1.2366  1.4967  0.9608
 3868SOL    HW222534   9.243   6.292   4.332 -0.2964  0.0743  0.8783
 3869SOL     OW22535   2.950   3.758   0.291 -0.2629  0.1781  0.4416
 3869SOL    HW122536   3.024   3.692   0.290 -0.1782  0.2804 -1.9549
 3869SOL    HW222537   2.973   3.833   0.353  1.9062  0.4998 -0.7071
 3870SOL     OW22538   4.567   3.447   0.944  0.2805  0.1387  0.3981
 3870SOL    HW122539   4.633   3.375   0.925  2.1825  1.8469  0.3585
 3870SOL    HW222540   4.536   3.441   1.039 -0.0594 -1.1035  0.2126
 3871SOL     OW22541   2.886   3.442   4.432  0.1194 -0.6477 -0.0072
 3871SOL    HW122542   2.964   3.384   4.453  1.4102  1.3089  0.8141
 3871SOL    HW222543   2.836   3.464   4.516  0.8330  1.0184  0.0155
 3872SOL     OW22544   7.844   2.447   1.594 -0.7740 -0.0582 -0.0406
 3872SOL    HW122545   7.943   2.430   1.587 -0.4803  0.7634  1.7092
 3872SOL    HW222546   7.804   2.446   1.503  0.8409 -0.4786 -0.7766
 3873SOL     OW22547   1.279   9.490   1.902 -0.2808 -0.0901  0.0902
 3873SOL    HW122548   1.262   9.586   1.924  0.7994 -0.3283  2.1461
 3873SOL    HW222549   1.346   9.453   1.966  1.3134 -1.5204 -2.3263
 3874SOL     OW22550   4.044   2.636   2.768  0.4385  0.8220  0.4088
 3874SOL    HW122551   3.958   2.586   2.771  0.4860  0.6403 -0.9040
 3874SOL    HW222552   4.065   2.672   2.859 -0.8763  0.6292  0.7990
 3875SOL     OW22553   2.541   3.561   0.601  0.0727 -0.3787 -0.4608
 3875SOL    HW122554   2.553   3.612   0.516  1.4295 -0.6712 -0.4525
 3875SOL    HW222555   2.491   3.476   0.583  3.2801 -2.1062 -1.5950
 3876SOL     OW22556   3.297   9.822   2.445 -0.3707 -0.7149 -0.4742
 3876SOL    HW122557   3.330   9.790   2.357  0.3342  1.8348 -1.1776
 3876SOL    HW222558   3.215   9.771   2.471 -2.5828  0.7949 -4.2271
 3877SOL     OW22559   7.004   0.010   2.821  0.6575 -0.3226 -0.0843
 3877SOL    HW122560   7.001   0.108   2.805 -2.5547 -0.1245  1.4488
 3877SOL    HW222561   6.915  -0.031   2.801  1.5821 -2.7458  0.4772
 3878SOL     OW22562   1.293   2.361   5.621  0.1058 -0.0243  0.0110
 3878SOL    HW122563   1.232   2.423   5.670  1.3158  1.6658 -0.5554
 3878SOL    HW222564   1.240   2.307   5.555 -0.8768  0.8900  0.0424
 3879SOL     OW22565   9.391   5.390   1.681  0.2580  0.6182 -0.1904
 3879SOL    HW122566   9.302   5.418   1.646  0.1252 -1.1484 -1.3374
 3879SOL    HW222567   9.437   5.468   1.723 -1.2317  1.8631 -0.8407
 3880SOL     OW22568   8.637   5.385   1.216  0.1900 -0.2673 -0.5770
 3880SOL    HW122569   8.596   5.322   1.150  0.8732 -0.7800 -0.5209
 3880SOL    HW222570   8.690   5.332   1.283 -1.6286  0.0987  1.2125
 3881SOL     OW22571   9.916   4.799   0.774 -0.0062 -0.1490  0.1594
 3881SOL    HW122572   9.977   4.797   0.853  0.4059 -2.3537 -0.1763
 3881SOL    HW222573   9.825   4.829   0.803  0.9407  2.1660  0.8503
 3882SOL     OW22574   4.003   4.927   5.407 -0.1592 -0.2234  0.2422
 3882SOL    HW122575   4.007   4.875   5.321  2.4093  1.1228 -0.4949
 3882SOL    HW222576   4.002   5.025   5.386 -0.8137  0.0875  1.7279
 3883SOL     OW22577   9.894   8.756   4.848  0.4340  0.1954  0.6031
 3883SOL    HW122578   9.804   8.740   4.807  0.7958 -0.4175  0.0474
 3883SOL    HW222579   9.965   8.724   4.786  1.2094  4.3071 -0.7701
 3884SOL     OW22580   3.398   5.824   4.481  0.4376  0.1346  0.2085
 3884SOL    HW122581   3.403   5.880   4.398 -1.3767  1.2327  0.8154
 3884SOL    HW222582   3.479   5.766   4.486  0.7848  0.3566 -2.1098
 3885SOL     OW22583   8.692   8.860   5.439  0.3361  0.1857 -0.0781
 3885SOL    HW122584   8.634   8.783   5.414 -0.3944  1.0865 -1.2235
 3885SOL    HW222585   8.640   8.926   5.493  0.4614  0.6792 -0.5467
 3886SOL     OW22586   7.226   9.815   3.046 -0.2721  0.3291  0.2017
 3886SOL    HW122587   7.148   9.753   3.044  0.3657 -0.4683 -0.1349
 3886SOL    HW222588   7.196   9.908   3.025 -1.2129  0.1169  0.6026
 3887SOL     OW22589   2.472   0.886   5.479 -0.7700  0.1355 -0.0009
 3887SOL    HW122590   2.513   0.912   5.391 -0.0796 -1.5383 -0.2137
 3887SOL    HW222591   2.545   0.865   5.544 -1.2826 -1.1583  0.1649
 3888SOL     OW22592   7.980   8.585   4.948  0.0431  0.5275 -0.2066
 3888SOL    HW122593   8.027   8.671   4.968 -0.8170  1.0306 -0.3544
 3888SOL    HW222594   7.912   8.567   5.019 -1.2144  1.0109 -1.2620
 3889SOL     OW22595   7.922   0.531   2.744 -0.7028  0.1353 -0.6710
 3889SOL    HW122596   7.976   0.613   2.727  0.1928 -0.5936 -1.3505
 3889SOL    HW222597   7.833   0.557   2.783  0.3517  1.3052  1.0277
 3890SOL     OW22598   9.418   4.322   3.135  0.2488 -0.0915  0.5078
 3890SOL    HW122599   9.343   4.360   3.081 -0.6699 -3.0384 -0.3594
 3890SOL    HW222600   9.502   4.325   3.081 -0.1841 -0.9301 -0.2156
 3891SOL     OW22601   5.025   2.095   5.429 -0.0830 -0.3575  0.4214
 3891SOL    HW122602   5.072   2.136   5.507  0.4145 -0.9256  0.4281
 3891SOL    HW222603   4.946   2.150   5.404  1.4590  1.4699 -0.5624
 3892SOL     OW22604   2.680   8.375   2.679  0.2037 -0.1948  0.1761
 3892SOL    HW122605   2.696   8.347   2.774  0.7405  1.1659  0.5041
 3892SOL    HW222606   2.761   8.422   2.644 -0.3942  0.2804 -0.6029
 3893SOL     OW22607   3.787   0.708   4.268  0.5515  0.1154  0.0672
 3893SOL    HW122608   3.852   0.776   4.302  0.4505  0.1332  0.2259
 3893SOL    HW222609   3.695   0.732   4.298  0.5537 -0.2487  0.3724
 3894SOL     OW22610   2.298   3.601   0.067  0.3311  0.1825  0.1389
 3894SOL    HW122611   2.216   3.549   0.043  0.0063  1.3737 -1.4301
 3894SOL    HW222612   2.360   3.543   0.120 -1.0399 -1.0664  0.3954
 3895SOL     OW22613   0.231   5.064   0.042 -0.2620  0.1330  0.4709
 3895SOL    HW122614   0.133   5.084   0.043 -0.1807  0.7248 -1.2222
 3895SOL    HW222615   0.282   5.150   0.035  0.3422 -0.2417  0.2634
 3896SOL     OW22616   7.378   1.429   3.863 -0.3079 -0.1225  0.5318
 3896SOL    HW122617   7.377   1.343   3.915 -0.7493  0.2980  1.2385
 3896SOL    HW222618   7.463   1.435   3.811 -0.4560 -1.1797  0.1446
 3897SOL     OW22619   0.786   8.406   0.456 -0.1342 -0.1283 -0.0851
 3897SOL    HW122620   0.851   8.429   0.384  0.7008 -0.0102  0.6883
 3897SOL    HW222621   0.699   8.378   0.416  0.1486  0.4556 -1.1197
 3898SOL     OW22622   7.064   1.538   3.281  0.1898 -0.1863 -0.5268
 3898SOL    HW122623   7.061   1.542   3.181 -1.4597  2.8245 -0.4116
 3898SOL    HW222624   6.982   1.494   3.316  1.1555 -2.0073 -0.4919
 3899SOL     OW22625   3.044   2.131   4.788 -0.3789 -0.2473  0.2837
 3899SOL    HW122626   3.042   2.055   4.723  0.1235  1.9156 -2.3241
 3899SOL    HW222627   3.087   2.211   4.745  1.4926  0.7602  3.8147
 3900SOL     OW22628   3.396   2.558   0.722 -0.3885 -0.1660  0.1266
 3900SOL    HW122629   3.398   2.460   0.740  1.8750 -0.2297 -0.3364
 3900SOL    HW222630   3.471   2.602   0.772 -0.7919  1.1921 -0.4494
 3901SOL     OW22631   7.615   2.287   3.248  0.2034  0.3836  0.6357
 3901SOL    HW122632   7.516   2.279   3.253  0.0328  1.8113 -0.1007
 3901SOL    HW222633   7.648   2.344   3.323  0.3223  0.9959  0.1225
 3902SOL     OW22634   7.690   9.301   5.432  0.1204  0.5240 -0.4682
 3902SOL    HW122635   7.741   9.366   5.489  0.7656  0.5488 -1.0612
 3902SOL    HW222636   7.754   9.256   5.370 -0.1491 -1.4049  0.6116
 3903SOL     OW22637   3.665   5.856   0.446  0.3620  0.2583  0.7357
 3903SOL    HW122638   3.618   5.853   0.358 -1.4544 -1.0826  1.7344
 3903SOL    HW222639   3.760   5.829   0.433  0.0483 -0.1940 -0.7721
 3904SOL     OW22640   8.217   5.289   0.170 -0.7369  0.2123 -0.0168
 3904SOL    HW122641   8.310   5.284   0.132 -1.0742  0.0797 -0.8328
 3904SOL    HW222642   8.222   5.294   0.270  0.1733  1.0093 -0.0955
 3905SOL     OW22643   8.213   2.195   0.727 -0.3282  0.3104  0.7913
 3905SOL    HW122644   8.167   2.282   0.709  0.9551  0.2388 -3.3141
 3905SOL    HW222645   8.312   2.210   0.732 -0.0474 -1.0221 -0.6847
 3906SOL     OW22646   3.578   1.837   1.128  0.9542 -0.7246 -0.1056
 3906SOL    HW122647   3.497   1.782   1.147  0.2585  0.2444 -0.1855
 3906SOL    HW222648   3.608   1.882   1.213  1.6679 -1.4237  0.0141
 3907SOL     OW22649   1.124   3.330   3.382  0.1257 -0.0115 -0.1860
 3907SOL    HW122650   1.092   3.367   3.469  0.1852 -1.3544  0.4150
 3907SOL    HW222651   1.189   3.393   3.340 -1.3378  1.5373 -0.1680
 3908SOL     OW22652   7.225   1.057   0.322 -0.0373 -0.2425  0.2160
 3908SOL    HW122653   7.320   1.042   0.348 -0.0281  0.4534  0.6071
 3908SOL    HW222654   7.167   0.990   0.368  0.1452  0.0160  0.8282
 3909SOL     OW22655   2.355   9.569   2.889 -0.1881 -0.2246 -0.2951
 3909SOL    HW122656   2.431   9.633   2.879  0.2310 -0.7791 -0.7113
 3909SOL    HW222657   2.327   9.565   2.985 -1.6914  2.2580 -0.5772
 3910SOL     OW22658   1.189   9.904   3.425  0.5274 -0.2052 -0.2205
 3910SOL    HW122659   1.225   9.913   3.518 -0.1747 -1.4596  0.1876
 3910SOL    HW222660   1.157   9.993   3.393 -1.7253 -0.2604  1.7797
 3911SOL     OW22661   1.465   3.036   1.535  0.1779 -0.0259  0.0957
 3911SOL    HW122662   1.494   3.132   1.534  0.7971 -0.2112 -0.2444
 3911SOL    HW222663   1.409   3.019   1.616  1.7998  0.1258  1.2882
 3912SOL     OW22664   9.349   6.547   1.572 -0.5267  0.1899 -0.0105
 3912SOL    HW122665   9.365   6.451   1.593  0.8115  0.3494 -0.2452
 3912SOL    HW222666   9.436   6.591   1.550 -1.1827  1.3570 -0.3075
 3913SOL     OW22667   0.382   5.108   0.985 -0.0303  0.0680  0.2902
 3913SOL    HW122668   0.409   5.165   0.908 -1.7796 -0.0231 -0.4053
 3913SOL    HW222669   0.430   5.139   1.067  0.8505  0.9981 -0.5514
 3914SOL     OW22670   0.234   7.477   2.830 -0.5082  0.3779 -0.3251
 3914SOL    HW122671   0.317   7.530   2.813 -1.5121  1.6234 -1.4873
 3914SOL    HW222672   0.239   7.434   2.920  1.0993  0.9792 -0.1210
 3915SOL     OW22673   3.740   1.143   0.381 -0.1407  0.2489 -0.5170
 3915SOL    HW122674   3.834   1.135   0.415 -0.3687 -2.2369 -0.3583
 3915SOL    HW222675   3.740   1.140   0.281 -0.1822 -1.8442 -0.4755
 3916SOL     OW22676   2.232   3.118   3.784 -0.0239  0.5958 -0.3462
 3916SOL    HW122677   2.262   3.055   3.712  0.2181  0.5338 -0.1919
 3916SOL    HW222678   2.221   3.210   3.745  1.3412  0.8374 -0.2019
 3917SOL     OW22679   2.491   6.174   1.722  0.1603 -0.0220  0.0392
 3917SOL    HW122680   2.544   6.214   1.796  1.8880 -1.6156 -0.3065
 3917SOL    HW222681   2.502   6.229   1.639  2.6884 -1.2726 -0.4906
 3918SOL     OW22682   6.285   0.804   3.798 -0.2086  0.1822  0.3808
 3918SOL    HW122683   6.245   0.865   3.866 -0.0822  1.3829 -0.6039
 3918SOL    HW222684   6.256   0.833   3.706  0.2352 -0.9473 -0.1205
 3919SOL     OW22685   8.297   3.488   2.107  0.7113 -0.3183  0.4898
 3919SOL    HW122686   8.286   3.443   2.195  1.4332  0.6121  1.0570
 3919SOL    HW222687   8.354   3.431   2.047 -1.3216 -1.8341 -0.0403
 3920SOL     OW22688   6.355   1.386   3.495 -0.2209 -0.3857  0.1468
 3920SOL    HW122689   6.301   1.324   3.552  0.2581  0.1665  1.1946
 3920SOL    HW222690   6.414   1.333   3.434 -1.3338 -0.9838 -0.4333
 3921SOL     OW22691   8.978   3.135   2.851  0.0983 -0.1437 -0.5877
 3921SOL    HW122692   9.037   3.084   2.788 -0.1352 -1.3650  0.1644
 3921SOL    HW222693   8.911   3.187   2.798  0.3504 -0.6006 -1.3787
 3922SOL     OW22694   2.552   6.585   2.174 -0.5616  0.2710 -0.2758
 3922SOL    HW122695   2.505   6.669   2.201  0.7300  0.8882  0.0975
 3922SOL    HW222696   2.486   6.511   2.164 -1.3987  0.6836  1.9934
 3923SOL     OW22697   0.799   5.634   1.782  0.0428 -0.0799 -0.0336
 3923SOL    HW122698   0.840   5.587   1.704 -1.1326  1.1242 -1.4293
 3923SOL    HW222699   0.805   5.733   1.768 -0.2959  0.1516  1.3482
 3924SOL     OW22700   5.335   7.324   3.330  0.3168 -0.2732 -0.5043
 3924SOL    HW122701   5.369   7.377   3.407 -0.9292 -0.7397  0.3829
 3924SOL    HW222702   5.237   7.343   3.317  0.3603 -0.7101 -1.5430
 3925SOL     OW22703   1.256   9.945   3.097 -0.3023  0.1116 -0.2512
 3925SOL    HW122704   1.233   9.879   3.026 -1.7990  2.0198 -1.6198
 3925SOL    HW222705   1.187  10.017   3.098 -0.3159  0.0957  3.2074
 3926SOL     OW22706   2.744   7.651   1.268 -0.1227  0.3230 -0.1123
 3926SOL    HW122707   2.689   7.718   1.218 -2.0595 -0.7758  0.4966
 3926SOL    HW222708   2.830   7.694   1.298 -0.5927  2.0427 -1.1620
 3927SOL     OW22709   9.755   8.187   4.381 -0.3016 -0.4707 -0.6812
 3927SOL    HW122710   9.831   8.230   4.333 -0.5891  0.7185 -0.0865
 3927SOL    HW222711   9.791   8.131   4.456 -0.0683  1.1951  0.4671
 3928SOL     OW22712   3.063   1.785   1.895  0.1923 -0.2514  0.5137
 3928SOL    HW122713   3.057   1.774   1.796  0.7933 -0.2935  0.4813
 3928SOL    HW222714   2.992   1.848   1.926  0.1834 -0.0147  0.0162
 3929SOL     OW22715   7.851   5.186   0.514 -0.2911  0.6762  0.4500
 3929SOL    HW122716   7.820   5.277   0.539  0.1473  1.1832 -0.8344
 3929SOL    HW222717   7.941   5.168   0.553 -0.3976  0.7699  0.7378
 3930SOL     OW22718   2.859   0.898   2.544  0.0629 -0.5316  0.1650
 3930SOL    HW122719   2.899   0.946   2.622 -0.0268  0.9122 -0.6539
 3930SOL    HW222720   2.931   0.858   2.488  0.1538 -1.1218  0.6980
 3931SOL     OW22721   1.272   6.001   3.491 -0.3986  0.2253 -0.1665
 3931SOL    HW122722   1.310   6.030   3.579 -0.9069  0.2004  0.0627
 3931SOL    HW222723   1.347   5.984   3.427 -0.0272  0.2953  0.2429
 3932SOL     OW22724   8.178   7.833   4.829  0.3018 -0.0575  0.3050
 3932SOL    HW122725   8.263   7.858   4.783  0.5595  0.7024  1.1859
 3932SOL    HW222726   8.131   7.916   4.860 -1.0972 -0.4262 -0.7572
 3933SOL     OW22727   4.298   2.045   1.344 -0.1003 -0.5057  0.1105
 3933SOL    HW122728   4.330   2.115   1.408 -2.9486  0.3778  0.6249
 3933SOL    HW222729   4.283   2.085   1.254 -0.2124 -0.8003 -0.0046
 3934SOL     OW22730   9.483   5.580   5.078 -0.2047  0.4362  0.0182
 3934SOL    HW122731   9.510   5.501   5.134 -2.3274  0.0787  0.5889
 3934SOL    HW222732   9.489   5.663   5.134 -0.0573  0.3985  0.0597
 3935SOL     OW22733   5.166   9.761   3.687  0.1863 -0.3826  0.0314
 3935SOL    HW122734   5.181   9.789   3.592  0.9988  1.4110  0.6703
 3935SOL    HW222735   5.092   9.815   3.727  0.6031 -0.3438  0.7669
 3936SOL     OW22736   6.412   1.267   2.394  0.3986  0.6937 -0.7465
 3936SOL    HW122737   6.450   1.359   2.405  0.3372  0.6370 -0.0018
 3936SOL    HW222738   6.323   1.263   2.439  0.5832  0.1546 -0.4253
 3937SOL     OW22739   4.427   7.435   2.899 -0.2315 -0.1805  0.4930
 3937SOL    HW122740   4.416   7.439   2.998 -0.8303  0.9466  0.3842
 3937SOL    HW222741   4.354   7.379   2.859  0.0314 -0.6638  0.6858
 3938SOL     OW22742   9.642   4.480   4.685  0.1437 -0.1262 -0.0178
 3938SOL    HW122743   9.572   4.526   4.739 -0.0485  0.0107 -0.3805
 3938SOL    HW222744   9.599   4.423   4.615  0.3934  0.6328 -0.8046
 3939SOL     OW22745   9.210   0.090   0.451  0.1165 -0.0129 -0.4814
 3939SOL    HW122746   9.228   0.006   0.399 -4.0045 -0.9990 -0.5014
 3939SOL    HW222747   9.169   0.158   0.390  0.4689  0.8803  0.2707
 3940SOL     OW22748   9.126   1.799   1.939 -0.2463  0.0285  1.0379
 3940SOL    HW122749   9.162   1.712   1.904 -0.7644  0.0802  0.3670
 3940SOL    HW222750   9.132   1.799   2.039  0.2873 -0.5453  1.0151
 3941SOL     OW22751   2.455   6.826   3.035  0.2548 -0.1973 -0.2027
 3941SOL    HW122752   2.476   6.812   3.132 -0.4341 -0.6935 -0.1228
 3941SOL    HW222753   2.481   6.920   3.010  0.8681 -0.2118  0.3375
 3942SOL     OW22754   1.917   4.125   3.854 -0.3646  0.8451  0.2154
 3942SOL    HW122755   2.007   4.166   3.864 -0.3085  0.5849  0.7941
 3942SOL    HW222756   1.887   4.087   3.942 -0.2809 -0.6052 -0.3598
 3943SOL     OW22757   3.771   0.716   2.716  0.0758  0.2896  0.0288
 3943SOL    HW122758   3.831   0.688   2.640 -0.0341  0.4094 -0.1012
 3943SOL    HW222759   3.768   0.816   2.721  0.9184  0.2871  0.8443
 3944SOL     OW22760   0.706   9.822   3.949 -0.3093 -0.7452  0.2359
 3944SOL    HW122761   0.654   9.754   3.897  0.0322 -1.2315  0.5363
 3944SOL    HW222762   0.804   9.806   3.938 -0.2250 -0.2975  0.3007
 3945SOL     OW22763   1.369   2.953   2.912 -0.2448  0.2543  0.6645
 3945SOL    HW122764   1.319   2.953   2.998 -0.4072  0.9082  0.5723
 3945SOL    HW222765   1.420   2.867   2.903 -1.3816 -0.4494  0.7325
 3946SOL     OW22766   2.128   5.152   2.582 -0.4216 -0.4095  0.1315
 3946SOL    HW122767   2.125   5.146   2.682  2.3163  0.7400  0.3260
 3946SOL    HW222768   2.144   5.062   2.543  1.2138 -0.4785  0.9070
 3947SOL     OW22769   8.264   6.333   4.744 -0.2008  0.4026  0.2320
 3947SOL    HW122770   8.291   6.421   4.783  1.6128  0.4127 -0.9904
 3947SOL    HW222771   8.268   6.262   4.815  0.4417  0.9090  0.7059
 3948SOL     OW22772   0.747   5.570   1.147  0.2178 -0.1982 -0.3940
 3948SOL    HW122773   0.810   5.624   1.202 -1.6306  1.8524 -0.2516
 3948SOL    HW222774   0.699   5.630   1.083 -0.5951 -1.9492 -1.4562
 3949SOL     OW22775   1.329   5.943   5.203  0.0585 -0.4922 -0.8963
 3949SOL    HW122776   1.413   5.949   5.149  0.4694 -2.0475 -0.4408
 3949SOL    HW222777   1.328   5.858   5.255  0.2039  1.4778  2.4895
 3950SOL     OW22778   1.637   7.356   0.791 -0.4372 -0.0625  0.1590
 3950SOL    HW122779   1.567   7.402   0.845 -0.5300 -1.1760  1.0087
 3950SOL    HW222780   1.596   7.319   0.707 -0.5562  0.5638 -0.0614
 3951SOL     OW22781   5.077   4.214   2.451 -0.2758  0.0181  0.1500
 3951SOL    HW122782   5.004   4.209   2.519  0.8407 -0.9462  1.3197
 3951SOL    HW222783   5.136   4.133   2.460 -0.4891 -0.4766 -2.4279
 3952SOL     OW22784   1.143   4.125   0.610  0.0090  0.0480  0.0058
 3952SOL    HW122785   1.232   4.171   0.613 -0.4017  0.8352  0.1753
 3952SOL    HW222786   1.072   4.191   0.587 -0.7968 -0.1777  1.7321
 3953SOL     OW22787   3.833   5.044   3.317  0.2428 -0.2442 -0.1071
 3953SOL    HW122788   3.866   5.028   3.224  1.1910  0.4327  0.0986
 3953SOL    HW222789   3.811   5.141   3.328  0.1622 -0.3178  0.3797
 3954SOL     OW22790   2.655   4.462   1.729  0.5648 -0.3313 -0.7529
 3954SOL    HW122791   2.578   4.522   1.704  0.9910  1.2759  1.5628
 3954SOL    HW222792   2.620   4.372   1.755 -0.6768  0.6394  1.1059
 3955SOL     OW22793   2.221   0.139   2.056  0.1265  0.2543  0.5206
 3955SOL    HW122794   2.134   0.176   2.088 -0.6070 -0.2699 -0.7876
 3955SOL    HW222795   2.293   0.208   2.066 -0.6682  1.0771  0.6125
 3956SOL     OW22796   2.150   2.129   2.981 -0.6890  0.2875 -0.5312
 3956SOL    HW122797   2.233   2.076   2.996 -1.1037  0.0449  0.8928
 3956SOL    HW222798   2.087   2.076   2.924 -1.2958 -0.9615  1.2698
 3957SOL     OW22799   2.364   1.189   0.867  0.1422  0.0920 -0.0499
 3957SOL    HW122800   2.438   1.256   0.879  0.4139  0.1072 -1.6269
 3957SOL    HW222801   2.339   1.150   0.956  1.0763  1.1219  0.6785
 3958SOL     OW22802   3.792   2.408   2.294  0.2109  0.0006  0.3334
 3958SOL    HW122803   3.848   2.378   2.371 -1.2306  0.0193  1.4144
 3958SOL    HW222804   3.830   2.493   2.257  0.3896  0.4954  1.6195
 3959SOL     OW22805   0.831   5.629   4.056  0.5286 -0.1009  0.1111
 3959SOL    HW122806   0.871   5.585   4.136 -0.4517 -0.3867  0.4567
 3959SOL    HW222807   0.739   5.661   4.079 -0.3348 -1.4869 -1.3205
 3960SOL     OW22808   6.326   7.220   3.173 -0.3743 -0.0712 -0.1589
 3960SOL    HW122809   6.304   7.154   3.101  1.1233 -0.2755 -0.4261
 3960SOL    HW222810   6.242   7.241   3.224 -1.5871  0.5218 -2.3098
 3961SOL     OW22811   3.444   5.638   5.494  0.3637  0.3387 -0.6431
 3961SOL    HW122812   3.406   5.710   5.552  1.6726  1.7115 -1.4839
 3961SOL    HW222813   3.380   5.561   5.491 -0.3220  0.7840  1.5456
 3962SOL     OW22814   4.282   7.072   2.746 -0.4981  0.0665 -0.3198
 3962SOL    HW122815   4.284   7.009   2.669  0.1828  0.4809 -0.6472
 3962SOL    HW222816   4.205   7.050   2.805 -0.5180 -0.7972 -0.6614
 3963SOL     OW22817   0.438   8.814   4.452 -0.3496  0.4897 -0.0474
 3963SOL    HW122818   0.457   8.905   4.415  0.7763  0.6689  0.9460
 3963SOL    HW222819   0.494   8.746   4.404 -1.4659  0.2639 -1.0449
 3964SOL     OW22820   1.385   4.517   4.279  0.2912 -0.2953  0.6795
 3964SOL    HW122821   1.398   4.543   4.375  0.4986 -0.5043  0.7092
 3964SOL    HW222822   1.352   4.595   4.227  2.7386  0.6007  0.3683
 3965SOL     OW22823   8.164   6.793   0.255 -0.2900  0.2699 -0.2254
 3965SOL    HW122824   8.139   6.880   0.297 -0.5298 -0.6959  1.6637
 3965SOL    HW222825   8.263   6.778   0.263 -0.2129  0.4758 -0.7656
 3966SOL     OW22826   5.887   8.510   4.400 -0.3222  0.1152  0.2711
 3966SOL    HW122827   5.987   8.508   4.401 -0.2677  1.7847  0.8319
 3966SOL    HW222828   5.854   8.528   4.493 -1.2202 -2.4784  0.4779
 3967SOL     OW22829   8.639   2.236   2.285  0.0526 -0.0208  0.4910
 3967SOL    HW122830   8.539   2.240   2.276 -0.0247 -0.0659  1.3373
 3967SOL    HW222831   8.676   2.328   2.278  0.0391 -0.1017 -0.7865
 3968SOL     OW22832   4.302   1.949   2.718  0.5232  0.0999 -0.2510
 3968SOL    HW122833   4.349   2.005   2.649 -0.5984 -1.5468 -2.4099
 3968SOL    HW222834   4.370   1.894   2.767  1.2221  0.4225 -0.8312
 3969SOL     OW22835   4.479   2.828   2.333  0.1109  0.3284  0.5718
 3969SOL    HW122836   4.474   2.885   2.415 -1.8459 -2.1630  2.2888
 3969SOL    HW222837   4.550   2.758   2.346  0.4871  0.5398 -0.2952
 3970SOL     OW22838   4.071   9.632   1.120  0.1563  0.1715 -0.2994
 3970SOL    HW122839   4.054   9.609   1.024  0.8522 -0.6351 -0.2332
 3970SOL    HW222840   3.994   9.602   1.176 -0.6460  1.4148 -0.7095
 3971SOL     OW22841   9.376   6.788   4.035 -0.0820 -0.0725  0.7710
 3971SOL    HW122842   9.283   6.752   4.044 -0.6831  1.4359  0.5708
 3971SOL    HW222843   9.403   6.833   4.120 -0.1087  0.8549  0.2878
 3972SOL     OW22844   2.661   4.844   0.391 -0.3331 -0.0490  0.3630
 3972SOL    HW122845   2.630   4.845   0.296 -0.1885  0.5788  0.3172
 3972SOL    HW222846   2.740   4.783   0.400 -0.5474 -0.3579  0.1471
 3973SOL     OW22847   1.520   9.509   0.176  0.0599 -0.1481 -0.0736
 3973SOL    HW122848   1.436   9.462   0.147 -0.7562  0.7544  0.7618
 3973SOL    HW222849   1.596   9.444   0.177 -0.6965 -1.0568 -0.5321
 3974SOL     OW22850   4.146   7.317   2.761 -0.3237 -0.6174 -0.2399
 3974SOL    HW122851   4.197   7.234   2.741 -0.7390 -0.8673 -0.2772
 3974SOL    HW222852   4.144   7.376   2.680 -0.2827 -0.7060 -0.3053
 3975SOL     OW22853   9.863   9.929   1.045  0.3820 -0.9212 -0.0651
 3975SOL    HW122854   9.869   9.914   0.946  0.8974 -0.6704 -0.0720
 3975SOL    HW222855   9.812  10.013   1.063  1.4867 -0.2109 -0.1660
 3976SOL     OW22856   4.690   2.100   1.562 -0.1808 -0.3828 -0.5061
 3976SOL    HW122857   4.718   2.035   1.492 -2.2952 -1.1183 -0.7047
 3976SOL    HW222858   4.703   2.059   1.652 -1.3890 -1.0351 -0.6253
 3977SOL     OW22859   8.932   5.411   3.364 -0.6331 -0.1867  0.1727
 3977SOL    HW122860   8.894   5.348   3.432 -1.6537 -1.5225 -1.6035
 3977SOL    HW222861   8.911   5.378   3.272  1.8183  0.9303 -0.8231
 3978SOL     OW22862   2.437   9.339   0.836 -0.1109  0.2893 -0.3713
 3978SOL    HW122863   2.381   9.256   0.833  0.1305  0.0902  0.5227
 3978SOL    HW222864   2.458   9.361   0.931 -0.0772  1.3137 -0.6114
 3979SOL     OW22865   8.145   2.260   4.331  0.1958 -0.2615 -0.3365
 3979SOL    HW122866   8.116   2.190   4.396 -0.6415  1.8362  1.6037
 3979SOL    HW222867   8.235   2.294   4.356 -0.2149  0.6974 -0.1429
 3980SOL     OW22868   1.087   1.146   1.680 -0.5631 -0.2807 -0.0081
 3980SOL    HW122869   1.138   1.132   1.595  0.1665  0.4089  0.3092
 3980SOL    HW222870   1.051   1.239   1.682  0.6034  0.1660  1.0478
 3981SOL     OW22871   8.964   3.343   0.939 -0.7007 -0.8509 -0.2514
 3981SOL    HW122872   9.060   3.326   0.962 -0.5584 -1.2682 -1.1363
 3981SOL    HW222873   8.911   3.258   0.953 -0.8005 -0.8276 -0.4909
 3982SOL     OW22874   2.268   0.572   4.940  0.6679 -0.1430  0.0734
 3982SOL    HW122875   2.343   0.610   4.994 -0.4468  1.5324  0.4692
 3982SOL    HW222876   2.181   0.605   4.976 -0.3343 -2.7851  0.1890
 3983SOL     OW22877   3.906   8.326   0.375  0.0782 -0.7347 -0.5098
 3983SOL    HW122878   3.815   8.365   0.389  0.4211  0.2491 -1.0097
 3983SOL    HW222879   3.957   8.383   0.311  1.1304 -1.1597 -0.0491
 3984SOL     OW22880   0.828   6.615   2.392 -0.2469 -0.0231 -0.5166
 3984SOL    HW122881   0.764   6.653   2.460  0.5505  2.2211 -0.9578
 3984SOL    HW222882   0.899   6.562   2.438 -1.9689 -1.9042  0.0404
 3985SOL     OW22883   3.768   1.946   0.699  0.4533 -0.2349 -0.7011
 3985SOL    HW122884   3.846   1.984   0.749  0.5692 -2.4756  0.9030
 3985SOL    HW222885   3.699   1.913   0.763 -0.1593 -1.6351 -2.0324
 3986SOL     OW22886   8.352   7.092   4.255  0.2149 -0.2385  0.3342
 3986SOL    HW122887   8.416   7.132   4.189  1.2136 -0.2976  1.2552
 3986SOL    HW222888   8.384   7.002   4.282 -0.4316 -0.4039  0.5579
 3987SOL     OW22889   0.852   3.538   3.513 -0.1829 -0.2627  0.2886
 3987SOL    HW122890   0.849   3.615   3.578  1.8226 -0.2119  0.3322
 3987SOL    HW222891   0.865   3.453   3.563 -0.8578 -0.4794  0.1070
 3988SOL     OW22892   8.873   3.723   3.658 -0.2421 -0.7855 -0.2890
 3988SOL    HW122893   8.809   3.790   3.695  0.7270  0.0239 -0.0490
 3988SOL    HW222894   8.902   3.751   3.567 -1.4118 -1.9608 -1.0430
 3989SOL     OW22895   1.633   0.662   3.727  0.1033 -0.4647  0.1195
 3989SOL    HW122896   1.635   0.699   3.820 -0.1228 -1.0280  0.3477
 3989SOL    HW222897   1.681   0.725   3.665 -0.0293  0.0716  0.5560
 3990SOL     OW22898   5.293   0.636   4.090 -0.3245 -0.5219  0.3228
 3990SOL    HW122899   5.247   0.605   4.173  0.0974 -1.7932  0.0997
 3990SOL    HW222900   5.252   0.722   4.059  0.0956  0.3992  2.3158
 3991SOL     OW22901   0.821   5.179   5.491 -0.2640  0.4286 -0.0481
 3991SOL    HW122902   0.758   5.194   5.415  1.1475  2.0648 -0.9339
 3991SOL    HW222903   0.843   5.082   5.498 -2.7801 -0.1538  0.2230
 3992SOL     OW22904   0.056   9.792   3.494  0.6514 -0.2342  0.3938
 3992SOL    HW122905   0.057   9.737   3.411 -0.1823  0.7653 -0.2906
 3992SOL    HW222906   0.048   9.732   3.574 -1.2445 -1.0659 -0.3921
 3993SOL     OW22907   5.766   1.168   1.120 -0.4588  0.2454  0.0146
 3993SOL    HW122908   5.843   1.187   1.181 -0.8991 -1.2625  1.0743
 3993SOL    HW222909   5.796   1.104   1.049 -0.1231  1.4758 -0.9489
 3994SOL     OW22910   3.293   5.173   5.079 -0.0303  0.5396  0.7791
 3994SOL    HW122911   3.374   5.116   5.066  2.1229  3.4980  0.6375
 3994SOL    HW222912   3.316   5.250   5.138 -2.4497  2.0981 -0.2455
 3995SOL     OW22913   8.798   8.088   3.886 -0.4391  0.0271 -0.8563
 3995SOL    HW122914   8.888   8.094   3.841 -0.1838 -1.0334 -0.5057
 3995SOL    HW222915   8.736   8.154   3.845 -0.0205 -0.4900 -2.3432
 3996SOL     OW22916   2.411   8.131   1.015 -0.4146  0.9669 -0.5294
 3996SOL    HW122917   2.327   8.149   1.065 -0.4924  0.7326 -0.5765
 3996SOL    HW222918   2.391   8.076   0.934  0.2550 -2.2990  1.4378
 3997SOL     OW22919   1.344   5.290   0.935  0.3262  0.5204  0.0685
 3997SOL    HW122920   1.256   5.278   0.889 -0.2508  1.8746  0.7971
 3997SOL    HW222921   1.392   5.202   0.939 -0.0817  0.1633 -2.1496
 3998SOL     OW22922   8.645   5.765   0.433  0.2273 -0.2117 -0.2620
 3998SOL    HW122923   8.577   5.736   0.500  0.7171 -1.4393 -0.2844
 3998SOL    HW222924   8.602   5.779   0.344 -0.5151  1.8827  0.4014
 3999SOL     OW22925   8.161   8.929   1.741  0.4119  0.2833 -0.3409
 3999SOL    HW122926   8.087   8.989   1.710  0.3681  0.2189 -0.3573
 3999SOL    HW222927   8.230   8.922   1.670  0.7104  0.8059 -0.1070
 4000SOL     OW22928   8.214   3.341   4.718  0.1033 -0.0115  0.2012
 4000SOL    HW122929   8.295   3.359   4.662  1.1543 -1.9277  1.0570
 4000SOL    HW222930   8.238   3.346   4.815 -0.2596 -2.7162  0.4809
 4001SOL     OW22931   5.403   8.829   2.298 -0.1571 -0.0220 -0.4155
 4001SOL    HW122932   5.352   8.907   2.336  1.6694  0.5320  0.9524
 4001SOL    HW222933   5.390   8.749   2.356  0.6091  0.1510 -0.0001
 4002SOL     OW22934   0.398   0.919   0.820  0.6577  0.6240 -0.2792
 4002SOL    HW122935   0.393   0.929   0.919  2.3893 -1.6778  0.0770
 4002SOL    HW222936   0.306   0.925   0.782 -0.2297 -0.3363  1.6599
 4003SOL     OW22937   9.497   0.005   1.511 -0.4060  0.2324 -0.3934
 4003SOL    HW122938   9.473   0.082   1.571 -0.5521  1.2464 -1.7079
 4003SOL    HW222939   9.413  -0.034   1.472 -0.4090 -1.3214  1.1216
 4004SOL     OW22940   8.750   2.627   0.604  0.5544  0.1020 -0.1841
 4004SOL    HW122941   8.715   2.545   0.557 -0.6103  0.9235 -0.7644
 4004SOL    HW222942   8.772   2.697   0.536  0.0666  0.8381  0.4071
 4005SOL     OW22943   6.206   1.864   2.295 -0.2854 -0.5627 -0.3017
 4005SOL    HW122944   6.147   1.895   2.221 -0.5050  1.9530  0.8732
 4005SOL    HW222945   6.254   1.781   2.267  0.6453  1.0485 -3.7778
 4006SOL     OW22946   9.139   3.375   0.578  0.1751 -0.1713 -0.3436
 4006SOL    HW122947   9.056   3.412   0.535  0.0342 -0.7094 -0.5410
 4006SOL    HW222948   9.213   3.372   0.510  0.3908  0.4211 -0.1352
 4007SOL     OW22949   5.059   7.672   3.417 -0.1879  0.0989 -0.1914
 4007SOL    HW122950   5.157   7.680   3.402 -0.5141  1.0288 -2.0236
 4007SOL    HW222951   5.020   7.610   3.349 -0.9763  0.3276  0.0484
 4008SOL     OW22952   9.209   9.252   1.267 -0.7710  0.6737  0.5967
 4008SOL    HW122953   9.128   9.196   1.254  0.0822 -0.7140  1.1364
 4008SOL    HW222954   9.201   9.336   1.212 -1.7330 -0.3043 -0.7923
 4009SOL     OW22955   7.932   8.388   1.732 -0.4526 -0.2689 -0.3494
 4009SOL    HW122956   7.904   8.479   1.764 -0.4255 -0.8718  1.4916
 4009SOL    HW222957   7.993   8.347   1.800 -0.8873 -1.8683 -0.9036
 4010SOL     OW22958   5.114   8.596   3.753  0.0330 -0.5638  0.3519
 4010SOL    HW122959   5.028   8.642   3.770  0.7334  1.0326 -0.3020
 4010SOL    HW222960   5.179   8.617   3.826 -0.1626 -1.8811  0.9214
 4011SOL     OW22961   0.335   2.273   2.427  0.3400  0.5212 -0.1874
 4011SOL    HW122962   0.417   2.328   2.413 -0.2185  0.8422 -2.3872
 4011SOL    HW222963   0.269   2.293   2.355 -0.9114 -1.1610  0.4619
 4012SOL     OW22964   1.000   5.348   5.422 -0.1021  0.0562 -0.0312
 4012SOL    HW122965   1.083   5.356   5.477 -0.1324  1.9313 -0.2401
 4012SOL    HW222966   0.942   5.276   5.461  2.2360 -2.3119 -0.7330
 4013SOL     OW22967   2.336   5.671   3.058 -0.2916 -0.2094  0.3585
 4013SOL    HW122968   2.269   5.634   2.993  0.1507  0.4113 -0.4614
 4013SOL    HW222969   2.333   5.771   3.057  0.3385 -0.1808  0.6426
 4014SOL     OW22970   1.256   0.942   4.920 -0.5602  0.4621  0.7604
 4014SOL    HW122971   1.338   0.942   4.863 -0.9806  2.1025  0.1386
 4014SOL    HW222972   1.232   0.847   4.944  0.6143 -0.1248 -0.3427
 4015SOL     OW22973   0.407   3.256   1.898 -0.2077 -0.4557 -0.6580
 4015SOL    HW122974   0.461   3.182   1.859  0.8251 -0.2952  0.4281
 4015SOL    HW222975   0.455   3.343   1.883 -1.5589  0.0715 -2.2140
 4016SOL     OW22976   5.613   9.476   3.622  0.0509 -0.3292 -0.4473
 4016SOL    HW122977   5.515   9.478   3.643  0.3869  1.7635  1.0741
 4016SOL    HW222978   5.665   9.467   3.707  1.2630  1.9113 -0.9263
 4017SOL     OW22979   7.130   0.902   1.792  0.4708  0.8090  0.5533
 4017SOL    HW122980   7.045   0.938   1.830  0.6401  0.1080  1.6327
 4017SOL    HW222981   7.180   0.852   1.863  0.7457 -0.6260 -0.6261
 4018SOL     OW22982   6.291   1.476   3.127  0.8574 -0.3556  0.2865
 4018SOL    HW122983   6.304   1.548   3.195  0.3006  0.5751 -0.5727
 4018SOL    HW222984   6.230   1.510   3.054  1.7268 -1.2079 -0.8547
 4019SOL     OW22985   8.244   7.637   3.475 -0.2811 -0.0536  0.3333
 4019SOL    HW122986   8.168   7.659   3.414 -0.5509 -1.5422  0.1138
 4019SOL    HW222987   8.217   7.564   3.537  1.0701 -0.8347  0.0248
 4020SOL     OW22988   8.106   9.368   0.398 -0.5533 -0.2423 -0.6808
 4020SOL    HW122989   8.180   9.433   0.380 -1.2902  0.6316 -0.6517
 4020SOL    HW222990   8.141   9.290   0.449  0.0391  0.9237  0.7453
 4021SOL     OW22991   0.557   1.614   3.390 -0.2045  0.0099 -0.3676
 4021SOL    HW122992   0.582   1.711   3.398  1.3444 -0.4526  0.7102
 4021SOL    HW222993   0.529   1.580   3.479 -2.1455 -0.1866 -1.0353
 4022SOL     OW22994   2.362   0.309   3.253 -0.4153  0.1916 -0.1854
 4022SOL    HW122995   2.339   0.285   3.347  1.4719  1.5438  0.6642
 4022SOL    HW222996   2.330   0.402   3.233  2.5720  1.4324  0.4589
 4023SOL     OW22997   2.099   8.727   3.665 -0.4082 -0.0353  0.6683
 4023SOL    HW122998   2.162   8.805   3.660 -1.6988  1.0423  0.8529
 4023SOL    HW222999   2.091   8.698   3.760 -1.4461  0.9009  0.8815
 4024SOL     OW23000   3.707   4.598   3.940  0.3616 -0.4557  0.3382
 4024SOL    HW123001   3.798   4.588   3.981  1.0213 -0.0043 -0.9954
 4024SOL    HW223002   3.710   4.569   3.844 -0.7044  0.3378  0.0544
 4025SOL     OW23003   4.088   8.318   3.688  0.0105  0.1371 -0.1316
 4025SOL    HW123004   4.169   8.289   3.637  0.6854  1.0074  0.4177
 4025SOL    HW223005   4.006   8.281   3.645  0.6364  0.0236 -1.2484
 4026SOL     OW23006   9.694   8.619   3.551 -0.1216  0.2699 -0.3112
 4026SOL    HW123007   9.627   8.673   3.500 -1.0856  1.4053  2.0542
 4026SOL    HW223008   9.769   8.592   3.491 -0.4059  2.9085 -1.9044
 4027SOL     OW23009   1.874   8.732   0.082  0.2566 -0.1480 -0.1175
 4027SOL    HW123010   1.918   8.666   0.143  2.8641  2.7563  1.3217
 4027SOL    HW223011   1.924   8.735  -0.005  0.2884  0.0716 -0.0922
 4028SOL     OW23012   3.762   5.453   4.265 -0.3980  0.4744 -0.0640
 4028SOL    HW123013   3.710   5.504   4.333 -1.3006 -1.5814  0.8145
 4028SOL    HW223014   3.853   5.431   4.300  0.1564  1.8360 -0.6158
 4029SOL     OW23015   7.334   6.293   4.136  0.7456  0.3886 -0.0292
 4029SOL    HW123016   7.386   6.301   4.221  2.6255  0.0992 -1.1426
 4029SOL    HW223017   7.264   6.222   4.147  1.7602 -0.4811  0.8774
 4030SOL     OW23018   5.231   1.601   1.300 -0.0648 -0.1832 -0.5185
 4030SOL    HW123019   5.232   1.514   1.250 -3.3406 -1.8125  2.0048
 4030SOL    HW223020   5.274   1.587   1.390 -0.5037  0.8365 -0.1468
 4031SOL     OW23021   0.308   2.635   3.204  0.1144 -0.0501 -0.3752
 4031SOL    HW123022   0.285   2.673   3.115  0.4118 -0.1470 -0.4955
 4031SOL    HW223023   0.355   2.548   3.192  1.7623  0.7857 -0.1964
 4032SOL     OW23024   4.322   9.882   2.736 -0.2621 -0.4440  0.0121
 4032SOL    HW123025   4.416   9.892   2.706 -0.1507 -2.2761 -0.2871
 4032SOL    HW223026   4.289   9.789   2.716 -2.0608  0.1024  0.2771
 4033SOL     OW23027   9.173   2.884   1.206  0.3417 -0.0576  0.2981
 4033SOL    HW123028   9.073   2.883   1.217  0.4562  0.2481  1.4599
 4033SOL    HW223029   9.198   2.957   1.143 -0.3126 -1.5387 -1.7310
 4034SOL     OW23030   3.201   7.175   5.120  0.5325 -0.1197  0.0890
 4034SOL    HW123031   3.111   7.216   5.132  0.8619  0.0573  2.1570
 4034SOL    HW223032   3.194   7.096   5.059 -0.5041  1.5696 -2.0630
 4035SOL     OW23033   9.935   1.882   1.381  0.1676 -0.2657 -0.2129
 4035SOL    HW123034   9.842   1.849   1.398 -0.0606  0.4680  0.0050
 4035SOL    HW223035   9.991   1.807   1.346 -0.3941 -0.8177  0.0558
 4036SOL     OW23036   4.372   4.104   4.814 -0.0443 -0.1390  0.2844
 4036SOL    HW123037   4.317   4.161   4.754  0.0161 -1.2945 -0.8974
 4036SOL    HW223038   4.469   4.125   4.801 -0.0841  0.3749  0.7861
 4037SOL     OW23039   2.277   1.535   4.284  0.1836  0.5644 -0.5518
 4037SOL    HW123040   2.235   1.550   4.373  0.4953  0.5351 -0.3991
 4037SOL    HW223041   2.238   1.600   4.218 -1.6855 -0.9289 -0.9375
 4038SOL     OW23042   0.199   2.990   0.414 -0.0672  0.4795 -0.2157
 4038SOL    HW123043   0.214   2.916   0.479 -1.4856 -0.0369 -0.4674
 4038SOL    HW223044   0.104   3.020   0.418 -0.9020 -1.3540 -3.8870
 4039SOL     OW23045   2.582   0.012   4.701  0.4125  0.4252  0.0512
 4039SOL    HW123046   2.608   0.100   4.742  3.1047 -0.9906  1.5341
 4039SOL    HW223047   2.634  -0.002   4.617  1.0335 -0.3528  0.5560
 4040SOL     OW23048   3.553   9.247   4.563  0.3783  0.0322 -0.1820
 4040SOL    HW123049   3.569   9.196   4.478 -0.4567 -3.1506  1.5001
 4040SOL    HW223050   3.465   9.295   4.556  0.9539  0.9285 -1.6121
 4041SOL     OW23051   7.533   1.984   0.009  0.3355 -0.2370 -0.0372
 4041SOL    HW123052   7.455   1.924  -0.007  0.5583 -0.2731 -0.9741
 4041SOL    HW223053   7.600   1.973  -0.064  0.4295  1.0735 -0.1612
 4042SOL     OW23054   1.461   6.657   3.027  0.2112  0.3791 -0.6386
 4042SOL    HW123055   1.366   6.638   3.003 -0.1175 -2.2221  2.2906
 4042SOL    HW223056   1.522   6.598   2.974 -0.1390 -1.0769  0.5239
 4043SOL     OW23057   9.073   5.257   4.976  0.3685 -0.0721  0.8813
 4043SOL    HW123058   9.074   5.239   4.877 -0.0421  0.8880  0.7028
 4043SOL    HW223059   9.122   5.342   4.995  0.0388 -0.0077  1.4539
 4044SOL     OW23060   2.581   0.637   4.589 -0.3970 -0.1780  0.4093
 4044SOL    HW123061   2.666   0.661   4.634 -1.7833  3.4741  1.2207
 4044SOL    HW223062   2.523   0.718   4.582 -2.8758 -2.0962 -2.1596
 4045SOL     OW23063   8.170   3.757   2.855 -0.1640  0.2123  0.0436
 4045SOL    HW123064   8.125   3.772   2.767  1.2411  2.1640 -0.3927
 4045SOL    HW223065   8.189   3.845   2.898 -3.4632 -0.7559  3.7526
 4046SOL     OW23066   2.952   8.280   5.437  0.4244  0.3424 -0.0922
 4046SOL    HW123067   3.000   8.253   5.354 -0.2939 -1.3363 -0.0007
 4046SOL    HW223068   3.001   8.246   5.517  1.0411  1.8354  0.1780
 4047SOL     OW23069   8.801   9.280   2.298 -0.0084 -0.6346 -0.3377
 4047SOL    HW123070   8.874   9.348   2.300  0.4150 -1.1165  1.5630
 4047SOL    HW223071   8.828   9.201   2.353 -1.9133 -0.8798  0.2861
 4048SOL     OW23072   4.982   3.032   1.096 -0.3617 -0.3757 -0.7839
 4048SOL    HW123073   5.070   3.074   1.075 -0.9397  1.5516  0.4746
 4048SOL    HW223074   4.979   2.939   1.058  3.1772 -1.4813  1.3845
 4049SOL     OW23075   1.416   2.852   4.541  0.4224  0.6047  0.0493
 4049SOL    HW123076   1.330   2.836   4.589  1.2599  0.1591  1.4105
 4049SOL    HW223077   1.413   2.807   4.452 -0.3319 -0.3175  0.5364
 4050SOL     OW23078   1.534   6.963   0.995  1.1523  0.2635  0.3964
 4050SOL    HW123079   1.596   7.042   1.002 -0.1255  1.2343  1.0415
 4050SOL    HW223080   1.579   6.882   1.031  3.0243  0.3874 -1.6245
 4051SOL     OW23081   3.204   0.199   0.223 -0.7968  0.1458 -0.1030
 4051SOL    HW123082   3.138   0.182   0.151 -0.0122 -0.9214 -0.5842
 4051SOL    HW223083   3.295   0.172   0.192 -0.4608 -0.3909  1.3086
 4052SOL     OW23084   8.222   6.135   5.310  0.4531 -0.5672  0.0822
 4052SOL    HW123085   8.277   6.214   5.336  1.1418 -1.7192  2.2404
 4052SOL    HW223086   8.138   6.166   5.265  0.3743  1.4151  1.5341
 4053SOL     OW23087   2.540   8.677   1.363 -0.2514  0.1909  0.1422
 4053SOL    HW123088   2.512   8.582   1.352 -0.2775  0.2345 -0.1938
 4053SOL    HW223089   2.537   8.703   1.459 -0.8247  0.0286  0.1706
 4054SOL     OW23090   8.143   8.784   4.958  0.0445  0.2617 -0.6588
 4054SOL    HW123091   8.228   8.829   4.987 -1.7933  3.9045 -0.6332
 4054SOL    HW223092   8.156   8.740   4.870  1.9271  0.8557 -0.6898
 4055SOL     OW23093   2.128   3.136   5.394 -0.1800 -0.0696  0.3384
 4055SOL    HW123094   2.191   3.138   5.316 -0.4187  0.5120  0.1600
 4055SOL    HW223095   2.095   3.228   5.412  1.5212  0.1662  2.4739
 4056SOL     OW23096   2.436   6.168   3.776 -0.5149 -0.0824  0.2365
 4056SOL    HW123097   2.452   6.267   3.780 -1.4177  0.2858 -3.2218
 4056SOL    HW223098   2.422   6.141   3.680  0.5449 -3.6978  1.0302
 4057SOL     OW23099   2.278   3.449   2.177  0.0628 -0.4954 -0.3496
 4057SOL    HW123100   2.213   3.411   2.110  1.7201 -1.6755 -1.3142
 4057SOL    HW223101   2.332   3.375   2.216  0.6584  0.4617  0.6534
 4058SOL     OW23102   8.269   8.561   1.133 -0.2994  0.0608 -0.5468
 4058SOL    HW123103   8.309   8.475   1.101  0.6705  0.6463 -0.9373
 4058SOL    HW223104   8.173   8.547   1.153  0.1392 -1.4289  0.6019
 4059SOL     OW23105   7.812   4.775   0.434 -0.5556 -0.0317  0.3855
 4059SOL    HW123106   7.883   4.734   0.376  0.1473 -0.4642  1.5401
 4059SOL    HW223107   7.790   4.866   0.399 -0.6718 -0.5750 -1.0031
 4060SOL     OW23108   1.563   6.146   2.800 -0.4653 -0.0029 -0.1724
 4060SOL    HW123109   1.489   6.078   2.806  0.3635 -1.0295 -1.2850
 4060SOL    HW223110   1.607   6.155   2.889 -1.0231 -0.4174  0.1502
 4061SOL     OW23111   3.138   5.616   0.107 -0.2878  0.2265  0.7894
 4061SOL    HW123112   3.157   5.599   0.204 -1.2901 -0.0924  0.9252
 4061SOL    HW223113   3.050   5.662   0.098 -0.1186  0.4060  0.0293
 4062SOL     OW23114   1.617   6.280   2.460 -0.5809 -0.3383  0.4198
 4062SOL    HW123115   1.636   6.323   2.372 -0.3867 -0.6318  0.3139
 4062SOL    HW223116   1.574   6.191   2.444  1.2343 -1.2725  0.5483
 4063SOL     OW23117   3.152   0.740   1.863  0.0355 -0.2470 -0.0115
 4063SOL    HW123118   3.065   0.784   1.889 -0.0793  0.0627 -0.9193
 4063SOL    HW223119   3.142   0.641   1.873 -0.9144 -0.3241 -1.5315
 4064SOL     OW23120   6.683   8.609   3.344 -0.4185  0.5467 -0.0778
 4064SOL    HW123121   6.612   8.551   3.382 -0.5846  0.7266 -0.1116
 4064SOL    HW223122   6.641   8.681   3.289 -0.2181  0.7303  0.0073
 4065SOL     OW23123   0.865   1.489   3.763 -0.2746 -0.1727  0.1231
 4065SOL    HW123124   0.789   1.536   3.808 -0.0841  0.5855 -0.3470
 4065SOL    HW223125   0.849   1.390   3.767 -2.0647  0.0254 -1.2950
 4066SOL     OW23126   9.709   5.637   0.417 -0.2243  0.3227  0.5532
 4066SOL    HW123127   9.646   5.559   0.408  0.9361 -0.2008 -3.8240
 4066SOL    HW223128   9.661   5.721   0.392  0.3607  0.0937 -1.4389
 4067SOL     OW23129   7.580   1.179   1.065  0.0983 -0.2517 -0.4196
 4067SOL    HW123130   7.547   1.228   1.146 -0.0556 -0.2428 -0.4886
 4067SOL    HW223131   7.667   1.135   1.087  0.9170  1.1680 -0.7569
 4068SOL     OW23132   9.372   8.939   3.405  0.8936 -0.2725 -0.5159
 4068SOL    HW123133   9.404   8.927   3.311 -0.5141 -1.0244 -0.9150
 4068SOL    HW223134   9.327   8.855   3.436 -0.7602  0.7924 -0.0075
 4069SOL     OW23135   8.097   3.249   0.383 -0.1602  0.6296 -0.1981
 4069SOL    HW123136   8.109   3.336   0.335  0.3908  1.2036  0.9611
 4069SOL    HW223137   8.021   3.257   0.448  1.2531  0.9439  1.4510
 4070SOL     OW23138   9.932   9.709   4.749  0.7360  0.1456 -0.0341
 4070SOL    HW123139  10.009   9.669   4.701  0.6184  1.0460 -1.0009
 4070SOL    HW223140   9.948   9.706   4.848  2.2037  0.7023 -0.2493
 4071SOL     OW23141   0.796   7.488   0.602  0.7948  0.8626 -0.2786
 4071SOL    HW123142   0.747   7.531   0.677  1.0617  0.9801 -0.1741
 4071SOL    HW223143   0.884   7.453   0.634 -0.4066 -1.8531  0.2061
 4072SOL     OW23144   9.366   7.244   4.532 -0.0284 -0.1175 -0.1901
 4072SOL    HW123145   9.451   7.232   4.584  0.2331 -0.9751 -0.7988
 4072SOL    HW223146   9.302   7.301   4.584  0.3841 -0.6297  0.8855
 4073SOL     OW23147   2.465   7.925   1.772 -0.3051  0.6104  0.2490
 4073SOL    HW123148   2.430   7.844   1.726  2.2821 -1.3858  1.6644
 4073SOL    HW223149   2.389   7.985   1.797 -2.1153 -0.4766 -2.4256
 4074SOL     OW23150   4.354   9.993   1.583 -0.4176  0.5405 -0.3537
 4074SOL    HW123151   4.385  10.041   1.666 -3.0661  3.3496 -0.9054
 4074SOL    HW223152   4.390  10.041   1.502 -0.2166 -0.5031 -0.8897
 4075SOL     OW23153   7.183   3.585   0.155  0.3920  0.1080  0.0615
 4075SOL    HW123154   7.168   3.684   0.155  0.1503  0.0719 -0.2148
 4075SOL    HW223155   7.280   3.565   0.169  0.7674  0.4228 -1.9925
 4076SOL     OW23156   7.617   1.044   4.665 -0.2446 -0.9003  0.2386
 4076SOL    HW123157   7.579   1.083   4.581 -0.0905 -1.4503 -0.0903
 4076SOL    HW223158   7.576   1.088   4.744  0.8162  0.7710 -0.1277
 4077SOL     OW23159   5.303   0.601   1.994 -0.6275  0.0752  0.2062
 4077SOL    HW123160   5.214   0.622   2.034 -1.5289 -0.8369 -1.2902
 4077SOL    HW223161   5.322   0.503   2.004 -1.1033 -0.2726 -2.0049
 4078SOL     OW23162   3.459   8.991   2.822  0.1109  0.0273 -0.0317
 4078SOL    HW123163   3.490   9.055   2.892  1.2770 -1.0830  0.4955
 4078SOL    HW223164   3.364   8.966   2.839  0.6458 -0.9354  1.7178
 4079SOL     OW23165   8.686   0.397   1.281  0.1228 -0.0493  0.0748
 4079SOL    HW123166   8.669   0.317   1.338  0.5802  0.5753  1.1118
 4079SOL    HW223167   8.616   0.404   1.211 -0.5906 -0.6978  0.7193
 4080SOL     OW23168   3.023   2.100   2.518 -0.4986 -0.0055 -0.1794
 4080SOL    HW123169   3.004   2.002   2.503 -2.1489  0.3914 -0.7812
 4080SOL    HW223170   3.113   2.122   2.480 -1.3221 -0.7110 -2.6495
 4081SOL     OW23171   4.593   9.047   3.754  0.1693 -0.1382  0.1382
 4081SOL    HW123172   4.651   8.996   3.691  0.5347  0.3936  0.0445
 4081SOL    HW223173   4.644   9.124   3.792  0.0991 -0.7108  1.4251
 4082SOL     OW23174   1.012   4.495   2.035 -0.2265  0.1460 -0.0118
 4082SOL    HW123175   1.094   4.517   1.981  0.7830 -0.1168  1.3952
 4082SOL    HW223176   0.978   4.577   2.080  1.3466 -0.3757  2.2225
 4083SOL     OW23177   1.859   1.246   1.948  0.7587  0.1892 -0.1626
 4083SOL    HW123178   1.866   1.325   2.009  0.7762 -1.3234  1.8549
 4083SOL    HW223179   1.824   1.167   2.000  0.0604 -0.9373 -2.2974
 4084SOL     OW23180   5.726   7.978   2.001  0.1050 -0.1338  0.5199
 4084SOL    HW123181   5.682   7.919   2.069 -1.0260 -1.0806 -1.0290
 4084SOL    HW223182   5.658   8.038   1.959  0.2137 -1.6980 -1.9858
 4085SOL     OW23183   1.204   0.496   5.197 -0.3989 -0.4175 -0.2659
 4085SOL    HW123184   1.216   0.404   5.233  1.7740  0.5789  1.7103
 4085SOL    HW223185   1.208   0.562   5.272 -0.3160  1.4000 -1.8143
 4086SOL     OW23186   9.177   6.790   2.550  0.5920  0.0967  0.6257
 4086SOL    HW123187   9.259   6.825   2.504  0.5417 -0.1688  0.3407
 4086SOL    HW223188   9.096   6.808   2.494  0.3313  1.2389  1.3508
 4087SOL     OW23189   1.667   0.840   5.557 -0.3225 -0.1291  0.3933
 4087SOL    HW123190   1.739   0.898   5.595 -0.8197  1.1548 -0.5860
 4087SOL    HW223191   1.673   0.841   5.457 -0.8564 -1.1194  0.3427
 4088SOL     OW23192   8.432   4.898   5.149  0.9946 -0.2528  0.1671
 4088SOL    HW123193   8.455   4.981   5.201 -0.6672  2.3030 -2.9498
 4088SOL    HW223194   8.514   4.864   5.104  1.5915  0.0041  1.0445
 4089SOL     OW23195   3.737   1.755   3.219 -0.3231 -0.0497  0.3343
 4089SOL    HW123196   3.743   1.658   3.239  2.7119  0.0893  0.2850
 4089SOL    HW223197   3.716   1.806   3.303 -1.9866 -0.7374  0.3413
 4090SOL     OW23198   9.265   4.344   3.771 -0.1330  0.0579 -0.4222
 4090SOL    HW123199   9.218   4.429   3.750 -1.0946 -0.2181  0.5448
 4090SOL    HW223200   9.203   4.282   3.819  0.4449 -1.3411 -1.4361
 4091SOL     OW23201   0.640   9.355   1.024  0.1878 -0.2489 -0.3808
 4091SOL    HW123202   0.570   9.285   1.012  1.5214 -1.4761 -1.1129
 4091SOL    HW223203   0.722   9.314   1.062  0.8567  1.0082 -0.4285
 4092SOL     OW23204   9.424   3.536   3.653 -0.0265 -0.3912 -0.1088
 4092SOL    HW123205   9.341   3.484   3.634 -0.2489  0.0844 -0.4421
 4092SOL    HW223206   9.499   3.473   3.674 -0.0590 -0.8876 -1.4237
 4093SOL     OW23207   8.788   7.229   3.359  0.3048  0.5819  0.0118
 4093SOL    HW123208   8.817   7.148   3.410  0.0819  1.2370  1.2022
 4093SOL    HW223209   8.867   7.286   3.339  0.5868 -0.3479 -1.5976
 4094SOL     OW23210   9.241   3.657   3.268 -0.0499  0.5201  0.0247
 4094SOL    HW123211   9.218   3.709   3.186 -0.8409  2.2843  1.3179
 4094SOL    HW223212   9.167   3.591   3.288 -0.7228  1.3542  0.3155
 4095SOL     OW23213   1.068   7.378   1.314 -1.0769  0.2695 -0.5479
 4095SOL    HW123214   1.037   7.372   1.409 -0.9472 -1.2332 -0.5878
 4095SOL    HW223215   1.164   7.351   1.308 -0.4799  2.3877 -0.8126
 4096SOL     OW23216   0.207   6.179   2.561 -0.5907  0.1564 -1.2624
 4096SOL    HW123217   0.229   6.258   2.504 -0.5384 -0.1157 -1.6223
 4096SOL    HW223218   0.133   6.126   2.518 -1.6592  0.8272 -0.2786
 4097SOL     OW23219   1.626   7.671   1.515 -0.0992  0.2819 -0.5291
 4097SOL    HW123220   1.623   7.750   1.576  2.3494  1.3604 -1.7541
 4097SOL    HW223221   1.668   7.594   1.563 -2.0369 -0.1731  0.5006
 4098SOL     OW23222   3.983   1.386   1.663  0.5759  0.0465  0.0939
 4098SOL    HW123223   3.899   1.422   1.706 -0.2407  0.8552 -2.1255
 4098SOL    HW223224   4.012   1.304   1.712 -1.7480 -0.4808  0.6648
 4099SOL     OW23225   1.317   9.137   1.841 -0.2841 -0.3893  0.0311
 4099SOL    HW123226   1.321   9.128   1.941 -0.2239  1.1618  0.1754
 4099SOL    HW223227   1.235   9.189   1.816 -0.0420 -0.3706 -0.7099
 4100SOL     OW23228   2.568   5.623   3.304 -0.1565  0.3817  0.0247
 4100SOL    HW123229   2.555   5.563   3.225 -0.1102  1.1679 -0.5800
 4100SOL    HW223230   2.598   5.568   3.383 -0.1689 -0.3960 -0.5080
 4101SOL     OW23231   3.405   9.165   1.725 -0.2928  0.0594  0.2322
 4101SOL    HW123232   3.500   9.168   1.759 -0.3119  0.2395  0.2705
 4101SOL    HW223233   3.386   9.073   1.690  0.6155  0.6499 -1.8368
 4102SOL     OW23234   8.062   6.690   2.393 -0.0576 -0.4809  0.4725
 4102SOL    HW123235   8.063   6.590   2.403  0.0400 -0.5052  0.2295
 4102SOL    HW223236   8.095   6.714   2.302 -1.7957 -0.3088 -0.1157
 4103SOL     OW23237   4.328   8.546   4.908  0.3308  0.1064 -0.2071
 4103SOL    HW123238   4.353   8.604   4.830 -1.4017  1.1286 -0.0455
 4103SOL    HW223239   4.291   8.603   4.981  0.7473 -0.9848  0.8702
 4104SOL     OW23240   5.972   0.476   4.615 -0.4179 -0.6430 -0.1908
 4104SOL    HW123241   5.887   0.475   4.667 -1.1220  1.7503 -1.2340
 4104SOL    HW223242   6.023   0.392   4.632 -2.8763 -1.9980  0.6331
 4105SOL     OW23243   8.886   9.306   5.020 -0.0221 -0.3294  0.0294
 4105SOL    HW123244   8.877   9.288   4.923  1.0939 -0.1615 -0.1184
 4105SOL    HW223245   8.857   9.226   5.073  0.0638 -0.6789 -0.4589
 4106SOL     OW23246   4.366   3.809   2.489 -0.0051 -0.0105  0.2498
 4106SOL    HW123247   4.329   3.718   2.508 -1.0984  0.6051  1.1207
 4106SOL    HW223248   4.448   3.801   2.431 -0.2675 -1.5182  0.0819
 4107SOL     OW23249   2.278   2.205   0.911 -0.0283 -0.6560 -0.1733
 4107SOL    HW123250   2.243   2.298   0.910  0.0391 -0.6098  1.1661
 4107SOL    HW223251   2.213   2.144   0.865 -0.3411 -0.0579 -0.5377
 4108SOL     OW23252   9.321   9.529   5.207  0.4841  0.1124  0.0131
 4108SOL    HW123253   9.223   9.530   5.228  0.2965 -1.3332 -0.8068
 4108SOL    HW223254   9.351   9.436   5.187  1.6519  0.8050 -1.5339
 4109SOL     OW23255   7.412   8.043   4.229  0.2957 -0.3162  0.3078
 4109SOL    HW123256   7.371   7.952   4.236 -0.4691  0.0510  0.7053
 4109SOL    HW223257   7.406   8.089   4.318 -2.2968  1.3643 -0.6731
 4110SOL     OW23258   9.493   0.761   2.227  0.1635 -0.3319  0.0455
 4110SOL    HW123259   9.536   0.847   2.198  0.4942 -0.4686  0.1339
 4110SOL    HW223260   9.394   0.771   2.223  0.1955 -0.2722 -0.9495
 4111SOL     OW23261   7.765   8.543   4.559 -0.1824 -0.4746 -0.3678
 4111SOL    HW123262   7.757   8.583   4.650  0.1925  1.9618 -1.3743
 4111SOL    HW223263   7.861   8.518   4.543 -0.0042  0.3242 -0.5808
 4112SOL     OW23264   8.776   0.477   2.591  0.3228 -0.2382  1.0184
 4112SOL    HW123265   8.691   0.438   2.627  0.1387 -0.5070  0.2989
 4112SOL    HW223266   8.789   0.447   2.497  1.9948 -1.4440  1.5974
 4113SOL     OW23267   0.823   8.590   3.239  0.0467 -0.1698 -0.3117
 4113SOL    HW123268   0.736   8.550   3.267  1.3928 -3.1762 -0.1877
 4113SOL    HW223269   0.850   8.660   3.305 -1.5941 -0.1873  0.4073
 4114SOL     OW23270   9.949   0.909   0.534  0.2689 -0.2705  0.2656
 4114SOL    HW123271   9.890   0.988   0.517 -0.3371 -1.0285 -1.2646
 4114SOL    HW223272  10.019   0.933   0.602 -0.1572  1.4364  0.1160
 4115SOL     OW23273   4.751   3.781   1.981 -0.3111  0.0368 -0.0756
 4115SOL    HW123274   4.808   3.789   1.899 -0.3460  1.1285 -0.0093
 4115SOL    HW223275   4.678   3.850   1.976 -0.8819 -0.5374  0.4193
 4116SOL     OW23276   1.192   3.500   3.003  0.1856 -0.6050  0.1151
 4116SOL    HW123277   1.151   3.411   2.983  0.8223 -0.6420 -1.0918
 4116SOL    HW223278   1.132   3.572   2.970 -0.8551 -0.5463  2.0897
 4117SOL     OW23279   3.446   4.009   5.153  0.2025 -0.6930  0.1449
 4117SOL    HW123280   3.538   3.999   5.191 -0.3217 -0.0878  1.6096
 4117SOL    HW223281   3.406   4.095   5.185 -0.1416 -0.0170 -2.0544
 4118SOL     OW23282   2.357   9.614   3.559 -0.1929 -0.3525 -0.1895
 4118SOL    HW123283   2.284   9.546   3.564  0.8612 -1.4167  0.7817
 4118SOL    HW223284   2.445   9.570   3.574  0.7111  0.8482 -1.8025
 4119SOL     OW23285   5.899   0.134   3.636  0.1827  0.0728  0.1291
 4119SOL    HW123286   5.965   0.203   3.666  0.5556  0.2302 -1.0343
 4119SOL    HW223287   5.937   0.043   3.650  0.4501  0.1513 -0.0865
 4120SOL     OW23288   0.165   1.105   5.109  0.3625 -0.4509 -0.0888
 4120SOL    HW123289   0.258   1.114   5.144  0.4208 -1.0988 -0.0770
 4120SOL    HW223290   0.108   1.180   5.145  1.1527  0.6253 -1.0307
 4121SOL     OW23291   0.870   5.382   5.184  0.2874  0.1683 -0.4700
 4121SOL    HW123292   0.912   5.469   5.159  1.7149 -0.0092  1.2433
 4121SOL    HW223293   0.910   5.349   5.269 -2.0379 -0.9212  0.2410
 4122SOL     OW23294   8.632   2.179   4.603 -0.0706  0.0069 -0.1275
 4122SOL    HW123295   8.562   2.240   4.640  0.4371  1.3322 -1.2985
 4122SOL    HW223296   8.668   2.122   4.677 -1.5004  0.1758  0.7253
 4123SOL     OW23297   0.036   7.462   2.036 -0.4942 -0.1665 -1.0187
 4123SOL    HW123298  -0.005   7.496   2.120 -1.3745 -0.5161 -1.2951
 4123SOL    HW223299  -0.037   7.439   1.971  0.0443 -2.9263 -0.7044
 4124SOL     OW23300   1.908   1.185   0.418 -0.2756  0.2492  0.2423
 4124SOL    HW123301   1.836   1.134   0.371 -1.4897 -0.6493  2.9622
 4124SOL    HW223302   1.910   1.279   0.383 -1.7571 -0.1175 -0.9039
 4125SOL     OW23303   0.594   1.792   0.791 -0.3922 -0.1448  0.2257
 4125SOL    HW123304   0.520   1.825   0.733 -0.3076 -1.0004 -0.3913
 4125SOL    HW223305   0.674   1.849   0.779 -1.3073  1.5150  1.8032
 4126SOL     OW23306   7.161   3.964   5.115  0.1100  0.6790 -0.7478
 4126SOL    HW123307   7.220   4.038   5.082  0.7662 -0.5687 -2.4700
 4126SOL    HW223308   7.080   4.002   5.158  0.6434  2.4118 -1.2523
 4127SOL     OW23309   5.418   8.526   2.673  0.2762 -0.5627  0.3813
 4127SOL    HW123310   5.505   8.507   2.626  0.6830  2.0787  0.0078
 4127SOL    HW223311   5.383   8.615   2.643 -2.2486 -1.3252  1.0205
 4128SOL     OW23312   3.298   0.639   3.906  0.4185  0.1211 -0.0520
 4128SOL    HW123313   3.388   0.668   3.873  0.8551  0.1729  1.1445
 4128SOL    HW223314   3.309   0.558   3.964 -0.0449  1.3639  1.8245
 4129SOL     OW23315   3.040   6.399   1.570 -0.0170 -0.5322 -0.0941
 4129SOL    HW123316   3.100   6.448   1.634 -1.1970 -2.4481  2.5590
 4129SOL    HW223317   3.030   6.453   1.487  3.2631  1.0528  0.4418
 4130SOL     OW23318   8.611   3.959   2.781  0.6186  0.3975  0.0147
 4130SOL    HW123319   8.688   3.990   2.838  0.7100 -0.2726  0.2552
 4130SOL    HW223320   8.627   3.865   2.752  0.1202  0.4251 -0.3459
 4131SOL     OW23321   3.941   1.526   1.431  0.8290  0.1708 -0.2874
 4131SOL    HW123322   3.930   1.485   1.522  0.2386  0.7249 -0.0991
 4131SOL    HW223323   4.013   1.595   1.435 -0.6303  1.7024  0.3036
 4132SOL     OW23324   6.113   1.752   3.374 -0.4217 -0.7004  0.5666
 4132SOL    HW123325   6.088   1.755   3.278  0.2180 -2.9882  0.2926
 4132SOL    HW223326   6.044   1.701   3.425 -0.2505 -0.3523  1.1528
 4133SOL     OW23327   0.127   3.308   2.419 -0.1495 -0.0445 -0.3897
 4133SOL    HW123328   0.130   3.257   2.333 -0.2657  2.5926 -2.0332
 4133SOL    HW223329   0.220   3.334   2.445 -0.0810 -1.1960  0.4866
 4134SOL     OW23330   9.316   5.555   4.223 -0.1819 -0.5537 -0.0812
 4134SOL    HW123331   9.402   5.542   4.175  0.4024  0.0021  0.7938
 4134SOL    HW223332   9.241   5.515   4.170  0.4318  0.1160 -1.4726
 4135SOL     OW23333   0.627   0.044   5.568 -0.4147  0.3734  0.1476
 4135SOL    HW123334   0.597  -0.031   5.627 -0.3117  0.0061 -0.2638
 4135SOL    HW223335   0.704   0.014   5.512  0.8029  1.3514  1.2620
 4136SOL     OW23336   3.199   7.532   2.351  0.6615 -0.1047  0.0907
 4136SOL    HW123337   3.226   7.600   2.283 -0.6999 -1.7350 -2.1373
 4136SOL    HW223338   3.252   7.449   2.337 -1.7669 -1.5149 -0.9971
 4137SOL     OW23339   4.809   0.103   1.237 -1.0193  0.1106  0.8092
 4137SOL    HW123340   4.879   0.162   1.276  0.2193 -1.3210  0.7719
 4137SOL    HW223341   4.736   0.089   1.304 -0.5677  0.4197  1.3628
 4138SOL     OW23342   7.910   8.160   4.664  0.5213 -0.5919  0.4454
 4138SOL    HW123343   7.956   8.122   4.584  0.0555 -0.5586  0.1589
 4138SOL    HW223344   7.929   8.258   4.670  0.5170 -0.5856  0.3488
 4139SOL     OW23345   3.963   0.686   2.117  0.2270 -0.5778  0.1493
 4139SOL    HW123346   4.061   0.668   2.113  0.5410  0.7448  1.5541
 4139SOL    HW223347   3.946   0.772   2.165 -1.5982 -0.5011 -0.5717
 4140SOL     OW23348   9.492   8.502   2.101  0.2149 -0.1290  0.1301
 4140SOL    HW123349   9.466   8.406   2.103 -1.9794  0.4371  0.6579
 4140SOL    HW223350   9.450   8.550   2.178  0.5266  1.4261 -0.6322
 4141SOL     OW23351   5.685   0.708   4.780 -0.0331  0.2707 -0.0565
 4141SOL    HW123352   5.669   0.744   4.689  0.0626 -0.0073 -0.1860
 4141SOL    HW223353   5.698   0.609   4.775  1.0963  0.3960  0.1108
 4142SOL     OW23354   4.780   4.645   1.855 -0.0134 -0.1206  0.4053
 4142SOL    HW123355   4.700   4.608   1.902 -0.9878  1.4299 -0.0051
 4142SOL    HW223356   4.758   4.660   1.759  0.4593  1.2349  0.5030
 4143SOL     OW23357   2.007   6.699   4.845  0.2694 -0.4171  0.5655
 4143SOL    HW123358   1.983   6.605   4.820  2.6067 -0.7283 -0.6953
 4143SOL    HW223359   2.045   6.746   4.765 -1.3923  1.8051  1.0349
 4144SOL     OW23360   3.369   6.814   4.969  0.4019 -0.3382 -0.5401
 4144SOL    HW123361   3.456   6.863   4.973  0.6221 -0.6198 -1.5555
 4144SOL    HW223362   3.379   6.734   4.910  0.0663 -1.6718  1.1763
 4145SOL     OW23363   4.824   7.571   3.171  0.0056 -0.2432 -0.0193
 4145SOL    HW123364   4.831   7.668   3.147 -0.3328  0.5563  2.9015
 4145SOL    HW223365   4.899   7.521   3.128 -0.0466  1.2210 -1.8826
 4146SOL     OW23366   8.465   6.300   1.956 -0.1055  0.3148  0.2360
 4146SOL    HW123367   8.543   6.241   1.973  0.5838  1.0573 -0.2684
 4146SOL    HW223368   8.489   6.395   1.977 -1.2570  0.3973  1.2320
 4147SOL     OW23369   8.949   6.600   3.845 -0.0773 -0.1967 -0.3370
 4147SOL    HW123370   8.928   6.695   3.871  0.2270 -0.4516  0.8600
 4147SOL    HW223371   9.045   6.581   3.866 -0.3126 -0.9725  0.0333
 4148SOL     OW23372   9.934   3.884   3.091 -0.3770  0.0798 -0.7085
 4148SOL    HW123373  10.015   3.906   3.036 -0.8229  1.9246 -0.6381
 4148SOL    HW223374   9.930   3.944   3.170 -2.3642  0.6734 -1.2376
 4149SOL     OW23375   2.472   3.082   1.454 -0.0549 -0.1973  0.5867
 4149SOL    HW123376   2.389   3.112   1.408  0.9354 -0.1444 -1.2271
 4149SOL    HW223377   2.552   3.116   1.405  1.0495 -0.7762  1.9332
 4150SOL     OW23378   9.500   5.555   3.373 -0.0046 -0.0320 -0.1986
 4150SOL    HW123379   9.462   5.562   3.281 -2.9399  0.1571  0.9558
 4150SOL    HW223380   9.507   5.458   3.398 -2.2551 -0.0517  0.5116
 4151SOL     OW23381   0.159   9.357   2.000  0.4776  0.5614 -0.0442
 4151SOL    HW123382   0.153   9.350   1.901  0.2857  0.2034 -0.0072
 4151SOL    HW223383   0.216   9.436   2.024  0.9477  0.3451 -0.4374
 4152SOL     OW23384   0.862   5.841   2.671 -0.6474  0.2297 -0.0110
 4152SOL    HW123385   0.917   5.819   2.751 -0.7066 -1.0073 -0.2893
 4152SOL    HW223386   0.802   5.918   2.692  0.3725  0.8598  0.6542
 4153SOL     OW23387   6.800   9.959   3.805 -0.2158 -0.3626 -0.5535
 4153SOL    HW123388   6.739  10.020   3.856 -1.5335 -0.8530 -1.5111
 4153SOL    HW223389   6.821   9.879   3.860 -0.1687 -0.0277 -0.0837
 4154SOL     OW23390   9.645   5.960   4.456 -0.3444  0.1045 -0.0036
 4154SOL    HW123391   9.586   6.040   4.469  1.7504  1.4988  1.2496
 4154SOL    HW223392   9.735   5.990   4.425 -0.1780 -1.9771 -1.6461
 4155SOL     OW23393   2.770   0.581   4.343 -0.8612  0.9120 -0.6642
 4155SOL    HW123394   2.846   0.579   4.408  0.0306 -1.6415 -1.7258
 4155SOL    HW223395   2.690   0.621   4.388  0.7292  2.4889  0.8587
 4156SOL     OW23396   0.569   8.700   0.611  0.3573  0.3629 -0.0808
 4156SOL    HW123397   0.663   8.675   0.636 -0.0437 -1.6654 -0.5137
 4156SOL    HW223398   0.507   8.625   0.636 -1.3019  2.0859  1.1363
 4157SOL     OW23399   5.951   7.666   3.290 -0.3473  0.0985  0.7040
 4157SOL    HW123400   5.889   7.593   3.261 -1.1385  0.6097  1.1123
 4157SOL    HW223401   5.989   7.645   3.380  1.7684 -1.2731 -0.4753
 4158SOL     OW23402   1.579   3.469   4.493 -0.0060 -0.4321  0.1335
 4158SOL    HW123403   1.582   3.493   4.590 -1.9282 -3.2807  0.9559
 4158SOL    HW223404   1.580   3.369   4.483 -2.3370 -0.2471 -2.6627
 4159SOL     OW23405   4.362   0.576   5.484  0.0226  0.1189  0.2757
 4159SOL    HW123406   4.412   0.626   5.414 -2.6409 -0.0408 -1.7995
 4159SOL    HW223407   4.340   0.639   5.559  0.3335  1.0080 -0.3597
 4160SOL     OW23408   9.914   1.539   3.240 -0.1150  0.2718  0.2961
 4160SOL    HW123409   9.925   1.604   3.164 -0.2388 -0.2618 -0.1854
 4160SOL    HW223410   9.838   1.477   3.220  0.3113 -0.3365  0.5223
 4161SOL     OW23411   8.538   5.536   3.478 -0.5385  0.6244 -0.1613
 4161SOL    HW123412   8.621   5.587   3.456  0.7624 -1.1461  0.4413
 4161SOL    HW223413   8.514   5.477   3.402 -1.5215  1.4730 -0.5123
 4162SOL     OW23414   2.378   4.249   5.133  0.0271  0.3378 -0.6864
 4162SOL    HW123415   2.290   4.271   5.091 -0.6767 -0.5616  0.2852
 4162SOL    HW223416   2.366   4.240   5.232  1.5052  1.6825 -0.3617
 4163SOL     OW23417   3.233   1.235   1.135  0.2317 -0.1082 -0.6106
 4163SOL    HW123418   3.228   1.325   1.179 -0.8110 -0.2219 -0.4856
 4163SOL    HW223419   3.299   1.178   1.184  0.1349  0.2444 -0.0582
 4164SOL     OW23420   4.039   2.867   0.259 -0.0880 -0.6499  0.6120
 4164SOL    HW123421   4.064   2.870   0.356  0.7296  0.7427  0.3629
 4164SOL    HW223422   4.121   2.881   0.203 -1.0024  1.4387 -0.2478
 4165SOL     OW23423   7.969   3.644   5.113 -0.2009  0.1316 -0.1064
 4165SOL    HW123424   7.889   3.676   5.164  0.1671  1.6567 -0.4402
 4165SOL    HW223425   7.990   3.550   5.138 -1.7456 -0.0750  0.4165
 4166SOL     OW23426   1.430   7.465   4.266  0.0354  0.4361  0.0665
 4166SOL    HW123427   1.471   7.492   4.179  1.5278 -0.5378  0.4480
 4166SOL    HW223428   1.333   7.444   4.252  0.4251 -0.3770 -1.5003
 4167SOL     OW23429   8.507   7.564   5.118  0.1777 -0.1622  0.1397
 4167SOL    HW123430   8.514   7.512   5.203 -0.5579 -1.6294 -0.6830
 4167SOL    HW223431   8.432   7.630   5.126 -0.5741 -1.0132  0.2662
 4168SOL     OW23432   1.245   0.941   3.430 -0.2706  0.4929 -0.4727
 4168SOL    HW123433   1.188   1.023   3.439  0.3156  0.7699  0.8736
 4168SOL    HW223434   1.216   0.888   3.350 -1.3717  1.4458 -0.7090
 4169SOL     OW23435   2.755   4.227   2.574  0.0452  0.4870 -0.2728
 4169SOL    HW123436   2.823   4.299   2.562  0.9851 -0.2267  0.6888
 4169SOL    HW223437   2.764   4.159   2.501  1.7071 -0.6441  0.9417
 4170SOL     OW23438   2.431   0.625   2.464  0.3459  0.1300  0.4095
 4170SOL    HW123439   2.418   0.693   2.537  0.2844  0.8814 -0.2916
 4170SOL    HW223440   2.376   0.544   2.484 -0.7567  0.8898  0.4966
 4171SOL     OW23441   2.504   6.508   1.028  0.0913  0.1167  0.0728
 4171SOL    HW123442   2.498   6.445   0.951  0.2510  0.4175 -0.1876
 4171SOL    HW223443   2.491   6.602   0.996  0.9083  0.3106  0.2954
 4172SOL     OW23444   2.664   5.169   0.119 -0.4229 -0.0205 -0.5741
 4172SOL    HW123445   2.687   5.214   0.033 -0.1959  2.1849  0.5927
 4172SOL    HW223446   2.618   5.235   0.179 -0.5069 -1.5063  1.0162
 4173SOL     OW23447   3.571   4.394   1.933  0.1733  0.3795  0.3582
 4173SOL    HW123448   3.560   4.426   1.839  2.1297  0.6525  0.2094
 4173SOL    HW223449   3.558   4.470   1.996 -0.5950  0.3075  0.2974
 4174SOL     OW23450   7.980   2.560   3.739  0.1031 -0.0713 -0.0564
 4174SOL    HW123451   8.025   2.604   3.817  0.1711 -1.7756  0.8699
 4174SOL    HW223452   8.046   2.550   3.664  0.6257 -0.3800  0.4394
 4175SOL     OW23453   3.104   9.687   4.450  0.3693 -0.0381  0.3988
 4175SOL    HW123454   3.020   9.690   4.503  0.1441 -0.0110  0.0423
 4175SOL    HW223455   3.095   9.743   4.368  0.3580 -0.8695 -0.1780
 4176SOL     OW23456   5.460   9.413   2.710  0.4675  0.4952 -0.1925
 4176SOL    HW123457   5.523   9.417   2.788 -0.1286 -2.0619  0.4725
 4176SOL    HW223458   5.495   9.347   2.643 -0.1116  1.1128 -1.1044
 4177SOL     OW23459   3.634   1.287   2.339 -0.2361  0.1957 -0.8152
 4177SOL    HW123460   3.660   1.300   2.243 -0.8638  0.6413 -0.9259
 4177SOL    HW223461   3.542   1.249   2.344 -0.0590 -0.1820 -0.3929
 4178SOL     OW23462   0.499   5.199   1.230 -0.0238 -0.6958 -0.1925
 4178SOL    HW123463   0.563   5.133   1.268  1.8915  1.3026  0.1566
 4178SOL    HW223464   0.440   5.234   1.303 -1.9176 -2.9152 -0.6054
 4179SOL     OW23465   5.757   1.697   3.071 -0.3972 -0.0910  0.0350
 4179SOL    HW123466   5.697   1.708   3.150 -1.5931  0.3264 -0.9130
 4179SOL    HW223467   5.784   1.787   3.037 -1.3137 -0.2417 -1.0947
 4180SOL     OW23468   3.650   2.363   0.929 -0.0003  0.0429  0.0985
 4180SOL    HW123469   3.717   2.333   0.997 -0.1383 -0.6135 -0.0454
 4180SOL    HW223470   3.665   2.313   0.844  0.1825  0.8773 -0.3551
 4181SOL     OW23471   1.410   3.682   4.425 -0.1916 -0.0869 -0.0496
 4181SOL    HW123472   1.467   3.600   4.436  1.4178  0.9901 -0.1709
 4181SOL    HW223473   1.365   3.702   4.512  0.0963 -0.6034  0.2265
 4182SOL     OW23474   2.188   0.518   3.112  0.6239  0.8172  0.0758
 4182SOL    HW123475   2.095   0.528   3.078 -0.1575  0.1148  1.9772
 4182SOL    HW223476   2.217   0.603   3.157 -0.3602 -0.1011  2.4978
 4183SOL     OW23477   9.774   0.279   4.535 -0.1801  0.2753 -0.2570
 4183SOL    HW123478   9.843   0.332   4.584  1.0360 -1.0835 -0.4846
 4183SOL    HW223479   9.740   0.206   4.594 -1.1164  0.6728 -0.2950
 4184SOL     OW23480   6.568   0.464   1.544  0.0492 -0.0402  0.1695
 4184SOL    HW123481   6.512   0.382   1.535  1.5587 -0.9089 -1.4071
 4184SOL    HW223482   6.594   0.476   1.640 -3.1307  0.6019  1.0098
 4185SOL     OW23483   3.296   0.763   2.237 -0.4539  0.4059  0.0205
 4185SOL    HW123484   3.337   0.711   2.162  0.1903  0.6002  0.2341
 4185SOL    HW223485   3.326   0.858   2.232  1.1527  0.0153  1.6484
 4186SOL     OW23486   8.041   3.139   1.590 -0.2403 -0.1208  0.3037
 4186SOL    HW123487   8.140   3.141   1.608  0.2410  1.6591 -2.2879
 4186SOL    HW223488   8.020   3.064   1.529 -0.2552  0.4265 -0.3689
 4187SOL     OW23489   5.182   7.930   3.616  0.0036 -0.1426 -0.1524
 4187SOL    HW123490   5.271   7.936   3.572 -0.2841 -0.0753 -0.7377
 4187SOL    HW223491   5.156   7.834   3.628  0.5286 -0.1679  0.7916
 4188SOL     OW23492   8.443   3.065   0.420 -0.0218  0.2823 -0.0517
 4188SOL    HW123493   8.347   3.042   0.404  0.4760 -1.4872 -0.6509
 4188SOL    HW223494   8.486   2.992   0.474  0.9475  1.1279  0.3304
 4189SOL     OW23495   8.475   7.241   5.393 -0.3172  0.1224 -0.8703
 4189SOL    HW123496   8.501   7.337   5.388 -0.4840  0.1535 -1.1389
 4189SOL    HW223497   8.515   7.191   5.316 -0.3311 -0.0022 -0.7977
 4190SOL     OW23498   9.097   8.621   5.605  0.2165 -0.1499  0.1029
 4190SOL    HW123499   9.187   8.659   5.627  0.5317 -0.4175 -0.7174
 4190SOL    HW223500   9.039   8.692   5.566  0.3124 -0.1481 -0.0370
 4191SOL     OW23501   3.749   8.757   1.039 -0.1977  0.4762 -0.2639
 4191SOL    HW123502   3.684   8.683   1.023 -0.6030  0.8487 -0.3438
 4191SOL    HW223503   3.824   8.724   1.096 -1.1441  0.3905  0.9494
 4192SOL     OW23504   2.739   1.020   1.439  0.0356  0.1144 -0.2898
 4192SOL    HW123505   2.649   1.056   1.417  0.3217  1.3031  0.4917
 4192SOL    HW223506   2.737   0.978   1.530  0.1111 -0.4451 -0.5418
 4193SOL     OW23507   9.197   6.657   0.825  0.1331  0.4370 -0.1580
 4193SOL    HW123508   9.222   6.676   0.730  3.6496  0.0417  0.6169
 4193SOL    HW223509   9.149   6.569   0.830 -3.8386  2.3642 -1.9996
 4194SOL     OW23510   0.275   1.986   3.481  0.0960  0.4546  0.0756
 4194SOL    HW123511   0.182   1.961   3.505 -0.2074  1.6395  0.1638
 4194SOL    HW223512   0.339   1.938   3.542 -0.3492 -1.7776 -1.1694
 4195SOL     OW23513   2.022   8.183   2.984  0.2813 -0.4909  0.7320
 4195SOL    HW123514   1.982   8.094   2.961 -0.1083 -0.3022  0.6835
 4195SOL    HW223515   2.056   8.181   3.078  0.6300 -0.8203  0.5978
 4196SOL     OW23516   5.305   8.444   2.216 -0.4838 -0.4308 -0.1489
 4196SOL    HW123517   5.269   8.488   2.133 -0.2801 -0.3150 -0.1776
 4196SOL    HW223518   5.229   8.411   2.271 -0.5669 -2.1124 -1.2439
 4197SOL     OW23519   1.448   1.705   3.409  0.2214 -0.1650 -0.0381
 4197SOL    HW123520   1.526   1.648   3.384  0.3048 -0.6322  1.2594
 4197SOL    HW223521   1.475   1.769   3.480 -0.8957 -1.1715  1.3126
 4198SOL     OW23522   2.340   8.158   2.464  0.2011  0.0712 -0.6605
 4198SOL    HW123523   2.339   8.178   2.366  1.8629 -1.6114 -1.0494
 4198SOL    HW223524   2.384   8.234   2.513  0.3858  0.4098 -1.3423
 4199SOL     OW23525   9.602   7.193   3.827  0.0893 -0.3023 -0.3589
 4199SOL    HW123526   9.551   7.228   3.749  1.7868 -0.4466 -1.5505
 4199SOL    HW223527   9.658   7.115   3.799  1.8769  0.5824  0.6483
 4200SOL     OW23528   2.589   4.831   1.366 -0.1886  0.0142  0.6589
 4200SOL    HW123529   2.635   4.743   1.361  0.9970  0.5205  2.2062
 4200SOL    HW223530   2.648   4.902   1.328 -0.1891  0.4825  1.5083
 4201SOL     OW23531   4.931   1.289   1.185  0.1949 -0.1820  0.0262
 4201SOL    HW123532   5.026   1.261   1.172  0.0453 -0.5478 -0.3169
 4201SOL    HW223533   4.924   1.388   1.184  0.8132 -0.1182  1.7738
 4202SOL     OW23534   3.351   1.368   2.281 -0.0284  0.1170  0.1035
 4202SOL    HW123535   3.286   1.388   2.355 -0.0379  0.1180  0.0949
 4202SOL    HW223536   3.349   1.441   2.214  0.8036  0.6788  0.6763
 4203SOL     OW23537   1.904   9.706   3.908 -0.3891 -0.2913  0.4947
 4203SOL    HW123538   1.917   9.729   3.811  0.1036 -0.8434  0.4210
 4203SOL    HW223539   1.991   9.715   3.956 -0.3630 -1.1684  0.6282
 4204SOL     OW23540   0.844   8.302   4.956  0.1395  0.3823 -0.5193
 4204SOL    HW123541   0.843   8.384   4.898 -0.6503  0.6173 -0.1765
 4204SOL    HW223542   0.933   8.257   4.948 -0.0572  0.2532 -2.1437
 4205SOL     OW23543   9.672   7.013   5.398 -0.0058 -0.2752  0.1442
 4205SOL    HW123544   9.632   7.064   5.322 -0.6918 -1.7490 -0.4982
 4205SOL    HW223545   9.734   6.943   5.362  2.5691  1.4246  1.0933
 4206SOL     OW23546   7.535   9.171   1.067  0.3106  0.2206 -0.3453
 4206SOL    HW123547   7.628   9.174   1.104 -0.6427  0.5083  2.1305
 4206SOL    HW223548   7.513   9.259   1.025  0.9003  0.3888 -0.3176
 4207SOL     OW23549   6.139   9.888   4.610  0.2536  0.1521  0.2212
 4207SOL    HW123550   6.041   9.885   4.628  0.4442  0.0226  1.2737
 4207SOL    HW223551   6.165   9.981   4.583 -0.4217 -0.1882 -1.6953
 4208SOL     OW23552   8.181   8.716   2.230  0.2678  0.8706  0.2647
 4208SOL    HW123553   8.163   8.621   2.204 -0.8019  0.4394  2.4443
 4208SOL    HW223554   8.147   8.777   2.158  1.4331 -0.3843 -1.3952
 4209SOL     OW23555   4.721   6.366   1.425 -0.2036 -0.2303 -0.1000
 4209SOL    HW123556   4.770   6.341   1.508  1.0565  0.5352 -0.5948
 4209SOL    HW223557   4.767   6.327   1.346 -0.1723  0.7922 -0.5977
 4210SOL     OW23558   4.064   8.931   4.634 -0.5369  0.2160 -0.5187
 4210SOL    HW123559   4.105   8.929   4.725 -1.5496  0.7647 -0.0408
 4210SOL    HW223560   4.092   8.850   4.583  0.2573  0.0450  0.1832
 4211SOL     OW23561   4.013   3.670   1.709 -0.0284  0.9168  0.1904
 4211SOL    HW123562   3.943   3.608   1.674  0.1870  1.6632 -1.6023
 4211SOL    HW223563   4.100   3.651   1.664 -0.3439  3.6235 -1.7073
 4212SOL     OW23564   1.500   5.454   5.118 -0.5261 -0.0196  0.5400
 4212SOL    HW123565   1.558   5.508   5.179 -0.8617 -0.0470  0.8871
 4212SOL    HW223566   1.453   5.515   5.054 -1.1521  0.1457  1.1392
 4213SOL     OW23567   5.135   2.749   3.159 -0.5209  0.1119 -0.1258
 4213SOL    HW123568   5.039   2.732   3.135 -0.6680 -0.4450  0.8380
 4213SOL    HW223569   5.139   2.800   3.245  0.0272  1.1965 -0.7770
 4214SOL     OW23570   8.809   1.170   0.971  0.1088 -0.1528  0.2351
 4214SOL    HW123571   8.806   1.254   0.917 -2.6344 -1.8601 -2.4349
 4214SOL    HW223572   8.897   1.124   0.956  0.9627  1.3833  0.4274
 4215SOL     OW23573   1.901   8.607   1.415 -0.0936  0.1440  0.1336
 4215SOL    HW123574   1.888   8.562   1.327  0.3606  0.1923  0.0388
 4215SOL    HW223575   1.922   8.538   1.485  1.0809  0.2479 -0.1084
 4216SOL     OW23576   7.150   7.879   3.387  0.4656  0.0160  0.1151
 4216SOL    HW123577   7.227   7.829   3.348  0.3160  1.0582 -1.5333
 4216SOL    HW223578   7.065   7.853   3.340  0.0906  0.3414  0.6015
 4217SOL     OW23579   3.849   7.176   1.533 -0.2539  0.0950 -0.3153
 4217SOL    HW123580   3.904   7.197   1.453  0.9581 -0.2141  0.4248
 4217SOL    HW223581   3.753   7.194   1.513  0.1269  0.7940 -1.5653
 4218SOL     OW23582   3.741   1.903   2.071 -0.2664  0.1061  0.2349
 4218SOL    HW123583   3.737   1.896   2.170 -0.3932 -0.8981  0.1608
 4218SOL    HW223584   3.766   1.996   2.045 -1.7927  0.7973  1.1839
 4219SOL     OW23585   5.034   3.442   2.542 -0.1992 -0.1151 -0.0353
 4219SOL    HW123586   5.105   3.488   2.489  0.2210 -0.4661  0.2275
 4219SOL    HW223587   5.026   3.484   2.632 -0.5863  0.1725 -0.2048
 4220SOL     OW23588   3.685   6.311   0.816  0.0970 -0.2067 -0.2887
 4220SOL    HW123589   3.613   6.270   0.871 -0.3481 -0.2957 -0.9262
 4220SOL    HW223590   3.661   6.305   0.719 -0.0557  1.6683 -0.3992
 4221SOL     OW23591   9.797   3.808   3.550 -0.3140 -0.5137 -0.0971
 4221SOL    HW123592   9.747   3.779   3.631  0.2405 -1.1894  0.0063
 4221SOL    HW223593   9.894   3.821   3.573 -0.7196  2.4554  0.1171
 4222SOL     OW23594   4.292   7.806   2.450 -0.3894  0.0650 -0.4149
 4222SOL    HW123595   4.284   7.832   2.546 -0.0063  0.4231 -0.4807
 4222SOL    HW223596   4.206   7.764   2.420  0.5268 -2.8813  0.9313
 4223SOL     OW23597   9.494   5.441   3.127 -0.2086  0.6330  0.0318
 4223SOL    HW123598   9.473   5.385   3.207 -2.2486  1.5832  0.1852
 4223SOL    HW223599   9.582   5.412   3.089  0.3757 -0.4058  2.0853
 4224SOL     OW23600   2.582   4.607   4.183 -0.1346  0.5674 -0.3505
 4224SOL    HW123601   2.659   4.546   4.163 -0.7083 -0.0650 -0.6458
 4224SOL    HW223602   2.617   4.698   4.203  0.8597 -0.2623  1.8374
 4225SOL     OW23603   2.625   0.628   5.508  0.7135  0.2325  0.3945
 4225SOL    HW123604   2.659   0.660   5.596 -1.9018  1.2834  1.0645
 4225SOL    HW223605   2.556   0.557   5.523  0.6109  0.0616 -0.8324
 4226SOL     OW23606   7.678   9.732   2.569 -0.3962  0.5706 -0.3942
 4226SOL    HW123607   7.712   9.764   2.481  0.1363 -0.8842 -0.7242
 4226SOL    HW223608   7.753   9.730   2.635 -0.5320  0.4657 -0.2412
 4227SOL     OW23609   0.883   4.272   0.620  0.5321 -0.3056  0.8149
 4227SOL    HW123610   0.833   4.332   0.682  1.0831  0.6542  0.3498
 4227SOL    HW223611   0.818   4.216   0.568  0.0339 -0.4457  1.5820
 4228SOL     OW23612   1.052   9.780   4.969 -0.8645 -0.0560  0.3707
 4228SOL    HW123613   1.141   9.776   5.013 -0.3597  0.5537 -0.5662
 4228SOL    HW223614   1.049   9.860   4.908 -1.4801 -0.9692 -0.8125
 4229SOL     OW23615   1.720   2.073   4.571  0.1016  0.2346  0.2809
 4229SOL    HW123616   1.737   2.007   4.644 -1.5915  0.3657  0.8310
 4229SOL    HW223617   1.686   2.158   4.611  0.0785  0.6422 -0.5924
 4230SOL     OW23618   8.065   0.149   3.667 -0.1653  0.4747 -0.1226
 4230SOL    HW123619   8.027   0.066   3.709  0.8594 -0.3671 -0.8295
 4230SOL    HW223620   8.104   0.207   3.737 -0.5029  0.1567  0.3350
 4231SOL     OW23621   6.569   8.620   2.301 -0.2220 -0.3947  0.1523
 4231SOL    HW123622   6.655   8.663   2.328  0.7141  0.6085 -4.0115
 4231SOL    HW223623   6.588   8.537   2.248 -1.6659  1.2912 -3.1373
 4232SOL     OW23624   1.019   6.913   5.431 -0.6195  0.0242  0.1689
 4232SOL    HW123625   1.092   6.911   5.499 -0.3715  0.2501 -0.0858
 4232SOL    HW223626   1.058   6.934   5.341 -0.8835 -0.7568 -0.1262
 4233SOL     OW23627   2.736   5.986   5.069 -0.4644  0.1092  0.0539
 4233SOL    HW123628   2.722   5.965   5.166 -2.3476  0.2975 -0.1638
 4233SOL    HW223629   2.796   5.918   5.028 -2.1714 -1.7687  0.6216
 4234SOL     OW23630   0.531   9.232   3.142 -0.2738 -0.1308  0.5901
 4234SOL    HW123631   0.458   9.165   3.147  0.5855 -1.4312 -2.6578
 4234SOL    HW223632   0.492   9.324   3.136 -1.8122 -0.9005 -2.7923
 4235SOL     OW23633   1.319   0.123   4.230  0.3546 -0.3410  0.7941
 4235SOL    HW123634   1.300   0.214   4.192  3.6055  1.0129  2.1430
 4235SOL    HW223635   1.254   0.102   4.302 -0.6083  0.8064  0.2622
 4236SOL     OW23636   0.463   4.813   0.993 -0.0631 -0.1720  0.1760
 4236SOL    HW123637   0.419   4.901   0.978 -1.0625 -0.3768  1.7844
 4236SOL    HW223638   0.395   4.746   1.023  1.4364 -0.2073  3.8497
 4237SOL     OW23639   4.250   1.765   3.739 -0.0222 -0.3512 -0.3280
 4237SOL    HW123640   4.316   1.690   3.751 -1.8558 -1.5415  2.7635
 4237SOL    HW223641   4.158   1.731   3.756 -0.9863  2.4001  0.1271
 4238SOL     OW23642   9.292   0.396   0.375 -0.1473 -0.2116  0.3796
 4238SOL    HW123643   9.311   0.414   0.471 -0.8710 -0.5503  0.5926
 4238SOL    HW223644   9.378   0.380   0.326  0.2247  0.0140  0.9585
 4239SOL     OW23645   9.806   7.921   2.296  0.3392  0.2894 -0.0484
 4239SOL    HW123646   9.780   7.985   2.223  0.8945 -0.6254 -1.0580
 4239SOL    HW223647   9.724   7.891   2.344 -0.4033 -1.5951 -2.3867
 4240SOL     OW23648   1.766   6.401   0.042  0.3973  0.3888  0.4477
 4240SOL    HW123649   1.811   6.437  -0.039  0.1501  3.1956  1.5211
 4240SOL    HW223650   1.798   6.307   0.058 -0.8077 -0.9049 -3.8140
 4241SOL     OW23651   8.567   8.420   0.583  0.0086  0.0154  0.0844
 4241SOL    HW123652   8.635   8.479   0.627 -0.5142  0.3936  0.4028
 4241SOL    HW223653   8.590   8.324   0.599 -0.1785  0.1535  1.1901
 4242SOL     OW23654   2.191   4.304   1.143 -0.0152  0.0780  0.2857
 4242SOL    HW123655   2.266   4.238   1.150 -0.1289 -0.0492  0.3074
 4242SOL    HW223656   2.228   4.396   1.127  0.2301  0.2896  1.9841
 4243SOL     OW23657   0.139   4.293   4.717 -0.3702 -0.0331  0.1711
 4243SOL    HW123658   0.082   4.315   4.638 -0.9159  0.6155  0.7341
 4243SOL    HW223659   0.100   4.336   4.798  0.4634 -0.2845  0.7052
 4244SOL     OW23660   2.700   4.767   3.875 -0.0483 -0.2872  0.0128
 4244SOL    HW123661   2.776   4.831   3.889  0.8884 -0.6189 -3.1469
 4244SOL    HW223662   2.736   4.680   3.841 -1.6693 -1.1958  0.5628
 4245SOL     OW23663   5.084   1.275   2.989  0.2825  0.0005  0.5765
 4245SOL    HW123664   5.094   1.252   3.086 -1.3686 -0.9685  0.5311
 4245SOL    HW223665   4.995   1.244   2.956  1.9557 -2.2691 -1.9907
 4246SOL     OW23666   1.809   3.599   0.979 -0.4945 -0.0488  0.2215
 4246SOL    HW123667   1.783   3.508   0.946  0.3660 -0.2492  0.0935
 4246SOL    HW223668   1.873   3.590   1.055  0.1253  0.4572 -0.2316
 4247SOL     OW23669   3.382   8.851   1.020  0.0231  0.4230 -0.8046
 4247SOL    HW123670   3.478   8.854   1.050  0.0262 -2.4903 -0.3835
 4247SOL    HW223671   3.378   8.844   0.920  0.2958 -0.9448 -0.7234
 4248SOL     OW23672   4.492   1.835   5.059  0.1478 -0.5318 -0.0398
 4248SOL    HW123673   4.425   1.895   5.103  0.4069  0.6322 -1.1785
 4248SOL    HW223674   4.573   1.828   5.117  0.6812  1.3724 -0.5287
 4249SOL     OW23675   8.822   2.645   1.751  0.3407 -0.0388 -0.6364
 4249SOL    HW123676   8.752   2.575   1.769 -1.1179  1.6142  0.2691
 4249SOL    HW223677   8.909   2.615   1.790 -0.3951 -1.1266  0.2183
 4250SOL     OW23678   2.589   1.985   4.225  0.4263 -0.3322 -0.0663
 4250SOL    HW123679   2.668   1.927   4.202  0.3407  0.4613 -2.4261
 4250SOL    HW223680   2.615   2.048   4.298  1.6233 -0.8520 -0.0255
 4251SOL     OW23681   3.158   6.793   1.547  0.7227 -0.7677  0.5015
 4251SOL    HW123682   3.074   6.807   1.493  1.6937  1.6323 -0.4904
 4251SOL    HW223683   3.142   6.824   1.641  1.2188  2.2588 -0.3429
 4252SOL     OW23684   4.061   2.032   3.306 -0.1217 -0.0159 -0.4333
 4252SOL    HW123685   4.032   2.111   3.360  0.5957 -0.4050  0.5232
 4252SOL    HW223686   4.021   2.038   3.215 -1.7735  0.3700  0.3007
 4253SOL     OW23687   6.818   1.132   3.428  0.0826 -0.0519  0.3680
 4253SOL    HW123688   6.817   1.182   3.515 -0.9187 -1.2400  1.0614
 4253SOL    HW223689   6.865   1.045   3.441  0.3174 -0.0394 -0.4019
 4254SOL     OW23690   2.654   9.167   4.291  0.1047  0.0059 -0.9431
 4254SOL    HW123691   2.708   9.207   4.217  1.5033 -0.0178  0.0395
 4254SOL    HW223692   2.655   9.228   4.370 -0.0465 -0.7002 -0.3915
 4255SOL     OW23693   8.648   9.563   5.585 -0.1202  0.2005  0.4297
 4255SOL    HW123694   8.636   9.537   5.489 -0.6004 -1.0705  0.8222
 4255SOL    HW223695   8.686   9.655   5.590 -0.0886  0.2760 -0.9818
 4256SOL     OW23696   9.614   8.086   5.094 -0.3431 -0.0783  0.7642
 4256SOL    HW123697   9.696   8.070   5.039 -0.2492  1.3142  0.4917
 4256SOL    HW223698   9.542   8.022   5.066 -0.1491  0.3127 -0.6677
 4257SOL     OW23699   9.950   3.317   4.062 -0.2846  0.2243 -0.6421
 4257SOL    HW123700   9.945   3.335   4.160  0.6497  0.4100 -0.6260
 4257SOL    HW223701   9.904   3.391   4.013 -2.0879 -0.6390 -0.2888
 4258SOL     OW23702   3.474   9.698   5.064 -0.2266  0.1048 -0.1451
 4258SOL    HW123703   3.486   9.781   5.009 -0.8320  0.2313 -0.0903
 4258SOL    HW223704   3.556   9.641   5.057 -0.3922  0.0027 -1.3897
 4259SOL     OW23705   3.347   2.094   0.773  0.6573  0.1291 -0.0705
 4259SOL    HW123706   3.249   2.077   0.769  0.6124  0.3357  0.1590
 4259SOL    HW223707   3.373   2.159   0.701  0.7722 -0.6242 -0.7205
 4260SOL     OW23708   0.763   8.224   1.498  0.5505 -0.5888 -0.6702
 4260SOL    HW123709   0.690   8.243   1.433 -0.1125 -0.9000 -0.0328
 4260SOL    HW223710   0.724   8.218   1.590  1.5787  0.5989 -0.1477
 4261SOL     OW23711   2.646   2.982   0.308  0.2552  0.1648  0.7365
 4261SOL    HW123712   2.574   3.029   0.358 -3.2935 -1.1412 -2.8731
 4261SOL    HW223713   2.672   2.898   0.356 -1.1639  0.2810  1.7201
 4262SOL     OW23714   8.135   4.779   4.579 -0.3251 -0.3646  0.0817
 4262SOL    HW123715   8.099   4.847   4.515 -1.7911  1.3619  2.6593
 4262SOL    HW223716   8.060   4.722   4.612  0.1633 -0.2964  1.3398
 4263SOL     OW23717   9.133   3.878   4.719  0.2060  0.0178 -0.0425
 4263SOL    HW123718   9.079   3.961   4.705 -1.3164 -0.7265  1.1544
 4263SOL    HW223719   9.189   3.888   4.800  1.3336  0.5168 -0.8759
 4264SOL     OW23720   3.697   1.291   1.202  0.0376 -0.0407 -0.0896
 4264SOL    HW123721   3.719   1.384   1.233  1.4028 -0.0950 -0.8519
 4264SOL    HW223722   3.663   1.294   1.108 -1.2524 -0.1845  0.3586
 4265SOL     OW23723   8.734   3.910   3.765 -0.2501  0.3521 -0.6194
 4265SOL    HW123724   8.640   3.875   3.773  0.6872 -1.8989  1.1053
 4265SOL    HW223725   8.736   4.005   3.797 -1.6472 -0.1385  1.0400
 4266SOL     OW23726   0.504   2.863   1.018 -0.0569  0.0797 -0.3375
 4266SOL    HW123727   0.462   2.796   0.957 -0.0958  0.6426 -0.9301
 4266SOL    HW223728   0.433   2.916   1.064 -0.0449 -0.8562  0.7814
 4267SOL     OW23729   0.092   5.837   2.895 -0.5275 -0.2158 -0.0299
 4267SOL    HW123730   0.066   5.815   2.801 -0.2351  0.8047 -0.3625
 4267SOL    HW223731   0.011   5.847   2.951 -0.7396 -0.0255 -0.3674
 4268SOL     OW23732   2.086   8.103   0.267 -0.2591  0.1866  0.7993
 4268SOL    HW123733   1.991   8.074   0.279 -0.5025  0.3861 -0.6340
 4268SOL    HW223734   2.090   8.181   0.206  0.9367 -0.7175 -0.3105
 4269SOL     OW23735   2.381   7.770   0.399  0.3949  0.5973 -0.1031
 4269SOL    HW123736   2.383   7.766   0.299  0.1401  1.1928 -0.1366
 4269SOL    HW223737   2.334   7.854   0.427 -1.4004 -0.6004  0.5104
 4270SOL     OW23738   0.259   7.880   2.397  0.1077 -0.4098  0.0354
 4270SOL    HW123739   0.170   7.841   2.420  1.7896 -4.4279  0.2061
 4270SOL    HW223740   0.294   7.837   2.314  2.4524  0.1132  0.7043
 4271SOL     OW23741   7.816   1.480   2.898 -0.1507  0.1756 -0.4275
 4271SOL    HW123742   7.783   1.423   2.824  0.3300 -1.5745  0.6783
 4271SOL    HW223743   7.834   1.424   2.979  0.8168  1.8094  0.5359
 4272SOL     OW23744   8.376   7.702   1.186  0.3524  0.0753 -0.1081
 4272SOL    HW123745   8.287   7.744   1.168 -0.7089 -2.6085 -1.4740
 4272SOL    HW223746   8.396   7.704   1.284 -1.3377  0.4641  0.2378
 4273SOL     OW23747   9.038   8.905   4.879 -0.6049 -0.0556 -0.2949
 4273SOL    HW123748   8.950   8.911   4.832 -0.0965 -1.8733 -1.5584
 4273SOL    HW223749   9.024   8.912   4.978 -1.8374  2.4218 -0.6329
 4274SOL     OW23750   2.296   1.134   5.201  0.0885 -0.2300 -0.1688
 4274SOL    HW123751   2.216   1.148   5.259  0.4950 -1.4872  0.7396
 4274SOL    HW223752   2.367   1.202   5.223  0.3566 -0.8832  1.0467
 4275SOL     OW23753   4.777   4.323   5.354 -0.3946 -0.7561  0.3373
 4275SOL    HW123754   4.705   4.317   5.284 -0.3668  2.0410 -0.0114
 4275SOL    HW223755   4.735   4.345   5.442  0.0219  1.1712  0.0759
 4276SOL     OW23756   4.916   0.333   4.105  0.5557  0.3288 -0.4180
 4276SOL    HW123757   4.985   0.269   4.139  0.8505  1.0475  0.3456
 4276SOL    HW223758   4.844   0.282   4.058  0.6961 -0.5913  0.3372
 4277SOL     OW23759   6.228   0.625   5.009  0.4317 -0.4806  0.1472
 4277SOL    HW123760   6.315   0.655   4.969  0.9797 -1.5704  0.4849
 4277SOL    HW223761   6.155   0.633   4.941  0.6649  1.0869  0.0760
 4278SOL     OW23762   4.851   3.575   3.473 -0.2583 -0.2043 -0.2188
 4278SOL    HW123763   4.880   3.527   3.390  0.8205 -1.0998  0.6485
 4278SOL    HW223764   4.778   3.522   3.518  0.4042 -0.6592  0.3371
 4279SOL     OW23765   8.107   6.605   3.373  0.0094  0.2437 -0.1519
 4279SOL    HW123766   8.172   6.674   3.403  1.2297  0.0835 -2.3640
 4279SOL    HW223767   8.156   6.526   3.336 -1.4066 -0.8556  0.2654
 4280SOL     OW23768   6.432   0.664   2.110 -0.0119 -0.2447 -0.1795
 4280SOL    HW123769   6.379   0.748   2.112  0.8169  0.3460 -1.7595
 4280SOL    HW223770   6.484   0.654   2.195  0.5545  1.2923 -0.3349
 4281SOL     OW23771   2.241   6.077   5.202 -0.2851 -0.2197  0.4593
 4281SOL    HW123772   2.285   6.159   5.166 -0.9910  0.2272  0.5899
 4281SOL    HW223773   2.298   6.037   5.274 -0.3766  0.6937  1.0470
 4282SOL     OW23774   2.863   5.086   2.025 -0.8214  0.2315  0.0128
 4282SOL    HW123775   2.891   5.112   2.117  0.8844 -0.3486 -0.3242
 4282SOL    HW223776   2.786   5.144   1.995  0.2404  2.0979  0.8369
 4283SOL     OW23777   2.158   3.141   0.767 -0.5010  0.0949  0.0023
 4283SOL    HW123778   2.252   3.109   0.762  0.1258  1.7118  1.0465
 4283SOL    HW223779   2.110   3.118   0.682  1.2642  0.6556 -1.1573
 4284SOL     OW23780   5.907   0.537   2.530 -0.6713  0.2529  0.4581
 4284SOL    HW123781   5.896   0.567   2.625  2.9473  2.6428  0.2022
 4284SOL    HW223782   5.902   0.437   2.526  1.1793 -0.0098  3.4794
 4285SOL     OW23783   0.648   4.604   3.151 -0.3308  0.2720  0.2258
 4285SOL    HW123784   0.740   4.642   3.154 -0.6259  1.1557 -1.5092
 4285SOL    HW223785   0.641   4.528   3.216  1.9760 -0.6013 -0.5035
 4286SOL     OW23786   1.136   5.446   1.933  0.3410 -0.2254 -0.5156
 4286SOL    HW123787   1.110   5.521   1.993  0.7475  2.2761 -3.3308
 4286SOL    HW223788   1.166   5.368   1.988 -1.9612  0.9397  2.5269
 4287SOL     OW23789   2.882   1.689   1.625 -0.2111 -0.1067  0.3404
 4287SOL    HW123790   2.856   1.773   1.671 -0.1640 -0.9469  1.9365
 4287SOL    HW223791   2.979   1.693   1.600 -0.5785  0.9276 -0.9997
 4288SOL     OW23792   0.164   9.375   1.415  0.2965  0.3684  0.1203
 4288SOL    HW123793   0.175   9.332   1.326 -0.1632 -3.6642  1.8768
 4288SOL    HW223794   0.108   9.458   1.407 -1.0059 -0.7639 -3.0743
 4289SOL     OW23795   7.395   9.372   3.108 -0.6655 -0.4694  0.4098
 4289SOL    HW123796   7.459   9.411   3.174 -1.5514  1.9682 -0.1035
 4289SOL    HW223797   7.322   9.323   3.157  0.3956 -1.4133  1.0729
 4290SOL     OW23798   2.444   7.078   2.601 -0.7733 -0.1376  0.1396
 4290SOL    HW123799   2.352   7.077   2.640 -0.5844 -0.8907  0.5864
 4290SOL    HW223800   2.491   6.993   2.625  0.6093  0.9239  1.2674
 4291SOL     OW23801   1.296   3.186   0.172 -0.1072 -0.2185 -0.0990
 4291SOL    HW123802   1.270   3.145   0.259 -2.2896  0.0505 -0.5951
 4291SOL    HW223803   1.215   3.197   0.114  1.0064  1.3500 -1.4311
 4292SOL     OW23804   8.963   7.116   4.664 -0.4091  0.7207 -0.8082
 4292SOL    HW123805   8.952   7.177   4.743 -1.6264  1.0166 -1.1881
 4292SOL    HW223806   8.873   7.079   4.638  0.5209 -2.7771  0.6283
 4293SOL     OW23807   5.913   1.108   1.666 -0.0853 -0.1318  0.6391
 4293SOL    HW123808   5.817   1.132   1.672 -0.1037 -0.1856  0.5497
 4293SOL    HW223809   5.922   1.010   1.649 -0.0448  0.2577 -1.6745
 4294SOL     OW23810   7.616   3.944   4.703  0.1382  0.5547 -0.2677
 4294SOL    HW123811   7.585   3.849   4.700 -1.5774  1.1100 -0.8674
 4294SOL    HW223812   7.700   3.953   4.650 -0.6519 -0.2841 -1.7044
 4295SOL     OW23813   0.039   8.828   3.439  0.1109  0.0428  0.0166
 4295SOL    HW123814   0.022   8.738   3.399  0.6108 -0.5211  1.0666
 4295SOL    HW223815   0.076   8.889   3.369  1.5737 -1.1175 -0.2340
 4296SOL     OW23816   6.935   9.692   2.957  0.2991 -0.0168  0.0395
 4296SOL    HW123817   7.025   9.648   2.961  0.7581  0.8946 -0.0691
 4296SOL    HW223818   6.908   9.720   3.049  0.7790  0.9982 -0.1257
 4297SOL     OW23819   1.307   1.387   5.453  0.2348 -0.4473  0.6901
 4297SOL    HW123820   1.306   1.348   5.361  1.5326 -2.0052  1.3199
 4297SOL    HW223821   1.378   1.343   5.508  0.3964  1.4130  2.0412
 4298SOL     OW23822   6.016   0.624   2.297 -0.1119 -0.1088  0.4623
 4298SOL    HW123823   5.967   0.613   2.384 -0.4667 -0.3635  0.2332
 4298SOL    HW223824   6.082   0.549   2.287  1.5491  1.1787  1.5630
 4299SOL     OW23825   5.036   8.089   3.776  0.3453  0.1622  0.4424
 4299SOL    HW123826   4.971   8.144   3.723  0.8164  0.3662  0.0708
 4299SOL    HW223827   5.081   8.023   3.716 -0.7246 -1.1002  1.0324
 4300SOL     OW23828   8.595   2.659   4.029  0.2464  0.4314  0.7582
 4300SOL    HW123829   8.597   2.573   3.977 -1.0021  0.4535  0.6536
 4300SOL    HW223830   8.685   2.676   4.069  0.6820 -0.5926  0.2340
 4301SOL     OW23831   7.767   0.717   5.511 -0.0179 -0.1050  0.3236
 4301SOL    HW123832   7.699   0.786   5.487 -2.0447 -2.0081  0.4623
 4301SOL    HW223833   7.772   0.648   5.439  4.8868  2.2139 -1.7706
 4302SOL     OW23834   2.057   1.966   2.574 -0.4048  0.7038 -0.2721
 4302SOL    HW123835   2.104   2.042   2.529 -2.0888  1.5409 -0.6661
 4302SOL    HW223836   2.041   1.893   2.508  0.1665  0.4941 -0.1817
 4303SOL     OW23837   3.937   1.917   3.084 -0.7526  0.0812 -0.1202
 4303SOL    HW123838   3.878   1.862   3.143  0.9911 -1.3671  0.3106
 4303SOL    HW223839   3.991   1.857   3.026 -1.0188  1.4452 -1.8114
 4304SOL     OW23840   0.788   6.247   1.871  0.1725  0.0696  0.3097
 4304SOL    HW123841   0.728   6.326   1.886 -0.7856 -0.2749 -1.5238
 4304SOL    HW223842   0.883   6.277   1.871 -0.1761  1.2074 -0.2309
 4305SOL     OW23843   9.741   9.680   1.207 -0.4066 -0.2381  0.6765
 4305SOL    HW123844   9.747   9.755   1.142 -1.4395 -1.7232 -1.1753
 4305SOL    HW223845   9.691   9.710   1.288 -3.0021  0.3882 -1.0966
 4306SOL     OW23846   9.226   0.256   5.623  0.3947 -0.1474 -0.1002
 4306SOL    HW123847   9.242   0.190   5.696 -2.5296 -0.1579  0.6060
 4306SOL    HW223848   9.251   0.348   5.655 -1.2963 -0.0833  1.1490
 4307SOL     OW23849   7.505   8.903   4.775 -0.7964 -0.3285  0.2009
 4307SOL    HW123850   7.558   8.966   4.832 -2.0432 -0.8928  2.0109
 4307SOL    HW223851   7.411   8.935   4.767 -0.6689 -0.3198 -1.4717
 4308SOL     OW23852   0.938   1.035   4.024 -0.4642 -0.5359  0.1816
 4308SOL    HW123853   0.998   1.002   3.951  0.1704  0.3323  0.3174
 4308SOL    HW223854   0.929   0.964   4.094  1.2293 -0.2591  0.6760
 4309SOL     OW23855   7.982   5.080   5.417 -0.1210  0.5635  0.4595
 4309SOL    HW123856   8.025   5.009   5.362 -1.1015 -0.5228  1.0641
 4309SOL    HW223857   8.025   5.083   5.507 -1.8310 -1.1006  1.3589
 4310SOL     OW23858   8.517   5.905   3.475  0.1229  0.2305  0.0641
 4310SOL    HW123859   8.452   5.834   3.502  1.5389 -1.3132 -0.5664
 4310SOL    HW223860   8.533   5.900   3.376 -0.1177  1.7337 -0.0657
 4311SOL     OW23861   3.910   0.768   3.232 -0.0261 -0.5935  0.2886
 4311SOL    HW123862   3.871   0.798   3.145  0.2965 -0.6836  0.1127
 4311SOL    HW223863   3.864   0.685   3.263 -0.6282 -0.1626  0.5631
 4312SOL     OW23864   1.583   0.806   3.148  0.2734 -0.3570 -0.1802
 4312SOL    HW123865   1.620   0.853   3.228  0.9463 -0.0264 -0.6864
 4312SOL    HW223866   1.548   0.716   3.176  3.0637 -1.4325  0.0308
 4313SOL     OW23867   1.490   6.283   5.534 -0.4661 -0.4735 -0.6889
 4313SOL    HW123868   1.528   6.359   5.588 -0.1048 -0.4596 -0.9618
 4313SOL    HW223869   1.510   6.197   5.579 -0.0631 -0.4706 -0.8517
 4314SOL     OW23870   8.985   0.281   3.422 -0.4571  0.4778  0.4950
 4314SOL    HW123871   8.920   0.220   3.377  0.2050 -1.7427  2.4457
 4314SOL    HW223872   8.947   0.311   3.509  0.2041  0.9308  0.6273
 4315SOL     OW23873   2.420   1.844   2.878 -0.3534 -0.1065 -0.0034
 4315SOL    HW123874   2.395   1.892   2.963 -0.1428  0.9235 -0.5112
 4315SOL    HW223875   2.520   1.844   2.869 -0.3985  0.2022 -0.4867
 4316SOL     OW23876   3.606   8.434   2.051 -0.2921 -0.2031  0.4510
 4316SOL    HW123877   3.580   8.350   2.098 -1.9035 -0.0146 -0.0683
 4316SOL    HW223878   3.670   8.487   2.108 -0.0850 -1.2719  1.2173
 4317SOL     OW23879   5.051   0.287   0.832  0.0418  0.1749  0.1926
 4317SOL    HW123880   4.960   0.270   0.794 -0.4522  0.6950  1.1537
 4317SOL    HW223881   5.079   0.380   0.811 -0.4693  0.6495  1.5791
 4318SOL     OW23882   9.031   0.812   1.600 -0.2968 -0.1232  0.3155
 4318SOL    HW123883   8.967   0.889   1.595 -0.0763  0.0548  0.2379
 4318SOL    HW223884   9.084   0.807   1.516  3.2472  2.7445  2.2317
 4319SOL     OW23885   7.714   1.794   1.848 -0.5499  0.2233  0.1836
 4319SOL    HW123886   7.631   1.843   1.820 -0.3813  0.5047  0.1692
 4319SOL    HW223887   7.732   1.811   1.945  0.3165  1.3927 -0.1616
 4320SOL     OW23888   9.282   1.801   0.092  0.1749  0.8764  0.2802
 4320SOL    HW123889   9.222   1.869   0.050  0.9542  2.2034  1.2880
 4320SOL    HW223890   9.368   1.797   0.042 -0.4878 -0.6220 -0.8149
 4321SOL     OW23891   0.786   6.280   2.364 -0.1382 -0.2541 -0.3581
 4321SOL    HW123892   0.694   6.305   2.392  0.4198  0.9778  0.3787
 4321SOL    HW223893   0.841   6.258   2.445 -0.3905 -3.1540 -0.9132
 4322SOL     OW23894   1.060   8.715   2.067 -0.3850 -0.1087  0.0860
 4322SOL    HW123895   1.058   8.618   2.090  0.1202  0.0972  1.0247
 4322SOL    HW223896   1.119   8.730   1.988  0.8062 -0.3782  0.9052
 4323SOL     OW23897   5.573   0.924   2.377 -0.0544 -0.0561  0.4371
 4323SOL    HW123898   5.667   0.900   2.351  1.0156  2.4170  1.8643
 4323SOL    HW223899   5.548   0.877   2.461  0.2677  0.0505  0.5926
 4324SOL     OW23900   8.078   1.651   2.896  0.3386 -0.3171  0.0687
 4324SOL    HW123901   8.134   1.573   2.922  1.6262  0.6383  0.2312
 4324SOL    HW223902   7.985   1.621   2.876  0.4886 -1.6906  1.3983
 4325SOL     OW23903   2.506   8.594   4.851  0.7412 -0.0302 -0.1856
 4325SOL    HW123904   2.496   8.665   4.922  1.6717  0.4631 -0.5235
 4325SOL    HW223905   2.597   8.603   4.809  0.6889 -1.1430 -0.5484
 4326SOL     OW23906   1.430   2.228   1.649  0.0436 -0.5271  0.1260
 4326SOL    HW123907   1.441   2.248   1.552 -2.3887 -0.8863 -0.2478
 4326SOL    HW223908   1.506   2.269   1.700  1.5290 -0.6272 -1.9405
 4327SOL     OW23909   3.258   0.129   2.826 -0.6383 -0.2157  0.0726
 4327SOL    HW123910   3.239   0.227   2.824 -2.4826 -0.5769 -0.6105
 4327SOL    HW223911   3.257   0.094   2.732  2.2481 -0.4877  0.1061
 4328SOL     OW23912   2.091   6.621   3.777 -0.1779  0.2411 -0.4033
 4328SOL    HW123913   2.128   6.650   3.688 -0.7198 -0.2665 -0.7927
 4328SOL    HW223914   1.995   6.596   3.767 -0.3512  0.5708  0.4117
 4329SOL     OW23915   2.979   7.062   5.409 -0.8736  0.0644 -0.3922
 4329SOL    HW123916   2.967   6.967   5.438 -3.9372  0.5762  0.1246
 4329SOL    HW223917   3.022   7.064   5.319 -1.0821 -1.8061 -0.5455
 4330SOL     OW23918   0.341   5.296   0.048 -0.2028  0.6112 -0.0988
 4330SOL    HW123919   0.286   5.362  -0.002  1.3440  2.2785  0.3382
 4330SOL    HW223920   0.424   5.341   0.083  1.0151 -1.6095 -0.0170
 4331SOL     OW23921   2.139   0.469   2.274  0.2602  0.0344 -0.5891
 4331SOL    HW123922   2.111   0.379   2.241  0.0678  0.5011 -1.7242
 4331SOL    HW223923   2.211   0.458   2.342  0.1791 -0.9833 -0.6567
 4332SOL     OW23924   1.978   4.253   4.440 -0.4478  0.9350 -0.5239
 4332SOL    HW123925   1.937   4.320   4.502 -2.6788 -0.1402 -0.7977
 4332SOL    HW223926   1.907   4.208   4.387  1.0331 -1.4468 -0.5796
 4333SOL     OW23927   3.810   8.322   4.205  0.5935  0.0476  0.7550
 4333SOL    HW123928   3.786   8.270   4.288  0.0856 -0.5014  0.2677
 4333SOL    HW223929   3.866   8.265   4.145  0.0176  0.0522  0.2091
 4334SOL     OW23930   9.427   6.922   0.759 -0.4206  0.1852  0.1902
 4334SOL    HW123931   9.504   6.891   0.815  1.0338  0.0764 -1.8495
 4334SOL    HW223932   9.366   6.844   0.742 -1.4186  0.4274  2.4079
 4335SOL     OW23933   2.757   7.489   1.558  0.0300  0.2714  0.3872
 4335SOL    HW123934   2.773   7.577   1.513 -1.9902  0.7996  0.6634
 4335SOL    HW223935   2.692   7.435   1.504  1.3238 -1.1243  0.1624
 4336SOL     OW23936   0.638   0.900   4.224  0.2351  0.0754  0.3828
 4336SOL    HW123937   0.554   0.858   4.191  0.3642 -0.0098  0.1601
 4336SOL    HW223938   0.708   0.894   4.153  1.0317 -1.6377  1.2733
 4337SOL     OW23939   8.269   7.548   0.982  0.7378  0.9912  0.0776
 4337SOL    HW123940   8.263   7.465   1.036 -0.9461  1.1727  0.1953
 4337SOL    HW223941   8.331   7.613   1.028  1.4227  0.1274  0.3910
 4338SOL     OW23942   0.225   4.466   2.626 -0.4498 -0.2962  0.3159
 4338SOL    HW123943   0.170   4.542   2.661  0.3037  0.1807  0.4733
 4338SOL    HW223944   0.178   4.425   2.548 -0.1694  1.2750 -0.7098
 4339SOL     OW23945   2.115   2.757   5.182 -0.3494  0.3720  0.2720
 4339SOL    HW123946   2.079   2.670   5.149 -0.1392  0.9843 -1.6534
 4339SOL    HW223947   2.040   2.812   5.218 -0.9533  0.5216 -1.1575
 4340SOL     OW23948   2.055   6.783   0.543 -0.3087 -0.0643 -0.0647
 4340SOL    HW123949   2.102   6.707   0.497 -1.3745 -0.9609  0.3043
 4340SOL    HW223950   1.998   6.747   0.616 -0.5985  1.1357  0.3090
 4341SOL     OW23951   9.346   9.054   2.110  0.5276 -0.1547  0.0863
 4341SOL    HW123952   9.427   9.105   2.081  1.3711 -1.3202  0.3231
 4341SOL    HW223953   9.281   9.116   2.154  1.1658  0.8458 -0.3663
 4342SOL     OW23954   1.225   2.890   3.133 -0.1487 -0.5241 -0.1570
 4342SOL    HW123955   1.272   2.824   3.192  1.5252 -0.6499 -1.6171
 4342SOL    HW223956   1.227   2.980   3.176  1.0514 -0.6147 -0.0082
 4343SOL     OW23957   1.964   5.792   3.271  0.1491 -0.2235 -0.0797
 4343SOL    HW123958   1.989   5.715   3.330  0.3702 -0.5962 -0.6574
 4343SOL    HW223959   1.922   5.757   3.187 -0.3718  0.3128 -0.0487
 4344SOL     OW23960   8.505   1.247   1.768  0.2632  0.5491  0.3269
 4344SOL    HW123961   8.487   1.208   1.677  0.0252  1.4325 -0.0063
 4344SOL    HW223962   8.501   1.347   1.763  0.7621  0.6171  1.2032
 4345SOL     OW23963   6.825   1.318   1.909  0.5223  0.5412  0.0652
 4345SOL    HW123964   6.909   1.265   1.926 -0.0660 -0.0666  1.1386
 4345SOL    HW223965   6.803   1.314   1.812  0.6190 -1.0207  0.0837
 4346SOL     OW23966   0.170   0.057   0.361  0.1270 -0.0515 -0.0641
 4346SOL    HW123967   0.161   0.147   0.318 -0.5779 -0.1870 -0.2108
 4346SOL    HW223968   0.241   0.061   0.432 -3.1655  1.9732  3.3316
 4347SOL     OW23969   2.333   9.962   4.189 -0.5975  0.2440 -0.0758
 4347SOL    HW123970   2.255   9.931   4.243  0.8023  0.3281  2.0811
 4347SOL    HW223971   2.314  10.052   4.151 -2.3409 -0.6270 -1.3211
 4348SOL     OW23972   8.644   3.197   2.457  0.2132 -0.3929 -0.1093
 4348SOL    HW123973   8.708   3.239   2.521 -0.6177  0.6063  0.0708
 4348SOL    HW223974   8.581   3.266   2.422 -2.1122 -1.7490  1.2953
 4349SOL     OW23975   8.578   1.036   2.247  0.3132  0.2782 -0.1411
 4349SOL    HW123976   8.560   1.091   2.328  1.4627  1.3497 -0.5897
 4349SOL    HW223977   8.568   1.094   2.165 -1.1698 -0.8619 -0.7965
 4350SOL     OW23978   9.630   5.442   3.778 -0.4822 -0.3364  0.3452
 4350SOL    HW123979   9.618   5.346   3.754 -2.0517  0.0590 -0.5374
 4350SOL    HW223980   9.638   5.497   3.695 -0.3133  0.3904  0.8316
 4351SOL     OW23981   9.752   9.453   2.100 -0.3322  0.3922 -0.2398
 4351SOL    HW123982   9.768   9.551   2.105 -0.8287  0.5698 -1.7576
 4351SOL    HW223983   9.795   9.408   2.178  1.4018  1.6133 -0.4688
 4352SOL     OW23984   9.301   7.793   2.461  0.5728  0.0478 -0.0391
 4352SOL    HW123985   9.310   7.848   2.379  0.0648 -0.2117 -0.2765
 4352SOL    HW223986   9.215   7.741   2.457 -0.1820  1.1452  1.3133
 4353SOL     OW23987   5.059   2.142   3.106  0.1739 -0.6197  0.2738
 4353SOL    HW123988   5.093   2.205   3.036 -1.0759 -1.1564 -0.8313
 4353SOL    HW223989   5.016   2.194   3.179 -2.7422 -0.2356 -1.6462
 4354SOL     OW23990   4.708   0.390   1.578  0.1450  0.3648 -0.6791
 4354SOL    HW123991   4.682   0.295   1.561 -1.1477  0.5507  0.1699
 4354SOL    HW223992   4.630   0.450   1.557  0.9954  1.2465 -1.3410
 4355SOL     OW23993   3.881   3.613   4.297 -0.5000  0.7625 -0.6371
 4355SOL    HW123994   3.965   3.624   4.243  0.1000 -0.2821  0.0589
 4355SOL    HW223995   3.852   3.517   4.294 -1.4490  1.0428 -0.5466
 4356SOL     OW23996   8.223   9.988   0.204  0.5260 -0.0157 -0.1635
 4356SOL    HW123997   8.189   9.949   0.290  0.3400 -1.8050 -1.0112
 4356SOL    HW223998   8.302  10.047   0.222  0.6368 -0.5684  1.2056
 4357SOL     OW23999   4.267   7.843   1.865 -1.0861 -0.0253 -0.0037
 4357SOL    HW124000   4.290   7.805   1.776 -0.9010 -0.1702  0.1070
 4357SOL    HW224001   4.350   7.876   1.909 -1.3225  1.0885 -0.3718
 4358SOL     OW24002   8.686   8.096   0.245  0.2212 -0.4423 -0.1649
 4358SOL    HW124003   8.646   8.102   0.153  0.8838  1.0913 -0.3720
 4358SOL    HW224004   8.613   8.087   0.312 -0.3758  0.3977 -0.6913
 4359SOL     OW24005   3.725   8.154   2.352 -0.1214  0.2745 -0.2096
 4359SOL    HW124006   3.808   8.165   2.298 -1.6455  2.4283 -2.2066
 4359SOL    HW224007   3.722   8.061   2.389  2.7375 -0.1077 -0.7796
 4360SOL     OW24008   7.516   7.684   4.461 -0.3365  0.4187 -0.1254
 4360SOL    HW124009   7.535   7.600   4.411 -0.5520 -0.2056  0.8244
 4360SOL    HW224010   7.533   7.669   4.559 -2.5602  0.8172  0.3396
 4361SOL     OW24011   0.858   0.097   1.381  0.2324  0.0065 -0.1044
 4361SOL    HW124012   0.779   0.079   1.322 -0.1627  0.7607  0.1742
 4361SOL    HW224013   0.825   0.124   1.472  0.7511  2.3942 -0.5867
 4362SOL     OW24014   0.244   4.819   4.548 -0.1708  0.0152  0.6471
 4362SOL    HW124015   0.236   4.786   4.642  0.7715  1.1484  1.1389
 4362SOL    HW224016   0.243   4.741   4.485 -2.5263 -0.6521  1.4662
 4363SOL     OW24017   4.105   5.386   0.856 -0.0032  0.1183 -0.0153
 4363SOL    HW124018   4.148   5.307   0.900 -1.0165 -1.0520 -1.0730
 4363SOL    HW224019   4.119   5.381   0.757 -2.4817 -0.2858 -0.3921
 4364SOL     OW24020   1.608   0.276   5.516  0.0200 -0.6317 -0.2377
 4364SOL    HW124021   1.662   0.328   5.449  0.4368 -1.8669 -0.8718
 4364SOL    HW224022   1.545   0.338   5.562  0.9458  0.5564 -0.5396
 4365SOL     OW24023   5.615   2.238   3.360  0.3333  0.0231  0.2898
 4365SOL    HW124024   5.644   2.143   3.367 -0.1725 -0.2097 -0.6396
 4365SOL    HW224025   5.516   2.241   3.341  0.4562  0.7132 -0.2700
 4366SOL     OW24026   1.106   7.967   2.672  0.1126 -0.2925  0.0268
 4366SOL    HW124027   1.106   8.044   2.607  3.0679  0.3531  0.7210
 4366SOL    HW224028   1.021   7.968   2.724  0.6700  3.4283  1.0335
 4367SOL     OW24029   4.497   4.102   5.534 -0.3286 -0.1512  0.1605
 4367SOL    HW124030   4.575   4.110   5.596 -0.1731  0.6614 -0.1348
 4367SOL    HW224031   4.414   4.085   5.587 -0.3994  1.7587  0.7019
 4368SOL     OW24032   4.691   3.198   0.959  0.3585  0.3976  0.0243
 4368SOL    HW124033   4.761   3.206   1.030  0.4460  0.4468 -0.0678
 4368SOL    HW224034   4.717   3.126   0.895 -0.6794 -1.0070  1.1489
 4369SOL     OW24035   0.648   6.620   0.848  0.1305 -0.1534 -0.8664
 4369SOL    HW124036   0.717   6.636   0.777  0.7934  2.0594  0.2188
 4369SOL    HW224037   0.576   6.689   0.841 -1.2271 -1.5779 -1.0818
 4370SOL     OW24038   0.926   9.960   0.987  0.1261 -0.2112  0.1213
 4370SOL    HW124039   1.000   9.912   0.940  0.2839  1.5819 -1.4999
 4370SOL    HW224040   0.964  10.014   1.062 -0.0200 -2.3361  1.7766
 4371SOL     OW24041   9.518   4.424   3.694  0.4953  0.1585 -0.0523
 4371SOL    HW124042   9.426   4.395   3.720  0.4161 -0.7986 -1.3941
 4371SOL    HW224043   9.535   4.402   3.598  2.2056  0.1273  0.2371
 4372SOL     OW24044   1.031   3.321   4.350 -0.7432  0.2193  0.3832
 4372SOL    HW124045   1.031   3.413   4.389 -1.2771  0.4688 -0.2142
 4372SOL    HW224046   1.125   3.293   4.330 -0.7381  1.4762 -1.4298
 4373SOL     OW24047   8.403   8.113   3.891  0.4999  0.0037 -0.0385
 4373SOL    HW124048   8.443   8.050   3.825  2.2991 -0.0171  1.0270
 4373SOL    HW224049   8.429   8.207   3.868  1.0446  0.0046  0.5570
 4374SOL     OW24050   1.478   2.704   4.313 -0.0445  0.1543  0.2100
 4374SOL    HW124051   1.413   2.628   4.318  0.3593 -0.1660  0.6889
 4374SOL    HW224052   1.566   2.670   4.280 -0.1163  0.5815 -0.4185
 4375SOL     OW24053   2.039   2.865   2.907  0.4877  0.6506 -0.2426
 4375SOL    HW124054   2.027   2.794   2.976 -0.9000 -0.1729 -1.2945
 4375SOL    HW224055   2.107   2.931   2.938  0.7688 -0.3712  1.3644
 4376SOL     OW24056   0.888   7.619   1.981  0.0564  0.0732  0.3636
 4376SOL    HW124057   0.805   7.600   2.033  0.9443  1.0424  2.1726
 4376SOL    HW224058   0.864   7.643   1.887 -1.5863 -1.4428  0.3749
 4377SOL     OW24059   9.154   7.776   1.277  0.1634 -0.2403 -0.0273
 4377SOL    HW124060   9.192   7.722   1.202 -0.5901  2.0904 -2.1409
 4377SOL    HW224061   9.158   7.873   1.254  0.2055  0.5542  3.1080
 4378SOL     OW24062   8.861   6.592   0.197  0.0874  0.1183  0.2617
 4378SOL    HW124063   8.902   6.612   0.286  0.5729  0.5007 -0.0462
 4378SOL    HW224064   8.915   6.636   0.125  0.0812 -0.7438 -0.2758
 4379SOL     OW24065   5.318   9.415   4.264 -0.3717  0.5696  0.0207
 4379SOL    HW124066   5.300   9.337   4.204 -0.7870  1.6582 -1.2700
 4379SOL    HW224067   5.293   9.500   4.218  3.5480  1.7970 -0.0424
 4380SOL     OW24068   8.490   7.842   3.230 -0.3418 -0.1603 -0.1219
 4380SOL    HW124069   8.578   7.795   3.232 -0.2282  0.0792  1.0542
 4380SOL    HW224070   8.431   7.801   3.161  0.2787 -1.0710 -0.1132
 4381SOL     OW24071   6.709   9.539   2.908 -0.2535 -0.1686 -0.1706
 4381SOL    HW124072   6.796   9.586   2.920 -0.1232 -0.8283  1.5912
 4381SOL    HW224073   6.693   9.522   2.811  0.6196  1.7412 -0.6591
 4382SOL     OW24074   3.020   6.116   3.217  0.4389  0.4073  0.6230
 4382SOL    HW124075   3.013   6.204   3.170 -2.3365  0.4040  0.9793
 4382SOL    HW224076   3.055   6.047   3.155  0.0344  1.1560 -0.4466
 4383SOL     OW24077   4.338   9.957   0.501  0.1937 -0.2275  0.6163
 4383SOL    HW124078   4.290   9.878   0.541  0.0554 -0.5827 -0.2484
 4383SOL    HW224079   4.399   9.926   0.429  1.7734  0.2241  1.7238
 4384SOL     OW24080   7.996   9.066   3.842 -0.1408 -0.0566  0.0003
 4384SOL    HW124081   7.909   9.021   3.818 -1.0138  2.1280 -1.1069
 4384SOL    HW224082   8.072   9.005   3.822 -1.3792 -1.6550  0.0962
 4385SOL     OW24083   9.030   8.569   2.804 -0.0585  0.3060  0.1708
 4385SOL    HW124084   8.958   8.637   2.801 -0.7343 -0.3178  1.5684
 4385SOL    HW224085   9.012   8.505   2.879  1.6993 -0.1251  0.2478
 4386SOL     OW24086   4.495   0.174   1.767  0.0901  0.4062 -1.0766
 4386SOL    HW124087   4.442   0.253   1.735  0.5350  0.7300 -1.0192
 4386SOL    HW224088   4.547   0.200   1.849 -0.0214 -0.0433 -0.8647
 4387SOL     OW24089   1.941   6.762   5.096 -0.1770  0.0582 -0.4271
 4387SOL    HW124090   1.974   6.752   5.002  1.3378  2.8770 -0.2475
 4387SOL    HW224091   1.874   6.836   5.099  0.9187  1.0114  0.9631
 4388SOL     OW24092   4.506   3.676   3.908  0.3744 -0.0911 -0.5313
 4388SOL    HW124093   4.498   3.699   4.005 -0.1105  1.7283 -0.9774
 4388SOL    HW224094   4.590   3.715   3.871 -0.9138  1.8311 -1.5181
 4389SOL     OW24095   2.360   2.393   0.584  0.3302  0.2681 -0.1951
 4389SOL    HW124096   2.399   2.446   0.509 -2.5723  0.2977 -1.7400
 4389SOL    HW224097   2.284   2.443   0.625  0.2031 -0.9056  1.0602
 4390SOL     OW24098   7.349   0.995   1.638  0.0868 -0.4833 -0.0385
 4390SOL    HW124099   7.315   1.086   1.614  0.8397  0.1060  1.0990
 4390SOL    HW224100   7.282   0.949   1.697 -0.0660 -0.4750 -0.2046
 4391SOL     OW24101   0.427   3.044   3.136 -0.1041 -0.4207 -0.7695
 4391SOL    HW124102   0.345   3.084   3.096  0.3120  0.0496 -1.1582
 4391SOL    HW224103   0.508   3.078   3.088  0.3390 -0.6129 -0.1721
 4392SOL     OW24104   3.785   3.108   4.925  0.1997  0.1178 -0.1501
 4392SOL    HW124105   3.787   3.031   4.988  1.5115  0.8840  0.7574
 4392SOL    HW224106   3.709   3.097   4.861  1.1146 -2.5495 -0.8206
 4393SOL     OW24107   3.508   4.079   5.508  0.4949  0.8766 -0.0190
 4393SOL    HW124108   3.512   4.174   5.539  2.6662  1.4244 -1.8309
 4393SOL    HW224109   3.471   4.075   5.415 -2.7519 -0.4136  1.2603
 4394SOL     OW24110   3.312   7.830   4.444 -0.9641  0.0087 -0.3249
 4394SOL    HW124111   3.232   7.793   4.396 -1.4040 -1.9192  1.7969
 4394SOL    HW224112   3.322   7.784   4.533  2.1904  0.6046 -0.3124
 4395SOL     OW24113   7.520   8.343   1.459 -0.0482 -0.1343  0.6500
 4395SOL    HW124114   7.440   8.402   1.444  0.5198  0.9584  1.8629
 4395SOL    HW224115   7.516   8.305   1.552  0.6055 -0.4610  0.5471
 4396SOL     OW24116   0.004   8.723   2.416 -0.3536  0.0967 -0.5892
 4396SOL    HW124117  -0.086   8.748   2.380 -1.0969 -2.0134 -0.2697
 4396SOL    HW224118  -0.002   8.709   2.515 -0.0264 -1.4604 -0.7760
 4397SOL     OW24119   0.283   2.271   3.852 -0.1502 -0.1280  0.3891
 4397SOL    HW124120   0.219   2.331   3.901 -3.2614 -1.0276 -2.3858
 4397SOL    HW224121   0.334   2.324   3.784  1.6441  0.4512  2.1220
 4398SOL     OW24122   3.208   9.817   1.231 -0.4885  0.3701 -0.3391
 4398SOL    HW124123   3.167   9.729   1.206 -1.3465  0.3249  1.1261
 4398SOL    HW224124   3.136   9.887   1.237  0.2732  1.3422 -2.1555
 4399SOL     OW24125   1.534   2.573   3.429  0.3023  0.0568 -0.5462
 4399SOL    HW124126   1.499   2.536   3.515 -1.2002  0.6193 -0.9076
 4399SOL    HW224127   1.475   2.647   3.398  0.1140 -0.9881 -2.7278
 4400SOL     OW24128   4.960   4.452   1.897  0.2343 -0.4114 -0.3978
 4400SOL    HW124129   4.895   4.526   1.881 -1.6037 -2.0678 -0.7899
 4400SOL    HW224130   4.993   4.456   1.991 -1.9135 -0.6945  0.3861
 4401SOL     OW24131   9.888   6.220   2.067  0.4420  0.0043 -0.8175
 4401SOL    HW124132   9.857   6.125   2.062 -0.9198  0.3828  0.0047
 4401SOL    HW224133   9.817   6.275   2.111  1.5535  1.2555 -0.5779
 4402SOL     OW24134   9.029   4.188   0.430  0.4382  0.0433 -0.2564
 4402SOL    HW124135   8.971   4.109   0.408 -1.0478  1.2643 -0.7776
 4402SOL    HW224136   9.027   4.252   0.353  0.9893  0.9772  0.5121
 4403SOL     OW24137   2.939   5.871   3.066 -0.0229 -0.2562  0.8069
 4403SOL    HW124138   2.848   5.849   3.101  0.3054  0.3332  2.0734
 4403SOL    HW224139   2.956   5.821   2.982 -0.5150 -2.3664  1.9424
 4404SOL     OW24140   0.218   0.702   4.258  0.0503 -0.2500 -0.2678
 4404SOL    HW124141   0.158   0.755   4.199  1.7317 -0.2481 -2.0498
 4404SOL    HW224142   0.182   0.609   4.269 -0.2791 -0.2483 -1.3107
 4405SOL     OW24143   1.321   9.637   1.055  0.7130 -0.0974 -0.1830
 4405SOL    HW124144   1.263   9.695   1.112 -0.0857 -0.8189 -0.2486
 4405SOL    HW224145   1.416   9.642   1.087  0.5869  0.9417  0.0432
 4406SOL     OW24146   2.700   1.868   0.142  0.8731 -0.5283 -0.4780
 4406SOL    HW124147   2.796   1.875   0.170  0.2144 -1.3225  2.0891
 4406SOL    HW224148   2.650   1.814   0.209 -1.6366  0.9301 -1.1434
 4407SOL     OW24149   6.869   9.786   4.026  0.5747  0.0922  0.5083
 4407SOL    HW124150   6.808   9.784   4.105 -0.0670 -2.8581  0.0218
 4407SOL    HW224151   6.878   9.693   3.989  1.7299  1.2338 -2.2241
 4408SOL     OW24152   0.366   1.118   0.259  0.3944  0.0867 -0.3737
 4408SOL    HW124153   0.300   1.144   0.330  0.6330 -1.1805  0.3453
 4408SOL    HW224154   0.432   1.192   0.246 -0.3034  0.7760 -0.0513
 4409SOL     OW24155   9.420   9.314   1.857 -0.0993  0.0474  0.7777
 4409SOL    HW124156   9.445   9.345   1.765 -0.6450  0.1687  0.6685
 4409SOL    HW224157   9.329   9.273   1.855  0.0906 -0.3912  1.1735
 4410SOL     OW24158   8.852   3.263   0.182  0.1540  0.0819 -0.4363
 4410SOL    HW124159   8.938   3.229   0.145  1.0245  0.6533  1.0133
 4410SOL    HW224160   8.800   3.187   0.220  1.1142  0.0529  0.8480
 4411SOL     OW24161   0.335   3.548   4.790 -0.0899 -0.7220  0.0415
 4411SOL    HW124162   0.329   3.535   4.889 -1.3637 -0.0863  0.0588
 4411SOL    HW224163   0.295   3.637   4.766  2.6220  0.3485 -0.7567
 4412SOL     OW24164   0.042   2.742   2.907  0.0256  0.3400  0.2571
 4412SOL    HW124165   0.047   2.642   2.905  1.3115  0.4067 -2.1167
 4412SOL    HW224166   0.129   2.779   2.939  1.0437  0.7327 -2.7820
 4413SOL     OW24167   2.299   2.435   2.311 -0.2730  1.1439 -0.0117
 4413SOL    HW124168   2.313   2.516   2.369  1.1818 -0.0860  1.4046
 4413SOL    HW224169   2.386   2.407   2.272 -0.7219  0.0467 -0.2212
 4414SOL     OW24170   4.189   9.708   0.246  0.2885  0.1508 -0.2200
 4414SOL    HW124171   4.153   9.801   0.249  2.3440  0.9915 -0.5638
 4414SOL    HW224172   4.238   9.689   0.332  0.2339 -0.4585 -0.3240
 4415SOL     OW24173   3.499   7.925   3.556  0.2333 -0.0811 -0.4671
 4415SOL    HW124174   3.473   7.997   3.490  0.5306 -0.3166 -0.8446
 4415SOL    HW224175   3.594   7.899   3.540  0.3838  0.0412  0.2321
 4416SOL     OW24176   3.688   8.010   1.258 -0.2344 -0.0227  0.0859
 4416SOL    HW124177   3.707   8.096   1.304  0.7428  0.2941 -0.8808
 4416SOL    HW224178   3.707   7.934   1.320 -1.6525  0.4679  1.1309
 4417SOL     OW24179   2.133   8.755   1.649 -0.2093  0.3355 -0.2932
 4417SOL    HW124180   2.051   8.765   1.705 -1.2686  1.7490 -2.0039
 4417SOL    HW224181   2.117   8.797   1.559  1.9528 -0.5034 -1.1134
 4418SOL     OW24182   0.270   5.924   5.559 -0.2478 -0.0477  0.0790
 4418SOL    HW124183   0.324   5.907   5.477  0.8318  0.1813  0.7425
 4418SOL    HW224184   0.295   5.858   5.630 -0.4335  0.4184  0.5767
 4419SOL     OW24185   0.045   1.641   1.258 -0.0205 -0.3113 -0.0444
 4419SOL    HW124186   0.005   1.588   1.333  0.6388  0.1642  0.6491
 4419SOL    HW224187   0.050   1.584   1.176  0.4581 -1.2460  0.6244
 4420SOL     OW24188   8.475   1.135   4.097  0.1510 -0.3027 -0.0257
 4420SOL    HW124189   8.447   1.087   4.014  0.1114  1.0387 -0.8007
 4420SOL    HW224190   8.512   1.225   4.073  1.1965 -0.3477  1.3171
 4421SOL     OW24191   6.269   8.922   2.611  0.2981 -0.0534  0.3424
 4421SOL    HW124192   6.309   8.840   2.569 -0.8834 -1.9716  2.8520
 4421SOL    HW224193   6.312   8.938   2.700 -0.5130  1.1861  0.5104
 4422SOL     OW24194   9.663   9.668   2.256 -0.3735 -0.0587 -0.3973
 4422SOL    HW124195   9.598   9.606   2.212 -0.9805 -0.7671  1.4485
 4422SOL    HW224196   9.654   9.661   2.355  0.7374  1.7516 -0.1469
 4423SOL     OW24197   3.491   7.407   1.729  0.1861 -0.1571  0.2131
 4423SOL    HW124198   3.394   7.430   1.742  0.0080  0.0149 -1.3005
 4423SOL    HW224199   3.545   7.490   1.725  0.2039 -0.1952 -0.3521
 4424SOL     OW24200   6.060   1.589   3.755  0.0213  0.2040 -0.2871
 4424SOL    HW124201   6.154   1.589   3.790  0.0555 -1.2436 -0.3568
 4424SOL    HW224202   5.996   1.589   3.831  0.0615  2.4753 -0.2363
 4425SOL     OW24203   7.905   2.639   1.344  0.4601 -0.2899  0.2011
 4425SOL    HW124204   7.863   2.556   1.309  1.1211 -0.9572  0.9647
 4425SOL    HW224205   8.004   2.626   1.352  0.6526  0.8147 -0.3505
 4426SOL     OW24206   9.521   4.414   5.595  0.0778  0.3374 -0.4244
 4426SOL    HW124207   9.570   4.462   5.523 -0.8327  1.1405 -0.5271
 4426SOL    HW224208   9.466   4.340   5.555 -1.0643  1.2998 -0.6712
 4427SOL     OW24209   9.563   4.943   2.350  0.3874  0.7048 -0.4786
 4427SOL    HW124210   9.642   4.898   2.308  0.1046 -0.2352 -0.0215
 4427SOL    HW224211   9.538   4.894   2.434 -0.7550  0.9285 -0.6876
 4428SOL     OW24212   2.012   6.868   2.947  0.8576  0.3063 -0.3346
 4428SOL    HW124213   2.079   6.798   2.974  0.3803  0.1648  0.4844
 4428SOL    HW224214   2.002   6.935   3.020  0.9546  0.9703 -0.9273
 4429SOL     OW24215   0.660   6.528   2.814 -0.5822  0.4099  0.2298
 4429SOL    HW124216   0.615   6.515   2.725 -0.3977  0.7162  0.0931
 4429SOL    HW224217   0.621   6.464   2.880  0.1363 -0.6807 -0.3787
 4430SOL     OW24218   7.501   2.913   5.108 -0.3368  0.3906  0.2106
 4430SOL    HW124219   7.459   2.830   5.144 -0.5071  0.0186 -0.8098
 4430SOL    HW224220   7.582   2.889   5.055  0.6672  1.0386  1.4298
 4431SOL     OW24221   6.288   0.414   4.607  0.1445  0.2236 -0.0862
 4431SOL    HW124222   6.258   0.499   4.650 -0.8614 -1.1211  1.9388
 4431SOL    HW224223   6.387   0.417   4.594  0.6511  0.2380  3.3827
 4432SOL     OW24224   9.682   2.428   4.014 -0.0110  0.2373  0.5395
 4432SOL    HW124225   9.754   2.379   3.964 -1.7584 -1.0365 -0.7959
 4432SOL    HW224226   9.633   2.487   3.950 -1.1621 -0.0831  1.1257
 4433SOL     OW24227   9.292   4.667   3.572 -0.2972  0.7016 -0.2169
 4433SOL    HW124228   9.367   4.684   3.507 -1.5203  0.6610 -1.6683
 4433SOL    HW224229   9.245   4.582   3.547  0.4207 -0.3472  1.8892
 4434SOL     OW24230   0.065   5.219   4.348 -0.7269  0.4804 -0.1168
 4434SOL    HW124231   0.119   5.245   4.427 -0.0220  0.1294 -0.4722
 4434SOL    HW224232   0.126   5.190   4.274 -1.4012  0.0327 -0.5078
 4435SOL     OW24233   6.348   7.836   3.460 -0.1264 -0.0215 -0.2269
 4435SOL    HW124234   6.424   7.794   3.410  1.5103  0.3605  1.8490
 4435SOL    HW224235   6.362   7.935   3.465 -0.6450  0.0276  0.3496
 4436SOL     OW24236   2.226   6.951   0.753  0.2410 -0.4985 -0.0352
 4436SOL    HW124237   2.220   7.006   0.670 -0.2852  0.1135  0.4024
 4436SOL    HW224238   2.191   6.859   0.735 -0.7381 -0.0946 -0.2650
 4437SOL     OW24239   2.932   8.985   2.936  0.3066  0.3546  0.5212
 4437SOL    HW124240   2.914   9.009   3.032 -1.1004 -0.6566  0.5299
 4437SOL    HW224241   2.858   8.926   2.903  0.8279  0.6430 -1.1680
 4438SOL     OW24242   0.658   9.990   0.822  0.2082  0.0273 -0.6989
 4438SOL    HW124243   0.745   9.990   0.872 -0.1045  2.0779 -0.1344
 4438SOL    HW224244   0.583  10.010   0.884 -0.8344 -2.7244 -0.9874
 4439SOL     OW24245   4.594   2.787   3.017 -0.0533 -0.6336  0.5186
 4439SOL    HW124246   4.664   2.856   2.998  0.5529  0.1243  5.0545
 4439SOL    HW224247   4.638   2.702   3.045 -0.9068 -1.6630 -1.1762
 4440SOL     OW24248   5.823   1.603   1.876 -0.5872  0.2227 -0.2487
 4440SOL    HW124249   5.919   1.599   1.902 -0.3631  0.6456 -1.0034
 4440SOL    HW224250   5.815   1.622   1.778 -1.4473  1.6029  0.0686
 4441SOL     OW24251   3.454   0.054   4.697 -0.1202  0.2712 -0.3142
 4441SOL    HW124252   3.538   0.076   4.647 -0.4291  1.4097 -0.3445
 4441SOL    HW224253   3.403  -0.017   4.647  1.9281 -2.1253  0.8704
 4442SOL     OW24254   1.719   4.828   1.064 -0.5780  0.0369  0.3784
 4442SOL    HW124255   1.734   4.731   1.086  1.9241  0.5152  0.8998
 4442SOL    HW224256   1.682   4.875   1.144 -2.1123 -0.5298  0.0238
 4443SOL     OW24257   4.003   3.738   3.320 -0.6625  0.7324 -0.4183
 4443SOL    HW124258   3.938   3.808   3.349 -1.3870 -0.0668 -0.0967
 4443SOL    HW224259   4.064   3.716   3.396 -1.4770 -0.1485 -0.0161
 4444SOL     OW24260   0.727   3.437   5.500  0.0037 -0.0570 -0.1814
 4444SOL    HW124261   0.716   3.468   5.405 -0.0893 -1.0462 -0.4980
 4444SOL    HW224262   0.688   3.506   5.562 -0.7614  0.1742 -0.9068
 4445SOL     OW24263   3.451   6.101   2.044  0.6939  0.2526  0.2140
 4445SOL    HW124264   3.477   6.109   2.140  0.1712  0.9713  0.2964
 4445SOL    HW224265   3.424   6.007   2.025  3.1931 -0.4848  0.1597
 4446SOL     OW24266   3.635   8.745   2.447 -0.1109  0.0164  0.0915
 4446SOL    HW124267   3.554   8.735   2.505  0.8975 -2.5627  1.1433
 4446SOL    HW224268   3.706   8.794   2.497 -0.8782  1.9866 -0.7122
 4447SOL     OW24269   4.775   0.733   2.132  0.3922 -0.2478  0.1927
 4447SOL    HW124270   4.751   0.827   2.108  0.4139 -0.1493  0.5494
 4447SOL    HW224271   4.722   0.669   2.076  1.6318 -0.0295 -1.2871
 4448SOL     OW24272   1.060   2.242   2.585 -0.1197 -0.2305  0.0878
 4448SOL    HW124273   1.119   2.173   2.545 -0.8871 -1.2011  0.6095
 4448SOL    HW224274   1.084   2.255   2.681  1.3515  1.6936 -0.5114
 4449SOL     OW24275   4.898   3.828   0.462  0.1156  0.1326 -0.5841
 4449SOL    HW124276   4.901   3.814   0.561  0.7553  0.2969 -0.5785
 4449SOL    HW224277   4.894   3.739   0.416 -0.4561  0.0645 -0.4026
 4450SOL     OW24278   7.561   9.266   3.449  0.0530  0.3078  0.1197
 4450SOL    HW124279   7.557   9.351   3.397  0.1654 -1.0063 -2.1366
 4450SOL    HW224280   7.642   9.214   3.420 -0.9728 -1.3529  0.1409
 4451SOL     OW24281   2.975   8.517   3.543 -0.1483 -0.2027  0.0293
 4451SOL    HW124282   2.942   8.455   3.614 -0.7571  0.6482  0.4991
 4451SOL    HW224283   3.053   8.569   3.579 -0.1781 -0.0810 -0.0834
 4452SOL     OW24284   4.577   3.270   3.055 -0.2481  0.2266  0.3601
 4452SOL    HW124285   4.518   3.201   3.097  0.3730  1.1693  2.8908
 4452SOL    HW224286   4.528   3.357   3.050  0.1107  0.4256  0.2889
 4453SOL     OW24287   1.993   3.581   0.603  0.4921  0.0633  0.2019
 4453SOL    HW124288   1.896   3.566   0.621  0.8405 -1.5001  0.8505
 4453SOL    HW224289   2.036   3.623   0.683  0.4745  0.1989  0.1403
 4454SOL     OW24290   9.021   5.162   4.310 -0.0236  0.3842  0.2239
 4454SOL    HW124291   9.115   5.163   4.343  0.5913 -2.1030 -1.2930
 4454SOL    HW224292   8.992   5.256   4.290  1.9460  1.2285  1.1536
 4455SOL     OW24293   6.685   1.956   2.451 -0.0119 -0.2575  0.7351
 4455SOL    HW124294   6.688   1.946   2.550 -0.8696 -0.3212  0.7634
 4455SOL    HW224295   6.592   1.980   2.423  0.0935 -0.8088 -0.1049
 4456SOL     OW24296   3.538   7.529   4.353  0.4278 -0.0673 -0.0703
 4456SOL    HW124297   3.458   7.471   4.366  1.5788 -1.3358  1.5127
 4456SOL    HW224298   3.580   7.549   4.441  0.8814  2.0134 -0.7228
 4457SOL     OW24299   7.767   1.133   5.138  0.5148 -0.2121 -0.5264
 4457SOL    HW124300   7.715   1.102   5.058 -1.0974  1.4859 -0.1824
 4457SOL    HW224301   7.845   1.187   5.108  0.0916  0.1609 -0.9744
 4458SOL     OW24302   5.561   7.350   2.370  0.0060 -1.0501 -0.1312
 4458SOL    HW124303   5.509   7.269   2.399 -0.1997 -0.8734 -0.0002
 4458SOL    HW224304   5.586   7.404   2.450 -2.2225  0.4471 -0.3931
 4459SOL     OW24305   3.918   3.724   4.643  0.5683 -0.0557 -0.0760
 4459SOL    HW124306   3.972   3.641   4.631 -0.3456 -0.7910  0.7230
 4459SOL    HW224307   3.823   3.705   4.620  0.3422  0.7511  0.1776
 4460SOL     OW24308   5.190   4.326   0.222  0.1722 -0.0653  0.4981
 4460SOL    HW124309   5.099   4.303   0.189 -0.1144  0.3120  1.0185
 4460SOL    HW224310   5.255   4.254   0.195 -0.5247 -0.9843  1.2239
 4461SOL     OW24311   7.446   9.904   3.917  0.0800  0.0380  0.1164
 4461SOL    HW124312   7.371   9.969   3.901  2.0243  2.4642  0.5001
 4461SOL    HW224313   7.441   9.870   4.011 -0.3893  0.3761  0.2179
 4462SOL     OW24314   8.355   8.643   2.430 -0.0633 -0.2752  0.2618
 4462SOL    HW124315   8.313   8.664   2.519 -0.4534 -1.6202  0.4039
 4462SOL    HW224316   8.291   8.665   2.357  0.4065  1.2071  0.2843
 4463SOL     OW24317   3.765   2.705   5.366 -0.3315 -0.3753 -0.4229
 4463SOL    HW124318   3.780   2.795   5.407  0.5361 -0.7309  0.0639
 4463SOL    HW224319   3.807   2.702   5.275 -2.1670  0.3794 -1.3216
 4464SOL     OW24320   2.679   8.482   3.847 -0.0405 -0.6720 -0.5949
 4464SOL    HW124321   2.616   8.462   3.773 -1.7439 -0.3462  0.7353
 4464SOL    HW224322   2.660   8.421   3.924  0.1644  0.5386  0.4346
 4465SOL     OW24323   3.869   5.641   2.133 -0.2045 -0.9112  0.4975
 4465SOL    HW124324   3.852   5.644   2.232  0.4230 -2.1242  0.6458
 4465SOL    HW224325   3.792   5.597   2.088 -1.9473  2.3937  0.0754
 4466SOL     OW24326   7.774   8.984   4.477  0.3896  0.8236  0.1791
 4466SOL    HW124327   7.812   8.985   4.385  1.1057 -1.2417  0.4362
 4466SOL    HW224328   7.838   8.939   4.540 -1.0997  0.0932  1.2148
 4467SOL     OW24329   3.723   9.308   0.532 -0.6442 -0.1213 -0.3409
 4467SOL    HW124330   3.690   9.250   0.606 -3.2323  1.2825 -0.3224
 4467SOL    HW224331   3.680   9.280   0.446  1.8690 -1.3519 -1.2378
 4468SOL     OW24332   9.725   3.302   3.081  0.0004  0.3041 -0.7474
 4468SOL    HW124333   9.680   3.231   3.028  0.2992  0.5662 -1.3477
 4468SOL    HW224334   9.656   3.359   3.126 -0.2349 -0.6667  0.1459
 4469SOL     OW24335   8.491   1.305   0.438 -0.3478  0.2771  0.3574
 4469SOL    HW124336   8.446   1.380   0.486  0.5134  0.3302  1.1165
 4469SOL    HW224337   8.428   1.228   0.428 -0.3775  0.0668  2.0627
 4470SOL     OW24338   2.920   3.924   1.658 -0.1797  0.2648 -0.1032
 4470SOL    HW124339   2.927   3.880   1.748  0.5431  1.0636  0.2397
 4470SOL    HW224340   2.841   3.887   1.609 -0.8290  0.1302  1.0296
 4471SOL     OW24341   3.462   3.278   0.450 -0.2526 -0.4786  0.2506
 4471SOL    HW124342   3.553   3.309   0.422  0.0250 -0.1419  1.4693
 4471SOL    HW224343   3.394   3.306   0.382  0.3299  0.7844  0.1735
 4472SOL     OW24344   4.613   8.904   3.309 -0.3169  0.1938 -0.2262
 4472SOL    HW124345   4.641   8.817   3.351 -0.9006  0.3001  0.3960
 4472SOL    HW224346   4.675   8.926   3.234  0.6246 -0.0959  0.4604
 4473SOL     OW24347   2.498   4.476   5.390  0.5676  0.1681  0.1885
 4473SOL    HW124348   2.479   4.379   5.402 -0.1328  0.5032  1.8687
 4473SOL    HW224349   2.503   4.521   5.479  0.4589  1.7544 -0.5784
 4474SOL     OW24350   7.836   6.468   3.655  0.1240  0.4209 -0.6102
 4474SOL    HW124351   7.893   6.450   3.735 -1.2408 -1.2446  0.0417
 4474SOL    HW224352   7.740   6.475   3.684 -0.1240  2.2150 -1.8032
 4475SOL     OW24353   9.325   5.233   1.888 -0.1555  0.1900 -0.1657
 4475SOL    HW124354   9.342   5.295   1.811  0.7248  1.8524  1.3478
 4475SOL    HW224355   9.264   5.159   1.858  2.0958 -0.5819 -3.1407
 4476SOL     OW24356   9.898   1.963   3.044  0.0314 -0.2138  0.4252
 4476SOL    HW124357   9.915   2.051   3.089  0.7406 -0.6403  1.0077
 4476SOL    HW224358   9.841   1.977   2.963 -0.0913  0.7447  0.6747
 4477SOL     OW24359   8.316   0.664   0.432  0.0267  0.2906 -0.1286
 4477SOL    HW124360   8.355   0.680   0.523  0.3986  0.9306 -0.3978
 4477SOL    HW224361   8.224   0.627   0.441 -0.6683  2.1357  0.5008
 4478SOL     OW24362   7.592   2.298   2.671 -0.1664 -0.4236 -0.6090
 4478SOL    HW124363   7.683   2.327   2.700 -0.9366  0.8506  0.5757
 4478SOL    HW224364   7.550   2.369   2.614 -0.9044 -0.4800 -0.1394
 4479SOL     OW24365   4.772   8.511   5.186 -0.1720 -0.6634 -0.0205
 4479SOL    HW124366   4.831   8.590   5.200 -3.2642  1.8495 -0.5702
 4479SOL    HW224367   4.781   8.448   5.263  0.6045  1.3428  1.5574
 4480SOL     OW24368   8.468   6.833   4.760 -0.4617  0.4478 -0.2699
 4480SOL    HW124369   8.425   6.908   4.708 -0.0726 -0.4121 -1.8465
 4480SOL    HW224370   8.520   6.775   4.698  2.0645  0.8084  1.4531
 4481SOL     OW24371   4.233   3.709   1.022  0.0339  0.6227 -0.1385
 4481SOL    HW124372   4.207   3.684   0.928 -0.3242  2.8253 -0.6493
 4481SOL    HW224373   4.273   3.629   1.068 -0.2666 -0.6221 -1.9879
 4482SOL     OW24374   5.249   1.370   1.161 -0.4493 -0.2285 -0.0940
 4482SOL    HW124375   5.337   1.376   1.113 -1.2805  1.4534 -1.4601
 4482SOL    HW224376   5.226   1.274   1.176  0.6481 -0.7401 -1.5518
 4483SOL     OW24377   0.827   3.386   4.649 -0.2360  0.1915 -0.1137
 4483SOL    HW124378   0.895   3.341   4.707  0.0569 -0.1964 -0.7454
 4483SOL    HW224379   0.736   3.376   4.688 -0.0575 -0.1938  0.1997
 4484SOL     OW24380   0.174   4.780   2.199 -0.1393 -0.4269 -0.4800
 4484SOL    HW124381   0.193   4.848   2.270 -2.1856 -0.0080 -0.3272
 4484SOL    HW224382   0.193   4.820   2.109  0.2967 -0.2206 -0.2965
 4485SOL     OW24383   1.045   3.282   0.443  0.1862  0.1085  0.3278
 4485SOL    HW124384   0.975   3.212   0.432  0.4439  0.1305 -1.7943
 4485SOL    HW224385   1.135   3.238   0.452  0.1682  0.1303  0.6126
 4486SOL     OW24386   2.795   0.530   0.654 -0.0183  0.4895  0.4827
 4486SOL    HW124387   2.798   0.510   0.752 -2.4248  0.7474  0.6435
 4486SOL    HW224388   2.708   0.576   0.632  0.4380  0.3281 -1.7854
 4487SOL     OW24389   2.145   5.499   1.807  0.0388  0.0018  0.1746
 4487SOL    HW124390   2.156   5.560   1.729 -1.4718 -0.1304 -0.1440
 4487SOL    HW224391   2.235   5.482   1.848  0.6446  1.3249 -0.5643
 4488SOL     OW24392   3.106   9.037   3.630 -0.7658  0.2535  0.3886
 4488SOL    HW124393   3.078   8.983   3.550  0.8272 -0.3004  0.1818
 4488SOL    HW224394   3.055   9.123   3.632 -3.1032 -1.0845  0.5313
 4489SOL     OW24395   4.035   0.425   4.907 -0.7001 -0.4485 -0.1175
 4489SOL    HW124396   3.998   0.517   4.897 -2.1202 -1.0330 -0.3899
 4489SOL    HW224397   4.105   0.424   4.978 -0.7534  0.8160 -0.0479
 4490SOL     OW24398   2.268   8.043   0.464  0.0689  0.1894 -0.2579
 4490SOL    HW124399   2.222   8.017   0.548 -0.1077 -1.1212 -0.7503
 4490SOL    HW224400   2.202   8.078   0.398  0.0939  0.4158 -0.1649
 4491SOL     OW24401   8.016   6.227   3.156  0.1125 -0.2176 -0.3697
 4491SOL    HW124402   8.024   6.149   3.218 -0.7537 -0.1827 -0.2060
 4491SOL    HW224403   7.950   6.292   3.194  1.5880  1.0853  0.0064
 4492SOL     OW24404   0.487   8.391   5.401  0.0411 -0.1649  0.2601
 4492SOL    HW124405   0.580   8.389   5.438 -0.7465  0.1729  2.2691
 4492SOL    HW224406   0.443   8.303   5.416  0.1580 -0.4569 -1.0439
 4493SOL     OW24407   3.673   1.389   0.123  0.2472 -0.2168 -0.1132
 4493SOL    HW124408   3.716   1.448   0.191 -2.2215 -0.5619  1.8043
 4493SOL    HW224409   3.727   1.306   0.111  0.5359 -0.2945  1.6891
 4494SOL     OW24410   0.042   0.998   5.357  0.1828 -0.2158  0.1236
 4494SOL    HW124411  -0.000   0.910   5.378 -1.0911 -0.1638 -2.1240
 4494SOL    HW224412   0.089   0.993   5.269  1.8416  0.7844  0.9111
 4495SOL     OW24413   8.411   5.760   2.865 -0.2958 -0.5629 -0.0670
 4495SOL    HW124414   8.371   5.692   2.804 -1.2870  0.6459 -0.7905
 4495SOL    HW224415   8.446   5.837   2.811  0.2263 -0.1947  0.7808
 4496SOL     OW24416   8.682   2.402   3.929 -0.0339 -0.1028 -0.0059
 4496SOL    HW124417   8.696   2.343   3.850 -1.9918 -0.7235  0.0731
 4496SOL    HW224418   8.692   2.348   4.013 -1.9937 -0.3983  0.0637
 4497SOL     OW24419   2.005   0.107   1.319 -0.4335 -0.3021  0.1532
 4497SOL    HW124420   2.082   0.117   1.256  0.5594 -0.4553  1.3403
 4497SOL    HW224421   1.924   0.149   1.278  0.7831  1.8130 -0.1992
 4498SOL     OW24422   2.955   9.482   2.851 -0.1959 -0.1384 -0.1845
 4498SOL    HW124423   3.025   9.553   2.844  0.2228 -0.5622 -0.3390
 4498SOL    HW224424   2.875   9.509   2.799  0.1437  0.0095 -0.6377
 4499SOL     OW24425   5.835   4.273   0.209  0.1757  0.1337  0.4978
 4499SOL    HW124426   5.924   4.317   0.209  0.1881  0.1072 -0.1327
 4499SOL    HW224427   5.773   4.323   0.149  0.4239 -1.1740 -0.8641
 4500SOL     OW24428   1.129   1.198   3.492 -0.3095 -0.1760  0.5350
 4500SOL    HW124429   1.047   1.228   3.444 -0.1894  1.3642  1.2652
 4500SOL    HW224430   1.187   1.277   3.511  0.2710 -0.9455  2.0168
 4501SOL     OW24431   0.982   1.040   5.484  0.1503  0.1615  0.4744
 4501SOL    HW124432   0.949   0.972   5.549  0.8477  0.4695  1.1499
 4501SOL    HW224433   0.916   1.115   5.477 -1.4854 -1.3954 -1.5831
 4502SOL     OW24434   9.558   7.544   3.635  0.1237 -0.3985 -0.0385
 4502SOL    HW124435   9.488   7.616   3.638  1.8711  1.3232  2.9193
 4502SOL    HW224436   9.629   7.570   3.569  1.5589  1.4871  2.1577
 4503SOL     OW24437   8.122   4.005   4.313  0.1989  0.2609 -0.1939
 4503SOL    HW124438   8.120   3.975   4.408  0.6020 -0.3557 -0.3771
 4503SOL    HW224439   8.149   3.928   4.255 -0.5591  0.4910 -0.8600
 4504SOL     OW24440   1.797   8.034   0.266  1.0058 -0.4129  0.2300
 4504SOL    HW124441   1.826   7.940   0.280 -1.3984 -0.7452  3.3629
 4504SOL    HW224442   1.709   8.035   0.219  1.4246  0.3189 -0.5577
 4505SOL     OW24443   2.015   5.525   3.361 -0.1179 -0.3485 -0.0415
 4505SOL    HW124444   1.989   5.515   3.457 -1.0058 -1.2657 -0.3718
 4505SOL    HW224445   2.114   5.539   3.354  0.0846 -1.2633  0.9309
 4506SOL     OW24446   4.360   0.250   3.596  0.4412  0.1593 -0.1573
 4506SOL    HW124447   4.413   0.288   3.521  1.8227 -0.7776  0.3109
 4506SOL    HW224448   4.326   0.323   3.655  3.3482  0.6929  0.9291
 4507SOL     OW24449   2.664   7.251   1.137 -0.5804 -0.2156 -0.2213
 4507SOL    HW124450   2.743   7.312   1.130 -0.8003  0.2288  1.0194
 4507SOL    HW224451   2.606   7.263   1.057 -1.6308  2.6632  0.9004
 4508SOL     OW24452   1.322   6.614   4.697  0.5470  0.4463 -0.0698
 4508SOL    HW124453   1.241   6.644   4.646  1.1203  1.8100 -0.1942
 4508SOL    HW224454   1.398   6.600   4.634  1.5212  3.0308  0.4892
 4509SOL     OW24455   7.321   1.013   5.321 -0.1960  0.0357 -0.1034
 4509SOL    HW124456   7.303   1.085   5.254 -0.5937  1.3297  1.3609
 4509SOL    HW224457   7.412   0.974   5.306 -0.5405 -0.1343 -1.7777
 4510SOL     OW24458   8.404   0.640   4.504 -0.3975 -0.0852  0.6980
 4510SOL    HW124459   8.390   0.542   4.523 -1.4865  0.4542  2.8032
 4510SOL    HW224460   8.483   0.673   4.556  1.0246 -0.1848 -1.3123
 4511SOL     OW24461   8.282   1.823   2.962 -0.8072  0.1248  0.8500
 4511SOL    HW124462   8.289   1.901   2.900  0.5054 -0.5955  0.0580
 4511SOL    HW224463   8.209   1.762   2.931  0.2279 -0.5326 -0.3647
 4512SOL     OW24464   4.745   4.001   1.664  0.1116  0.5154 -0.0058
 4512SOL    HW124465   4.794   3.914   1.670 -1.2896 -0.3951 -1.5228
 4512SOL    HW224466   4.803   4.069   1.618  0.0843 -0.4637 -1.5019
 4513SOL     OW24467   6.517   0.287   2.815 -0.6336 -0.3447  0.0918
 4513SOL    HW124468   6.592   0.244   2.764  0.1468 -0.2208  1.1369
 4513SOL    HW224469   6.497   0.377   2.775  0.1390 -0.1474  0.1496
 4514SOL     OW24470   1.376   9.205   3.296 -0.3174  0.2712  0.2488
 4514SOL    HW124471   1.463   9.159   3.313  0.9142  1.1095 -3.4590
 4514SOL    HW224472   1.383   9.301   3.323  0.4002  0.6965 -1.4431
 4515SOL     OW24473   7.603   1.012   0.567  0.2218 -0.0469 -0.6407
 4515SOL    HW124474   7.604   0.987   0.664  1.3165  0.6463 -0.4613
 4515SOL    HW224475   7.595   1.111   0.558  1.3577  0.0060 -1.2206
 4516SOL     OW24476   8.733   6.859   0.959  0.3476  0.2158 -0.2690
 4516SOL    HW124477   8.789   6.804   0.897 -1.0122  1.7040 -2.9096
 4516SOL    HW224478   8.785   6.880   1.042  1.6682 -3.0785 -0.2048
 4517SOL     OW24479   2.258   1.629   3.002  0.3167  0.3350 -0.0125
 4517SOL    HW124480   2.324   1.677   2.943  0.8172  0.2206  0.4498
 4517SOL    HW224481   2.188   1.694   3.031 -0.3701  0.2112 -1.3574
 4518SOL     OW24482   7.606   2.943   0.179  0.2992  0.6152 -0.1674
 4518SOL    HW124483   7.528   2.975   0.232  0.2822 -1.0918  0.8871
 4518SOL    HW224484   7.602   2.982   0.087 -2.4468 -0.3270 -0.4910
 4519SOL     OW24485   5.334   9.088   1.386  0.0641  0.2843  0.3197
 4519SOL    HW124486   5.259   9.113   1.325 -0.2517  0.0125  0.5967
 4519SOL    HW224487   5.400   9.163   1.389  0.6097 -0.1192 -1.1589
 4520SOL     OW24488   0.147   7.404   0.580  0.2317  0.9355 -0.4387
 4520SOL    HW124489   0.185   7.311   0.586 -0.0932  0.7979 -0.5376
 4520SOL    HW224490   0.060   7.402   0.532  0.4050  1.3497 -0.7756
 4521SOL     OW24491   1.910   6.322   2.969 -0.2045 -0.3144  0.2438
 4521SOL    HW124492   1.915   6.230   3.008 -0.2421 -0.8280 -0.9327
 4521SOL    HW224493   1.870   6.317   2.878  1.4793  0.6386 -0.5673
 4522SOL     OW24494   2.660   5.932   0.918  0.2554  0.3946  0.2791
 4522SOL    HW124495   2.571   5.887   0.925  0.7483 -0.3620  1.7435
 4522SOL    HW224496   2.713   5.888   0.846  0.4929 -0.9561  1.2702
 4523SOL     OW24497   8.540   7.245   4.095  0.0910 -0.0442  0.5389
 4523SOL    HW124498   8.517   7.212   4.003 -0.9106  1.1106  0.3479
 4523SOL    HW224499   8.553   7.344   4.091  0.9215 -0.1168  1.4838
 4524SOL     OW24500   9.217   3.995   0.539  0.3153  0.0615  0.1624
 4524SOL    HW124501   9.153   4.067   0.513 -1.4098 -1.4752  0.0140
 4524SOL    HW224502   9.180   3.945   0.618  0.1116 -2.4145 -1.4438
 4525SOL     OW24503   0.366   9.414   5.508 -0.1600 -0.1189 -0.2082
 4525SOL    HW124504   0.301   9.424   5.432 -0.3540 -0.3269 -0.0731
 4525SOL    HW224505   0.336   9.471   5.584 -0.1544 -0.1730 -0.1654
 4526SOL     OW24506   9.729   5.900   3.512  0.0262  0.4323 -0.0227
 4526SOL    HW124507   9.811   5.928   3.562 -0.5654  0.8530  0.7278
 4526SOL    HW224508   9.653   5.960   3.538 -1.2195 -1.6865  1.3934
 4527SOL     OW24509   3.819   6.979   3.844 -0.5482  0.2490  0.1260
 4527SOL    HW124510   3.820   6.895   3.790 -2.2231  1.2347 -1.5067
 4527SOL    HW224511   3.725   7.000   3.871 -0.1604  1.6455  0.4171
 4528SOL     OW24512   9.933   7.508   3.633 -0.2509  0.2811  0.0900
 4528SOL    HW124513   9.935   7.409   3.647 -0.4832  0.3273  0.4449
 4528SOL    HW224514   9.864   7.530   3.565  0.8964  0.0543 -1.1709
 4529SOL     OW24515   2.597   6.371   1.261  0.1984  0.0680  0.1927
 4529SOL    HW124516   2.579   6.424   1.179 -1.2233  1.5509  1.4338
 4529SOL    HW224517   2.583   6.274   1.241  0.0155  0.3962 -1.3392
 4530SOL     OW24518   4.866   0.400   0.487 -0.4749 -0.0109  0.6950
 4530SOL    HW124519   4.842   0.340   0.564 -1.0788  1.0245  1.3279
 4530SOL    HW224520   4.961   0.429   0.495 -0.2156 -0.7701  0.4544
 4531SOL     OW24521   1.070   5.791   0.276  0.3233  0.0562 -0.3957
 4531SOL    HW124522   1.044   5.712   0.332  0.9444 -0.0052 -0.1925
 4531SOL    HW224523   1.100   5.760   0.186  1.1679  0.0076 -0.1032
 4532SOL     OW24524   2.630   4.914   2.907 -0.0689  0.2238 -0.3495
 4532SOL    HW124525   2.647   4.834   2.964  0.6487 -0.1871 -1.1244
 4532SOL    HW224526   2.663   4.996   2.953  1.3503 -0.2125 -0.5583
 4533SOL     OW24527   2.130   0.933   0.153  0.6526  0.0052 -0.0638
 4533SOL    HW124528   2.157   1.007   0.214  1.2152  0.0072 -0.3108
 4533SOL    HW224529   2.032   0.940   0.133  0.8328  1.0546 -0.5958
 4534SOL     OW24530   1.148   0.961   3.845 -0.4011  0.3147 -0.0784
 4534SOL    HW124531   1.215   0.933   3.776 -0.8702 -0.6507 -0.1598
 4534SOL    HW224532   1.174   1.050   3.883  0.6987  0.1416 -0.3996
 4535SOL     OW24533   7.462   7.119   2.976  0.0757 -0.1152  0.3668
 4535SOL    HW124534   7.465   7.100   2.878  1.3194 -3.0640  0.9181
 4535SOL    HW224535   7.378   7.079   3.014 -0.0287  0.3581  0.6320
 4536SOL     OW24536   7.211   5.961   4.432  0.1429 -0.2421  0.3073
 4536SOL    HW124537   7.293   6.011   4.408  0.0070  0.5373  1.4320
 4536SOL    HW224538   7.192   5.972   4.530 -1.0789 -0.7260  0.1375
 4537SOL     OW24539   7.985   2.543   4.435  1.0706 -0.9903 -0.4905
 4537SOL    HW124540   7.953   2.457   4.474  1.3848 -1.2413 -0.7733
 4537SOL    HW224541   7.962   2.545   4.337  1.3456 -0.8971 -0.5552
 4538SOL     OW24542   8.732   0.398   0.457 -0.0243 -0.1723 -0.1344
 4538SOL    HW124543   8.782   0.311   0.458  0.6096  0.0901 -3.1591
 4538SOL    HW224544   8.637   0.383   0.482  0.1686 -1.6807 -0.2787
 4539SOL     OW24545   5.049   0.566   3.119  0.0979 -0.6203  0.1474
 4539SOL    HW124546   5.143   0.533   3.122  0.7717  1.2613  0.0434
 4539SOL    HW224547   4.986   0.488   3.126  1.6444 -1.8019  1.2030
 4540SOL     OW24548   5.889   1.454   1.331  0.4222 -0.1513  0.4705
 4540SOL    HW124549   5.823   1.491   1.266  0.7112 -2.5789 -1.2274
 4540SOL    HW224550   5.933   1.530   1.379 -0.1312  1.6755 -1.8033
 4541SOL     OW24551   7.673   7.026   3.107  0.2359  0.5445 -0.0125
 4541SOL    HW124552   7.598   7.064   3.053  1.2129 -0.7644 -2.3812
 4541SOL    HW224553   7.760   7.063   3.074  0.8184  0.0353  0.9343
 4542SOL     OW24554   8.135   2.429   2.813 -0.5628 -0.0939  0.1928
 4542SOL    HW124555   8.088   2.354   2.858  0.6082 -0.4236  0.8991
 4542SOL    HW224556   8.177   2.488   2.882 -0.0478  0.2442 -0.4035
 4543SOL     OW24557   8.398   6.560   4.841  0.0520  1.0277 -0.2412
 4543SOL    HW124558   8.381   6.545   4.939 -0.4533 -0.2141 -0.5103
 4543SOL    HW224559   8.428   6.655   4.827  0.0712  1.2389  1.1057
 4544SOL     OW24560   5.718   9.294   4.391 -0.3164 -0.7825  0.0874
 4544SOL    HW124561   5.750   9.237   4.466 -0.2511  0.5878  1.1062
 4544SOL    HW224562   5.618   9.292   4.388 -0.2774 -2.3282 -0.9753
 4545SOL     OW24563   2.255   1.908   1.498  0.0166 -0.2152 -0.0204
 4545SOL    HW124564   2.181   1.842   1.484  0.7870 -0.7654 -1.5384
 4545SOL    HW224565   2.219   1.986   1.550 -0.9070 -1.7715  1.7528
 4546SOL     OW24566   9.771   3.198   4.928  0.0179  0.9450  0.0549
 4546SOL    HW124567   9.697   3.133   4.907 -0.1212  1.2771 -0.4964
 4546SOL    HW224568   9.837   3.198   4.852  0.1978  1.2002  0.2088
 4547SOL     OW24569   6.847   0.509   0.673  0.4777  0.0582 -0.5572
 4547SOL    HW124570   6.898   0.449   0.612  1.3995  0.5471 -0.2728
 4547SOL    HW224571   6.891   0.511   0.763 -2.6933 -3.2409  1.1795
 4548SOL     OW24572   2.334   3.864   5.636  0.0641  0.1421 -0.3057
 4548SOL    HW124573   2.327   3.764   5.640  0.0692  0.1228 -0.8072
 4548SOL    HW224574   2.410   3.890   5.577 -0.2894  0.4467 -0.6339
 4549SOL     OW24575   7.705   1.745   0.951  0.3822  0.4776 -0.3932
 4549SOL    HW124576   7.763   1.699   0.884  0.6761  1.0778 -0.5466
 4549SOL    HW224577   7.752   1.824   0.989  0.5032 -0.2664  1.0565
 4550SOL     OW24578   1.455   5.148   4.835 -0.1354 -0.5371  0.2613
 4550SOL    HW124579   1.439   5.168   4.932 -0.4643 -0.7733  0.2569
 4550SOL    HW224580   1.378   5.182   4.781  0.4087  0.2798 -0.0028
 4551SOL     OW24581   9.246   8.004   1.047 -0.2670 -0.1952  0.1951
 4551SOL    HW124582   9.324   7.951   1.012  1.0513  1.5467  0.4272
 4551SOL    HW224583   9.278   8.092   1.080 -2.6439  1.4638 -1.7433
 4552SOL     OW24584   4.645   1.591   4.013  0.0991 -0.6048 -0.0189
 4552SOL    HW124585   4.637   1.660   4.085  0.1531 -1.4303  0.7932
 4552SOL    HW224586   4.741   1.568   3.999 -0.0109 -1.5738  0.7486
 4553SOL     OW24587   5.457   2.032   2.671 -0.0757  0.1411 -0.4318
 4553SOL    HW124588   5.369   2.078   2.678 -0.5809 -1.0132  0.9161
 4553SOL    HW224589   5.461   1.980   2.585 -0.7593  0.0978 -0.4339
 4554SOL     OW24590   8.847   2.923   0.525  0.3324 -0.1858 -0.2498
 4554SOL    HW124591   8.771   2.922   0.590 -0.2654 -1.7814 -0.9503
 4554SOL    HW224592   8.913   2.993   0.552  0.1124 -0.8320  2.0622
 4555SOL     OW24593   9.654   9.485   3.698 -0.2561  0.3879  0.2520
 4555SOL    HW124594   9.589   9.459   3.626  2.2678  1.0932 -2.3803
 4555SOL    HW224595   9.623   9.570   3.741 -2.5267 -0.7724  0.9967
 4556SOL     OW24596   1.675   0.409   0.150  0.5955  0.0932  0.1324
 4556SOL    HW124597   1.609   0.440   0.081  1.2098  1.3745  0.1213
 4556SOL    HW224598   1.632   0.340   0.208 -0.0932 -0.6324 -1.2075
 4557SOL     OW24599   4.400   1.109   3.502 -0.1562 -0.8222 -0.0088
 4557SOL    HW124600   4.441   1.132   3.414 -1.1662 -0.6675 -0.4498
 4557SOL    HW224601   4.447   1.158   3.575  0.0229 -0.1468 -0.5723
 4558SOL     OW24602   8.164   2.867   3.634  0.4999  0.3446 -0.0978
 4558SOL    HW124603   8.125   2.931   3.568 -0.1224 -0.4370 -0.5033
 4558SOL    HW224604   8.264   2.870   3.629  0.4567  0.3502 -1.0290
 4559SOL     OW24605   0.623   3.125   2.083  0.2572  0.4906  0.0952
 4559SOL    HW124606   0.614   3.092   1.989  1.3439 -0.9500  0.4661
 4559SOL    HW224607   0.644   3.222   2.083 -1.5559  0.9024 -1.0909
 4560SOL     OW24608   7.151   0.734   0.737 -0.2221 -0.5410  0.3837
 4560SOL    HW124609   7.143   0.774   0.829 -2.1783  0.0381 -0.0142
 4560SOL    HW224610   7.247   0.729   0.711  0.2902  0.2231  2.0558
 4561SOL     OW24611   1.401   5.013   5.513  0.4233 -0.1858 -0.0537
 4561SOL    HW124612   1.389   4.947   5.439  1.3993  0.4327 -0.7613
 4561SOL    HW224613   1.473   4.982   5.574  1.9464  0.9550 -1.2277
 4562SOL     OW24614   1.833   3.916   3.422 -0.0213  0.2239  0.4847
 4562SOL    HW124615   1.734   3.931   3.423 -0.0428  0.0832  0.9154
 4562SOL    HW224616   1.878   3.988   3.370 -0.2772  0.7621  1.0076
 4563SOL     OW24617   6.647   0.566   3.714 -0.2022 -0.2650  0.6212
 4563SOL    HW124618   6.689   0.654   3.692 -0.8767  0.0585  0.6188
 4563SOL    HW224619   6.551   0.567   3.686 -0.1390 -1.0990  0.3686
 4564SOL     OW24620   3.344   9.125   5.324  0.0987 -0.0140 -0.6598
 4564SOL    HW124621   3.327   9.180   5.242 -0.1712  0.6160 -0.1885
 4564SOL    HW224622   3.428   9.072   5.312  0.9710  1.3510 -0.6994
 4565SOL     OW24623   8.529   6.292   3.313  0.3208 -0.3940 -0.4525
 4565SOL    HW124624   8.594   6.250   3.250  1.0418  0.3698 -0.2181
 4565SOL    HW224625   8.534   6.391   3.306  0.3201 -0.3054  0.7183
 4566SOL     OW24626   9.026   1.337   1.390 -0.0764  0.2057  0.0382
 4566SOL    HW124627   8.969   1.281   1.330  0.2312  0.6561 -0.6758
 4566SOL    HW224628   9.121   1.305   1.386  0.2773  1.3692 -1.1006
 4567SOL     OW24629   0.555   5.757   4.790 -0.0502  0.5135  0.4556
 4567SOL    HW124630   0.545   5.694   4.867 -2.3663 -0.4649 -0.5978
 4567SOL    HW224631   0.496   5.837   4.804 -1.8939 -0.5297 -1.1246
 4568SOL     OW24632   7.477   8.635   2.030 -0.3242  0.8854  0.0950
 4568SOL    HW124633   7.437   8.547   2.053  1.4179 -0.2942 -1.2265
 4568SOL    HW224634   7.437   8.668   1.944  2.6894 -1.1478 -2.1798
 4569SOL     OW24635   9.010   3.665   1.149  0.5097 -0.1502 -0.2302
 4569SOL    HW124636   8.962   3.580   1.170  0.9594 -0.5100 -0.6471
 4569SOL    HW224637   9.074   3.686   1.223  0.0888  0.0545  0.0776
 4570SOL     OW24638   8.285   8.153   2.853 -0.0506 -0.2489  0.0754
 4570SOL    HW124639   8.314   8.058   2.852  1.2958  0.1505  0.2006
 4570SOL    HW224640   8.265   8.183   2.760  1.0793 -0.1922 -0.1498
 4571SOL     OW24641   8.544   8.843   2.852  0.0099 -0.3429 -0.7824
 4571SOL    HW124642   8.575   8.764   2.904  1.2036 -0.6532 -1.9463
 4571SOL    HW224643   8.550   8.925   2.909  1.5428 -0.6287 -0.5042
 4572SOL     OW24644   9.316   6.994   3.804  0.3938 -0.0970  0.2253
 4572SOL    HW124645   9.409   6.971   3.832  0.3936  0.0135  0.3136
 4572SOL    HW224646   9.254   6.982   3.881 -0.0410 -2.4879 -0.4576
 4573SOL     OW24647   6.315   7.075   3.982  0.8468 -0.1639  0.2495
 4573SOL    HW124648   6.399   7.032   4.017 -0.6444 -1.3742  2.4507
 4573SOL    HW224649   6.256   7.005   3.942  0.1591  0.4369  0.2016
 4574SOL     OW24650   5.557   2.393   2.113 -0.2603  0.2183  0.7697
 4574SOL    HW124651   5.570   2.303   2.071 -4.2035 -0.6066  1.1100
 4574SOL    HW224652   5.571   2.465   2.045 -2.5471 -0.9143 -0.9307
 4575SOL     OW24653   8.473   4.678   0.138  0.1949  0.3273 -0.3481
 4575SOL    HW124654   8.441   4.750   0.077  2.9892  1.3751 -0.6090
 4575SOL    HW224655   8.474   4.712   0.232  2.2751  0.9054 -0.5702
 4576SOL     OW24656   2.449   0.176   2.557 -0.5577  0.0917  0.0980
 4576SOL    HW124657   2.421   0.113   2.485 -1.5130 -1.1777  1.5632
 4576SOL    HW224658   2.480   0.125   2.637  0.4668  1.4861  0.6227
 4577SOL     OW24659   2.408   2.259   4.609  0.0739 -0.1651  0.1109
 4577SOL    HW124660   2.381   2.333   4.547  1.4375  1.9323  1.9533
 4577SOL    HW224661   2.394   2.289   4.704  2.4622 -1.5326  0.9238
 4578SOL     OW24662   8.255   2.580   3.015  0.2578 -0.1761 -0.2429
 4578SOL    HW124663   8.343   2.619   3.042 -0.2200  1.6583 -1.3067
 4578SOL    HW224664   8.185   2.651   3.015 -1.3807 -1.7545  1.2145
 4579SOL     OW24665   8.657   1.281   1.324 -0.3757 -0.2624  0.0986
 4579SOL    HW124666   8.743   1.229   1.328  0.3038  0.8428  0.1111
 4579SOL    HW224667   8.588   1.234   1.378  0.9061  0.0898  2.1061
 4580SOL     OW24668   7.976   5.765   0.427  0.5587 -0.1469  0.4064
 4580SOL    HW124669   7.933   5.778   0.516 -1.1242  0.2511 -0.4355
 4580SOL    HW224670   8.039   5.841   0.409 -2.8122  2.4907 -0.8279
 4581SOL     OW24671   1.766   0.285   4.917 -0.3683  0.0919  0.0509
 4581SOL    HW124672   1.828   0.323   4.986 -0.7006  0.9258 -0.0953
 4581SOL    HW224673   1.760   0.348   4.840 -1.3151 -0.0276  0.0174
 4582SOL     OW24674   3.486   2.056   3.667  0.1837  0.0995  0.8315
 4582SOL    HW124675   3.445   2.142   3.699  1.4580  0.9324  0.2660
 4582SOL    HW224676   3.585   2.059   3.683  0.3137 -1.0289  0.2673
 4583SOL     OW24677   0.961   7.416   2.320  0.3786 -0.5779 -0.3013
 4583SOL    HW124678   1.025   7.451   2.388 -0.0208 -1.0640  0.3319
 4583SOL    HW224679   0.874   7.465   2.326  0.9020  0.5445 -1.6144
 4584SOL     OW24680   3.704   1.891   2.354 -0.0336  0.2355 -0.7291
 4584SOL    HW124681   3.721   1.981   2.393 -1.9041  0.2041  0.2237
 4584SOL    HW224682   3.762   1.823   2.399  0.4930  0.7744 -0.5984
 4585SOL     OW24683   3.279   1.507   1.182 -0.0275 -0.0471 -0.1577
 4585SOL    HW124684   3.288   1.544   1.089  1.0089  0.7414  0.2390
 4585SOL    HW224685   3.214   1.562   1.234  0.1409  0.1228 -0.1239
 4586SOL     OW24686   5.679   1.318   1.919 -0.3544  0.1371 -0.3926
 4586SOL    HW124687   5.778   1.311   1.911 -0.3564  1.1460 -1.3936
 4586SOL    HW224688   5.651   1.285   2.009  0.6129 -2.6178 -1.0493
 4587SOL     OW24689   0.944   6.348   5.226  0.7007 -0.1953 -0.0563
 4587SOL    HW124690   1.015   6.345   5.155  0.7839 -1.3150  0.0624
 4587SOL    HW224691   0.937   6.441   5.263  2.3203 -0.1433  0.1522
 4588SOL     OW24692   1.528   5.098   1.025 -0.1174  0.3392  0.1124
 4588SOL    HW124693   1.568   5.007   1.035  0.3273  0.3990 -1.0102
 4588SOL    HW224694   1.588   5.166   1.066  0.0933  0.2483 -0.0483
 4589SOL     OW24695   3.661   4.368   5.041  0.1975  0.1389  0.4069
 4589SOL    HW124696   3.657   4.447   4.979 -0.1167 -0.0539  0.1764
 4589SOL    HW224697   3.576   4.364   5.094  0.5918  0.4853  1.0801
 4590SOL     OW24698   1.589   3.216   5.400 -0.7475  0.5747  0.4024
 4590SOL    HW124699   1.670   3.233   5.456 -1.9240  3.8051  1.2214
 4590SOL    HW224700   1.519   3.171   5.456 -1.9594  3.8918  1.6833
 4591SOL     OW24701   4.029   9.057   2.240 -0.0019 -0.4771 -0.4390
 4591SOL    HW124702   4.118   9.077   2.198  0.2026 -2.0158 -0.7736
 4591SOL    HW224703   3.979   8.993   2.182 -0.6274 -0.9213  0.5802
 4592SOL     OW24704   9.471   4.679   4.351  0.1675 -0.1002  0.3297
 4592SOL    HW124705   9.466   4.587   4.314 -0.2036  0.2512 -0.5194
 4592SOL    HW224706   9.478   4.745   4.276 -2.7580  0.7670  0.7279
 4593SOL     OW24707   0.180   7.083   0.837 -0.5882 -0.4020 -1.2454
 4593SOL    HW124708   0.088   7.115   0.859 -0.2334  2.6843 -3.8739
 4593SOL    HW224709   0.173   6.999   0.782 -1.8187 -0.2644 -1.3283
 4594SOL     OW24710   8.312   2.427   3.829 -0.9797 -0.0124  0.2349
 4594SOL    HW124711   8.284   2.506   3.773  0.7323 -0.1242 -0.8334
 4594SOL    HW224712   8.330   2.457   3.922 -3.7425  0.2070  0.7452
 4595SOL     OW24713   3.084   8.824   4.017  0.6647 -0.3032  0.0516
 4595SOL    HW124714   3.120   8.746   4.068  1.1871 -1.3040 -1.8074
 4595SOL    HW224715   3.046   8.792   3.930 -0.9477  1.2688  0.1350
 4596SOL     OW24716   1.053   6.310   1.847 -0.0048  0.4716  0.5460
 4596SOL    HW124717   1.105   6.328   1.931 -0.6777  2.3504  0.5680
 4596SOL    HW224718   1.111   6.326   1.767  0.4763 -0.8151  0.6157
 4597SOL     OW24719   6.661   8.935   3.055 -0.0432 -0.5237 -0.6347
 4597SOL    HW124720   6.620   8.863   3.111 -1.8254  0.1449 -1.0223
 4597SOL    HW224721   6.726   8.895   2.991 -0.1615 -1.6433 -0.0714
 4598SOL     OW24722   2.358   5.965   0.311 -0.0097  0.0524 -0.8979
 4598SOL    HW124723   2.273   6.017   0.314 -0.1703 -0.3055  1.5565
 4598SOL    HW224724   2.412   5.995   0.232 -1.1448  2.2813 -0.8823
 4599SOL     OW24725   9.022   0.823   1.328 -0.6553 -0.1708 -0.3225
 4599SOL    HW124726   8.945   0.763   1.348  0.6233 -1.1946  1.6751
 4599SOL    HW224727   9.071   0.789   1.248 -1.1066 -0.6775 -0.3851
 4600SOL     OW24728   9.378   7.728   3.683  0.9318  0.1759  0.3520
 4600SOL    HW124729   9.304   7.662   3.667  0.7650  0.0953  1.4139
 4600SOL    HW224730   9.376   7.797   3.611  0.1123 -0.0909  0.1055
 4601SOL     OW24731   7.566   1.724   2.107  0.5010 -0.0763 -0.0281
 4601SOL    HW124732   7.551   1.629   2.078  0.9871  0.2692 -1.4486
 4601SOL    HW224733   7.661   1.735   2.135  0.2788 -0.1684  0.7603
 4602SOL     OW24734   0.410   8.987   3.803  0.2388 -0.2708  0.0466
 4602SOL    HW124735   0.377   8.927   3.875  0.5092 -0.1365  0.2827
 4602SOL    HW224736   0.403   8.940   3.715 -1.0273 -0.0655  0.0268
 4603SOL     OW24737   2.184   3.507   2.609 -0.0016 -0.2728  0.0234
 4603SOL    HW124738   2.169   3.411   2.634  0.8336 -0.5151 -0.3824
 4603SOL    HW224739   2.164   3.519   2.511  0.8096 -0.2471 -0.1441
 4604SOL     OW24740   1.127   9.157   2.802  1.3789 -0.2490 -0.1682
 4604SOL    HW124741   1.050   9.221   2.802  0.4100 -1.3869  0.2746
 4604SOL    HW224742   1.145   9.126   2.896  0.9784 -1.6146 -0.5235
 4605SOL     OW24743   5.414   9.621   1.754  0.2842 -0.2275  0.3482
 4605SOL    HW124744   5.428   9.579   1.665  2.3461 -0.4562  0.7641
 4605SOL    HW224745   5.465   9.706   1.759  1.3501 -0.9376  1.8135
 4606SOL     OW24746   2.998   1.159   3.510 -0.2305 -0.2467  0.9382
 4606SOL    HW124747   3.090   1.195   3.519 -0.8249  1.0517  2.0446
 4606SOL    HW224748   2.944   1.184   3.591 -1.8835  0.0279 -0.2157
 4607SOL     OW24749   7.655   9.071   4.939 -0.2371 -0.6873 -0.3871
 4607SOL    HW124750   7.710   9.087   4.857 -1.8432 -1.4451 -1.6351
 4607SOL    HW224751   7.569   9.121   4.931  0.2038  0.4319  1.5233
 4608SOL     OW24752   7.158   8.035   1.715 -0.5664 -0.0641  0.0521
 4608SOL    HW124753   7.128   8.107   1.652 -0.9062 -0.8500 -0.6812
 4608SOL    HW224754   7.085   7.968   1.726  0.0565 -0.7329  0.1107
 4609SOL     OW24755   4.456   3.700   5.282 -0.3771 -0.4361 -0.0817
 4609SOL    HW124756   4.375   3.689   5.224 -0.6476  1.6342 -0.1269
 4609SOL    HW224757   4.452   3.635   5.358 -1.7925 -0.7343 -0.4007
 4610SOL     OW24758   5.299   9.624   2.797  0.2132 -0.0204  0.1735
 4610SOL    HW124759   5.355   9.654   2.874 -2.0394  0.4822  1.6864
 4610SOL    HW224760   5.333   9.536   2.764  1.7283  0.1488  1.2060
 4611SOL     OW24761   9.084   3.302   1.381 -0.1726 -0.6993 -0.0842
 4611SOL    HW124762   9.163   3.344   1.425  0.5677 -4.1518  2.0463
 4611SOL    HW224763   9.111   3.264   1.293  0.2874 -0.8972  0.1402
 4612SOL     OW24764   3.571   5.430   0.288 -0.1242 -0.5228 -0.7623
 4612SOL    HW124765   3.620   5.508   0.248 -1.8449  0.8466 -0.2495
 4612SOL    HW224766   3.497   5.402   0.228 -1.2142 -0.0012  0.3139
 4613SOL     OW24767   9.618   5.568   2.176  0.1938 -0.7615 -0.2759
 4613SOL    HW124768   9.563   5.484   2.179 -0.0792 -0.6661 -1.7716
 4613SOL    HW224769   9.698   5.558   2.234  0.4625 -2.2846 -0.8832
 4614SOL     OW24770   1.345   2.554   4.620  0.3298  0.4401  0.1186
 4614SOL    HW124771   1.424   2.594   4.667  2.2779 -0.3453 -2.3722
 4614SOL    HW224772   1.359   2.455   4.610  0.0067  0.5981 -2.1419
 4615SOL     OW24773   3.203   7.813   3.427 -0.0479 -0.3413  0.2349
 4615SOL    HW124774   3.249   7.794   3.514  1.2535  0.0328 -0.3499
 4615SOL    HW224775   3.196   7.728   3.374 -0.1797 -0.4331  0.3994
 4616SOL     OW24776   2.116   9.036   0.148  0.2254  0.1338  0.5191
 4616SOL    HW124777   2.129   9.132   0.171  1.0019  0.3074 -0.5993
 4616SOL    HW224778   2.167   9.014   0.065  0.7499 -1.4547  1.2273
 4617SOL     OW24779   9.385   9.094   0.769  0.2865 -0.0807  0.2323
 4617SOL    HW124780   9.479   9.121   0.749  0.7970 -0.3893  2.1054
 4617SOL    HW224781   9.336   9.080   0.683  1.8785  0.2847 -0.7729
 4618SOL     OW24782   9.372   1.185   2.199 -0.1879 -0.2840 -0.6634
 4618SOL    HW124783   9.465   1.210   2.227  0.1296 -1.6426 -0.4726
 4618SOL    HW224784   9.327   1.264   2.157 -0.1615  1.3964  2.3066
 4619SOL     OW24785   8.220   8.789   4.634 -0.1922  0.0654  0.0964
 4619SOL    HW124786   8.199   8.709   4.578  2.3525 -1.0707  0.6818
 4619SOL    HW224787   8.295   8.767   4.696  0.7969  3.0214  0.0309
 4620SOL     OW24788   8.869   1.952   0.061 -0.6005 -0.2535 -0.8625
 4620SOL    HW124789   8.948   2.013   0.070  0.4590 -1.4746 -1.7198
 4620SOL    HW224790   8.787   2.000   0.093  0.3085  1.3910 -0.8947
 4621SOL     OW24791   8.598   4.096   4.951  0.1704  0.1347 -0.2064
 4621SOL    HW124792   8.605   3.998   4.968  0.7086 -0.2175 -2.3191
 4621SOL    HW224793   8.510   4.130   4.985 -0.4120 -1.2538 -0.3101
 4622SOL     OW24794   0.795   2.564   2.788 -0.7606  0.0258 -0.3958
 4622SOL    HW124795   0.830   2.631   2.723  0.1049 -0.0834 -0.0530
 4622SOL    HW224796   0.744   2.494   2.738 -1.1977  0.6390 -0.8139
 4623SOL     OW24797   6.882   1.334   2.410 -0.2124 -0.0809  0.4992
 4623SOL    HW124798   6.962   1.379   2.451  1.5149 -2.7966  0.1984
 4623SOL    HW224799   6.834   1.282   2.480  0.0647 -0.9304  0.0696
 4624SOL     OW24800   3.672   0.686   2.310  0.4996 -0.1042 -0.2765
 4624SOL    HW124801   3.764   0.681   2.270  0.7146 -0.7669  0.2918
 4624SOL    HW224802   3.605   0.663   2.239  0.8689 -1.0902 -0.3165
 4625SOL     OW24803   8.073   5.911   3.718 -0.4438 -0.2711  0.2932
 4625SOL    HW124804   8.006   5.838   3.717  0.0796 -0.7781  1.0945
 4625SOL    HW224805   8.161   5.877   3.686  0.1317 -0.3545  1.8769
 4626SOL     OW24806   1.576   4.655   0.400  0.0279  0.4601  0.2022
 4626SOL    HW124807   1.504   4.649   0.470 -0.4979  1.4195 -0.2466
 4626SOL    HW224808   1.664   4.629   0.441 -0.5987 -0.9221  0.6989
 4627SOL     OW24809   7.561   0.647   3.220 -0.3015 -0.0826  0.1096
 4627SOL    HW124810   7.600   0.558   3.196 -0.3824 -0.2716  0.6814
 4627SOL    HW224811   7.530   0.646   3.315 -0.0070  0.6599  0.2209
 4628SOL     OW24812   0.111   8.781   2.086  0.2541 -0.1095  0.4000
 4628SOL    HW124813   0.135   8.798   2.182 -0.1518  0.1520  0.4525
 4628SOL    HW224814   0.028   8.830   2.063  0.6523  0.2656 -0.2447
 4629SOL     OW24815   8.535   4.194   1.118 -0.0392  0.1607 -0.2911
 4629SOL    HW124816   8.470   4.132   1.162  0.9862 -0.9900 -0.3639
 4629SOL    HW224817   8.489   4.247   1.048 -0.8342 -0.8665 -0.5563
 4630SOL     OW24818   0.629   5.081   2.589 -0.3480  0.1910 -0.3343
 4630SOL    HW124819   0.706   5.070   2.527 -1.2645  1.0035 -1.6427
 4630SOL    HW224820   0.610   5.179   2.603  0.5659  0.0593  2.1493
 4631SOL     OW24821   1.479   5.501   4.218 -0.4954 -0.1326 -0.5928
 4631SOL    HW124822   1.545   5.520   4.144 -0.2414  0.2602 -0.2679
 4631SOL    HW224823   1.468   5.403   4.228  0.6271 -0.2225 -0.1378
 4632SOL     OW24824   3.567   3.398   2.921 -0.1677 -0.9149  0.0795
 4632SOL    HW124825   3.627   3.359   2.852  1.5687  1.4495  0.1806
 4632SOL    HW224826   3.477   3.417   2.880  0.5317 -0.4612 -1.2834
 4633SOL     OW24827   7.439   9.893   0.620  0.4893 -0.2285 -0.6864
 4633SOL    HW124828   7.379   9.934   0.552 -0.9795 -0.4733  0.4507
 4633SOL    HW224829   7.534   9.910   0.594 -0.0253 -0.5950 -2.9673
 4634SOL     OW24830   5.811   9.249   4.066  0.3042 -0.8938  0.3160
 4634SOL    HW124831   5.770   9.289   3.985  1.0852 -0.1073  0.3002
 4634SOL    HW224832   5.751   9.177   4.102  0.4445 -1.9739 -1.5584
 4635SOL     OW24833   0.789   6.023   3.345  0.9004 -0.2512  0.2148
 4635SOL    HW124834   0.837   6.035   3.432  0.1844  0.8300  0.4784
 4635SOL    HW224835   0.690   6.027   3.361  0.7489 -0.8395 -0.5407
 4636SOL     OW24836   2.373   7.215   4.895 -0.0959 -0.4418 -0.3635
 4636SOL    HW124837   2.407   7.304   4.926 -3.2626  1.6753 -2.6301
 4636SOL    HW224838   2.419   7.190   4.810  0.7559 -0.9589  0.2445
 4637SOL     OW24839   9.220   4.927   3.150  0.2407  0.1454  0.1959
 4637SOL    HW124840   9.145   4.934   3.084 -0.1144 -0.1781  0.5626
 4637SOL    HW224841   9.295   4.988   3.122 -1.3746  2.7935  1.4356
 4638SOL     OW24842   1.875   0.428   5.156 -0.2403 -0.3612  0.0663
 4638SOL    HW124843   1.847   0.519   5.186  1.6701 -0.0111  0.8645
 4638SOL    HW224844   1.964   0.434   5.111  0.3974 -1.9914  1.0962
 4639SOL     OW24845   0.526   9.171   2.055 -0.9562  0.0927  0.1096
 4639SOL    HW124846   0.464   9.099   2.085 -0.8260 -1.0940 -2.3547
 4639SOL    HW224847   0.554   9.155   1.960  2.2540  1.2047  0.7858
 4640SOL     OW24848   8.956   5.080   5.603  0.0811 -0.2444 -0.3877
 4640SOL    HW124849   9.019   5.127   5.664  0.8674 -0.7528 -0.8075
 4640SOL    HW224850   8.928   4.994   5.644 -1.4507  0.6167  0.4348
 4641SOL     OW24851   4.485   2.462   1.193  0.7706 -0.1416 -0.1486
 4641SOL    HW124852   4.506   2.371   1.160 -0.8980 -0.9293  0.8518
 4641SOL    HW224853   4.404   2.497   1.146  0.8482  0.4382  0.1367
 4642SOL     OW24854   2.718   9.360   1.936  0.3321  0.0873 -0.0231
 4642SOL    HW124855   2.661   9.278   1.947  0.5613 -0.0087  0.4644
 4642SOL    HW224856   2.672   9.424   1.874  0.1697 -0.4246 -0.4428
 4643SOL     OW24857   7.238   4.128   0.396  0.0303 -0.7897  0.1074
 4643SOL    HW124858   7.293   4.145   0.314  1.3848  1.1978  1.3873
 4643SOL    HW224859   7.143   4.153   0.379  0.2237 -0.7532 -0.9568
 4644SOL     OW24860   0.291   2.831   0.644 -0.1416  0.6790 -0.2792
 4644SOL    HW124861   0.246   2.859   0.729  2.6434  1.1449  1.1164
 4644SOL    HW224862   0.279   2.733   0.630 -0.9339  0.6700  0.4502
 4645SOL     OW24863   1.652   1.692   2.772 -0.2362  0.3050  0.0178
 4645SOL    HW124864   1.748   1.683   2.746 -0.1293  0.9441  0.2004
 4645SOL    HW224865   1.637   1.646   2.860  0.3174  1.8579  0.9479
 4646SOL     OW24866   5.945   9.993   2.379 -0.1870  0.0892 -0.5853
 4646SOL    HW124867   6.004   9.953   2.308  2.0320  0.9841  0.6971
 4646SOL    HW224868   5.969   9.952   2.467 -0.3385  1.6824  0.2024
 4647SOL     OW24869   4.872   9.272   2.299 -0.3464 -0.0714  0.2406
 4647SOL    HW124870   4.859   9.281   2.201 -1.8485 -0.0746  0.4252
 4647SOL    HW224871   4.812   9.337   2.347 -0.6554 -1.0267  1.1748
 4648SOL     OW24872   3.709   4.120   2.831  0.5599 -0.3563  0.1473
 4648SOL    HW124873   3.772   4.195   2.850  1.3013 -0.2417 -2.5716
 4648SOL    HW224874   3.752   4.033   2.856  1.7498 -0.2623 -1.5063
 4649SOL     OW24875   3.851   9.928   5.025 -0.3173 -0.1056  0.1498
 4649SOL    HW124876   3.833   9.855   4.959  0.2746 -2.2359  2.2714
 4649SOL    HW224877   3.943   9.918   5.062 -1.1894  0.0893  2.4606
 4650SOL     OW24878   4.704   9.967   3.849  0.6160  0.5018  0.5141
 4650SOL    HW124879   4.662   9.922   3.928  0.0732 -1.3605 -0.8025
 4650SOL    HW224880   4.632   9.995   3.785  1.2124 -1.3802 -1.0566
 4651SOL     OW24881   5.017   3.832   0.762 -0.7856 -0.7204 -0.3284
 4651SOL    HW124882   5.078   3.756   0.738 -1.5849 -1.3785 -0.3187
 4651SOL    HW224883   4.970   3.811   0.848 -1.1644 -0.3080 -0.4313
 4652SOL     OW24884   3.758   1.511   1.792 -0.0029 -0.2231 -0.6078
 4652SOL    HW124885   3.702   1.554   1.722  0.3651 -0.4288 -1.0281
 4652SOL    HW224886   3.805   1.582   1.846 -0.2397 -0.0696 -0.6056
 4653SOL     OW24887   8.778   4.580   3.052  0.2790 -0.0391 -0.3367
 4653SOL    HW124888   8.695   4.555   3.002 -0.0039  0.9894 -0.3957
 4653SOL    HW224889   8.753   4.608   3.145  0.5828  0.1381 -0.3085
 4654SOL     OW24890   0.395   7.541   0.825 -0.3862  0.6307 -0.0174
 4654SOL    HW124891   0.433   7.467   0.770 -1.5551  0.4149 -0.5435
 4654SOL    HW224892   0.317   7.582   0.777 -1.1281  0.7476  1.2645
 4655SOL     OW24893   1.358   5.693   5.308  0.3020  0.1763  0.2933
 4655SOL    HW124894   1.284   5.649   5.359  0.2536  0.9940  0.9369
 4655SOL    HW224895   1.446   5.654   5.338  0.3492  1.3699  1.7585
 4656SOL     OW24896   4.901   8.558   2.106  0.2226 -0.0972 -0.1882
 4656SOL    HW124897   4.935   8.471   2.141 -0.9572 -1.1106 -1.5375
 4656SOL    HW224898   4.822   8.542   2.047 -0.5168  1.9576  0.2111
 4657SOL     OW24899   3.627   4.745   4.631 -0.2462 -0.1626 -0.0219
 4657SOL    HW124900   3.605   4.835   4.668  0.4816 -0.6155  1.5899
 4657SOL    HW224901   3.718   4.747   4.590  0.3647 -0.5022  1.2878
 4658SOL     OW24902   1.536   7.439   2.456 -0.0433 -0.5170  0.3227
 4658SOL    HW124903   1.566   7.452   2.551 -0.2740 -0.0503  0.3277
 4658SOL    HW224904   1.466   7.368   2.453  1.3967 -1.9780  0.2571
 4659SOL     OW24905   9.202   8.344   5.544 -0.0458 -0.1866  0.1430
 4659SOL    HW124906   9.164   8.437   5.549 -0.4927 -0.3995  0.7552
 4659SOL    HW224907   9.292   8.342   5.587  0.3923  0.1778 -0.7408
 4660SOL     OW24908   5.276   1.232   2.160 -0.2474 -0.0891  0.4686
 4660SOL    HW124909   5.235   1.195   2.077 -0.1010  0.1125  0.3081
 4660SOL    HW224910   5.364   1.187   2.177  2.5508  3.9167 -2.6690
 4661SOL     OW24911   9.231   1.358   5.235  0.5062  0.5457  0.1494
 4661SOL    HW124912   9.212   1.434   5.297  2.2802  1.2474 -0.1465
 4661SOL    HW224913   9.309   1.381   5.177  0.0988 -0.8966 -0.9987
 4662SOL     OW24914   9.528   5.185   0.694 -0.1052 -0.3830  0.6662
 4662SOL    HW124915   9.559   5.092   0.673  2.4060  0.3005  1.2760
 4662SOL    HW224916   9.607   5.244   0.710 -1.6687  1.9279  0.0621
 4663SOL     OW24917   1.257   4.095   4.577 -0.0001 -0.1106 -0.6011
 4663SOL    HW124918   1.332   4.159   4.563  0.2983 -0.5240 -0.8936
 4663SOL    HW224919   1.291   4.013   4.624 -0.5907  0.3978  0.7378
 4664SOL     OW24920   8.740   2.076   3.363  0.4844 -0.1182 -0.6609
 4664SOL    HW124921   8.691   2.133   3.296  0.1243  0.5343  0.1550
 4664SOL    HW224922   8.808   2.132   3.411  1.3235 -0.7798 -1.0535
 4665SOL     OW24923   9.647   7.946   0.814  0.2884 -0.0992 -0.1485
 4665SOL    HW124924   9.597   7.889   0.880 -0.1183  0.5704  0.1262
 4665SOL    HW224925   9.698   8.017   0.864  0.1230  0.2977 -0.5456
 4666SOL     OW24926   4.969   9.244   4.553 -0.1187  0.0443 -0.4441
 4666SOL    HW124927   4.879   9.217   4.586  0.3696  0.5677  1.3742
 4666SOL    HW224928   4.962   9.273   4.457 -1.8559 -0.0035 -0.3488
 4667SOL     OW24929   4.181   9.871   2.261 -0.7924 -0.4397  0.2951
 4667SOL    HW124930   4.087   9.863   2.229 -0.0767 -0.4468 -1.8425
 4667SOL    HW224931   4.221   9.780   2.271 -0.1113 -0.3460 -1.5296
 4668SOL     OW24932   4.888   9.886   3.164 -0.0157 -0.1488  0.0336
 4668SOL    HW124933   4.964   9.867   3.103  1.0454 -1.7149  1.7951
 4668SOL    HW224934   4.840   9.801   3.185 -0.2600  0.3382  1.4980
 4669SOL     OW24935   3.469   9.989   2.196 -0.1199 -0.0718 -0.3243
 4669SOL    HW124936   3.470  10.014   2.100  1.6521 -1.8973 -0.8295
 4669SOL    HW224937   3.426   9.899   2.207  0.7521 -0.4092  0.4201
 4670SOL     OW24938   8.089   7.290   2.731 -0.2095  0.2726 -0.2077
 4670SOL    HW124939   8.019   7.224   2.702  1.5951 -1.1894 -1.4006
 4670SOL    HW224940   8.174   7.271   2.682  0.5180  3.1768 -0.1441
 4671SOL     OW24941   7.629   3.084   5.319 -0.2581  0.4915  0.2393
 4671SOL    HW124942   7.716   3.054   5.282 -0.9531 -0.6216 -0.5002
 4671SOL    HW224943   7.556   3.025   5.286 -1.5445  2.5096 -0.6115
 4672SOL     OW24944   8.258   6.808   1.804 -0.2568  0.2489 -0.3155
 4672SOL    HW124945   8.212   6.749   1.738  0.5883 -0.6827 -0.0900
 4672SOL    HW224946   8.357   6.806   1.788 -0.1152  0.6532  0.4561
 4673SOL     OW24947   0.442   4.207   3.934 -0.1299  0.0174  0.1048
 4673SOL    HW124948   0.526   4.244   3.893  0.3594 -2.5674 -1.2860
 4673SOL    HW224949   0.379   4.179   3.862 -1.2015 -0.3143  1.1601
 4674SOL     OW24950   9.795   3.450   3.444 -0.2014  0.1030 -0.2375
 4674SOL    HW124951   9.871   3.393   3.473  0.3279  1.4718  1.1105
 4674SOL    HW224952   9.828   3.520   3.380 -0.4232  0.3775 -0.0528
 4675SOL     OW24953   1.128   5.340   0.099 -0.2707 -0.4133  0.4539
 4675SOL    HW124954   1.177   5.427   0.105 -0.5969 -0.2909  1.3377
 4675SOL    HW224955   1.141   5.288   0.184  2.2747 -2.4847 -1.0905
 4676SOL     OW24956   2.343   4.493   2.328  0.3422  0.1775  0.0035
 4676SOL    HW124957   2.243   4.490   2.326  0.3305  1.1443 -1.7454
 4676SOL    HW224958   2.376   4.440   2.406 -1.5304 -0.1017  0.6395
 4677SOL     OW24959   8.645   7.634   2.737  0.0392 -0.8208  0.2805
 4677SOL    HW124960   8.555   7.616   2.777  0.6025 -2.6953  0.7715
 4677SOL    HW224961   8.652   7.589   2.648 -0.1433  0.8561 -0.6025
 4678SOL     OW24962   6.347   9.315   4.575 -0.3587  0.0486  0.2862
 4678SOL    HW124963   6.271   9.358   4.622  0.0581 -0.7171  1.6820
 4678SOL    HW224964   6.368   9.227   4.618 -0.0558 -0.7281 -1.4060
 4679SOL     OW24965   9.553   5.263   4.156 -0.3318  0.3976  0.5010
 4679SOL    HW124966   9.495   5.296   4.082  1.2417  0.4820 -0.7260
 4679SOL    HW224967   9.604   5.339   4.195 -0.5089  0.2164  1.0879
 4680SOL     OW24968   7.603   8.128   2.521  0.1949  0.1102 -0.0382
 4680SOL    HW124969   7.523   8.188   2.521 -0.5715 -0.8943 -0.5711
 4680SOL    HW224970   7.612   8.085   2.432  1.5499  0.4769 -0.0955
 4681SOL     OW24971   4.031   5.080   0.909  0.0565  0.1877 -0.1713
 4681SOL    HW124972   4.091   5.134   0.967 -1.1348 -1.8193  3.0342
 4681SOL    HW224973   4.085   5.038   0.836  2.4873 -1.0714  2.2602
 4682SOL     OW24974   3.555   4.886   3.013 -0.5394  0.1026  0.1342
 4682SOL    HW124975   3.458   4.913   3.012 -0.2642  1.1854  1.1822
 4682SOL    HW224976   3.575   4.833   2.931 -1.3734  2.2115 -1.5096
 4683SOL     OW24977   4.930   9.402   3.803 -0.2460 -0.0780  0.5309
 4683SOL    HW124978   5.024   9.407   3.836  0.0093  0.9162 -0.3252
 4683SOL    HW224979   4.885   9.321   3.841  0.5688  0.1209  1.9286
 4684SOL     OW24980   7.574   7.414   4.179  0.1347 -0.2166 -0.9611
 4684SOL    HW124981   7.479   7.432   4.154  0.0981 -0.8969 -1.3241
 4684SOL    HW224982   7.618   7.361   4.106  0.7494 -0.0277 -0.7273
 4685SOL     OW24983   2.750   2.369   3.589 -0.4190  0.0082 -0.0655
 4685SOL    HW124984   2.775   2.450   3.536  1.6222 -1.6488 -1.7150
 4685SOL    HW224985   2.702   2.304   3.531 -4.0468  0.8840  1.7934
 4686SOL     OW24986   5.394   9.752   2.576  0.2900 -0.0137 -0.1112
 4686SOL    HW124987   5.342   9.695   2.640  3.2508 -2.7343  0.0128
 4686SOL    HW224988   5.482   9.778   2.617  1.1104  0.4271 -2.0616
 4687SOL     OW24989   0.735   4.883   4.662 -0.3818  0.1619  0.2271
 4687SOL    HW124990   0.816   4.874   4.605  0.2838 -0.3807  1.2416
 4687SOL    HW224991   0.736   4.973   4.707 -0.4730  0.2576  0.0364
 4688SOL     OW24992   8.734   4.089   4.302  0.0757  0.3510  0.3751
 4688SOL    HW124993   8.800   4.014   4.298  1.9620  2.0308 -0.6816
 4688SOL    HW224994   8.736   4.131   4.393  0.3552  0.3277  0.3782
 4689SOL     OW24995   0.638   1.910   1.375 -0.2870 -0.0565  0.4189
 4689SOL    HW124996   0.618   1.981   1.307  0.9310 -1.4956 -1.4916
 4689SOL    HW224997   0.729   1.872   1.357 -1.2698 -2.7100  0.8928
 4690SOL     OW24998   2.414   8.972   4.590 -0.5049  0.1192 -0.2407
 4690SOL    HW124999   2.465   8.909   4.533 -1.5732 -0.7305 -0.2760
 4690SOL    HW225000   2.445   8.964   4.685  1.4051  1.6729 -0.7044
 4691SOL     OW25001   0.333   5.615   2.738  0.3564  0.1229 -0.0355
 4691SOL    HW125002   0.289   5.616   2.827 -2.3389 -0.3170 -1.2989
 4691SOL    HW225003   0.383   5.700   2.725  0.3929  0.3824  1.7042
 4692SOL     OW25004   2.228   4.688   0.799  0.0991 -0.4672 -0.0882
 4692SOL    HW125005   2.147   4.675   0.856 -0.0797 -0.9233 -0.4503
 4692SOL    HW225006   2.202   4.686   0.703  0.6410 -1.2318 -0.2178
 4693SOL     OW25007   3.225   9.820   1.814  0.8829  0.7305 -0.3053
 4693SOL    HW125008   3.147   9.786   1.867  0.4271  2.4873  0.1965
 4693SOL    HW225009   3.238   9.763   1.733  0.4337 -0.8827  0.7290
 4694SOL     OW25010   1.053   0.757   2.625 -0.3703  0.4513  0.0274
 4694SOL    HW125011   1.005   0.796   2.546 -1.3234  2.2694  1.4729
 4694SOL    HW225012   1.146   0.793   2.628 -0.3051  0.3184 -0.2921
 4695SOL     OW25013   3.156   0.584   0.869  0.2378 -0.4990  0.0884
 4695SOL    HW125014   3.181   0.595   0.773  1.0517 -2.2527  0.0702
 4695SOL    HW225015   3.237   0.563   0.923 -0.3060 -0.1350  1.0623
 4696SOL     OW25016   0.233   6.867   2.890 -0.1409  0.4459  0.9744
 4696SOL    HW125017   0.165   6.937   2.869  1.5612  1.2094 -2.1693
 4696SOL    HW225018   0.296   6.903   2.960 -0.3444  1.3721  0.6936
 4697SOL     OW25019   2.358   2.754   3.874  0.1537 -0.7341 -0.1303
 4697SOL    HW125020   2.356   2.850   3.903 -2.3162  0.1475 -3.0415
 4697SOL    HW225021   2.289   2.739   3.803  1.0235 -4.5116 -0.2583
 4698SOL     OW25022   3.010   4.116   4.015  0.0192  0.2136 -0.1684
 4698SOL    HW125023   3.083   4.154   4.073 -1.8770  0.9987  1.7748
 4698SOL    HW225024   2.975   4.032   4.058 -0.8759  0.3694 -0.6062
 4699SOL     OW25025   1.131   1.073   0.727  0.1712  0.6484 -0.0236
 4699SOL    HW125026   1.083   1.138   0.786  1.8033  0.6916  1.2978
 4699SOL    HW225027   1.212   1.038   0.775  1.1501  0.1598 -1.9912
 4700SOL     OW25028   0.923   1.558   2.942  0.0821 -0.0411 -0.1244
 4700SOL    HW125029   0.901   1.566   2.845  1.4825  0.3148 -0.4238
 4700SOL    HW225030   0.869   1.623   2.995  0.9192  1.3139 -0.9191
 4701SOL     OW25031   3.812   3.229   3.446 -0.1141  0.2761  0.0989
 4701SOL    HW125032   3.787   3.262   3.537  0.4599 -0.5986  0.5819
 4701SOL    HW225033   3.830   3.306   3.385  0.1046  0.8525  0.8979
 4702SOL     OW25034   5.669   8.584   2.480 -0.2882  0.1007 -0.1031
 4702SOL    HW125035   5.665   8.684   2.485  1.0447  0.2404 -1.4506
 4702SOL    HW225036   5.752   8.552   2.526 -1.2133 -0.4679  1.1870
 4703SOL     OW25037   9.274   6.593   2.746 -0.3779 -0.6147  0.3826
 4703SOL    HW125038   9.258   6.679   2.698 -0.2419  0.3858  2.0637
 4703SOL    HW225039   9.225   6.594   2.833 -0.0905 -2.1051  0.5743
 4704SOL     OW25040   9.952   6.130   2.900  0.3374  0.1847 -0.6639
 4704SOL    HW125041   9.892   6.073   2.956 -0.8387  2.4037  0.4102
 4704SOL    HW225042  10.043   6.135   2.942  0.1172  0.0028 -0.1656
 4705SOL     OW25043   1.330   6.456   5.166 -0.2107 -0.1599 -0.2260
 4705SOL    HW125044   1.298   6.503   5.249 -1.2945  0.8316 -1.1897
 4705SOL    HW225045   1.355   6.362   5.189  0.9821  0.5673  1.5269
 4706SOL     OW25046   2.130   8.766   0.531 -0.5677 -0.0557 -0.0604
 4706SOL    HW125047   2.209   8.713   0.500 -0.4973 -0.3867  0.6918
 4706SOL    HW225048   2.046   8.717   0.508 -0.4800 -0.9193  1.4178
 4707SOL     OW25049   8.110   0.565   1.657  0.0042 -0.3625 -0.2084
 4707SOL    HW125050   8.159   0.499   1.714 -0.6272  0.3914  1.2487
 4707SOL    HW225051   8.013   0.541   1.653 -0.0279 -0.1685 -0.6112
 4708SOL     OW25052   3.007   1.205   2.937 -0.0201  0.0398 -0.3448
 4708SOL    HW125053   2.930   1.152   2.973  0.2759 -0.6824 -0.7742
 4708SOL    HW225054   2.973   1.293   2.902 -0.7615 -0.5642 -1.1748
 4709SOL     OW25055   6.638   1.106   3.738  0.3451  0.2329 -0.1417
 4709SOL    HW125056   6.632   1.076   3.834 -1.8184  1.4614  0.1245
 4709SOL    HW225057   6.693   1.190   3.734  0.0879  0.4132  0.0753
 4710SOL     OW25058   9.523   9.083   5.483  0.0915  0.0504 -0.4087
 4710SOL    HW125059   9.426   9.063   5.467 -0.8204  2.5907  1.5854
 4710SOL    HW225060   9.563   9.121   5.399 -0.3418 -2.0007 -1.5674
 4711SOL     OW25061   2.878   4.077   0.157  0.3305 -0.2167  0.3340
 4711SOL    HW125062   2.797   4.057   0.212  0.5957  0.2793  0.9086
 4711SOL    HW225063   2.914   3.992   0.119 -0.9559 -0.3477 -0.6434
 4712SOL     OW25064   7.796   6.569   4.076 -0.2408  0.2152 -0.6118
 4712SOL    HW125065   7.737   6.641   4.040  1.0586  0.6789 -1.8874
 4712SOL    HW225066   7.883   6.610   4.105  0.5050 -0.8291 -1.3516
 4713SOL     OW25067   1.001   2.292   3.283 -0.2376  0.4913  0.1905
 4713SOL    HW125068   1.025   2.389   3.289 -0.0374  0.3356  2.4840
 4713SOL    HW225069   1.076   2.241   3.242  1.0101  0.8623  1.9480
 4714SOL     OW25070   3.002   3.451   4.989 -0.1284  0.1106  0.6526
 4714SOL    HW125071   3.045   3.393   4.919 -1.2058  0.7339 -0.5436
 4714SOL    HW225072   2.919   3.407   5.023 -0.4266  0.5142  0.4425
 4715SOL     OW25073   2.563   5.293   2.411 -0.3108  0.1773  0.2077
 4715SOL    HW125074   2.468   5.314   2.434 -0.6731 -1.6698  0.5235
 4715SOL    HW225075   2.579   5.195   2.425  0.9080 -0.0170 -2.3612
 4716SOL     OW25076   6.972   3.697   5.525  0.2493  0.2730 -0.0314
 4716SOL    HW125077   7.058   3.717   5.479  0.9837 -1.7434  0.4358
 4716SOL    HW225078   6.976   3.607   5.568 -1.8412  0.4419  0.6140
 4717SOL     OW25079   8.400   9.753   5.053 -0.0228  0.0352  0.0064
 4717SOL    HW125080   8.416   9.755   5.151  3.0369  0.3740 -0.4468
 4717SOL    HW225081   8.365   9.841   5.023 -0.1343  0.2135  0.6599
 4718SOL     OW25082   0.189   6.702   4.372 -0.1331  0.1217  0.6902
 4718SOL    HW125083   0.154   6.710   4.279  1.7915  0.2356 -0.0506
 4718SOL    HW225084   0.243   6.783   4.395  1.8129 -1.1752  0.8322
 4719SOL     OW25085   4.296   3.072   1.717 -0.1923 -0.0479  0.1290
 4719SOL    HW125086   4.280   3.168   1.740  0.2070  0.1341 -0.3346
 4719SOL    HW225087   4.279   3.015   1.797  0.9879  0.5587  0.8228
 4720SOL     OW25088   8.237   0.270   5.635 -0.2568 -0.3812  0.2592
 4720SOL    HW125089   8.222   0.363   5.668  0.1550 -0.4671  0.6876
 4720SOL    HW225090   8.158   0.213   5.658 -0.1511 -0.3400  0.7266
 4721SOL     OW25091   7.679   8.143   4.530 -0.8116 -0.1360 -0.1921
 4721SOL    HW125092   7.758   8.149   4.591 -0.4360 -0.2134 -0.6583
 4721SOL    HW225093   7.677   8.052   4.488  0.1926  0.6190 -1.9463
 4722SOL     OW25094   0.048   9.798   2.643 -0.1254 -0.4575  0.4370
 4722SOL    HW125095   0.033   9.751   2.556 -3.1013  0.4672  0.3739
 4722SOL    HW225096  -0.038   9.840   2.673  0.9973 -0.2385  3.5293
 4723SOL     OW25097   1.007   3.413   1.900  0.1219 -0.3502  0.1008
 4723SOL    HW125098   1.072   3.480   1.865 -0.6593 -0.1356 -0.9509
 4723SOL    HW225099   1.019   3.403   1.998  0.8090  0.7062  0.1289
 4724SOL     OW25100   5.382   1.784   1.626 -0.7098  0.0231 -0.0013
 4724SOL    HW125101   5.357   1.852   1.557  0.9035  0.1514 -0.4844
 4724SOL    HW225102   5.464   1.814   1.674 -1.2212 -0.5696  1.2565
 4725SOL     OW25103   4.214   6.628   2.530 -0.0588 -0.3746 -0.0842
 4725SOL    HW125104   4.215   6.544   2.584 -0.2016 -0.5564 -0.3574
 4725SOL    HW225105   4.120   6.650   2.506 -0.1522  0.6761  1.2273
 4726SOL     OW25106   1.170   2.145   1.438 -0.1978 -0.8457 -0.5402
 4726SOL    HW125107   1.079   2.104   1.432 -1.8252  2.3438  0.9971
 4726SOL    HW225108   1.202   2.144   1.533 -0.3128  1.4309 -0.4498
 4727SOL     OW25109   7.081   7.552   3.402 -0.2307 -0.7790 -0.3265
 4727SOL    HW125110   7.037   7.623   3.347  0.3809  0.2408  0.4915
 4727SOL    HW225111   7.115   7.592   3.487  2.2626 -1.5550 -0.9200
 4728SOL     OW25112   1.297   2.669   3.866 -0.2091 -0.5235 -0.3026
 4728SOL    HW125113   1.388   2.683   3.905 -0.8025  0.0113  0.9142
 4728SOL    HW225114   1.289   2.719   3.779  0.8086 -0.9590 -0.6506
 4729SOL     OW25115   1.302   9.746   4.687  0.3501  0.2342 -0.1706
 4729SOL    HW125116   1.280   9.755   4.590  0.4684  0.0522 -0.2154
 4729SOL    HW225117   1.385   9.798   4.708  1.6176 -1.5506 -0.6411
 4730SOL     OW25118   0.800   2.891   2.446  0.6010 -0.3938 -0.4907
 4730SOL    HW125119   0.838   2.906   2.354  1.2525  0.2500 -0.1267
 4730SOL    HW225120   0.778   2.980   2.487  1.0212 -0.6369  0.2680
 4731SOL     OW25121   6.701   4.259   0.396  0.1722 -0.3379 -0.7985
 4731SOL    HW125122   6.754   4.336   0.432  0.8172 -1.4094  0.6120
 4731SOL    HW225123   6.607   4.265   0.430  1.0647 -1.9813  2.1610
 4732SOL     OW25124   0.471   0.055   0.993 -0.5095 -0.0532  0.0437
 4732SOL    HW125125   0.395   0.114   1.018  0.3159  1.3332 -0.6851
 4732SOL    HW225126   0.447  -0.040   1.013 -1.7781  0.5312  1.3891
 4733SOL     OW25127   9.144   4.469   0.727  0.1260 -0.0706  0.5596
 4733SOL    HW125128   9.103   4.523   0.801 -1.0646 -1.2882  0.8121
 4733SOL    HW225129   9.240   4.449   0.750 -0.2273 -0.4253  1.7837
 4734SOL     OW25130   8.950   1.892   3.204 -0.2762 -0.0604 -0.1703
 4734SOL    HW125131   9.041   1.915   3.170  0.3870 -0.7964  1.0576
 4734SOL    HW225132   8.923   1.959   3.274 -1.3018  1.0014 -1.5637
 4735SOL     OW25133   2.258   4.103   4.569  1.0205  0.0676  0.8820
 4735SOL    HW125134   2.253   4.178   4.503  0.6461 -1.3244 -0.6892
 4735SOL    HW225135   2.180   4.108   4.631 -0.6887 -0.7988 -1.1530
 4736SOL     OW25136   1.558   8.013   3.545  0.0845  0.3601 -0.1802
 4736SOL    HW125137   1.530   8.042   3.454 -3.9435 -0.2708  0.7399
 4736SOL    HW225138   1.570   8.094   3.603 -2.6053  0.6228  0.0814
 4737SOL     OW25139   9.732   8.199   1.969  0.1080  0.2263 -0.4364
 4737SOL    HW125140   9.747   8.246   2.055  1.5831  0.1418 -0.6349
 4737SOL    HW225141   9.642   8.154   1.970  0.4734 -0.4975  1.3848
 4738SOL     OW25142   3.929   0.384   0.205 -0.1706  0.4183  0.0172
 4738SOL    HW125143   3.870   0.445   0.258 -0.4547  0.3924 -0.2692
 4738SOL    HW225144   4.024   0.411   0.218 -0.2463  0.4843  0.4504
 4739SOL     OW25145   6.406   8.379   3.969  0.2170 -0.1540 -0.1571
 4739SOL    HW125146   6.354   8.448   3.920 -0.4642 -0.3691  0.2520
 4739SOL    HW225147   6.343   8.320   4.021  0.7190 -1.4806 -1.0096
 4740SOL     OW25148   4.387   1.739   4.422  0.1596  0.2123 -0.2043
 4740SOL    HW125149   4.485   1.756   4.437  0.0592  0.3281  0.3072
 4740SOL    HW225150   4.337   1.756   4.506 -0.2489 -0.2845 -0.3474
 4741SOL     OW25151   9.905   7.252   5.254  0.8130  0.1940  0.5869
 4741SOL    HW125152   9.966   7.175   5.241  0.8838  0.2458  0.6132
 4741SOL    HW225153   9.814   7.231   5.217  1.3930  0.8620 -1.2642
 4742SOL     OW25154   3.913   0.315   3.123  0.0131 -0.2583  0.2182
 4742SOL    HW125155   3.984   0.307   3.053  0.0739  0.9679  0.1275
 4742SOL    HW225156   3.918   0.237   3.185  0.4477 -0.9647 -0.6948
 4743SOL     OW25157   8.285   7.339   1.531 -0.0681  0.4151  0.1907
 4743SOL    HW125158   8.223   7.276   1.580 -0.7874  0.5374 -0.5556
 4743SOL    HW225159   8.299   7.306   1.438 -0.5045  1.3984 -0.2299
 4744SOL     OW25160   8.105   1.761   0.695  0.2496  0.4346 -0.1609
 4744SOL    HW125161   8.129   1.728   0.787  0.7793  1.0481 -0.0746
 4744SOL    HW225162   8.189   1.788   0.647  0.2467 -2.0497 -1.6827
 4745SOL     OW25163   0.584   8.768   4.037 -0.1842 -0.2503 -0.5995
 4745SOL    HW125164   0.628   8.837   3.980 -0.3845  0.7463  0.4340
 4745SOL    HW225165   0.485   8.784   4.038 -0.2648 -0.7434 -0.6070
 4746SOL     OW25166   2.299   6.094   1.100  0.6419 -0.0170 -0.0235
 4746SOL    HW125167   2.302   6.010   1.155  0.8182 -0.5268 -0.8144
 4746SOL    HW225168   2.286   6.172   1.161  1.6521 -0.5049  0.8304
 4747SOL     OW25169   1.298   2.223   4.618  0.9036 -0.1178  0.0884
 4747SOL    HW125170   1.384   2.228   4.668  0.3365  1.7457  0.9405
 4747SOL    HW225171   1.279   2.129   4.593  1.8669 -0.9215  2.2518
 4748SOL     OW25172   1.954   2.146   3.174  0.5038  0.6660  0.4270
 4748SOL    HW125173   1.995   2.166   3.262  0.7989 -1.8555  0.8937
 4748SOL    HW225174   2.016   2.174   3.100  0.9746  1.2509  1.0451
 4749SOL     OW25175   8.773   0.357   2.994 -0.5216 -0.1246 -0.1158
 4749SOL    HW125176   8.820   0.317   2.915  0.0149 -0.1444  0.2059
 4749SOL    HW225177   8.818   0.443   3.019  1.8728 -2.0482  2.6029
 4750SOL     OW25178   4.239   9.313   4.327  0.6181  0.4166 -0.5880
 4750SOL    HW125179   4.187   9.233   4.355 -0.9215  2.0566  1.4284
 4750SOL    HW225180   4.331   9.309   4.367 -0.9318  1.8023  3.3824
 4751SOL     OW25181   9.474   0.781   1.120 -0.2086  0.3338  0.0476
 4751SOL    HW125182   9.570   0.791   1.146 -0.4331 -0.1429  1.1087
 4751SOL    HW225183   9.416   0.794   1.201 -0.9665 -0.5527 -0.3377
 4752SOL     OW25184   4.546   8.665   0.571 -0.1585  0.8033  0.3004
 4752SOL    HW125185   4.499   8.744   0.530 -0.0259  0.9699  0.4687
 4752SOL    HW225186   4.596   8.695   0.652  1.1532  0.8455 -0.5071
 4753SOL     OW25187   3.757   6.602   2.647  0.7883 -0.2151 -0.8727
 4753SOL    HW125188   3.797   6.661   2.717  1.3099  0.7619 -1.9922
 4753SOL    HW225189   3.680   6.648   2.604  0.6886 -0.6795 -1.1994
 4754SOL     OW25190   2.758   6.477   0.288  0.5229  0.3562 -0.0447
 4754SOL    HW125191   2.851   6.503   0.262  1.0402 -0.4032  1.0079
 4754SOL    HW225192   2.735   6.520   0.375  0.5312 -0.7856  0.5428
 4755SOL     OW25193   2.526   8.880   1.997 -0.5036  0.4079 -0.5197
 4755SOL    HW125194   2.498   8.823   2.074  0.9556 -0.6508 -0.7493
 4755SOL    HW225195   2.486   8.842   1.913 -1.3900  1.0644 -0.4062
 4756SOL     OW25196   5.380   1.532   4.468  0.1848  0.1438  0.1747
 4756SOL    HW125197   5.351   1.484   4.385  0.0823  0.2635  0.1402
 4756SOL    HW225198   5.353   1.628   4.461 -2.2139 -0.3871  1.4738
 4757SOL     OW25199   9.546   5.616   0.703  0.4523 -0.2462 -0.0436
 4757SOL    HW125200   9.597   5.572   0.629  1.2439 -0.0852  0.3984
 4757SOL    HW225201   9.609   5.669   0.760  0.1027 -1.6488  1.6909
 4758SOL     OW25202   2.528   1.922   2.562 -0.1368 -0.3482 -0.4941
 4758SOL    HW125203   2.593   1.881   2.497 -1.6615 -1.8873 -1.0862
 4758SOL    HW225204   2.439   1.878   2.552 -0.0920 -1.5199  3.5119
 4759SOL     OW25205   6.668   9.001   4.458 -0.5347 -0.0383 -0.9177
 4759SOL    HW125206   6.652   9.047   4.545 -0.3192 -0.8141 -0.4629
 4759SOL    HW225207   6.660   8.902   4.470  0.0417 -0.1862 -1.6527
 4760SOL     OW25208   8.756   7.895   2.036 -0.7183 -0.2139 -0.3064
 4760SOL    HW125209   8.824   7.924   1.969  0.4173  0.4089  1.1112
 4760SOL    HW225210   8.669   7.941   2.017 -0.1404  0.6949 -0.7621
 4761SOL     OW25211   7.577   9.440   1.353  0.1307 -0.2523 -0.4214
 4761SOL    HW125212   7.659   9.496   1.365 -1.2857  1.7962  0.1220
 4761SOL    HW225213   7.533   9.464   1.267 -0.4940 -0.5452 -0.1859
 4762SOL     OW25214   2.148   1.304   2.450 -0.3853  0.7298 -0.3594
 4762SOL    HW125215   2.076   1.268   2.392 -0.9390 -0.1379  0.8360
 4762SOL    HW225216   2.139   1.266   2.542  1.9226  0.1698 -0.3195
 4763SOL     OW25217   8.705   8.691   1.282  0.1281 -0.1582  0.0580
 4763SOL    HW125218   8.617   8.652   1.310 -1.3929  3.1582  0.1355
 4763SOL    HW225219   8.775   8.668   1.350 -1.4772  0.0220  1.8321
 4764SOL     OW25220   5.118   2.837   0.607 -0.5338  0.0460  0.1400
 4764SOL    HW125221   5.207   2.879   0.588 -0.3900 -1.0145 -1.7250
 4764SOL    HW225222   5.071   2.819   0.521 -0.9678 -2.7449  0.8921
 4765SOL     OW25223   0.127   3.132   3.880  0.1434 -0.0803 -0.7221
 4765SOL    HW125224   0.140   3.154   3.784  1.3262  1.2305 -0.2883
 4765SOL    HW225225   0.061   3.195   3.920 -0.2931 -0.5780 -0.6568
 4766SOL     OW25226   9.738   0.217   4.111 -0.4549  0.1042 -0.0461
 4766SOL    HW125227   9.697   0.128   4.132 -0.8690  0.3128  0.0471
 4766SOL    HW225228   9.678   0.268   4.048 -0.3210  0.3946  0.0571
 4767SOL     OW25229   0.278   7.427   3.643 -0.4644 -1.1657 -0.2989
 4767SOL    HW125230   0.222   7.458   3.720 -2.0264 -1.1122 -1.4131
 4767SOL    HW225231   0.327   7.504   3.603  0.8027 -1.2907  0.9789
 4768SOL     OW25232   2.502   6.833   4.369  0.2881 -0.3043 -0.2498
 4768SOL    HW125233   2.472   6.866   4.279  1.7237 -3.5109 -1.9720
 4768SOL    HW225234   2.428   6.782   4.412 -0.0765  0.4148 -0.0110
 4769SOL     OW25235   0.987   1.139   0.476  0.1180 -0.1337 -0.1255
 4769SOL    HW125236   1.003   1.111   0.571  0.2288  1.9510  0.5026
 4769SOL    HW225237   0.908   1.200   0.473 -1.0300 -1.6742 -1.6563
 4770SOL     OW25238   2.786   4.582   0.478  0.0361 -0.0220 -0.1194
 4770SOL    HW125239   2.845   4.503   0.497  0.9130  0.0754 -2.3242
 4770SOL    HW225240   2.726   4.560   0.401 -1.3926  0.6266  0.7909
 4771SOL     OW25241   8.681   5.119   4.911 -0.1943  0.2726 -0.1677
 4771SOL    HW125242   8.680   5.218   4.928  0.8187  0.2320  0.1693
 4771SOL    HW225243   8.744   5.075   4.975  1.1018 -0.3152 -1.8183
 4772SOL     OW25244   4.593   9.145   2.387  0.0489 -0.8662 -0.7594
 4772SOL    HW125245   4.522   9.165   2.454 -1.1257 -1.2865 -1.8364
 4772SOL    HW225246   4.576   9.199   2.304  1.2554 -0.6317 -0.8626
 4773SOL     OW25247   3.463   6.754   0.753 -0.1187  0.1682  0.5706
 4773SOL    HW125248   3.500   6.777   0.843 -0.0706 -1.2887  0.9457
 4773SOL    HW225249   3.421   6.663   0.757  0.8841 -0.3981 -1.1405
 4774SOL     OW25250   5.067   2.940   2.018 -0.0621 -0.1589 -0.1261
 4774SOL    HW125251   5.129   3.018   2.004  1.1578 -1.1829 -0.6116
 4774SOL    HW225252   5.006   2.932   1.939 -2.1015  1.9711  1.1897
 4775SOL     OW25253   9.131   8.408   2.131 -0.0672  0.4696 -0.0915
 4775SOL    HW125254   9.120   8.488   2.190 -0.5093 -0.7925  1.5681
 4775SOL    HW225255   9.210   8.355   2.161  0.0307  0.0976 -0.9871
 4776SOL     OW25256   1.142   0.739   3.234 -0.1674  0.3982  0.1387
 4776SOL    HW125257   1.058   0.745   3.288 -0.5186  0.6514 -0.4256
 4776SOL    HW225258   1.191   0.655   3.256 -0.8913 -0.0571  0.0201
 4777SOL     OW25259   2.800   2.011   0.743 -1.0324 -0.4132 -0.3345
 4777SOL    HW125260   2.798   1.912   0.724 -1.7764 -0.6378  0.8440
 4777SOL    HW225261   2.720   2.036   0.798 -0.1824  0.6129  0.4556
 4778SOL     OW25262   2.317   2.110   1.166 -0.4085  0.0564  0.5401
 4778SOL    HW125263   2.410   2.143   1.183  0.3720 -1.6182 -0.3422
 4778SOL    HW225264   2.283   2.150   1.081 -0.1294 -0.0452  0.3799
 4779SOL     OW25265   8.211   2.849   5.622 -0.0781  0.0124 -0.2050
 4779SOL    HW125266   8.184   2.756   5.598 -1.0685  0.4091 -0.6710
 4779SOL    HW225267   8.306   2.849   5.654 -0.1871 -1.2143  0.1721
 4780SOL     OW25268   8.997   0.730   0.635  0.0932  0.2049  0.4402
 4780SOL    HW125269   8.981   0.632   0.646 -1.6795  0.2929 -1.2214
 4780SOL    HW225270   8.950   0.780   0.709 -0.2053 -0.1004  0.4559
 4781SOL     OW25271   4.128   4.825   5.634 -0.1481  0.0497  0.4524
 4781SOL    HW125272   4.096   4.859   5.545 -0.5718 -2.2070 -0.2895
 4781SOL    HW225273   4.200   4.757   5.620  2.1378  2.0697  1.9823
 4782SOL     OW25274   0.381   1.878   2.551 -0.1853  0.4102 -0.4378
 4782SOL    HW125275   0.320   1.873   2.630  1.6728  0.2936  1.0024
 4782SOL    HW225276   0.426   1.790   2.538  1.2495  1.1134 -0.2322
 4783SOL     OW25277   8.207   1.616   1.629 -0.4930 -0.2376  0.4407
 4783SOL    HW125278   8.123   1.596   1.579 -1.8378 -2.1373  3.3429
 4783SOL    HW225279   8.200   1.580   1.722  1.7516  3.4832  2.1807
 4784SOL     OW25280   2.367   4.832   0.213 -0.0939  0.1392 -0.1582
 4784SOL    HW125281   2.376   4.808   0.310 -0.4712 -2.3390 -0.6817
 4784SOL    HW225282   2.454   4.817   0.167 -0.6824 -1.6877 -0.7596
 4785SOL     OW25283   1.461   6.420   2.615  0.5630 -0.2108  0.1550
 4785SOL    HW125284   1.531   6.364   2.570 -0.3415 -2.1585  1.1242
 4785SOL    HW225285   1.413   6.474   2.546  0.8895 -1.2518 -0.9100
 4786SOL     OW25286   0.276   6.003   0.418  0.2383  0.2805  0.0371
 4786SOL    HW125287   0.363   5.958   0.399  0.8953  1.6582 -0.2837
 4786SOL    HW225288   0.264   6.080   0.355 -0.0782  1.5845  1.6563
 4787SOL     OW25289   3.124   6.005   3.637  0.6335 -0.1401 -0.0951
 4787SOL    HW125290   3.122   5.912   3.600  0.7792  0.0061 -0.4785
 4787SOL    HW225291   3.152   6.068   3.565  1.1149  0.1254  0.3195
 4788SOL     OW25292   2.793   1.210   0.187 -0.3788 -0.5592 -0.1663
 4788SOL    HW125293   2.836   1.133   0.233  0.2827  0.1647  0.4255
 4788SOL    HW225294   2.805   1.200   0.088  1.2427 -0.3134 -0.0102
 4789SOL     OW25295   8.747   1.539   3.361 -0.0675 -0.7424  0.2258
 4789SOL    HW125296   8.779   1.570   3.272  2.7513 -2.5207  0.5710
 4789SOL    HW225297   8.724   1.442   3.356 -0.3221 -0.7422  1.3238
 4790SOL     OW25298   3.565   7.835   5.562  0.2778  0.1347 -0.0043
 4790SOL    HW125299   3.550   7.927   5.597 -2.6237 -0.3644  0.2012
 4790SOL    HW225300   3.503   7.771   5.607  1.8384 -1.8398 -0.5656
 4791SOL     OW25301   3.306   9.283   4.454  0.7721  0.1734  0.3435
 4791SOL    HW125302   3.267   9.283   4.546  0.1101  1.5704  0.0860
 4791SOL    HW225303   3.248   9.338   4.394  0.2074 -2.1814 -1.3452
 4792SOL     OW25304   8.348   2.837   4.866 -0.1685  0.2581  0.2215
 4792SOL    HW125305   8.373   2.848   4.962 -0.5305 -0.4172  0.3929
 4792SOL    HW225306   8.414   2.885   4.809  1.5909 -1.5745  0.6656
 4793SOL     OW25307   7.757   5.673   5.583 -0.1700  0.1145 -0.0657
 4793SOL    HW125308   7.851   5.659   5.551  0.2667 -1.5404  1.7984
 4793SOL    HW225309   7.745   5.768   5.610  0.6885  0.5602 -1.2338
 4794SOL     OW25310   3.806   9.303   1.324  0.0127 -0.1680 -0.0649
 4794SOL    HW125311   3.762   9.351   1.248 -2.1297 -1.7501  0.1446
 4794SOL    HW225312   3.891   9.350   1.349 -0.2975  1.5068 -2.1085
 4795SOL     OW25313   2.915   4.289   4.676 -0.0366  0.3050 -0.3327
 4795SOL    HW125314   2.962   4.223   4.618 -0.7736 -0.7793  0.3042
 4795SOL    HW225315   2.958   4.290   4.766 -0.3671  0.3002 -0.1747
 4796SOL     OW25316   7.894   3.409   5.525  0.3571  0.1399 -0.1083
 4796SOL    HW125317   7.986   3.425   5.488  1.2344 -2.0064  1.0652
 4796SOL    HW225318   7.838   3.364   5.456  0.8859 -0.5820 -0.0720
 4797SOL     OW25319   9.492   5.428   2.673  0.0276 -0.3269  0.6382
 4797SOL    HW125320   9.552   5.356   2.638  0.5826 -0.3265  1.5671
 4797SOL    HW225321   9.399   5.394   2.680  0.0724 -0.5951 -0.0108
 4798SOL     OW25322   4.914   4.146   5.503 -0.2704  0.7563  0.2988
 4798SOL    HW125323   4.983   4.080   5.473 -0.6814  0.5782 -0.2734
 4798SOL    HW225324   4.896   4.211   5.430  0.2900  1.6402  0.9455
 4799SOL     OW25325   1.456   2.701   5.420  0.3674 -0.0564 -0.0993
 4799SOL    HW125326   1.358   2.711   5.403  0.4784  1.4575  0.0000
 4799SOL    HW225327   1.476   2.729   5.514  0.9267 -0.0472 -0.2204
 4800SOL     OW25328   4.021   7.312   2.063  0.3524  0.1868  0.6321
 4800SOL    HW125329   3.936   7.335   2.015 -0.2798 -1.1250  1.1000
 4800SOL    HW225330   4.065   7.396   2.095  0.2639  1.0110 -1.3428
 4801SOL     OW25331   4.489   0.173   0.565  0.2696  0.1716 -0.3990
 4801SOL    HW125332   4.569   0.131   0.522 -0.8884 -1.0303 -1.4127
 4801SOL    HW225333   4.406   0.128   0.533 -0.9241  2.2846 -0.3526
 4802SOL     OW25334   2.576   5.683   4.008  0.1609 -0.0630 -0.5470
 4802SOL    HW125335   2.667   5.643   3.997 -0.5997 -1.5067 -1.7037
 4802SOL    HW225336   2.564   5.757   3.942  1.2952  1.6189  1.0947
 4803SOL     OW25337   0.330   5.607   1.199  0.3171 -0.4062 -0.0355
 4803SOL    HW125338   0.362   5.526   1.151  0.6795  0.0829 -0.6321
 4803SOL    HW225339   0.394   5.630   1.273  0.3273 -0.5393 -0.0036
 4804SOL     OW25340   3.315   1.191   4.969 -0.2987 -0.5111 -0.5066
 4804SOL    HW125341   3.240   1.175   4.906  0.0582  0.0881 -1.0844
 4804SOL    HW225342   3.400   1.155   4.931 -0.1709 -0.5812 -0.1594
 4805SOL     OW25343   2.690   4.007   0.345 -0.1711 -0.1942 -0.2233
 4805SOL    HW125344   2.704   3.908   0.348 -0.9679 -0.2884  1.1433
 4805SOL    HW225345   2.737   4.049   0.424 -1.4197  0.2921  0.2668
 4806SOL     OW25346   5.960   0.064   1.170  0.0105  0.3089 -0.1191
 4806SOL    HW125347   6.030   0.078   1.099  0.0349  0.2388 -0.1095
 4806SOL    HW225348   6.004   0.048   1.258 -0.0212  0.4890 -0.0700
 4807SOL     OW25349   8.250   3.910   0.318  0.4504 -0.1299  1.0278
 4807SOL    HW125350   8.348   3.901   0.334  0.7761  1.6098  0.1719
 4807SOL    HW225351   8.234   3.979   0.247 -1.3292 -1.5000  0.0539
 4808SOL     OW25352   9.111   5.712   3.898 -0.0872  0.2876  0.1400
 4808SOL    HW125353   9.053   5.714   3.979 -0.6448 -0.1236 -0.2370
 4808SOL    HW225354   9.094   5.627   3.848  1.9953 -0.5764  0.8523
 4809SOL     OW25355   1.071   7.504   1.633 -0.1784 -0.2173 -0.1685
 4809SOL    HW125356   1.093   7.528   1.727 -0.0776 -1.4256  0.1229
 4809SOL    HW225357   1.050   7.587   1.581  2.2897  0.7079  0.2513
 4810SOL     OW25358   1.068   6.688   1.909 -0.0514  0.0738  0.3004
 4810SOL    HW125359   1.006   6.619   1.947  1.4252 -1.8172 -0.6330
 4810SOL    HW225360   1.105   6.744   1.984  0.5285 -1.6590  1.3366
 4811SOL     OW25361   5.540   0.221   1.214  0.5042 -0.4142 -0.2991
 4811SOL    HW125362   5.623   0.277   1.201 -0.7463  1.4396 -0.5590
 4811SOL    HW225363   5.497   0.204   1.126  0.3339 -0.9426 -0.1156
 4812SOL     OW25364   6.463   8.676   3.764 -0.1626  0.0756 -0.0828
 4812SOL    HW125365   6.527   8.678   3.840  0.8674 -0.4369 -0.9297
 4812SOL    HW225366   6.391   8.743   3.779 -1.4208 -1.7893  2.6076
 4813SOL     OW25367   5.705   0.640   2.230  0.5281 -0.4540  0.2893
 4813SOL    HW125368   5.617   0.600   2.206 -0.0970  2.0101 -1.8081
 4813SOL    HW225369   5.779   0.577   2.205 -0.5330 -1.4672 -0.2966
 4814SOL     OW25370   4.211   9.166   1.513 -0.1441 -0.3016  0.3138
 4814SOL    HW125371   4.282   9.138   1.577  0.8001 -0.2277 -0.6817
 4814SOL    HW225372   4.184   9.260   1.533  1.9533  0.6105 -0.9421
 4815SOL     OW25373   0.755   9.822   2.159  0.1401 -0.6818 -0.3509
 4815SOL    HW125374   0.840   9.832   2.210  0.9802  0.9384 -2.0076
 4815SOL    HW225375   0.688   9.888   2.193  0.4182 -0.1800 -0.7690
 4816SOL     OW25376   1.250   2.794   0.785 -0.0933 -0.8951  0.3796
 4816SOL    HW125377   1.295   2.717   0.740  0.5065 -0.7356  0.6911
 4816SOL    HW225378   1.231   2.771   0.880  1.9744  0.0672  1.0507
 4817SOL     OW25379   1.456   7.124   2.056  0.1867 -0.3784  0.3233
 4817SOL    HW125380   1.475   7.192   1.984  2.4252  0.0295  1.2573
 4817SOL    HW225381   1.458   7.032   2.016  0.8066 -0.1202 -0.2562
 4818SOL     OW25382   0.860   4.848   1.858 -0.6091  0.2049 -0.0354
 4818SOL    HW125383   0.835   4.765   1.809  1.7442 -1.3141  1.2787
 4818SOL    HW225384   0.923   4.903   1.803 -1.3019  0.6002 -0.4446
 4819SOL     OW25385   8.348   3.987   2.049  0.3315  0.1699  0.2376
 4819SOL    HW125386   8.317   3.900   2.010 -2.4295  2.0449 -1.9433
 4819SOL    HW225387   8.300   4.004   2.135  1.5523 -0.8486  1.1435
 4820SOL     OW25388   2.661   4.308   4.601  0.2459  0.4002  0.2462
 4820SOL    HW125389   2.627   4.229   4.550  1.2785  0.8376 -1.1290
 4820SOL    HW225390   2.755   4.291   4.630  0.5907  1.2740 -0.3627
 4821SOL     OW25391   9.718   4.618   4.989  0.1401 -0.3321 -0.2459
 4821SOL    HW125392   9.805   4.606   5.037  1.3042 -0.1457 -2.3000
 4821SOL    HW225393   9.674   4.701   5.022  1.5672  0.5252 -0.4603
 4822SOL     OW25394   4.102   3.987   4.996 -0.4755  0.2949  0.0480
 4822SOL    HW125395   4.172   4.055   4.978 -0.2458 -0.0522 -0.3801
 4822SOL    HW225396   4.022   4.004   4.939 -0.0626 -0.3281 -0.7240
 4823SOL     OW25397   9.675   1.697   4.934 -0.4122  0.0352  0.1702
 4823SOL    HW125398   9.665   1.602   4.907 -0.7219 -0.0397  0.5474
 4823SOL    HW225399   9.585   1.738   4.949 -0.2818  0.3867  0.0200
 4824SOL     OW25400   1.720   8.531   5.191  0.6726  0.5152  0.3964
 4824SOL    HW125401   1.667   8.489   5.264  0.5308 -2.0228 -1.0985
 4824SOL    HW225402   1.714   8.475   5.108  0.6986  3.3898 -1.6364
 4825SOL     OW25403   6.240   0.058   4.265 -0.2727  0.3477 -0.3010
 4825SOL    HW125404   6.274   0.078   4.173 -0.4093  0.8963 -0.2338
 4825SOL    HW225405   6.228   0.144   4.315  1.1435 -0.0196  0.7073
 4826SOL     OW25406   3.088   6.037   2.401  0.4081  0.6524  0.2246
 4826SOL    HW125407   3.044   5.948   2.406  1.4568  0.1066 -0.1483
 4826SOL    HW225408   3.086   6.071   2.307 -1.7030  1.9128  0.6919
 4827SOL     OW25409   9.342   2.696   0.075 -0.3211 -0.2772 -0.3288
 4827SOL    HW125410   9.311   2.757   0.148 -1.3437  0.2826 -1.2301
 4827SOL    HW225411   9.442   2.697   0.072 -0.2921  0.3275  0.5261
 4828SOL     OW25412   2.846   1.366   3.689 -0.0183  0.3393 -0.4277
 4828SOL    HW125413   2.798   1.429   3.627 -0.6424  1.6308  1.3328
 4828SOL    HW225414   2.894   1.419   3.760  1.8978 -1.0561 -0.6442
 4829SOL     OW25415   7.588   8.895   3.522  0.2340 -0.2861 -0.4803
 4829SOL    HW125416   7.520   8.822   3.508  0.5478 -0.2267 -2.5245
 4829SOL    HW225417   7.542   8.984   3.522 -0.0517 -0.4284  1.2085
 4830SOL     OW25418   3.244   6.057   1.571 -0.2087 -0.6056  0.7966
 4830SOL    HW125419   3.279   6.113   1.646  0.4735 -3.1545  2.4414
 4830SOL    HW225420   3.315   6.043   1.503 -0.7940  1.6225 -0.3074
 4831SOL     OW25421   1.169   3.847   3.368 -0.1162  0.8476 -0.4672
 4831SOL    HW125422   1.233   3.772   3.383 -0.0767  0.4608 -2.4251
 4831SOL    HW225423   1.195   3.897   3.285 -1.4724  1.6027 -0.4528
 4832SOL     OW25424   4.367   8.267   2.983  0.4271  0.1405  0.0187
 4832SOL    HW125425   4.377   8.289   2.886 -0.0913  2.1768  0.3895
 4832SOL    HW225426   4.320   8.179   2.992 -0.1770  0.2695 -1.5792
 4833SOL     OW25427   0.195   6.626   5.414  0.2456  0.0130 -0.4648
 4833SOL    HW125428   0.279   6.573   5.415  0.3853  0.2390 -0.3003
 4833SOL    HW225429   0.122   6.574   5.458  0.6712  0.4453  0.7613
 4834SOL     OW25430   2.412   4.111   0.227 -0.6293  0.0066 -0.4478
 4834SOL    HW125431   2.474   4.089   0.302  1.1990  2.9723 -1.0462
 4834SOL    HW225432   2.334   4.048   0.230  1.1107 -2.1666  1.8206
 4835SOL     OW25433   2.705   9.751   5.591  0.6969  0.5889 -0.4183
 4835SOL    HW125434   2.629   9.691   5.565  1.0475 -0.0617  0.0285
 4835SOL    HW225435   2.676   9.846   5.585 -0.5861  0.3214  0.9943
 4836SOL     OW25436   9.435   2.524   1.731  0.2039 -0.4367 -0.0795
 4836SOL    HW125437   9.521   2.515   1.680  0.3914 -0.3927  0.2284
 4836SOL    HW225438   9.376   2.591   1.685  0.2535 -0.6077 -0.3977
 4837SOL     OW25439   1.676   9.066   5.581  0.0694  0.0216 -0.2370
 4837SOL    HW125440   1.685   9.005   5.503  2.5444  0.0491 -0.0084
 4837SOL    HW225441   1.703   9.158   5.556 -3.3570  1.0256 -0.4920
 4838SOL     OW25442   9.613   2.052   1.431 -0.6491 -0.4073 -0.2933
 4838SOL    HW125443   9.625   1.962   1.388  0.3450 -1.7310  2.6499
 4838SOL    HW225444   9.530   2.052   1.487  0.4324 -0.1881  1.3402
 4839SOL     OW25445   9.463   6.971   4.942  0.0729 -0.5883  0.0030
 4839SOL    HW125446   9.421   6.918   5.016 -0.1655 -0.9905 -0.4230
 4839SOL    HW225447   9.493   6.910   4.869  2.5316 -0.4364  0.8373
 4840SOL     OW25448   8.440   7.779   1.446 -0.2099  0.2811  0.0855
 4840SOL    HW125449   8.402   7.859   1.492  0.9533  1.1016 -0.3770
 4840SOL    HW225450   8.449   7.704   1.511  0.2930  1.0515  0.9069
 4841SOL     OW25451   3.604   2.473   5.404  0.1130  0.7141  0.3188
 4841SOL    HW125452   3.606   2.569   5.377 -0.1515  0.6572  0.0947
 4841SOL    HW225453   3.603   2.467   5.504  1.2275  0.9208  0.3523
 4842SOL     OW25454   5.529   1.406   4.046  0.2113  0.2262  0.0190
 4842SOL    HW125455   5.459   1.449   4.103 -0.4112 -1.3377  0.4609
 4842SOL    HW225456   5.615   1.403   4.095  0.3064  1.1404 -0.0901
 4843SOL     OW25457   0.454   6.421   2.648  0.0043  0.0646  0.8868
 4843SOL    HW125458   0.441   6.519   2.634 -1.1500 -0.2000  0.0240
 4843SOL    HW225459   0.382   6.385   2.706  1.1248 -0.0641  2.2341
 4844SOL     OW25460   9.985   7.745   3.054 -0.3648 -0.0245  0.1907
 4844SOL    HW125461   9.977   7.654   3.094  1.3717 -0.0547  0.5443
 4844SOL    HW225462   9.992   7.738   2.955 -1.1902 -0.2001  0.1412
 4845SOL     OW25463   2.067   0.288   0.907  0.4428 -0.2831  0.5170
 4845SOL    HW125464   2.143   0.353   0.903  1.2313 -1.2863 -1.7049
 4845SOL    HW225465   2.054   0.246   0.817 -0.0404 -3.1826  1.8685
 4846SOL     OW25466   1.037   8.876   3.200  0.1194  0.0259  0.4503
 4846SOL    HW125467   1.011   8.813   3.273  1.8110  0.7203  1.6795
 4846SOL    HW225468   1.131   8.856   3.171  0.1910  1.1280 -0.0803
 4847SOL     OW25469   0.921   3.706   3.695  0.2422 -0.2059  0.6539
 4847SOL    HW125470   0.947   3.653   3.776 -0.5855  0.7696  1.5787
 4847SOL    HW225471   0.983   3.784   3.684 -0.1457  0.1351  0.8429
 4848SOL     OW25472   7.728   9.825   2.305 -0.3346  0.3242 -0.2686
 4848SOL    HW125473   7.630   9.825   2.287 -0.0852 -2.1418 -1.7506
 4848SOL    HW225474   7.775   9.873   2.230 -0.4512  2.4735  0.9802
 4849SOL     OW25475   0.564   5.207   5.337 -0.0468 -0.9635 -0.2783
 4849SOL    HW125476   0.579   5.298   5.297  0.9695 -0.2229  1.7533
 4849SOL    HW225477   0.469   5.179   5.320 -0.5877  0.7963 -0.2674
 4850SOL     OW25478   6.742   7.242   3.891 -0.4502 -0.5492  0.0471
 4850SOL    HW125479   6.697   7.319   3.848 -0.2100 -0.7209 -0.5131
 4850SOL    HW225480   6.749   7.259   3.990 -1.5225 -0.4235  0.1095
 4851SOL     OW25481   4.707   0.011   0.439  0.6069  0.0250 -0.0542
 4851SOL    HW125482   4.698  -0.014   0.535  0.0369 -0.7538 -0.3078
 4851SOL    HW225483   4.652  -0.051   0.383  1.7217 -0.1430 -0.9692
 4852SOL     OW25484   1.290   6.545   4.070 -0.2063 -0.5750 -0.1313
 4852SOL    HW125485   1.244   6.633   4.066 -1.4355 -1.2241 -0.4023
 4852SOL    HW225486   1.383   6.554   4.032 -0.8535  0.2704 -1.5609
 4853SOL     OW25487   0.221   9.937   2.889 -0.2612 -0.1692  0.7616
 4853SOL    HW125488   0.291  10.003   2.859 -1.9247  2.5497  2.6417
 4853SOL    HW225489   0.186   9.889   2.809  2.4175 -0.2461 -0.4400
 4854SOL     OW25490   9.068   0.260   0.290  0.2011 -0.4442 -0.7190
 4854SOL    HW125491   9.019   0.306   0.217  0.3541 -0.0830 -0.5931
 4854SOL    HW225492   9.145   0.316   0.319  0.5617 -0.9109 -0.7695
 4855SOL     OW25493   1.708   4.167   0.661 -0.3343 -0.5389 -0.3981
 4855SOL    HW125494   1.696   4.213   0.573  1.0652  1.1699  0.2818
 4855SOL    HW225495   1.696   4.068   0.648 -0.7659 -0.2540 -2.3807
 4856SOL     OW25496   9.413   1.918   3.079  0.1737 -0.0155 -0.7199
 4856SOL    HW125497   9.488   1.905   3.144 -1.2391  1.3633  1.2309
 4856SOL    HW225498   9.440   1.986   3.010  1.3244 -0.7911 -1.0590
 4857SOL     OW25499   3.916   7.728   2.860  0.5218  0.2115 -0.2392
 4857SOL    HW125500   4.016   7.719   2.865  0.5206  0.0621 -0.4567
 4857SOL    HW225501   3.873   7.660   2.919  0.5477  0.2706 -0.1516
 4858SOL     OW25502   4.284   7.739   1.068 -0.4455  0.1811  0.0330
 4858SOL    HW125503   4.310   7.683   0.990 -2.5814  1.3206 -1.5424
 4858SOL    HW225504   4.327   7.702   1.151  0.4798 -2.0564 -1.3892
 4859SOL     OW25505   3.034   5.109   3.895  0.1919  0.5943 -0.4113
 4859SOL    HW125506   3.118   5.099   3.842  0.0520  0.6101 -0.6371
 4859SOL    HW225507   3.000   5.018   3.922 -0.4070  0.5164 -1.4060
 4860SOL     OW25508   8.191   2.788   1.510 -0.1963  0.4112 -0.2547
 4860SOL    HW125509   8.164   2.711   1.452 -0.1689  0.8643 -0.8673
 4860SOL    HW225510   8.159   2.771   1.603 -1.9756  0.6100 -0.8144
 4861SOL     OW25511   8.859   1.384   0.789 -0.2704  0.0946 -0.4929
 4861SOL    HW125512   8.898   1.355   0.702 -1.3136 -1.5466 -0.4364
 4861SOL    HW225513   8.905   1.467   0.821  2.2989 -1.0936 -1.0178
 4862SOL     OW25514   3.905   8.538   1.575 -0.2327 -0.4233  0.6821
 4862SOL    HW125515   3.912   8.439   1.566 -0.5591 -0.3647 -0.3460
 4862SOL    HW225516   3.927   8.565   1.668 -0.0355 -1.4524  0.9401
 4863SOL     OW25517   7.101   7.367   2.617 -0.2474  0.5165 -0.2039
 4863SOL    HW125518   7.007   7.400   2.622 -0.0793  0.8112  1.4870
 4863SOL    HW225519   7.161   7.442   2.587 -0.1193  1.3190  1.9038
 4864SOL     OW25520   1.544   3.738   1.027  0.2876  0.6548  0.6403
 4864SOL    HW125521   1.471   3.682   0.988  0.6729 -0.6057  1.6692
 4864SOL    HW225522   1.632   3.695   1.007  0.4998  0.1377  2.6475
 4865SOL     OW25523   1.678   2.348   1.828  0.1360  0.2476  0.6226
 4865SOL    HW125524   1.675   2.443   1.798 -0.1764  0.3464  0.9737
 4865SOL    HW225525   1.704   2.344   1.924 -0.5600  0.0200  0.8070
 4866SOL     OW25526   4.265   0.096   0.986  0.1321  0.3656 -0.0521
 4866SOL    HW125527   4.301   0.188   1.001  0.0062  0.4136 -0.0436
 4866SOL    HW225528   4.293   0.063   0.896  0.2901  0.3597 -0.0002
 4867SOL     OW25529   9.260   3.036   5.130 -0.2708  0.8419 -0.2794
 4867SOL    HW125530   9.248   2.987   5.216 -1.5608  0.4848 -0.6582
 4867SOL    HW225531   9.343   3.003   5.084  0.2098  0.7682  0.6264
 4868SOL     OW25532   9.103   6.924   4.212  0.9172 -0.0009 -0.2384
 4868SOL    HW125533   9.127   6.827   4.210 -0.1807 -0.3211  1.5678
 4868SOL    HW225534   9.180   6.977   4.247  0.6123 -0.5316  1.2792
 4869SOL     OW25535   1.897   7.803   2.270 -0.2394  0.4129  0.2978
 4869SOL    HW125536   1.877   7.865   2.195  0.1050  0.2781  0.0900
 4869SOL    HW225537   1.902   7.709   2.234 -0.1456  0.3412  0.5021
 4870SOL     OW25538   3.274   4.163   0.825 -0.3058  0.7323 -0.6335
 4870SOL    HW125539   3.195   4.161   0.886  0.0041 -0.7120 -0.2589
 4870SOL    HW225540   3.358   4.162   0.879 -0.0302 -0.5122 -1.0798
 4871SOL     OW25541   9.616   3.434   4.741  0.1408  1.1534  0.1979
 4871SOL    HW125542   9.529   3.457   4.699 -0.4341 -0.0365  0.7266
 4871SOL    HW225543   9.678   3.397   4.672 -0.6021 -0.2445  0.2602
 4872SOL     OW25544   0.742   5.973   0.982  1.1588 -0.2691 -0.4339
 4872SOL    HW125545   0.762   6.068   1.005 -1.4868  0.9138 -2.8107
 4872SOL    HW225546   0.821   5.931   0.938  2.0075  1.0840 -0.1988
 4873SOL     OW25547   2.118   4.879   2.526 -0.6799  0.9869 -0.0054
 4873SOL    HW125548   2.107   4.825   2.609 -0.6793  1.2248  0.1505
 4873SOL    HW225549   2.063   4.839   2.453 -0.5810  0.7025  0.0725
 4874SOL     OW25550   9.209   6.543   3.940  0.1154  0.0791  0.0434
 4874SOL    HW125551   9.209   6.615   3.871  0.9469  1.4315  1.4221
 4874SOL    HW225552   9.299   6.499   3.944  0.4398  0.7999  1.0464
 4875SOL     OW25553   9.721   3.835   0.062 -0.0587 -0.4979 -0.2961
 4875SOL    HW125554   9.635   3.826   0.013  0.4463  0.3215 -1.3466
 4875SOL    HW225555   9.797   3.830  -0.002  0.5330  2.6379  0.0704
 4876SOL     OW25556   3.451   1.045   1.304 -0.0699  0.0635  0.3806
 4876SOL    HW125557   3.536   1.017   1.259  0.8001  0.6231  1.6299
 4876SOL    HW225558   3.474   1.097   1.387 -1.6116 -2.1197  2.2226
 4877SOL     OW25559   8.159   9.696   2.266 -0.5342 -0.0276 -0.0067
 4877SOL    HW125560   8.086   9.647   2.217 -0.0988 -2.1922  1.4485
 4877SOL    HW225561   8.218   9.742   2.200 -2.5446  0.8228 -1.2633
 4878SOL     OW25562   4.548   8.270   4.322 -0.0158  0.4292 -0.3589
 4878SOL    HW125563   4.449   8.262   4.327 -0.0574  1.6184  1.2108
 4878SOL    HW225564   4.589   8.180   4.308 -1.0511 -0.8452  4.1908
 4879SOL     OW25565   1.832   5.148   1.523  0.3345 -0.0728 -0.1174
 4879SOL    HW125566   1.789   5.064   1.555 -1.7664  0.6412 -0.9676
 4879SOL    HW225567   1.829   5.152   1.423 -0.5181  1.4461 -0.0547
 4880SOL     OW25568   3.372   1.267   3.235  0.0856  0.3027 -0.4581
 4880SOL    HW125569   3.397   1.310   3.149  1.5765 -0.4762 -0.4430
 4880SOL    HW225570   3.441   1.197   3.259  0.7663  1.8280  2.2950
 4881SOL     OW25571   4.631   3.038   0.410 -0.2448  0.1378 -0.4621
 4881SOL    HW125572   4.571   3.018   0.332  0.5866 -0.2664 -1.0125
 4881SOL    HW225573   4.576   3.062   0.489 -1.0942  1.2768 -1.3716
 4882SOL     OW25574   8.666   8.445   0.299  0.3643 -0.4913 -0.1877
 4882SOL    HW125575   8.611   8.434   0.382 -0.2169  0.2749 -0.4663
 4882SOL    HW225576   8.759   8.471   0.324 -0.0437  0.6270  0.1971
 4883SOL     OW25577   4.503   4.859   2.396  0.1223 -0.7279  0.0153
 4883SOL    HW125578   4.561   4.939   2.380 -0.3350 -0.4242 -0.1458
 4883SOL    HW225579   4.458   4.833   2.310  0.2724 -1.1586  0.0682
 4884SOL     OW25580   8.608   0.228   4.339  0.1332 -0.3543  0.0474
 4884SOL    HW125581   8.522   0.264   4.376  0.5179  2.1286 -1.3305
 4884SOL    HW225582   8.593   0.195   4.246  0.1954 -2.0539  0.6346
 4885SOL     OW25583   3.912   0.484   2.314 -0.7798  0.4025  0.4494
 4885SOL    HW125584   3.921   0.524   2.222  1.4417 -1.9038 -0.4002
 4885SOL    HW225585   3.956   0.544   2.381 -1.0070  1.3172 -0.2125
 4886SOL     OW25586   1.093   3.622   0.598  0.0981 -0.2751  0.2870
 4886SOL    HW125587   1.118   3.667   0.513 -0.3276  0.3652  0.4997
 4886SOL    HW225588   1.148   3.538   0.609  0.4983 -0.1001 -0.3689
 4887SOL     OW25589   4.332   8.701   1.882 -0.2557 -0.2476 -0.0402
 4887SOL    HW125590   4.280   8.787   1.889 -0.5652 -0.3046 -1.4530
 4887SOL    HW225591   4.386   8.702   1.798 -1.7758 -2.2590 -1.0632
 4888SOL     OW25592   0.668   8.474   2.315 -0.1861  0.1674 -0.4101
 4888SOL    HW125593   0.725   8.470   2.398 -0.6599 -0.5987 -0.1192
 4888SOL    HW225594   0.572   8.475   2.341 -0.3321  0.0658 -0.9551
 4889SOL     OW25595   7.974   1.586   5.537  0.1619 -0.5140 -0.0431
 4889SOL    HW125596   7.899   1.573   5.473 -1.4623  1.0336  1.4574
 4889SOL    HW225597   7.980   1.507   5.598 -0.3589 -0.5753 -0.0676
 4890SOL     OW25598   5.115   0.391   4.609 -0.2969 -0.7578  0.6892
 4890SOL    HW125599   5.076   0.379   4.518 -2.7544  1.1542  1.4408
 4890SOL    HW225600   5.105   0.486   4.637  0.5497 -1.3014  2.9228
 4891SOL     OW25601   1.347   2.086   0.935 -0.0913 -0.5067  0.0259
 4891SOL    HW125602   1.404   2.168   0.944 -1.5920  0.4770  0.6488
 4891SOL    HW225603   1.306   2.064   1.023 -1.0832 -0.9252 -0.5309
 4892SOL     OW25604   0.020   5.132   1.480  0.2006  0.0305 -0.3535
 4892SOL    HW125605   0.037   5.036   1.504  0.7405  0.1946 -0.0680
 4892SOL    HW225606  -0.036   5.174   1.551 -1.4906 -0.5305 -1.3331
 4893SOL     OW25607   4.981   3.829   3.492  0.0527  0.3677 -0.3103
 4893SOL    HW125608   4.953   3.878   3.574  0.6955  0.7717 -0.3254
 4893SOL    HW225609   4.944   3.736   3.494 -0.2817  0.5098  0.2335
 4894SOL     OW25610   4.768   8.151   3.582  0.2975 -0.4031  0.2647
 4894SOL    HW125611   4.703   8.160   3.507  0.8622 -2.7831 -0.5385
 4894SOL    HW225612   4.837   8.223   3.575 -0.4748  0.2569 -0.6608
 4895SOL     OW25613   8.635   2.899   3.217 -0.0917 -0.2856 -1.5385
 4895SOL    HW125614   8.718   2.920   3.166  0.3460  0.5694 -0.4882
 4895SOL    HW225615   8.568   2.973   3.206 -0.0923 -0.2182 -1.0712
 4896SOL     OW25616   4.227   6.623   2.160 -0.1446 -0.4357 -0.2632
 4896SOL    HW125617   4.190   6.530   2.157 -0.3362 -0.3664 -0.0746
 4896SOL    HW225618   4.300   6.632   2.093 -1.0393 -0.3308 -1.2472
 4897SOL     OW25619   5.897   8.157   4.019 -0.2448  0.7902 -0.0773
 4897SOL    HW125620   5.939   8.077   3.976  1.2702  2.1032 -1.0827
 4897SOL    HW225621   5.860   8.218   3.949  0.1257  1.8074  0.6008
 4898SOL     OW25622   3.447   3.260   2.336  0.4131 -0.3855  0.3086
 4898SOL    HW125623   3.388   3.333   2.302 -1.8871 -2.7193 -0.8983
 4898SOL    HW225624   3.501   3.223   2.260 -1.5583 -2.7373  0.0167
 4899SOL     OW25625   1.221   5.231   2.084  0.6840  0.0784 -0.3541
 4899SOL    HW125626   1.145   5.200   2.141  0.5778  0.4232 -0.3112
 4899SOL    HW225627   1.307   5.216   2.134  0.5990  0.2828 -0.1453
 4900SOL     OW25628   3.767   3.850   1.688  0.6689 -0.2896 -0.1514
 4900SOL    HW125629   3.751   3.827   1.593  1.6320  0.8728 -0.6063
 4900SOL    HW225630   3.856   3.814   1.717  0.6074 -0.2010  0.1559
 4901SOL     OW25631   9.991   8.106   1.953 -0.1619  0.0370 -0.3514
 4901SOL    HW125632   9.892   8.124   1.950 -0.1091  1.1006  2.4087
 4901SOL    HW225633  10.007   8.017   1.996  0.0848 -0.0246 -0.5734
 4902SOL     OW25634   0.644   0.046   1.215 -0.8488 -0.0569 -0.1277
 4902SOL    HW125635   0.581   0.061   1.138 -1.8231 -1.4656  0.3940
 4902SOL    HW225636   0.628  -0.044   1.255  1.2188 -0.2625  0.2850
 4903SOL     OW25637   9.767   1.445   4.403  0.6531 -0.3875 -0.2007
 4903SOL    HW125638   9.821   1.395   4.336  1.0349 -0.7044  0.3320
 4903SOL    HW225639   9.701   1.382   4.446  1.2056 -0.4700  0.5475
 4904SOL     OW25640   2.326   4.920   1.368  0.0190 -0.1132  0.0748
 4904SOL    HW125641   2.411   4.870   1.387 -0.4494 -0.2317  1.9840
 4904SOL    HW225642   2.332   4.964   1.278  2.8612  1.4600  0.9736
 4905SOL     OW25643   8.204   5.530   5.073  0.2771 -0.4211  0.6811
 4905SOL    HW125644   8.268   5.509   4.999  0.6535  1.3878  0.4742
 4905SOL    HW225645   8.255   5.569   5.150 -0.4201 -0.1236  0.9912
 4906SOL     OW25646   6.231   1.420   2.809  0.2939  0.2590  0.3701
 4906SOL    HW125647   6.134   1.401   2.827 -0.5048  2.5529 -1.1686
 4906SOL    HW225648   6.254   1.510   2.845  2.2096 -0.7475  1.7504
 4907SOL     OW25649   3.263   1.885   5.464 -0.5644  0.0126  0.2390
 4907SOL    HW125650   3.193   1.952   5.488  0.0778  0.0415  2.1253
 4907SOL    HW225651   3.353   1.928   5.466  0.0763 -1.3146  3.5415
 4908SOL     OW25652   4.465   0.025   3.368  0.1033  1.1852  0.5046
 4908SOL    HW125653   4.547   0.077   3.393  0.3457  2.3130 -2.4628
 4908SOL    HW225654   4.489  -0.071   3.355  0.5358  1.1317  1.6203
 4909SOL     OW25655   1.662   3.132   0.087 -0.0309 -0.4140 -0.5551
 4909SOL    HW125656   1.592   3.079   0.038 -1.3066  1.6867 -1.0484
 4909SOL    HW225657   1.752   3.113   0.047 -0.6965 -0.9042 -1.8533
 4910SOL     OW25658   3.410   4.798   1.245  0.0255 -0.0019  0.0279
 4910SOL    HW125659   3.333   4.833   1.298  0.6725  1.3994  0.0704
 4910SOL    HW225660   3.485   4.775   1.306 -0.1702 -0.8607 -0.0575
 4911SOL     OW25661   7.051   9.445   2.063  0.1305 -0.0138  0.2906
 4911SOL    HW125662   7.059   9.417   1.967  1.2461 -0.2222  0.4317
 4911SOL    HW225663   6.956   9.465   2.085  0.0888  1.6244 -1.3154
 4912SOL     OW25664   8.313   1.611   3.480  0.2489 -0.1326  0.0245
 4912SOL    HW125665   8.352   1.613   3.388  2.0890 -1.8285  0.7240
 4912SOL    HW225666   8.384   1.585   3.545 -1.3503 -0.2651  1.7442
 4913SOL     OW25667   1.612   7.332   2.214 -0.0247 -0.0566  0.5369
 4913SOL    HW125668   1.567   7.243   2.208 -0.6905  0.3591 -0.9741
 4913SOL    HW225669   1.613   7.363   2.309 -0.6595 -1.2291  0.9354
 4914SOL     OW25670   3.152   4.515   3.381 -0.0423  0.8756 -0.1584
 4914SOL    HW125671   3.079   4.554   3.437  0.6181  0.6320  0.8970
 4914SOL    HW225672   3.113   4.454   3.313 -1.0933  3.4626 -1.9344
 4915SOL     OW25673   1.164   5.474   4.155 -0.2508 -0.4334 -0.0368
 4915SOL    HW125674   1.263   5.475   4.163 -0.4445  0.8129  2.7409
 4915SOL    HW225675   1.137   5.509   4.065  1.7622  2.1470  0.2956
 4916SOL     OW25676   8.707   1.006   4.157 -0.2690  0.7610  0.2566
 4916SOL    HW125677   8.615   1.043   4.140 -0.0802  0.6102 -1.1545
 4916SOL    HW225678   8.705   0.906   4.147  0.0358  0.7538  0.2657
 4917SOL     OW25679   2.752   8.358   3.409 -0.0017 -0.2999  0.4966
 4917SOL    HW125680   2.662   8.359   3.452  0.1043 -1.9027  0.8008
 4917SOL    HW225681   2.819   8.400   3.470 -0.2033 -0.8217  1.0855
 4918SOL     OW25682   5.766   7.273   3.376 -0.3799 -0.3822 -0.3143
 4918SOL    HW125683   5.673   7.299   3.350 -0.7910 -1.1437  0.3552
 4918SOL    HW225684   5.778   7.175   3.362  0.1864 -0.3606 -0.0026
 4919SOL     OW25685   5.146   9.036   1.900 -0.4409 -0.0164  0.0423
 4919SOL    HW125686   5.143   8.974   1.821 -0.8679 -0.3452  0.3159
 4919SOL    HW225687   5.162   8.982   1.983 -1.4128  0.1758  0.3553
 4920SOL     OW25688   4.796   8.897   1.309 -0.2887  0.1311  0.2832
 4920SOL    HW125689   4.792   8.799   1.287  0.0076  0.1958 -0.0745
 4920SOL    HW225690   4.886   8.933   1.282 -0.5061  0.5660  0.1443
 4921SOL     OW25691   8.380   7.537   2.432  0.8103  0.9547  0.5898
 4921SOL    HW125692   8.317   7.542   2.355  1.0514  1.9259  0.4513
 4921SOL    HW225693   8.375   7.446   2.473  0.2421  0.6260 -0.1955
 4922SOL     OW25694   2.131   9.039   0.583  0.2517  0.2687  0.5741
 4922SOL    HW125695   2.123   8.945   0.552 -0.0269  1.0291 -1.7627
 4922SOL    HW225696   2.045   9.068   0.625 -1.1345  0.7601 -2.4753
 4923SOL     OW25697   8.514   1.263   2.714 -1.0358 -0.0369 -0.1531
 4923SOL    HW125698   8.422   1.299   2.707 -1.4507 -0.5168  2.3794
 4923SOL    HW225699   8.564   1.310   2.787  0.6652  0.0836 -1.3491
 4924SOL     OW25700   1.589   8.256   4.757 -0.3554 -0.0228  0.3268
 4924SOL    HW125701   1.684   8.252   4.728 -0.4897 -0.6454 -0.0126
 4924SOL    HW225702   1.531   8.287   4.681 -0.1262  2.7163  1.1898
 4925SOL     OW25703   8.252   1.032   3.749  0.3407  0.5617  0.4975
 4925SOL    HW125704   8.315   1.096   3.704 -1.2493  0.9678 -1.1960
 4925SOL    HW225705   8.207   1.079   3.826  0.1913  1.0754  0.1014
 4926SOL     OW25706   0.687   8.887   0.400  0.2216  0.0292  0.6665
 4926SOL    HW125707   0.680   8.811   0.465  1.0910 -0.1517  0.5462
 4926SOL    HW225708   0.735   8.857   0.318 -0.5009  0.3765  0.1065
 4927SOL     OW25709   2.549   5.945   3.866 -0.5238 -0.0316 -0.1126
 4927SOL    HW125710   2.515   6.020   3.810  0.5566  0.1417 -0.5420
 4927SOL    HW225711   2.553   5.974   3.962 -2.3152 -0.3115  0.0539
 4928SOL     OW25712   9.864   9.017   4.608  0.7519  0.0920 -0.4979
 4928SOL    HW125713   9.921   9.094   4.579  0.8742  0.6191  1.0891
 4928SOL    HW225714   9.768   9.045   4.611  0.9197  0.5742  1.2381
 4929SOL     OW25715   1.581   9.963   1.853 -0.2596 -0.1736 -0.4219
 4929SOL    HW125716   1.642   9.991   1.778 -0.1430 -2.9989 -1.4761
 4929SOL    HW225717   1.585   9.863   1.862 -1.5108  0.0024  2.3268
 4930SOL     OW25718   3.779   6.368   2.960  0.5330 -0.2164 -0.4123
 4930SOL    HW125719   3.778   6.281   3.009 -2.7108 -0.4359 -0.7476
 4930SOL    HW225720   3.780   6.350   2.861 -2.9147  0.0220 -0.5368
 4931SOL     OW25721   2.765   0.111   3.129 -0.8912  0.1255 -0.0705
 4931SOL    HW125722   2.749   0.074   3.037 -0.1119  1.7726 -0.9033
 4931SOL    HW225723   2.862   0.136   3.138 -0.8850 -0.3468  1.3407
 4932SOL     OW25724   6.494   8.516   4.366 -0.1825 -0.1669  0.3463
 4932SOL    HW125725   6.571   8.474   4.319  0.1737 -0.2190  0.9608
 4932SOL    HW225726   6.425   8.447   4.387 -0.6153 -0.0310 -0.6339
 4933SOL     OW25727   3.318   6.872   0.130 -0.5695  0.1238  0.3119
 4933SOL    HW125728   3.339   6.946   0.193  1.7188 -0.4221  0.2314
 4933SOL    HW225729   3.287   6.792   0.181  0.5800 -0.0774  0.7165
 4934SOL     OW25730   1.205   1.065   4.351 -0.4240  0.3944  0.6036
 4934SOL    HW125731   1.176   0.989   4.408 -0.5803 -1.8303 -2.3257
 4934SOL    HW225732   1.130   1.091   4.290  1.4610 -0.9050 -2.3481
 4935SOL     OW25733   0.372   2.844   1.914  0.5176 -0.4115  0.4214
 4935SOL    HW125734   0.380   2.843   2.013  3.5567 -1.6079  0.2163
 4935SOL    HW225735   0.346   2.753   1.881 -0.8052  0.0630  0.1323
 4936SOL     OW25736   1.653   8.668   4.138  0.5720  0.1532 -0.2456
 4936SOL    HW125737   1.713   8.670   4.058  0.9454  0.3806  0.0377
 4936SOL    HW225738   1.697   8.618   4.212  0.1922 -0.1287 -0.2082
 4937SOL     OW25739   5.184   1.120   1.225  0.2311 -0.4128  0.7770
 4937SOL    HW125740   5.177   1.153   1.320  0.4382 -0.1744  0.7102
 4937SOL    HW225741   5.254   1.049   1.219  0.7009  0.0512  0.6756
 4938SOL     OW25742   3.353   4.249   3.559  0.3230  0.0886 -0.2009
 4938SOL    HW125743   3.386   4.313   3.629 -1.5442  1.1633 -0.2622
 4938SOL    HW225744   3.307   4.301   3.486  0.9292 -1.1437 -1.4727
 4939SOL     OW25745   1.179   6.041   4.625 -0.1792 -0.5447  0.5398
 4939SOL    HW125746   1.154   5.947   4.601 -1.0355  0.0747 -1.0354
 4939SOL    HW225747   1.260   6.068   4.574 -0.2192 -0.2626  0.6247
 4940SOL     OW25748   0.936   0.802   4.183  0.6327 -0.1266  0.0301
 4940SOL    HW125749   0.896   0.780   4.272  0.3521  1.0556  0.2119
 4940SOL    HW225750   1.026   0.760   4.175  1.8188  1.9107  1.9652
 4941SOL     OW25751   8.805   1.859   5.213  0.0589  0.1076  0.1665
 4941SOL    HW125752   8.877   1.825   5.154 -0.4158  0.3816 -0.5808
 4941SOL    HW225753   8.845   1.899   5.296  0.7955  0.7197 -0.4743
 4942SOL     OW25754   2.374   0.254   0.049  0.1830  0.4784  0.4303
 4942SOL    HW125755   2.339   0.207  -0.032  1.0611 -0.7041  0.7155
 4942SOL    HW225756   2.448   0.200   0.089 -1.2086  0.3269  2.8784
 4943SOL     OW25757   3.623   5.497   2.052  0.3523 -0.0625  0.0313
 4943SOL    HW125758   3.573   5.443   1.985 -0.3813  0.4320  0.1808
 4943SOL    HW225759   3.578   5.490   2.141  0.4328  0.5412  0.1205
 4944SOL     OW25760   9.327   5.954   5.545 -0.1198  0.2112 -0.3714
 4944SOL    HW125761   9.297   5.968   5.639 -0.2188  1.2417 -0.5453
 4944SOL    HW225762   9.360   6.041   5.507  1.5301 -0.5512 -0.7357
 4945SOL     OW25763   5.032   3.863   0.041 -0.8370 -0.1116 -0.7372
 4945SOL    HW125764   5.012   3.906   0.129  0.7012 -1.9331  0.5332
 4945SOL    HW225765   5.095   3.921  -0.010 -1.0234  0.5230 -0.2572
 4946SOL     OW25766   0.639   4.745   3.424  0.6880 -0.2179  0.2519
 4946SOL    HW125767   0.630   4.645   3.416  1.1180 -0.1897 -0.7117
 4946SOL    HW225768   0.704   4.778   3.355 -0.9818  0.9527 -0.8003
 4947SOL     OW25769   9.760   2.808   4.732  0.4584  0.6648 -0.2983
 4947SOL    HW125770   9.750   2.898   4.689 -0.0282  1.4815  1.4999
 4947SOL    HW225771   9.670   2.767   4.746  0.6776 -0.1064 -1.0781
 4948SOL     OW25772   1.467   1.050   4.124 -0.2356  0.4748 -0.2340
 4948SOL    HW125773   1.552   1.043   4.176  0.4234 -0.2279 -1.3978
 4948SOL    HW225774   1.399   1.099   4.179  0.5145 -0.0666  1.2017
 4949SOL     OW25775   4.346   3.995   2.972  0.3449  0.6103 -0.1823
 4949SOL    HW125776   4.412   3.925   2.999  0.5735  0.6982 -0.4996
 4949SOL    HW225777   4.357   4.014   2.874 -2.2205 -1.5784 -0.9502
 4950SOL     OW25778   1.676   9.680   3.194 -0.3944  0.0308  0.0401
 4950SOL    HW125779   1.666   9.598   3.137  0.5473 -0.5686  0.7080
 4950SOL    HW225780   1.653   9.657   3.289 -0.4835  0.6330  0.1666
 4951SOL     OW25781   2.278   9.804   3.861 -0.0364 -0.2021 -0.4058
 4951SOL    HW125782   2.260   9.767   3.770 -0.4767 -0.7894 -0.0855
 4951SOL    HW225783   2.213   9.878   3.880  0.7428  0.6362 -0.9838
 4952SOL     OW25784   9.553   2.117   0.360 -0.1295 -0.1563  0.4598
 4952SOL    HW125785   9.597   2.162   0.437 -1.0674 -1.5236  1.8249
 4952SOL    HW225786   9.484   2.178   0.321  0.1819  0.4447  0.8353
 4953SOL     OW25787   2.710   7.027   2.023 -0.5362  0.0609 -0.0257
 4953SOL    HW125788   2.755   7.096   2.080 -0.4646 -1.2808  1.5353
 4953SOL    HW225789   2.614   7.054   2.008 -0.5776  0.3810  0.7783
 4954SOL     OW25790   2.171   5.171   1.449 -0.2035 -0.1184  0.1235
 4954SOL    HW125791   2.205   5.079   1.428 -0.0478 -0.0278 -0.0195
 4954SOL    HW225792   2.128   5.171   1.539  1.2069  0.0299  0.8099
 4955SOL     OW25793   7.957   2.297   0.430 -0.3047  0.1612  0.6418
 4955SOL    HW125794   8.022   2.321   0.358 -1.1068  0.3731 -0.0206
 4955SOL    HW225795   7.989   2.215   0.478  0.9036  0.7751  0.9234
 4956SOL     OW25796   3.996   4.959   4.854  0.0121  0.1243  0.1386
 4956SOL    HW125797   3.951   4.974   4.942  0.6277 -3.0584  1.0332
 4956SOL    HW225798   3.946   4.890   4.802  0.6616  0.6929 -1.2662
 4957SOL     OW25799   2.295   0.404   2.518  0.5788 -0.1539 -0.2161
 4957SOL    HW125800   2.237   0.369   2.591  0.8972 -0.0198  0.1023
 4957SOL    HW225801   2.356   0.331   2.486  0.0624 -0.3683 -0.7280
 4958SOL     OW25802   4.770   8.351   5.416 -0.5204 -0.3077 -0.4120
 4958SOL    HW125803   4.838   8.408   5.462 -0.2597  0.2860 -1.5119
 4958SOL    HW225804   4.682   8.361   5.461 -0.6583  1.5877 -1.0650
 4959SOL     OW25805   0.613   1.480   1.983  0.3576 -0.1874  0.0884
 4959SOL    HW125806   0.565   1.393   1.970 -1.7471  0.8055  0.9902
 4959SOL    HW225807   0.599   1.511   2.077  3.0284 -0.0002  0.4457
 4960SOL     OW25808   1.095   0.157   0.025 -0.0428 -0.3747 -0.1096
 4960SOL    HW125809   1.004   0.182  -0.006 -0.4103  0.3130  1.4636
 4960SOL    HW225810   1.145   0.113  -0.050 -0.8609  1.2652 -1.6419
 4961SOL     OW25811   0.708   2.916   0.294  0.1177  0.6782  0.0610
 4961SOL    HW125812   0.672   2.844   0.235  0.5016 -1.0054  1.8464
 4961SOL    HW225813   0.660   2.914   0.382  1.7159  1.0734  0.9665
 4962SOL     OW25814   3.084   8.931   3.342  0.2625  0.3407 -0.4427
 4962SOL    HW125815   3.038   8.980   3.268  0.8787 -0.6840 -1.5146
 4962SOL    HW225816   3.027   8.855   3.373  0.2904  0.3778 -0.3008
 4963SOL     OW25817   1.118   9.291   1.803 -0.2943 -0.1046  0.4620
 4963SOL    HW125818   1.156   9.383   1.817  1.6921 -0.6872 -0.9695
 4963SOL    HW225819   1.018   9.298   1.793 -0.4063  1.6368  2.5037
 4964SOL     OW25820   7.707   8.064   3.682 -0.2572 -0.0494  0.1968
 4964SOL    HW125821   7.776   8.056   3.754 -1.0247 -2.5513  0.6992
 4964SOL    HW225822   7.715   8.154   3.638  1.3027  0.8645  2.2740
 4965SOL     OW25823   1.322   5.127   0.355 -0.3537  0.1546  0.6297
 4965SOL    HW125824   1.299   5.055   0.290 -2.8523  2.1468 -0.7915
 4965SOL    HW225825   1.420   5.144   0.353 -0.2679 -0.4236 -1.9880
 4966SOL     OW25826   8.194   5.695   4.094  0.2707  0.4837 -0.0930
 4966SOL    HW125827   8.238   5.785   4.101  0.7889  0.1967  0.4318
 4966SOL    HW225828   8.264   5.624   4.087 -0.1447  0.1522 -0.9213
 4967SOL     OW25829   4.057   4.351   3.699 -0.0600  0.3697 -0.5125
 4967SOL    HW125830   4.081   4.440   3.660 -0.8412  1.7022  1.8987
 4967SOL    HW225831   4.091   4.278   3.640 -1.9101  2.2349 -4.1070
 4968SOL     OW25832   8.086   9.136   1.293  0.1149 -0.2388 -0.0709
 4968SOL    HW125833   8.067   9.060   1.231  2.7222 -0.5063 -0.6045
 4968SOL    HW225834   8.064   9.109   1.387  1.1835 -1.7451 -0.2292
 4969SOL     OW25835   9.307   0.049   0.150 -0.7820 -0.1385  0.1139
 4969SOL    HW125836   9.227  -0.003   0.178  0.5782 -1.7256  1.1527
 4969SOL    HW225837   9.339   0.016   0.061 -2.2118  1.5968 -1.0787
 4970SOL     OW25838   0.667   0.995   2.549  0.2921  0.1319  0.1949
 4970SOL    HW125839   0.743   1.047   2.510 -0.1175  0.7227  0.1809
 4970SOL    HW225840   0.660   0.906   2.503  1.9939 -0.5986  1.3047
 4971SOL     OW25841   0.194   6.952   1.999 -0.1582 -0.5214 -0.5351
 4971SOL    HW125842   0.221   6.988   2.088 -2.1096  1.1535 -0.6050
 4971SOL    HW225843   0.116   7.003   1.964  0.1485 -1.6075 -2.9083
 4972SOL     OW25844   5.517   9.604   3.280  0.4912  0.2016  0.6902
 4972SOL    HW125845   5.611   9.593   3.312  0.2639  0.6369  1.5209
 4972SOL    HW225846   5.455   9.552   3.339  0.2712 -0.6462 -0.2660
 4973SOL     OW25847   5.123   5.718   1.219 -0.0111  0.0523  0.4076
 4973SOL    HW125848   5.148   5.793   1.280 -0.3088  1.9734 -1.7583
 4973SOL    HW225849   5.049   5.664   1.261 -0.8311  1.8648  1.3371
 4974SOL     OW25850   2.432   7.883   2.385  0.1679  0.2499 -0.6181
 4974SOL    HW125851   2.524   7.845   2.377  1.0686  1.4920  2.8213
 4974SOL    HW225852   2.417   7.948   2.311  2.0241 -0.0781 -1.3226
 4975SOL     OW25853   4.045   1.832   5.613  1.1647 -0.2429  0.1967
 4975SOL    HW125854   3.953   1.854   5.644  0.8587 -0.6961 -0.3846
 4975SOL    HW225855   4.093   1.917   5.589  0.7391 -0.0435  0.0454
 4976SOL     OW25856   8.248   8.933   3.832  0.6784  0.4210  0.1724
 4976SOL    HW125857   8.232   8.839   3.802  0.6726  0.3035  0.5304
 4976SOL    HW225858   8.343   8.943   3.861  1.5099  1.3442 -2.7529
 4977SOL     OW25859   8.283   5.031   1.839 -0.3175  0.1357  0.3038
 4977SOL    HW125860   8.378   5.061   1.849  0.3617 -1.8015 -0.0267
 4977SOL    HW225861   8.279   4.955   1.774 -1.8379 -1.0134  1.6968
 4978SOL     OW25862   6.698   7.987   1.803  0.0418 -0.3690 -0.3175
 4978SOL    HW125863   6.740   8.046   1.872 -0.2479  0.1635 -0.5955
 4978SOL    HW225864   6.737   8.008   1.713 -1.7614  1.0583 -0.7882
 4979SOL     OW25865   1.314   0.076   3.969  0.6208  0.3188  0.0501
 4979SOL    HW125866   1.313   0.086   4.068 -0.7893  0.8875 -0.0067
 4979SOL    HW225867   1.389   0.016   3.942  0.3730 -0.6824  1.5330
 4980SOL     OW25868   9.718   8.521   2.348  0.2549 -0.2565  0.3499
 4980SOL    HW125869   9.779   8.488   2.420  0.4635  2.3661  1.4484
 4980SOL    HW225870   9.772   8.560   2.274 -0.0386  0.6878  0.6252
 4981SOL     OW25871   9.720   9.785   5.512 -0.1226 -0.4227  0.1823
 4981SOL    HW125872   9.635   9.768   5.461 -0.4562  0.4996  0.4107
 4981SOL    HW225873   9.754   9.876   5.489  0.9453 -0.8896 -0.0896
 4982SOL     OW25874   9.821   0.400   4.283 -0.3848  0.1878  0.0351
 4982SOL    HW125875   9.805   0.361   4.374 -0.8421  0.7609  0.2092
 4982SOL    HW225876   9.784   0.339   4.213 -0.8852  0.1910  0.2913
 4983SOL     OW25877   2.116   4.794   3.266  0.8416  0.0374  0.5737
 4983SOL    HW125878   2.078   4.731   3.334 -2.2012  1.1228 -0.0508
 4983SOL    HW225879   2.162   4.870   3.313  0.1768 -0.0686  1.4166
 4984SOL     OW25880   4.099   9.842   1.296 -0.1007  0.2014 -0.2047
 4984SOL    HW125881   4.109   9.761   1.238 -1.5328  1.6975 -2.6063
 4984SOL    HW225882   4.007   9.844   1.335 -0.3062  1.0165 -0.7161
 4985SOL     OW25883   1.511   0.492   0.496  0.8253 -0.4256  0.0218
 4985SOL    HW125884   1.599   0.482   0.543  0.5714  1.9765  1.1044
 4985SOL    HW225885   1.525   0.547   0.413  0.6694 -1.6809 -0.8418
 4986SOL     OW25886   2.197   4.158   2.113  0.2747 -0.0555 -0.2199
 4986SOL    HW125887   2.143   4.079   2.143  0.9911 -1.0498 -1.5199
 4986SOL    HW225888   2.135   4.234   2.093 -0.2998  0.2680  2.6372
 4987SOL     OW25889   0.485   9.801   1.081  0.1916 -0.1041 -0.4878
 4987SOL    HW125890   0.523   9.787   1.172 -0.4193  0.4537 -0.1508
 4987SOL    HW225891   0.499   9.719   1.026  1.4580 -0.0866 -0.2108
 4988SOL     OW25892   7.895   9.643   0.217 -0.3477 -0.3188 -0.9320
 4988SOL    HW125893   7.831   9.705   0.172  0.1074  0.9758  0.1782
 4988SOL    HW225894   7.849   9.596   0.291  0.0292  0.8110  0.0380
 4989SOL     OW25895   4.254   2.370   2.168 -0.1673 -0.6248  0.0160
 4989SOL    HW125896   4.300   2.331   2.089 -0.6904 -1.1369 -0.0413
 4989SOL    HW225897   4.194   2.445   2.138 -1.9982 -2.2181 -0.3523
 4990SOL     OW25898   6.839   0.651   2.253 -0.0860  0.6301 -0.0404
 4990SOL    HW125899   6.835   0.751   2.261 -0.3447  0.7668 -1.6927
 4990SOL    HW225900   6.748   0.613   2.265 -0.0528  0.6165  0.1776
 4991SOL     OW25901   8.740   6.303   0.493  0.3016  0.2648 -0.0145
 4991SOL    HW125902   8.735   6.403   0.484 -2.7787  0.1195 -0.5624
 4991SOL    HW225903   8.802   6.279   0.567  0.8250  2.6022  0.3371
 4992SOL     OW25904   9.818   6.196   4.093  0.2846  0.3073 -0.3041
 4992SOL    HW125905   9.828   6.166   4.188  1.6504  1.3318 -0.1166
 4992SOL    HW225906   9.759   6.131   4.044  0.1388 -0.6091  1.0560
 4993SOL     OW25907   4.243   7.519   2.198  0.3479 -0.5908 -0.5346
 4993SOL    HW125908   4.334   7.495   2.233  0.6143 -0.3181 -1.0459
 4993SOL    HW225909   4.249   7.538   2.100 -0.4317 -1.5146 -0.7716
 4994SOL     OW25910   2.549   6.241   5.144 -0.1116 -0.1918  0.3355
 4994SOL    HW125911   2.611   6.163   5.139 -1.0026 -0.9873  1.3530
 4994SOL    HW225912   2.536   6.267   5.240 -0.7014  0.4940  0.0747
 4995SOL     OW25913   6.264   9.192   2.552  0.0502 -1.0895 -0.1410
 4995SOL    HW125914   6.254   9.093   2.558 -1.3351 -0.8398  2.0967
 4995SOL    HW225915   6.184   9.237   2.592  1.0675  0.9356 -0.2911
 4996SOL     OW25916   3.378   6.442   4.543 -0.0735  0.1169 -0.1263
 4996SOL    HW125917   3.412   6.352   4.518 -0.1364 -0.7376  2.6727
 4996SOL    HW225918   3.282   6.451   4.517 -0.8489 -1.6726  1.9601
 4997SOL     OW25919   2.795   5.738   2.697  0.3834  0.2070 -0.2848
 4997SOL    HW125920   2.772   5.828   2.733 -0.3714 -0.1602  0.1621
 4997SOL    HW225921   2.718   5.703   2.644  0.3187 -0.5772  0.3250
 4998SOL     OW25922   9.191   5.528   1.600  0.5400  0.1607 -0.1461
 4998SOL    HW125923   9.200   5.577   1.687 -0.2184  0.5442 -0.2851
 4998SOL    HW225924   9.097   5.534   1.567  0.3694 -1.6387 -0.0205
 4999SOL     OW25925   3.741   4.224   0.195 -0.7150 -0.5066  0.3436
 4999SOL    HW125926   3.666   4.168   0.229 -0.2559 -1.7779 -0.6697
 4999SOL    HW225927   3.786   4.177   0.119 -0.3928  1.3102 -0.6230
 5000SOL     OW25928   8.773   6.321   0.110 -0.3955  0.1266  0.3511
 5000SOL    HW125929   8.797   6.400   0.167 -1.1140  0.2010  0.5585
 5000SOL    HW225930   8.739   6.247   0.169  0.8134 -0.5456  0.2124
 5001SOL     OW25931   1.428   3.227   4.772 -0.3730 -0.3730  0.5049
 5001SOL    HW125932   1.372   3.182   4.842  0.1146 -2.5579 -0.4842
 5001SOL    HW225933   1.369   3.284   4.715 -1.4489 -1.7892  0.1518
 5002SOL     OW25934   0.221   4.433   5.490 -0.3303 -0.4567 -0.3445
 5002SOL    HW125935   0.314   4.471   5.494 -0.0846 -1.0430 -0.3681
 5002SOL    HW225936   0.178   4.440   5.580 -1.1305  1.9388 -0.8767
 5003SOL     OW25937   3.958   1.627   0.683  0.5515  0.1282  0.0662
 5003SOL    HW125938   4.025   1.678   0.736  0.2532  0.5852  0.0068
 5003SOL    HW225939   3.891   1.585   0.745  0.7467 -0.1178  0.1098
 5004SOL     OW25940   4.550   1.470   1.017 -0.1990 -0.5033 -0.0183
 5004SOL    HW125941   4.646   1.472   0.990 -0.4493  0.0592 -0.8802
 5004SOL    HW225942   4.544   1.481   1.116  0.6492 -0.9792  0.0902
 5005SOL     OW25943   4.528   8.240   5.517  0.0880 -0.0151 -0.0323
 5005SOL    HW125944   4.443   8.289   5.498 -0.6889 -0.4313  2.1745
 5005SOL    HW225945   4.522   8.147   5.479 -0.0987  0.2399 -0.6270
 5006SOL     OW25946   7.486   7.539   3.189  0.4325 -0.7535 -0.1428
 5006SOL    HW125947   7.393   7.504   3.200 -0.1662  1.1046  0.9145
 5006SOL    HW225948   7.546   7.495   3.255 -0.0940 -0.6134  0.4402
 5007SOL     OW25949   1.209   0.220   1.572 -0.2586  0.0510 -0.3594
 5007SOL    HW125950   1.142   0.238   1.643  0.7113 -0.5434  0.7411
 5007SOL    HW225951   1.195   0.127   1.536 -0.9263  0.4566 -1.1397
 5008SOL     OW25952   9.221   6.401   0.424  0.4439  0.2319  0.4013
 5008SOL    HW125953   9.318   6.417   0.410  0.3487 -0.4020 -1.0498
 5008SOL    HW225954   9.169   6.433   0.345 -0.3876 -0.7305  0.5317
 5009SOL     OW25955   7.262   7.950   3.914  0.3246  0.0435  0.1507
 5009SOL    HW125956   7.213   7.982   3.832 -0.8893 -1.5848  0.2074
 5009SOL    HW225957   7.290   8.029   3.969 -0.3144  1.0907 -0.9876
 5010SOL     OW25958   4.786   0.039   4.174 -0.0435 -0.3323 -0.1999
 5010SOL    HW125959   4.727   0.110   4.212  0.6135 -0.9018  1.9375
 5010SOL    HW225960   4.730  -0.029   4.126 -1.0149 -0.2832  0.8609
 5011SOL     OW25961   1.034   0.057   0.296  0.2005  0.3555 -0.0990
 5011SOL    HW125962   1.027   0.103   0.207  0.7894  1.6513  0.5213
 5011SOL    HW225963   1.130   0.037   0.316 -0.0085 -0.7279 -0.1428
 5012SOL     OW25964   9.935   9.241   0.277 -0.3111  0.8252  0.1868
 5012SOL    HW125965   9.976   9.150   0.285  0.0379  1.0224  0.6464
 5012SOL    HW225966   9.853   9.246   0.334 -0.7884  0.5448 -0.4626
 5013SOL     OW25967   9.212   4.099   0.912 -0.1578 -0.1774  0.3474
 5013SOL    HW125968   9.171   4.024   0.860 -0.5583  0.2795 -0.0057
 5013SOL    HW225969   9.311   4.086   0.918 -0.2685 -0.9302  0.6148
 5014SOL     OW25970   0.439   0.199   1.908  0.0601 -0.1694 -0.4869
 5014SOL    HW125971   0.351   0.245   1.922  0.6443  0.4049  1.5624
 5014SOL    HW225972   0.430   0.103   1.932 -0.0737 -0.1713 -0.5416
 5015SOL     OW25973   3.750   0.683   1.915  0.1640  0.5788 -0.3337
 5015SOL    HW125974   3.708   0.594   1.899  1.7844 -0.3079  0.3019
 5015SOL    HW225975   3.830   0.673   1.974  0.8851  2.3318 -0.9655
 5016SOL     OW25976   4.813   9.894   5.230  0.3907  0.3779  0.1070
 5016SOL    HW125977   4.860   9.808   5.248  1.2110  0.7248 -0.3397
 5016SOL    HW225978   4.787   9.937   5.316  0.8600  0.1644  0.3544
 5017SOL     OW25979   9.960   5.243   4.651  0.0656  0.3595  0.2265
 5017SOL    HW125980  10.000   5.307   4.716 -0.8471  1.3485 -0.1775
 5017SOL    HW225981  10.033   5.201   4.597  0.6545  1.1823  0.3723
 5018SOL     OW25982   6.457   1.044   3.544  0.4836  0.5018  0.5228
 5018SOL    HW125983   6.526   1.059   3.614  0.4420 -0.4789  0.7677
 5018SOL    HW225984   6.496   1.066   3.454  1.2717 -0.5009  0.6072
 5019SOL     OW25985   9.814   4.875   4.648 -0.1627  0.2817  0.6393
 5019SOL    HW125986   9.797   4.965   4.688  1.3490  0.9311 -0.1333
 5019SOL    HW225987   9.895   4.879   4.590 -0.3477 -1.4753  0.2235
 5020SOL     OW25988   9.493   9.508   3.492 -0.4858  0.3821 -0.2486
 5020SOL    HW125989   9.416   9.560   3.454 -1.1367 -1.1579 -1.1230
 5020SOL    HW225990   9.569   9.509   3.427 -0.7548 -0.3063 -0.5902
 5021SOL     OW25991   1.258   3.385   2.236  0.4768  0.2215  0.5420
 5021SOL    HW125992   1.309   3.471   2.245 -2.4653  2.0469  0.1419
 5021SOL    HW225993   1.248   3.344   2.327  0.9875  0.8302  0.8821
 5022SOL     OW25994   4.205   6.293   1.356  0.2754 -0.3571 -0.1532
 5022SOL    HW125995   4.302   6.287   1.382  0.3435  0.8029 -0.0714
 5022SOL    HW225996   4.176   6.208   1.313  1.5195 -0.4922 -0.7594
 5023SOL     OW25997   3.153   3.832   4.049 -0.0568  0.1745 -0.3030
 5023SOL    HW125998   3.182   3.886   3.970  0.6337  1.8433  1.0646
 5023SOL    HW225999   3.161   3.887   4.132 -2.4388 -0.9896  0.7366
 5024SOL     OW26000   9.768   8.074   0.231 -0.4292 -0.0427 -0.0242
 5024SOL    HW126001   9.750   8.053   0.135 -0.7440 -0.2347  0.0802
 5024SOL    HW226002   9.829   8.005   0.270 -1.1070 -0.5180  0.1954
 5025SOL     OW26003   4.368   9.669   1.231 -0.3265 -0.0113  0.0736
 5025SOL    HW126004   4.280   9.668   1.183 -0.8876 -1.8796  1.0996
 5025SOL    HW226005   4.399   9.764   1.241 -2.2374  0.6837 -0.2871
 5026SOL     OW26006   9.401   3.935   3.589  0.3166 -0.2879  0.2995
 5026SOL    HW126007   9.384   4.026   3.552 -1.5699 -1.1156 -0.9297
 5026SOL    HW226008   9.458   3.883   3.525  0.9704 -0.1515  0.7640
 5027SOL     OW26009   3.808   6.438   3.236  0.3541  0.2721 -0.1681
 5027SOL    HW126010   3.753   6.519   3.256 -0.4891 -0.7026  1.5224
 5027SOL    HW226011   3.819   6.429   3.137  1.1238  2.8735 -0.3737
 5028SOL     OW26012   4.881   5.588   1.545 -0.0761  0.1057  0.3387
 5028SOL    HW126013   4.794   5.635   1.529 -1.1351 -2.2090 -0.9123
 5028SOL    HW226014   4.916   5.551   1.459  2.8080  2.0547  0.6126
 5029SOL     OW26015   4.165   2.603   2.020  0.3398 -0.1487 -0.6910
 5029SOL    HW126016   4.256   2.575   1.990  0.0766  0.1322 -1.7779
 5029SOL    HW226017   4.112   2.633   1.941 -0.1176  1.3346  0.1534
 5030SOL     OW26018   7.991   4.218   1.084 -0.4200 -0.1235 -0.0933
 5030SOL    HW126019   8.074   4.272   1.065 -0.1263 -0.5511 -0.0332
 5030SOL    HW226020   7.961   4.174   1.000 -0.8602  0.4081 -0.2187
 5031SOL     OW26021   3.765   0.808   0.435  0.0915 -0.3473 -0.3667
 5031SOL    HW126022   3.699   0.883   0.449 -0.3336 -0.6238 -0.8744
 5031SOL    HW226023   3.828   0.833   0.361 -0.5594 -0.8301 -1.0882
 5032SOL     OW26024   0.077   5.893   4.137  0.2009  0.4565 -0.0380
 5032SOL    HW126025   0.004   5.835   4.175  0.2396  0.5679  0.2044
 5032SOL    HW226026   0.115   5.950   4.209 -0.2418  1.2159 -0.3945
 5033SOL     OW26027   1.429   8.908   2.833 -0.3254 -0.0939 -0.1892
 5033SOL    HW126028   1.354   8.942   2.889  0.2914  0.2257  0.4634
 5033SOL    HW226029   1.479   8.837   2.883  1.2636  1.3900  0.3818
 5034SOL     OW26030   1.805   2.457   0.109  0.1320 -0.1597  0.2102
 5034SOL    HW126031   1.829   2.499   0.196  0.9371  0.5830 -0.3615
 5034SOL    HW226032   1.706   2.444   0.104  0.3238 -2.7568  2.3665
 5035SOL     OW26033   8.297   7.074   1.837  0.4786 -0.1095  0.4038
 5035SOL    HW126034   8.275   7.122   1.922 -1.1805  0.3126 -0.2392
 5035SOL    HW226035   8.272   6.978   1.846 -0.1907  0.0466  0.2096
 5036SOL     OW26036   1.224   4.999   4.977 -0.0046  0.1248  0.1926
 5036SOL    HW126037   1.277   4.924   5.017 -0.7212  0.6531  2.1954
 5036SOL    HW226038   1.282   5.080   4.970 -0.0179  0.1725  0.6332
 5037SOL     OW26039   2.927   6.811   2.271 -0.3087  0.2179 -0.6011
 5037SOL    HW126040   2.832   6.835   2.292  0.2725  0.9031  1.3517
 5037SOL    HW226041   2.953   6.851   2.183 -1.2107  1.6985 -0.2119
 5038SOL     OW26042   3.691   1.277   3.190  0.2255 -0.6176  0.0009
 5038SOL    HW126043   3.659   1.187   3.222 -0.5613 -1.2830 -2.4586
 5038SOL    HW226044   3.745   1.264   3.106  1.1679  1.1168  0.3326
 5039SOL     OW26045   9.555   5.208   4.500  0.2655 -0.3507 -0.0044
 5039SOL    HW126046   9.637   5.228   4.446 -0.4492 -0.9303 -1.3277
 5039SOL    HW226047   9.477   5.196   4.439 -0.7349 -0.2144  1.2184
 5040SOL     OW26048   6.598   9.873   4.802  0.1414 -0.6646 -0.2524
 5040SOL    HW126049   6.529   9.943   4.785  1.7097  0.6491 -1.3470
 5040SOL    HW226050   6.678   9.915   4.844  0.9560 -1.8783 -0.5680
 5041SOL     OW26051   5.833   9.445   1.506  0.0126  0.6289  0.3960
 5041SOL    HW126052   5.846   9.544   1.499  0.7825  0.5487  0.7142
 5041SOL    HW226053   5.837   9.417   1.602 -0.9360  0.3830  0.3728
 5042SOL     OW26054   4.270   1.624   2.721  0.7039 -0.1839  0.0475
 5042SOL    HW126055   4.349   1.627   2.659  0.7649  3.1354  0.2111
 5042SOL    HW226056   4.186   1.629   2.668  0.7473  2.1099  0.1408
 5043SOL     OW26057   3.510   9.627   1.959 -0.2927  0.0379  0.5675
 5043SOL    HW126058   3.516   9.686   1.878  0.9249  0.9484  1.3168
 5043SOL    HW226059   3.450   9.549   1.938 -0.6883  0.7168 -0.9266
 5044SOL     OW26060   0.418   1.213   0.967 -0.0364 -0.1259  0.5679
 5044SOL    HW126061   0.441   1.181   0.874  1.6074  0.5517  0.7252
 5044SOL    HW226062   0.433   1.138   1.032 -0.2488 -0.3062  0.4112
 5045SOL     OW26063   1.192   4.911   0.835 -0.0372  0.2535  0.5297
 5045SOL    HW126064   1.192   5.011   0.835  2.1336  0.2739 -0.0152
 5045SOL    HW226065   1.101   4.878   0.810 -0.8855  2.0749  1.0870
 5046SOL     OW26066   7.764   1.304   3.424  0.0089 -0.2668 -0.5453
 5046SOL    HW126067   7.860   1.305   3.450  0.0148  1.4830 -0.5871
 5046SOL    HW226068   7.726   1.397   3.432 -1.9041 -1.0843  0.3452
 5047SOL     OW26069   0.601   0.058   3.863 -0.1100  0.3510  0.9204
 5047SOL    HW126070   0.645  -0.019   3.908  0.7664 -0.1045 -0.6790
 5047SOL    HW226071   0.642   0.144   3.896  0.4187  0.0345  1.0960
 5048SOL     OW26072   2.957   5.792   4.650 -0.0106  0.3801 -0.3000
 5048SOL    HW126073   3.047   5.750   4.645  0.5394  1.4680  0.3861
 5048SOL    HW226074   2.948   5.861   4.578  0.4679  1.7231  0.9061
 5049SOL     OW26075   8.248   5.088   3.354 -0.2796 -0.5489 -0.0008
 5049SOL    HW126076   8.329   5.041   3.318 -0.3635 -0.8879  0.2514
 5049SOL    HW226077   8.274   5.179   3.386 -0.0677 -0.5164 -0.2653
 5050SOL     OW26078   3.045   3.362   1.128 -0.3481  0.6837  0.2779
 5050SOL    HW126079   2.976   3.415   1.080  0.0217  0.8743 -0.0435
 5050SOL    HW226080   3.009   3.333   1.217 -0.8365  0.7855  0.1148
 5051SOL     OW26081   1.504   9.148   4.139 -0.4053 -0.1046  0.4198
 5051SOL    HW126082   1.528   9.138   4.235  0.2421 -0.6681  0.2065
 5051SOL    HW226083   1.405   9.162   4.130 -0.2268  1.9674  1.2998
 5052SOL     OW26084   1.550   8.001   0.175 -0.0939  0.1423  0.0035
 5052SOL    HW126085   1.486   8.031   0.245  0.5130  2.9564 -0.6044
 5052SOL    HW226086   1.501   7.953   0.103 -0.7634 -2.5344  2.1483
 5053SOL     OW26087   8.426   5.252   5.085  0.2742 -0.1104  0.4757
 5053SOL    HW126088   8.423   5.347   5.054  1.2214 -0.2613 -0.0952
 5053SOL    HW226089   8.358   5.199   5.035  0.5049  0.0422 -0.0050
 5054SOL     OW26090   3.009   5.328   0.254  0.2261 -0.8571 -0.3473
 5054SOL    HW126091   2.991   5.230   0.251  0.0321 -0.8264 -0.1657
 5054SOL    HW226092   2.999   5.366   0.162 -0.2855 -0.9027 -0.3093
 5055SOL     OW26093   7.709   1.818   0.302 -0.5372 -0.0212 -0.5201
 5055SOL    HW126094   7.793   1.792   0.350 -1.0232 -0.8903 -0.1133
 5055SOL    HW226095   7.650   1.869   0.365 -1.4854 -1.7794  0.0666
 5056SOL     OW26096   2.442   1.701   4.750 -0.5850  0.2041 -0.4827
 5056SOL    HW126097   2.419   1.788   4.794  2.5964  0.6041  0.5025
 5056SOL    HW226098   2.502   1.717   4.673 -1.8545 -0.9725 -1.7395
 5057SOL     OW26099   0.978   4.145   3.356 -0.8265 -0.2971  0.1725
 5057SOL    HW126100   0.908   4.144   3.285 -1.6258  0.0424  0.9594
 5057SOL    HW226101   0.948   4.093   3.435  0.4424 -1.4352 -0.0743
 5058SOL     OW26102   9.406   3.504   2.963 -0.3017 -0.2485  0.7079
 5058SOL    HW126103   9.456   3.566   3.022 -1.1061  0.7358  0.3666
 5058SOL    HW226104   9.384   3.420   3.013  0.6367 -0.1947  1.2158
 5059SOL     OW26105   9.881   4.938   5.390  0.0983 -0.3094  0.6625
 5059SOL    HW126106   9.949   4.896   5.450  1.1306  0.3294 -0.0228
 5059SOL    HW226107   9.851   5.025   5.429 -0.4731 -0.6911  1.0654
 5060SOL     OW26108   8.291   1.289   5.063 -0.0180  0.5043  0.3065
 5060SOL    HW126109   8.306   1.335   5.150  0.3903  1.6051 -0.3341
 5060SOL    HW226110   8.268   1.357   4.993  1.2676 -0.1811 -0.8072
 5061SOL     OW26111   6.014   1.230   1.210 -0.0686 -0.2642 -0.4537
 5061SOL    HW126112   5.988   1.309   1.265 -0.7759  2.0984 -4.0338
 5061SOL    HW226113   6.104   1.198   1.239  0.2771  1.8795  1.0086
 5062SOL     OW26114   8.638   2.131   0.166 -0.1196  0.2242 -0.2470
 5062SOL    HW126115   8.582   2.077   0.103  0.2497 -0.4887  0.0252
 5062SOL    HW226116   8.642   2.225   0.134  2.4865 -0.7104 -2.9880
 5063SOL     OW26117   7.493   0.679   3.522 -0.6744 -0.4007  0.3759
 5063SOL    HW126118   7.510   0.777   3.534  1.6800 -1.1181  3.2069
 5063SOL    HW226119   7.401   0.657   3.555 -1.6612  0.9907 -1.3310
 5064SOL     OW26120   9.391   3.699   4.709 -0.6988  0.4429 -0.3806
 5064SOL    HW126121   9.390   3.765   4.634  0.3761 -0.8506 -1.5452
 5064SOL    HW226122   9.388   3.606   4.672  0.7379 -0.2187  1.1480
 5065SOL     OW26123   1.600   8.063   2.837  0.3220 -0.3047  0.9582
 5065SOL    HW126124   1.503   8.041   2.825  0.2812  0.3267  0.1434
 5065SOL    HW226125   1.656   7.998   2.786  0.2581  0.4853 -0.1267
 5066SOL     OW26126   9.461   1.658   2.927  0.1400  0.1535 -0.2652
 5066SOL    HW126127   9.434   1.690   2.837  0.9895  2.7027  0.3495
 5066SOL    HW226128   9.408   1.706   2.997  0.3155 -0.9435  0.6442
 5067SOL     OW26129   2.382   4.896   3.660 -0.3323 -0.0868 -0.3354
 5067SOL    HW126130   2.443   4.920   3.585 -0.3856  1.6681  0.1419
 5067SOL    HW226131   2.436   4.868   3.740 -0.2610 -1.4640 -0.8588
 5068SOL     OW26132   2.840   0.550   3.672 -0.2985  0.6205  0.0442
 5068SOL    HW126133   2.766   0.522   3.611 -0.0947 -0.2895  0.2087
 5068SOL    HW226134   2.842   0.492   3.753  0.4286  0.8054  0.1693
 5069SOL     OW26135   0.382   9.413   2.782 -0.5611  0.3714 -0.3612
 5069SOL    HW126136   0.460   9.472   2.803 -0.3855 -0.7119  2.3094
 5069SOL    HW226137   0.414   9.320   2.768 -1.4535 -0.3122  1.9552
 5070SOL     OW26138   2.386   5.571   2.617 -0.1644 -0.2085  0.1744
 5070SOL    HW126139   2.294   5.596   2.644  0.0454  0.6767  0.0848
 5070SOL    HW226140   2.417   5.493   2.671  0.2348  1.5202  2.5073
 5071SOL     OW26141   9.772   3.677   2.247  0.5420  0.1778  0.0838
 5071SOL    HW126142   9.777   3.766   2.293  0.5969  0.4999 -0.5468
 5071SOL    HW226143   9.750   3.606   2.314  3.8023  0.1411  1.1858
 5072SOL     OW26144   2.763   6.457   4.533 -0.1490  0.5387 -0.4440
 5072SOL    HW126145   2.836   6.469   4.465  0.9068  1.9307  0.9196
 5072SOL    HW226146   2.777   6.371   4.582  1.2477  1.3473  0.5995
 5073SOL     OW26147   7.172   0.918   0.090  0.1457 -0.2940  0.0122
 5073SOL    HW126148   7.193   0.964   0.176 -0.1277 -0.0546 -0.0479
 5073SOL    HW226149   7.218   0.965   0.015  0.0552 -0.2613 -0.0219
 5074SOL     OW26150   3.474   8.297   4.223 -0.2395  0.3958 -0.4049
 5074SOL    HW126151   3.480   8.397   4.230 -2.9361  0.6237 -0.7926
 5074SOL    HW226152   3.499   8.269   4.131  1.3911  0.5954 -0.0511
 5075SOL     OW26153   8.851   3.804   2.373  0.0538  0.8709  0.1380
 5075SOL    HW126154   8.874   3.715   2.335  1.4816  0.1824  2.5706
 5075SOL    HW226155   8.764   3.797   2.423 -0.2318  1.0504 -0.3230
 5076SOL     OW26156   2.635   0.248   1.818  0.0875  0.0751 -0.3909
 5076SOL    HW126157   2.597   0.340   1.831 -0.8746 -0.3063 -0.5365
 5076SOL    HW226158   2.732   0.256   1.794  0.0635  1.0468 -0.1930
 5077SOL     OW26159   0.199   4.773   5.432 -0.0793 -0.2489 -0.1458
 5077SOL    HW126160   0.282   4.830   5.428 -1.1346  1.3054 -0.5799
 5077SOL    HW226161   0.200   4.709   5.355  0.6791 -0.1912 -0.1952
 5078SOL     OW26162   2.613   7.783   2.831  1.0719  0.3532  0.4489
 5078SOL    HW126163   2.559   7.847   2.776 -0.8830 -1.2531  0.4622
 5078SOL    HW226164   2.685   7.744   2.775 -2.6445 -3.4419 -1.9453
 5079SOL     OW26165   2.897   0.324   4.575 -0.1628 -0.2742 -0.5598
 5079SOL    HW126166   2.916   0.413   4.534  2.2441  1.1113  3.3087
 5079SOL    HW226167   2.973   0.262   4.556  0.1577 -0.1623  0.3578
 5080SOL     OW26168   9.702   9.479   3.023  0.5667 -0.0783 -0.1813
 5080SOL    HW126169   9.709   9.471   3.123 -0.7459  3.9353  0.3348
 5080SOL    HW226170   9.703   9.576   2.998 -0.7086 -0.9812 -3.9745
 5081SOL     OW26171   7.747   0.386   0.127 -0.0061 -0.6164  0.3614
 5081SOL    HW126172   7.680   0.327   0.173 -0.7301 -0.1362 -0.0739
 5081SOL    HW226173   7.721   0.482   0.139 -1.0778 -0.5198 -2.3396
 5082SOL     OW26174   7.432   0.784   1.023  0.1275 -0.0983 -0.3115
 5082SOL    HW126175   7.364   0.848   0.987 -1.2196 -0.8829  0.7810
 5082SOL    HW226176   7.476   0.824   1.103  0.5774  0.2002 -0.7092
 5083SOL     OW26177   0.443   4.250   0.473 -0.4659 -0.7810  0.3529
 5083SOL    HW126178   0.458   4.179   0.543 -0.4842  0.4486  1.6210
 5083SOL    HW226179   0.346   4.252   0.449 -0.7576 -0.0525  1.5547
 5084SOL     OW26180   9.513   1.996   0.680 -0.4604 -0.0458 -0.2147
 5084SOL    HW126181   9.517   2.037   0.771  1.8292  1.4102 -0.9214
 5084SOL    HW226182   9.435   2.032   0.629 -1.6573 -0.7567  1.0962
 5085SOL     OW26183   1.872   7.504   1.529 -0.0381  0.2557  0.2807
 5085SOL    HW126184   1.882   7.488   1.431  0.5079 -1.3695  0.5784
 5085SOL    HW226185   1.927   7.583   1.556 -0.3879  0.8595 -0.7560
 5086SOL     OW26186   7.129   9.442   4.171  0.0040 -0.2535  0.5984
 5086SOL    HW126187   7.040   9.452   4.214 -0.9585 -0.2119 -1.3560
 5086SOL    HW226188   7.167   9.533   4.151 -1.3467 -0.2621 -2.2089
 5087SOL     OW26189   0.721   3.210   1.540  0.4366 -0.0747 -0.1751
 5087SOL    HW126190   0.769   3.157   1.610  2.2962  1.9041  0.0918
 5087SOL    HW226191   0.735   3.168   1.450  0.4397 -1.0175  0.2691
 5088SOL     OW26192   9.387   3.753   4.262  0.2201  0.4146 -0.7761
 5088SOL    HW126193   9.337   3.815   4.201  0.7690 -0.2384 -1.9130
 5088SOL    HW226194   9.356   3.659   4.245  1.0664  0.1259 -0.7283
 5089SOL     OW26195   9.732   3.465   2.411  0.4661 -0.0949  0.1234
 5089SOL    HW126196   9.802   3.417   2.464  2.0532  0.7417 -1.1633
 5089SOL    HW226197   9.727   3.427   2.319 -0.1876  0.4073 -0.0574
 5090SOL     OW26198   8.854   5.008   2.726 -0.0691  0.2838  0.0204
 5090SOL    HW126199   8.759   4.990   2.700  0.1018  2.3819 -2.3372
 5090SOL    HW226200   8.875   5.105   2.711  2.6094 -0.2539 -0.0527
 5091SOL     OW26201   1.014   7.190   1.113 -0.9641  0.0945  0.3803
 5091SOL    HW126202   1.036   7.271   1.167  0.8328  1.6310 -2.4713
 5091SOL    HW226203   1.090   7.125   1.118  0.1350  1.1421 -1.8071
 5092SOL     OW26204   8.089   8.418   1.509  0.1723  0.5334  0.0057
 5092SOL    HW126205   8.072   8.506   1.466 -2.3980 -0.2508 -0.7057
 5092SOL    HW226206   8.026   8.406   1.586 -0.1920 -1.0715 -0.5227
 5093SOL     OW26207   0.878   3.456   1.343 -0.3414  0.3182  0.1597
 5093SOL    HW126208   0.897   3.533   1.404 -2.5152 -0.3531  1.7416
 5093SOL    HW226209   0.780   3.451   1.325 -0.3721 -2.6297  0.8659
 5094SOL     OW26210   3.594   2.466   0.054  0.3967  0.0351  0.2654
 5094SOL    HW126211   3.677   2.411   0.044  0.7213  0.0349  2.5424
 5094SOL    HW226212   3.600   2.519   0.139 -1.8878  0.1183  0.3989
 5095SOL     OW26213   2.054   7.143   5.165  0.2057 -0.2563  0.0135
 5095SOL    HW126214   2.076   7.060   5.215 -1.2621 -0.8416 -0.2830
 5095SOL    HW226215   2.131   7.206   5.168  0.2886 -0.4406  2.6871
 5096SOL     OW26216   8.075   1.040   1.359 -0.1561  0.2183  0.1469
 5096SOL    HW126217   8.025   1.112   1.408  0.7990  0.9317  0.0740
 5096SOL    HW226218   8.142   0.998   1.421 -0.5586 -0.4738  0.1248
 5097SOL     OW26219   0.878   4.917   5.505 -0.3644  0.4124  0.0149
 5097SOL    HW126220   0.946   4.844   5.511  0.4391  1.1001 -0.4440
 5097SOL    HW226221   0.816   4.899   5.429  0.3990  0.6590 -0.6767
 5098SOL     OW26222   8.300   7.630   5.379 -0.3257 -0.0500 -0.1978
 5098SOL    HW126223   8.263   7.698   5.443  1.8000  0.7106  0.2628
 5098SOL    HW226224   8.256   7.641   5.290  0.4279  2.3902 -0.3226
 5099SOL     OW26225   1.480   6.800   4.338  0.5153 -0.8544 -0.2126
 5099SOL    HW126226   1.510   6.807   4.433 -0.0964  0.1146 -0.0775
 5099SOL    HW226227   1.380   6.799   4.335  0.5311 -2.5579 -0.7447
 5100SOL     OW26228   5.600   0.834   4.551  0.4008  0.2187 -0.7051
 5100SOL    HW126229   5.506   0.818   4.519  0.0482  0.1621  0.3123
 5100SOL    HW226230   5.664   0.819   4.476 -0.4586  1.0525 -1.6255
 5101SOL     OW26231   6.168   1.057   1.764 -0.3209 -0.2668  0.4166
 5101SOL    HW126232   6.220   1.017   1.688  1.4630  1.4531  0.6755
 5101SOL    HW226233   6.073   1.070   1.737  0.1678 -0.2175 -1.3402
 5102SOL     OW26234   0.781   7.749   3.464  0.1345 -0.2440 -0.7063
 5102SOL    HW126235   0.744   7.806   3.390 -1.1957 -0.2856 -0.0802
 5102SOL    HW226236   0.772   7.653   3.440 -1.0431 -0.2783 -0.1416
 5103SOL     OW26237   0.908   3.132   0.736 -0.5559  0.4027 -0.4098
 5103SOL    HW126238   0.875   3.049   0.780  0.2444  0.8704  1.1005
 5103SOL    HW226239   0.846   3.207   0.755  1.2840  1.2756  2.4095
 5104SOL     OW26240   9.417   2.990   1.937  0.0094 -0.3436 -0.5167
 5104SOL    HW126241   9.488   2.922   1.918  0.7707  0.7459 -1.6445
 5104SOL    HW226242   9.425   3.022   2.031  1.7841  0.6493 -0.9905
 5105SOL     OW26243   6.082   9.332   1.492  0.1910  0.0768  0.8830
 5105SOL    HW126244   6.135   9.387   1.428  0.4294  0.5869  1.5076
 5105SOL    HW226245   5.990   9.369   1.500  0.8581  1.4474  2.5971
 5106SOL     OW26246   7.873   2.895   2.409 -0.2908 -0.2147  0.9873
 5106SOL    HW126247   7.866   2.943   2.322 -1.6903  0.5991  1.5297
 5106SOL    HW226248   7.782   2.864   2.438  0.1909 -0.6908  2.0379
 5107SOL     OW26249   2.170   4.023   0.274 -0.9439  0.1333  0.4503
 5107SOL    HW126250   2.102   3.973   0.327 -1.8230 -0.5022 -1.2237
 5107SOL    HW226251   2.150   4.121   0.276 -1.2465  0.0586  0.8987
 5108SOL     OW26252   6.378   9.494   3.952 -0.5791  0.1890  0.4501
 5108SOL    HW126253   6.329   9.535   4.029 -0.2946  0.2275  0.6122
 5108SOL    HW226254   6.395   9.398   3.971 -1.0681  0.0469  0.1578
 5109SOL     OW26255   4.082   9.305   4.656  0.4281  0.1275 -0.6044
 5109SOL    HW126256   3.985   9.302   4.633  0.2890 -0.3681  0.0094
 5109SOL    HW226257   4.128   9.376   4.602 -0.2176  0.1698 -1.1024
 5110SOL     OW26258   8.298   8.565   1.951  0.5512 -0.1855 -0.3912
 5110SOL    HW126259   8.202   8.572   1.924  0.4385 -1.7429 -0.4550
 5110SOL    HW226260   8.314   8.475   1.993  2.1375 -0.2048 -1.0035
 5111SOL     OW26261   5.288   3.422   0.694 -0.0538  0.2513  0.3668
 5111SOL    HW126262   5.368   3.418   0.633 -1.5634 -2.0298 -1.5545
 5111SOL    HW226263   5.319   3.426   0.788  2.3626  0.7782 -0.4122
 5112SOL     OW26264   3.303   5.180   1.274  0.1570 -0.7498  0.9156
 5112SOL    HW126265   3.296   5.278   1.256 -0.7633 -1.2696 -1.7483
 5112SOL    HW226266   3.215   5.136   1.256  1.6459 -2.6655 -2.0714
 5113SOL     OW26267   8.755   8.525   0.024 -0.1383 -0.1206  0.3228
 5113SOL    HW126268   8.756   8.443   0.081  0.0876 -0.1671  0.2538
 5113SOL    HW226269   8.741   8.605   0.082  2.0695  0.0281  0.7107
 5114SOL     OW26270   8.256   4.949   4.108  0.1334  0.2435 -0.3043
 5114SOL    HW126271   8.158   4.965   4.120  0.5225  2.5922  0.0872
 5114SOL    HW226272   8.277   4.937   4.012 -0.6378 -0.9987 -0.3204
 5115SOL     OW26273   4.576   9.898   2.667  0.5321  0.9318 -0.0640
 5115SOL    HW126274   4.583   9.964   2.592  1.0809  1.0937  0.1234
 5115SOL    HW226275   4.653   9.911   2.729  0.4796  0.3098  0.1333
 5116SOL     OW26276   6.854   1.015   1.626 -0.2728  0.3340 -0.4797
 5116SOL    HW126277   6.912   1.024   1.544  0.2402 -0.6830 -0.2249
 5116SOL    HW226278   6.771   0.964   1.603 -0.4684  0.6714 -0.5320
 5117SOL     OW26279   4.421   3.229   2.374  0.3757  0.3469 -0.1290
 5117SOL    HW126280   4.325   3.212   2.394  0.7123 -2.6115 -0.7842
 5117SOL    HW226281   4.441   3.326   2.384 -2.0560  0.6101  2.5896
 5118SOL     OW26282   4.291   2.776   3.824  0.0649  0.2720  0.3299
 5118SOL    HW126283   4.270   2.856   3.767  0.1511  0.1455  0.1213
 5118SOL    HW226284   4.230   2.701   3.799  0.4227  0.0654  0.0736
 5119SOL     OW26285   8.668   7.901   2.327 -0.1487  0.2096  0.3157
 5119SOL    HW126286   8.707   7.925   2.238 -0.3601  1.3424  0.5274
 5119SOL    HW226287   8.702   7.811   2.355 -0.7140 -0.5176 -1.2733
 5120SOL     OW26288   8.202   8.883   3.395 -0.0317 -0.3916 -0.2853
 5120SOL    HW126289   8.123   8.862   3.453 -1.0514  2.1540 -0.7328
 5120SOL    HW226290   8.261   8.950   3.441 -0.5183  1.1655 -1.9000
 5121SOL     OW26291   3.691   6.297   1.231 -0.1921 -0.0688 -0.1015
 5121SOL    HW126292   3.755   6.299   1.308 -1.7347 -1.8485  1.2668
 5121SOL    HW226293   3.651   6.388   1.219 -0.5416  0.0432  1.7431
 5122SOL     OW26294   0.373   3.294   1.156  0.0394  0.4283 -0.8249
 5122SOL    HW126295   0.306   3.292   1.081  0.2997 -1.5448 -1.0271
 5122SOL    HW226296   0.447   3.230   1.135  0.1854 -0.0284  1.0596
 5123SOL     OW26297   2.099   2.742   1.002 -0.4471  0.0976 -0.5171
 5123SOL    HW126298   2.124   2.691   1.085  0.1315 -0.0368 -0.7714
 5123SOL    HW226299   2.000   2.745   0.994 -0.5506  1.3474  0.9475
 5124SOL     OW26300   1.343   2.830   3.667 -0.3525 -0.0457 -0.0972
 5124SOL    HW126301   1.286   2.912   3.664  0.5226  0.6711  1.6368
 5124SOL    HW226302   1.435   2.855   3.698 -0.3225 -1.8035  1.3563
 5125SOL     OW26303   8.867   1.025   1.951  0.2968  0.0283 -0.1334
 5125SOL    HW126304   8.951   1.016   1.898  1.7751 -0.0415  2.1424
 5125SOL    HW226305   8.862   1.118   1.989  0.5213 -0.6418  1.5949
 5126SOL     OW26306   0.554   2.203   3.526 -0.1472 -0.5957  0.3902
 5126SOL    HW126307   0.489   2.171   3.458  0.5501  0.6765 -0.9008
 5126SOL    HW226308   0.630   2.139   3.532  0.1781 -0.3162 -0.6192
 5127SOL     OW26309   8.520   8.396   5.081 -0.1205  0.5551 -0.1639
 5127SOL    HW126310   8.576   8.337   5.023  0.0643  0.0560  0.5192
 5127SOL    HW226311   8.521   8.489   5.044  3.4528  1.2161  1.3505
 5128SOL     OW26312   0.738   8.742   2.513  0.0731 -0.3899 -0.5554
 5128SOL    HW126313   0.791   8.682   2.452 -0.1001 -1.1985  0.0834
 5128SOL    HW226314   0.641   8.726   2.499  0.0402 -1.5250  0.8522
 5129SOL     OW26315   0.362   2.827   2.204  0.9059 -0.7572  0.3212
 5129SOL    HW126316   0.413   2.911   2.223 -1.6228  0.8438  0.1862
 5129SOL    HW226317   0.386   2.758   2.271  2.0630  0.4837  1.2089
 5130SOL     OW26318   0.619   5.441   4.524  0.4543 -0.2225 -0.0554
 5130SOL    HW126319   0.657   5.414   4.612  0.3267 -0.4103 -0.0584
 5130SOL    HW226320   0.594   5.360   4.471  0.3862 -0.1085 -0.2003
 5131SOL     OW26321   2.019   6.230   2.409 -0.2446 -0.1839 -0.1737
 5131SOL    HW126322   2.029   6.159   2.339  0.1072 -0.5292  0.2238
 5131SOL    HW226323   1.996   6.187   2.497  1.7434  0.0216  0.4863
 5132SOL     OW26324   2.822   2.965   2.775  0.4511 -0.1547  0.2819
 5132SOL    HW126325   2.835   3.052   2.823 -0.2695 -0.2490  0.6465
 5132SOL    HW226326   2.878   2.965   2.692  0.8335  0.4605  0.5345
 5133SOL     OW26327   2.926   6.794   4.474  0.5221  0.2351  0.0883
 5133SOL    HW126328   2.854   6.838   4.527  1.4645  1.2629  0.5296
 5133SOL    HW226329   2.983   6.738   4.535  0.5389 -0.0038 -0.1424
 5134SOL     OW26330   3.141   1.420   5.440  0.1658 -0.0454 -0.0522
 5134SOL    HW126331   3.162   1.381   5.350 -0.3705  0.3258 -0.3453
 5134SOL    HW226332   3.215   1.480   5.468  1.2518 -1.6928  0.6490
 5135SOL     OW26333   8.647   5.434   2.785  0.4791  0.1624  0.2309
 5135SOL    HW126334   8.564   5.445   2.729  1.5456  0.6761 -1.2843
 5135SOL    HW226335   8.635   5.482   2.872 -0.7922  0.2746  0.0153
 5136SOL     OW26336   3.150   6.012   0.831  0.2984  0.3633 -0.0420
 5136SOL    HW126337   3.218   5.982   0.764  2.1048  1.2004  1.3880
 5136SOL    HW226338   3.137   5.940   0.899 -0.0344  0.3267 -0.1432
 5137SOL     OW26339   3.681   4.930   0.731 -0.1786  0.5790  0.0011
 5137SOL    HW126340   3.689   4.978   0.819 -1.4386 -1.6618  1.3797
 5137SOL    HW226341   3.627   4.847   0.743  1.4567 -0.9027 -2.4506
 5138SOL     OW26342   5.580   1.792   3.818 -0.1778 -0.3158  0.3138
 5138SOL    HW126343   5.591   1.693   3.824 -0.5183 -0.2678  1.8038
 5138SOL    HW226344   5.501   1.813   3.761 -0.9210 -0.9242  1.1120
 5139SOL     OW26345   4.791   9.303   5.385  0.8036 -0.1900 -0.3041
 5139SOL    HW126346   4.713   9.243   5.404  1.1633 -0.6888 -0.3989
 5139SOL    HW226347   4.850   9.262   5.316  0.1551  1.0612 -1.6260
 5140SOL     OW26348   7.863   9.191   0.604 -0.0438 -0.4017 -0.0024
 5140SOL    HW126349   7.901   9.212   0.515 -0.5230 -2.4105 -0.7103
 5140SOL    HW226350   7.878   9.268   0.666 -2.2652  2.2058 -2.5988
 5141SOL     OW26351   2.982   4.906   4.772 -0.0421  0.0899  0.1404
 5141SOL    HW126352   2.918   4.974   4.737  1.0183  1.4489  0.7737
 5141SOL    HW226353   3.075   4.944   4.770  0.6409 -1.5575 -0.0377
 5142SOL     OW26354   0.476   2.591   5.078  0.0544 -0.2451 -0.0019
 5142SOL    HW126355   0.487   2.548   4.989  1.7399 -0.8678  0.4894
 5142SOL    HW226356   0.386   2.634   5.084 -0.0454 -0.1450 -2.0173
 5143SOL     OW26357   4.830   3.669   0.049  0.0091  0.0904 -0.5747
 5143SOL    HW126358   4.809   3.651  -0.048  0.8969  0.6217 -0.8718
 5143SOL    HW226359   4.885   3.752   0.056  0.8179 -0.5105  0.3128
 5144SOL     OW26360   2.914   7.371   4.021  0.4527 -0.4480  0.2219
 5144SOL    HW126361   2.997   7.364   3.965  0.1125  1.0560 -0.4895
 5144SOL    HW226362   2.919   7.304   4.095  2.0943 -0.6986 -0.0839
 5145SOL     OW26363   4.129   2.048   5.416 -0.0913  0.1147  0.7332
 5145SOL    HW126364   4.129   2.139   5.373 -0.3761  0.2363  0.9866
 5145SOL    HW226365   4.041   2.004   5.400  0.2027 -0.3018  0.2318
 5146SOL     OW26366   4.972   4.256   0.764  0.2838  1.2829  0.1211
 5146SOL    HW126367   4.892   4.275   0.821  0.3147 -1.5029  1.1596
 5146SOL    HW226368   5.034   4.334   0.767 -0.7395  2.0586  2.1761
 5147SOL     OW26369   1.159   3.732   2.681 -0.2912  0.3718  0.1672
 5147SOL    HW126370   1.235   3.754   2.742 -1.4038 -0.0351  1.7312
 5147SOL    HW226371   1.150   3.804   2.612 -0.2704  1.8920  1.7120
 5148SOL     OW26372   9.898   8.805   3.662 -0.8529  0.5355 -0.0478
 5148SOL    HW126373   9.824   8.743   3.634  0.4372 -0.6766 -0.7953
 5148SOL    HW226374   9.947   8.837   3.582 -1.7724  2.9058  0.2961
 5149SOL     OW26375   9.633   7.427   4.476  0.0185 -0.2554 -0.5578
 5149SOL    HW126376   9.634   7.527   4.488  0.9177 -0.4176  0.8221
 5149SOL    HW226377   9.626   7.406   4.379  0.1728  1.1637 -0.8977
 5150SOL     OW26378   0.039   7.022   3.116  0.3665 -0.1345 -0.1090
 5150SOL    HW126379   0.024   7.037   3.019 -2.4593  0.3338  0.3383
 5150SOL    HW226380  -0.007   6.938   3.145  0.1789  0.3304  1.0078
 5151SOL     OW26381   9.319   8.724   4.338  0.2232 -0.2204 -0.5087
 5151SOL    HW126382   9.266   8.779   4.402 -1.5215  0.5710 -2.5637
 5151SOL    HW226383   9.291   8.629   4.344  0.5222 -0.2581  0.3321
 5152SOL     OW26384   0.804   4.228   2.698  0.0718 -0.2467 -0.1839
 5152SOL    HW126385   0.866   4.169   2.647  0.4759 -0.5619  0.6592
 5152SOL    HW226386   0.740   4.171   2.749  0.9352  0.0231  1.2243
 5153SOL     OW26387   2.929   8.386   2.294  0.1936  0.1339  0.5763
 5153SOL    HW126388   2.846   8.419   2.340 -1.1008 -0.3853 -1.3243
 5153SOL    HW226389   2.992   8.462   2.282 -0.3020  0.6897  1.4113
 5154SOL     OW26390   9.198   6.638   1.780  0.1256 -0.1592 -0.6946
 5154SOL    HW126391   9.248   6.589   1.709 -1.2702 -0.1386 -1.7289
 5154SOL    HW226392   9.113   6.674   1.741 -0.7427 -0.2977  1.0360
 5155SOL     OW26393   8.171   1.789   4.705 -0.2046 -0.8654  0.1350
 5155SOL    HW126394   8.227   1.746   4.776  0.7807  1.0569  0.5765
 5155SOL    HW226395   8.076   1.794   4.735  0.1785 -0.2190  1.2543
 5156SOL     OW26396   3.212   2.543   1.323  0.1921 -0.0886 -0.0180
 5156SOL    HW126397   3.298   2.535   1.271 -0.9106 -0.2356 -1.8617
 5156SOL    HW226398   3.136   2.515   1.265 -1.2920  1.6464  1.0450
 5157SOL     OW26399   8.412   9.307   1.494  0.2897  0.2963  0.5827
 5157SOL    HW126400   8.350   9.384   1.506 -0.2395 -0.3556  2.2070
 5157SOL    HW226401   8.501   9.328   1.537  0.2753  0.1634  0.6788
 5158SOL     OW26402   9.942   5.915   1.366  0.0567  0.6191 -0.0452
 5158SOL    HW126403   9.944   6.012   1.340 -2.2882  0.8095  0.3575
 5158SOL    HW226404  10.029   5.872   1.342  0.4921  2.4199 -1.8398
 5159SOL     OW26405   4.216   3.708   2.825 -0.0559  0.0452  0.6154
 5159SOL    HW126406   4.148   3.705   2.899 -0.0046 -0.3346  0.6527
 5159SOL    HW226407   4.186   3.771   2.754 -0.2395  0.2047  0.8342
 5160SOL     OW26408   1.845   5.295   5.070 -0.2061 -0.5502  0.2587
 5160SOL    HW126409   1.850   5.384   5.025 -2.4568 -0.4729  0.0982
 5160SOL    HW226410   1.897   5.228   5.017 -0.0204  0.2683 -0.6129
 5161SOL     OW26411   3.459   2.479   1.175  0.2247 -0.0547  0.1891
 5161SOL    HW126412   3.528   2.536   1.129  0.1735  0.3360  0.5960
 5161SOL    HW226413   3.382   2.463   1.113  0.9399 -0.9820 -0.4824
 5162SOL     OW26414   8.381   9.990   3.656 -0.0977 -0.0308 -0.0278
 5162SOL    HW126415   8.458  10.054   3.664  1.0257 -1.1020 -1.9510
 5162SOL    HW226416   8.330  10.010   3.573 -1.7795  0.5183  1.1208
 5163SOL     OW26417   2.381   8.083   1.502 -0.0300 -0.0951 -0.1434
 5163SOL    HW126418   2.376   8.147   1.579  0.8968  0.6335 -0.6734
 5163SOL    HW226419   2.401   7.991   1.537 -0.3373  0.0918  0.5434
 5164SOL     OW26420   3.094   9.391   3.947 -0.8786  0.3578  0.6880
 5164SOL    HW126421   3.016   9.332   3.968 -2.5737  2.3413  0.1661
 5164SOL    HW226422   3.175   9.335   3.929 -2.2203 -1.7479  1.0903
 5165SOL     OW26423   8.389   8.269   1.789 -0.1186  0.3021 -0.5347
 5165SOL    HW126424   8.455   8.340   1.810  0.5177 -0.9991  2.0433
 5165SOL    HW226425   8.374   8.265   1.690  1.7587  2.2554 -0.9227
 5166SOL     OW26426   1.608   6.021   0.952  0.5786 -0.3173  0.6255
 5166SOL    HW126427   1.556   6.021   0.867  0.6798  0.3989  0.5592
 5166SOL    HW226428   1.663   5.938   0.958  0.1523 -0.6267  0.2506
 5167SOL     OW26429   4.901   5.718   1.802  0.1369  0.4288  0.0388
 5167SOL    HW126430   4.885   5.638   1.743 -0.3073  0.0276  0.6900
 5167SOL    HW226431   4.958   5.691   1.880  0.4063  0.8681 -0.0059
 5168SOL     OW26432   2.932   9.068   5.641 -0.0164  0.0974 -0.1744
 5168SOL    HW126433   2.977   9.042   5.726  0.0964 -1.8401 -0.7858
 5168SOL    HW226434   3.001   9.097   5.574  0.2920 -2.1202 -0.8558
 5169SOL     OW26435   3.043   7.641   2.899  0.4298 -0.1823  0.7165
 5169SOL    HW126436   3.069   7.655   2.995  1.6223  0.1391  0.3468
 5169SOL    HW226437   3.005   7.726   2.863 -1.5698 -0.7623  1.3713
 5170SOL     OW26438   4.047   3.402   2.045  0.7078 -0.4567 -0.1846
 5170SOL    HW126439   4.016   3.370   1.955  1.5720  0.0639 -0.6657
 5170SOL    HW226440   4.127   3.350   2.073  2.5341  1.7067 -1.2727
 5171SOL     OW26441   6.243   9.747   0.966  0.1556  0.2300 -0.0022
 5171SOL    HW126442   6.163   9.804   0.947 -0.1557 -0.6435 -1.4177
 5171SOL    HW226443   6.326   9.802   0.958 -0.1268  0.4514 -1.6467
 5172SOL     OW26444   1.271   8.356   5.406 -0.1656  0.1194  0.0909
 5172SOL    HW126445   1.236   8.443   5.440 -1.1602 -0.5168  0.7108
 5172SOL    HW226446   1.212   8.322   5.333  1.0088  0.6396 -1.1299
 5173SOL     OW26447   7.465   0.207   0.439  0.3502 -0.1848 -0.1913
 5173SOL    HW126448   7.371   0.178   0.457 -0.5192  2.8765  0.4710
 5173SOL    HW226449   7.525   0.174   0.512  0.1881 -3.6389 -1.4973
 5174SOL     OW26450   3.616   0.561   1.594 -0.5197  0.3432 -0.1628
 5174SOL    HW126451   3.546   0.495   1.569 -1.1473  1.7788 -2.4302
 5174SOL    HW226452   3.577   0.653   1.592  0.8766  0.9726  0.7652
 5175SOL     OW26453   4.249   2.522   5.158 -0.4657 -0.1322  0.0564
 5175SOL    HW126454   4.345   2.505   5.178 -1.1922 -0.9839  3.0472
 5175SOL    HW226455   4.223   2.613   5.190 -0.8955 -0.2788  0.1335
 5176SOL     OW26456   0.272   4.942   2.398  0.0042 -0.3792  0.0323
 5176SOL    HW126457   0.328   5.013   2.355  0.5056 -0.6681  0.1983
 5176SOL    HW226458   0.290   4.940   2.497  1.1696 -1.7701 -0.1871
 5177SOL     OW26459   2.788   2.046   3.391  0.0731  0.3893  0.4753
 5177SOL    HW126460   2.877   2.054   3.436 -0.4472 -0.5247  1.6950
 5177SOL    HW226461   2.772   1.950   3.366 -0.7443  0.4841  0.6205
 5178SOL     OW26462   2.116   1.004   3.438 -0.2581 -0.0705 -0.2218
 5178SOL    HW126463   2.157   0.952   3.512  1.3078  0.9957 -0.3168
 5178SOL    HW226464   2.038   0.954   3.401  0.7655 -1.9831  0.1685
 5179SOL     OW26465   7.030   0.153   5.288 -0.1685 -0.3157 -0.2187
 5179SOL    HW126466   7.007   0.169   5.192 -1.3531  2.0596  0.4218
 5179SOL    HW226467   7.098   0.220   5.318 -0.3317 -0.5983  0.8078
 5180SOL     OW26468   3.576   2.730   1.783 -0.0622  0.6789  0.1424
 5180SOL    HW126469   3.486   2.689   1.796 -0.5320  1.7438  0.2916
 5180SOL    HW226470   3.617   2.748   1.873  1.3750 -2.0897  0.0978
 5181SOL     OW26471   2.138   4.796   3.659  0.0266 -0.0389  0.3690
 5181SOL    HW126472   2.076   4.869   3.690  0.4175  0.2229  0.5430
 5181SOL    HW226473   2.232   4.829   3.663  0.0704  0.1050 -1.4215
 5182SOL     OW26474   4.672   1.011   2.271 -0.1288 -0.1512 -0.5665
 5182SOL    HW126475   4.766   1.039   2.290 -0.4572  0.2913  0.4819
 5182SOL    HW226476   4.659   1.001   2.173  1.1796 -0.8124 -0.6763
 5183SOL     OW26477   1.517   4.403   2.093 -0.1835  0.5813 -0.5712
 5183SOL    HW126478   1.454   4.333   2.058 -0.6974  0.3612  0.7931
 5183SOL    HW226479   1.474   4.493   2.085 -1.4624  0.2550  2.0714
 5184SOL     OW26480   2.244   1.322   5.548  0.6149  0.2634 -0.1200
 5184SOL    HW126481   2.227   1.229   5.580  1.3327 -0.6138 -2.2520
 5184SOL    HW226482   2.312   1.365   5.608  0.4386 -0.6333  0.7459
 5185SOL     OW26483   1.835   7.384   3.836 -0.0889 -0.1581 -0.5355
 5185SOL    HW126484   1.771   7.459   3.820  0.9987  0.7598 -0.6276
 5185SOL    HW226485   1.834   7.323   3.756  0.5775  0.9154 -1.3817
 5186SOL     OW26486   4.402   1.828   3.509 -0.0652 -0.7202 -0.2070
 5186SOL    HW126487   4.348   1.840   3.592  0.9950  1.6735  0.1772
 5186SOL    HW226488   4.341   1.829   3.429 -0.7006  1.0562  0.2845
 5187SOL     OW26489   9.742   9.711   4.539 -0.5079  0.7229 -0.6330
 5187SOL    HW126490   9.808   9.718   4.613 -0.8591  0.9136 -0.3360
 5187SOL    HW226491   9.660   9.763   4.562 -0.7580  0.4996 -1.0039
 5188SOL     OW26492   8.900   3.683   5.596  0.3170  0.6725  0.0883
 5188SOL    HW126493   8.930   3.725   5.510  2.7986 -0.2491  0.4694
 5188SOL    HW226494   8.855   3.596   5.577  1.4907  0.1294 -0.2543
 5189SOL     OW26495   3.541   5.892   0.191  0.4242 -0.8611 -0.1867
 5189SOL    HW126496   3.494   5.880   0.104 -0.1709 -1.0354  0.1530
 5189SOL    HW226497   3.501   5.969   0.241 -0.9152 -2.3002  1.0168
 5190SOL     OW26498   3.991   0.623   4.557 -0.4927 -0.4404 -0.4313
 5190SOL    HW126499   4.071   0.670   4.595 -1.5011 -0.0236  1.2650
 5190SOL    HW226500   4.003   0.611   4.458  2.2983 -1.7240  0.0117
 5191SOL     OW26501   8.212   7.915   3.572 -0.1556  0.1365  0.5636
 5191SOL    HW126502   8.257   8.002   3.556 -1.2254  0.6404  0.2642
 5191SOL    HW226503   8.279   7.841   3.567  0.3469  0.7128 -1.5462
 5192SOL     OW26504   2.428   6.786   3.550 -0.6186  0.1677  0.2552
 5192SOL    HW126505   2.346   6.730   3.536  0.5853 -2.2232  2.3597
 5192SOL    HW226506   2.476   6.797   3.463 -1.4526 -1.1997 -0.3907
 5193SOL     OW26507   7.672   8.435   3.291 -0.2191 -1.2163 -0.5786
 5193SOL    HW126508   7.713   8.361   3.239  0.4510 -0.1843 -1.5448
 5193SOL    HW226509   7.736   8.466   3.362 -0.3316 -1.2938 -0.4445
 5194SOL     OW26510   7.003   0.262   5.578  0.0848 -0.9761 -0.8448
 5194SOL    HW126511   6.963   0.191   5.520 -0.5352 -0.6179 -0.8684
 5194SOL    HW226512   6.931   0.303   5.634  0.4718 -0.5099 -0.6815
 5195SOL     OW26513   4.822   5.981   1.033  0.4501  0.2915 -0.2958
 5195SOL    HW126514   4.915   5.946   1.015  0.2205 -0.7749  0.5216
 5195SOL    HW226515   4.756   5.919   0.991  0.0711  0.3768  0.1810
 5196SOL     OW26516   7.811   0.829   2.310  0.4181 -0.1287 -0.4889
 5196SOL    HW126517   7.870   0.755   2.278 -0.0751  0.0504 -1.8418
 5196SOL    HW226518   7.861   0.883   2.378  1.1226 -1.1176 -0.2021
 5197SOL     OW26519   7.569   0.838   1.969 -0.3697 -0.2804 -0.3509
 5197SOL    HW126520   7.537   0.856   2.062  0.6657  1.3675 -0.3049
 5197SOL    HW226521   7.568   0.923   1.917  4.4084 -0.0535 -0.2146
 5198SOL     OW26522   3.268   5.155   3.243 -0.2057  0.4823 -0.0832
 5198SOL    HW126523   3.304   5.248   3.247  1.9450 -0.2898 -0.5241
 5198SOL    HW226524   3.178   5.152   3.286 -0.1100  2.6725  0.3275
 5199SOL     OW26525   1.335   8.892   3.234  0.0627 -0.0140  0.2418
 5199SOL    HW126526   1.409   8.932   3.288  0.7253  0.6345 -1.1167
 5199SOL    HW226527   1.350   8.793   3.226  1.1309  0.1998 -0.5317
 5200SOL     OW26528   4.307   2.622   4.198  0.1394 -0.2826  0.6409
 5200SOL    HW126529   4.271   2.535   4.232 -2.8423  0.2974 -0.8121
 5200SOL    HW226530   4.375   2.604   4.127 -0.0852 -1.4403  0.7001
 5201SOL     OW26531   2.741   2.935   4.508  0.1019  0.1109 -0.2261
 5201SOL    HW126532   2.682   3.013   4.532  0.1040 -0.2001  0.8125
 5201SOL    HW226533   2.700   2.886   4.431 -0.8015  0.1339  0.2254
 5202SOL     OW26534   1.055   3.241   2.617 -0.0326  0.1479 -0.1449
 5202SOL    HW126535   1.096   3.155   2.591 -2.0218 -0.9056  0.0788
 5202SOL    HW226536   1.020   3.235   2.711 -1.0814  0.8402 -0.4735
 5203SOL     OW26537   9.266   8.683   0.305  0.0559 -0.4069 -0.4159
 5203SOL    HW126538   9.246   8.596   0.260  1.2259 -0.2264 -1.3002
 5203SOL    HW226539   9.359   8.712   0.283 -0.8652  1.8894 -1.4781
 5204SOL     OW26540   3.922   5.369   3.040  0.1314 -0.4998 -0.3687
 5204SOL    HW126541   3.869   5.413   3.112 -0.4202 -0.1716 -0.9771
 5204SOL    HW226542   3.999   5.428   3.014 -0.3831 -0.0591 -0.9102
 5205SOL     OW26543   1.332   5.277   2.798  0.2170 -0.0318  0.0209
 5205SOL    HW126544   1.395   5.329   2.856 -0.6056  1.2850 -0.2686
 5205SOL    HW226545   1.240   5.283   2.835  0.2671 -2.1804  0.5933
 5206SOL     OW26546   8.829   5.010   0.304 -0.4600 -0.2621 -0.2655
 5206SOL    HW126547   8.849   4.964   0.218  0.2736  0.0590 -0.2712
 5206SOL    HW226548   8.814   4.943   0.376  0.6735 -0.5021 -0.2558
 5207SOL     OW26549   3.133   4.174   0.102  0.1127  0.2646  0.3461
 5207SOL    HW126550   3.150   4.273   0.105 -0.6340  0.3862  0.8533
 5207SOL    HW226551   3.045   4.155   0.145 -0.0980 -0.5466 -0.4404
 5208SOL     OW26552   2.336   9.779   3.339 -0.3279 -0.4971 -0.3194
 5208SOL    HW126553   2.360   9.742   3.429  1.9714  2.0042  0.1498
 5208SOL    HW226554   2.417   9.820   3.297 -2.1745  1.6103 -1.9498
 5209SOL     OW26555   0.609   6.372   0.435 -0.4970  0.7439 -0.0887
 5209SOL    HW126556   0.611   6.471   0.451 -3.4581  0.9354 -0.6624
 5209SOL    HW226557   0.517   6.344   0.406 -0.0435 -2.3728  1.2319
 5210SOL     OW26558   7.073   0.780   4.719  0.4446  0.1944 -0.3208
 5210SOL    HW126559   7.121   0.784   4.807 -1.2315  1.8094  0.5677
 5210SOL    HW226560   7.114   0.847   4.656  1.1656 -0.4394 -0.5378
 5211SOL     OW26561   9.281   7.215   1.216  0.2277 -0.2270  0.0523
 5211SOL    HW126562   9.271   7.297   1.273 -1.8826 -1.0089  0.8621
 5211SOL    HW226563   9.316   7.242   1.126  2.0274  1.2179  1.1502
 5212SOL     OW26564   0.035   4.004   0.875  0.2392 -0.4309  0.1380
 5212SOL    HW126565  -0.010   4.057   0.803  0.2475  0.7068  0.9380
 5212SOL    HW226566  -0.023   4.004   0.957  1.9253  1.5659  1.3798
 5213SOL     OW26567   6.767   0.953   0.763  0.3784  0.5302 -0.5166
 5213SOL    HW126568   6.746   0.881   0.828 -1.3633 -1.3947 -3.1151
 5213SOL    HW226569   6.823   0.915   0.689 -0.6078  1.7939 -1.9413
 5214SOL     OW26570   7.242   0.801   5.475 -0.2705 -0.1229  0.2194
 5214SOL    HW126571   7.292   0.796   5.561  2.4951  0.1416 -1.3304
 5214SOL    HW226572   7.268   0.883   5.425 -0.7914 -0.9809 -1.5125
 5215SOL     OW26573   2.803   3.202   0.297 -0.3850 -0.1208  0.3152
 5215SOL    HW126574   2.746   3.121   0.287  2.3890 -2.1019 -0.1702
 5215SOL    HW226575   2.746   3.284   0.297 -3.1668 -2.0034 -0.1582
 5216SOL     OW26576   9.518   1.791   5.589 -0.0570 -0.0632  0.1154
 5216SOL    HW126577   9.597   1.853   5.588 -0.3758  0.3417  0.2299
 5216SOL    HW226578   9.544   1.706   5.634  0.4358 -0.0850 -0.2036
 5217SOL     OW26579   3.121   1.655   1.324 -0.8194 -0.2203  0.2272
 5217SOL    HW126580   3.024   1.634   1.324 -1.0640  0.8708  1.6887
 5217SOL    HW226581   3.146   1.700   1.410  1.3551 -2.1871  0.6647
 5218SOL     OW26582   9.480   4.655   3.378  0.1228 -0.4230 -0.1758
 5218SOL    HW126583   9.451   4.691   3.289 -2.3903 -0.8789  0.4278
 5218SOL    HW226584   9.493   4.556   3.371  2.4846 -0.1171 -0.6553
 5219SOL     OW26585   4.048   3.022   1.543  0.1348  0.6247 -1.0050
 5219SOL    HW126586   3.974   2.969   1.501  0.6253  1.2128 -2.6302
 5219SOL    HW226587   4.135   2.973   1.533  0.0817  0.1920  0.4282
 5220SOL     OW26588   3.352   6.188   1.780  0.6028  0.1267 -0.1964
 5220SOL    HW126589   3.342   6.287   1.779  1.8497  0.2612 -0.1702
 5220SOL    HW226590   3.372   6.158   1.873 -1.6254 -0.3592  0.1535
 5221SOL     OW26591   4.403   9.055   4.570  0.1335  0.6551 -0.1093
 5221SOL    HW126592   4.483   9.091   4.523  1.1398 -0.9436  0.3283
 5221SOL    HW226593   4.384   9.111   4.651  0.1863  1.6423 -0.7724
 5222SOL     OW26594   9.430   2.914   3.892  0.1299  0.5567  0.0836
 5222SOL    HW126595   9.335   2.929   3.864  0.0069  0.0027  0.1922
 5222SOL    HW226596   9.452   2.817   3.883  0.6487  0.6652  0.1767
 5223SOL     OW26597   7.760   3.755   5.273  0.3433  0.4116  0.1133
 5223SOL    HW126598   7.751   3.708   5.360 -0.1058 -1.0767 -0.7226
 5223SOL    HW226599   7.669   3.776   5.237  0.5219  0.5766 -0.2427
 5224SOL     OW26600   2.641   5.060   4.443  0.3486 -0.1178 -0.3923
 5224SOL    HW126601   2.548   5.084   4.418  0.3242 -0.1240 -0.3075
 5224SOL    HW226602   2.643   4.967   4.481 -0.2461  1.2650  3.2379
 5225SOL     OW26603   9.667   6.815   2.502 -0.0870 -0.2011  0.2761
 5225SOL    HW126604   9.620   6.793   2.588 -2.4774 -1.0146 -1.1985
 5225SOL    HW226605   9.731   6.742   2.480 -1.0947 -1.0863  0.2477
 5226SOL     OW26606   2.601   3.788   3.539 -0.0439 -0.5826 -0.2670
 5226SOL    HW126607   2.593   3.865   3.602  0.7980 -0.6145 -0.1227
 5226SOL    HW226608   2.531   3.720   3.561 -0.0628 -0.3754  0.3211
 5227SOL     OW26609   3.270   0.979   1.892  0.8582 -0.3517 -0.2642
 5227SOL    HW126610   3.278   1.042   1.815 -1.2526  0.6747  0.2989
 5227SOL    HW226611   3.222   0.896   1.862 -2.2344  1.0968  0.4451
 5228SOL     OW26612   1.478   6.052   4.159  0.2955  0.8504 -0.3012
 5228SOL    HW126613   1.379   6.068   4.158  0.0240 -0.7888 -0.2591
 5228SOL    HW226614   1.513   6.059   4.066 -0.1544 -0.3322 -0.5648
 5229SOL     OW26615   2.458   2.927   3.346 -0.0872  0.0274  0.3561
 5229SOL    HW126616   2.380   2.939   3.286  0.2160 -1.2890 -0.2935
 5229SOL    HW226617   2.482   2.831   3.352  1.8095  0.4720  0.1416
 5230SOL     OW26618   5.221   0.884   4.538  0.2329  0.4297 -0.1927
 5230SOL    HW126619   5.244   0.870   4.441 -0.7569  0.7233 -0.4786
 5230SOL    HW226620   5.207   0.982   4.554 -0.1476  0.3231  0.1239
 5231SOL     OW26621   1.916   8.078   5.165 -0.6222 -0.1987 -0.0034
 5231SOL    HW126622   1.820   8.102   5.179 -1.3134 -2.5257 -0.4459
 5231SOL    HW226623   1.967   8.094   5.250 -1.8134 -0.8007  0.8392
 5232SOL     OW26624   3.421   5.397   3.163  0.1910 -0.6856 -0.2498
 5232SOL    HW126625   3.480   5.317   3.154 -1.0634 -1.3754 -2.9288
 5232SOL    HW226626   3.434   5.457   3.083 -0.0627  0.9803  0.9300
 5233SOL     OW26627   1.070   0.681   1.784  0.0027 -0.2761  0.4337
 5233SOL    HW126628   1.153   0.640   1.822 -0.0292  1.1826  2.1652
 5233SOL    HW226629   1.068   0.667   1.685  1.7851 -1.2267  0.5090
 5234SOL     OW26630   7.789   6.154   3.951 -0.2359  0.4488 -0.2663
 5234SOL    HW126631   7.855   6.204   3.894 -1.5707  0.6079 -1.6762
 5234SOL    HW226632   7.799   6.056   3.936  0.2130  0.4342  0.1141
 5235SOL     OW26633   0.291   6.346   5.089  0.3773  0.3474 -0.3362
 5235SOL    HW126634   0.304   6.428   5.033  0.5812  0.0704 -0.7003
 5235SOL    HW226635   0.369   6.284   5.075  0.9217  0.7020  0.9959
 5236SOL     OW26636   8.686   2.787   5.165  0.7425 -0.2223 -0.0516
 5236SOL    HW126637   8.587   2.797   5.159  0.7106 -0.4076  0.1523
 5236SOL    HW226638   8.714   2.793   5.261  0.9947  0.4382 -0.1648
 5237SOL     OW26639   8.189   0.559   0.015  0.3014  0.2756 -0.2268
 5237SOL    HW126640   8.114   0.625   0.016  0.3161  0.2837  0.7696
 5237SOL    HW226641   8.227   0.551   0.107  0.3197 -1.0904 -0.3480
 5238SOL     OW26642   6.536   0.598   4.753 -0.2252  0.1721  0.3603
 5238SOL    HW126643   6.536   0.694   4.779  1.9228  1.0682 -2.6970
 5238SOL    HW226644   6.517   0.589   4.656 -1.2904 -2.5876  0.7666
 5239SOL     OW26645   3.922   2.763   3.461 -0.2128 -0.0345  0.6278
 5239SOL    HW126646   3.983   2.841   3.473 -1.1355  0.9609 -0.9717
 5239SOL    HW226647   3.854   2.783   3.390 -1.3434 -1.7634  1.1573
 5240SOL     OW26648   0.152   6.131   4.885 -0.3773  0.1852 -0.6904
 5240SOL    HW126649   0.104   6.117   4.971 -0.6335  0.8276 -0.7268
 5240SOL    HW226650   0.088   6.167   4.817  0.1475  1.0205 -0.7447
 5241SOL     OW26651   9.095   2.883   0.707  0.2096 -0.9379  0.4873
 5241SOL    HW126652   9.063   2.978   0.718  0.5493 -0.6331 -1.0128
 5241SOL    HW226653   9.186   2.884   0.666  1.3883 -1.8563  3.0132
 5242SOL     OW26654   2.472   5.590   0.831  0.4294  0.3179 -0.3044
 5242SOL    HW126655   2.479   5.612   0.734  1.4761  1.4157  0.0017
 5242SOL    HW226656   2.418   5.660   0.877 -2.3826 -1.6197 -0.5263
 5243SOL     OW26657   0.836   0.272   5.595 -0.0299  0.1305  0.2620
 5243SOL    HW126658   0.846   0.355   5.649  1.4451  0.1001  0.0550
 5243SOL    HW226659   0.752   0.225   5.621  0.4050  0.3890  2.1578
 5244SOL     OW26660   0.884   2.722   4.069  0.0188  0.8612  0.1257
 5244SOL    HW126661   0.842   2.766   3.989  0.1250  0.3979 -0.1850
 5244SOL    HW226662   0.969   2.678   4.041 -0.2459  0.1930  0.3787
 5245SOL     OW26663   1.835   0.535   4.361  0.0780  0.0936  0.4780
 5245SOL    HW126664   1.856   0.624   4.320 -0.0782  0.6081  1.5012
 5245SOL    HW226665   1.885   0.525   4.447  1.2035 -1.4061 -0.3249
 5246SOL     OW26666   3.780   5.436   1.609  0.2532  0.0691  0.7506
 5246SOL    HW126667   3.722   5.371   1.560  2.8719 -3.2407  1.8580
 5246SOL    HW226668   3.862   5.454   1.555 -0.2450  2.2162  0.6482
 5247SOL     OW26669   9.067   3.974   0.166 -0.9968  0.3875  0.1137
 5247SOL    HW126670   8.984   3.935   0.205  0.4536 -0.2116  2.7306
 5247SOL    HW226671   9.063   4.073   0.171 -1.2676  0.3425  0.8423
 5248SOL     OW26672   9.945   2.085   2.537 -0.9683  0.4628  0.4220
 5248SOL    HW126673   9.876   2.151   2.567 -2.2451 -0.7163  0.1437
 5248SOL    HW226674   9.957   2.093   2.438 -0.5012  0.8606  0.5117
 5249SOL     OW26675   4.007   0.514   5.242  0.5268 -0.0544 -0.3183
 5249SOL    HW126676   3.915   0.477   5.255  1.4813 -2.1800  0.7157
 5249SOL    HW226677   4.051   0.528   5.331  2.3004 -2.0622 -0.8179
 5250SOL     OW26678   2.320   2.580   2.956  0.0302 -0.3257  0.2020
 5250SOL    HW126679   2.381   2.564   3.034 -1.1354 -2.0811  0.7651
 5250SOL    HW226680   2.231   2.537   2.973 -0.9728  1.1623 -1.1490
 5251SOL     OW26681   1.751   6.874   3.325  0.3175  0.6150 -0.2531
 5251SOL    HW126682   1.839   6.881   3.278  0.7247  1.0490  0.5747
 5251SOL    HW226683   1.713   6.783   3.311  0.6744  0.5758 -0.9996
 5252SOL     OW26684   5.822   0.400   2.109  0.2148 -0.5447 -0.4599
 5252SOL    HW126685   5.867   0.486   2.084  1.7240 -0.6679  1.6953
 5252SOL    HW226686   5.892   0.332   2.131 -1.0345 -1.2414  1.4028
 5253SOL     OW26687   7.727   9.942   3.398 -0.2886 -0.6151  0.0283
 5253SOL    HW126688   7.811   9.896   3.427  0.4232 -0.1065 -1.1750
 5253SOL    HW226689   7.735   9.968   3.302 -1.2911  0.6577  0.2771
 5254SOL     OW26690   0.788   6.709   0.624  0.3784  0.5878  0.3726
 5254SOL    HW126691   0.819   6.639   0.559  2.3507  1.5923  0.1989
 5254SOL    HW226692   0.719   6.767   0.579  0.1522 -0.0437 -0.1130
 5255SOL     OW26693   2.216   5.248   0.839  0.0783  0.4633  0.1941
 5255SOL    HW126694   2.228   5.284   0.931  3.0601  0.0712 -0.0191
 5255SOL    HW226695   2.191   5.151   0.844  0.5471  0.3636  0.5777
 5256SOL     OW26696   4.669   3.879   0.279  0.4839 -0.0598 -0.8116
 5256SOL    HW126697   4.750   3.884   0.338 -0.1042  0.7558 -0.0374
 5256SOL    HW226698   4.639   3.784   0.271  1.8369 -0.4370 -1.5644
 5257SOL     OW26699   8.453   2.098   0.388 -0.2066  0.6388  0.1061
 5257SOL    HW126700   8.402   2.015   0.367  0.0711  0.1825  1.2102
 5257SOL    HW226701   8.516   2.119   0.313 -0.1478 -0.2403 -0.0919
 5258SOL     OW26702   4.216   1.302   5.204 -0.2431  0.3046 -0.3441
 5258SOL    HW126703   4.292   1.262   5.153  1.5232  1.3449  1.3813
 5258SOL    HW226704   4.222   1.402   5.200 -1.7102  0.4013 -0.4460
 5259SOL     OW26705   4.771   2.156   0.777  0.1602 -0.4370 -0.0321
 5259SOL    HW126706   4.724   2.217   0.713  0.4395 -2.1948 -1.9460
 5259SOL    HW226707   4.711   2.079   0.800  0.6347 -0.6086  0.6336
 5260SOL     OW26708   4.713   1.248   0.119  0.0501  0.0860  0.4684
 5260SOL    HW126709   4.644   1.191   0.163 -0.4068  0.9047  0.8304
 5260SOL    HW226710   4.736   1.210   0.030 -0.4786 -0.4871  0.5734
 5261SOL     OW26711   9.679   1.534   1.719  0.0008 -0.4914 -0.1683
 5261SOL    HW126712   9.698   1.566   1.812  0.7002  0.4890 -0.6363
 5261SOL    HW226713   9.687   1.434   1.716 -0.7879 -0.6002  0.9940
 5262SOL     OW26714   7.874   0.491   2.004 -0.1138  0.1141 -0.8015
 5262SOL    HW126715   7.821   0.450   1.930 -2.6741  1.4206  0.2558
 5262SOL    HW226716   7.854   0.444   2.089  1.7486 -0.4650 -0.6588
 5263SOL     OW26717   2.300   7.390   0.832  0.0545 -0.0934 -0.3324
 5263SOL    HW126718   2.241   7.334   0.773  1.1501 -0.5003 -1.0769
 5263SOL    HW226719   2.324   7.475   0.784 -1.1462  0.7736  0.5725
 5264SOL     OW26720   7.152   8.473   2.560 -0.6647  0.1879 -0.2128
 5264SOL    HW126721   7.112   8.548   2.612  0.0607  0.5202 -0.1191
 5264SOL    HW226722   7.140   8.490   2.462 -1.4716 -0.1220 -0.1660
 5265SOL     OW26723   9.969   5.841   4.605  0.5198  0.3801  0.1410
 5265SOL    HW126724   9.946   5.821   4.700  1.4549  1.0344  0.5144
 5265SOL    HW226725  10.000   5.757   4.560 -1.4674 -0.2656 -0.0557
 5266SOL     OW26726   0.638   5.745   5.414  0.3137  0.7911  0.3517
 5266SOL    HW126727   0.694   5.702   5.484 -0.2097 -0.6604 -0.1029
 5266SOL    HW226728   0.609   5.836   5.445  0.5415  0.3896  1.7737
 5267SOL     OW26729   1.099   5.169   0.826 -0.5417 -0.1964 -0.1281
 5267SOL    HW126730   1.012   5.203   0.863 -1.3054 -2.8460  0.5830
 5267SOL    HW226731   1.083   5.130   0.735 -0.3858 -2.0649  0.6393
 5268SOL     OW26732   0.381   4.773   1.758 -0.2102  0.2112  0.5917
 5268SOL    HW126733   0.378   4.733   1.667  0.6022  1.6003 -0.0690
 5268SOL    HW226734   0.378   4.701   1.827  0.4709 -0.9264 -0.5599
 5269SOL     OW26735   3.942   3.925   3.785 -0.3807 -0.1903  1.0236
 5269SOL    HW126736   3.844   3.925   3.767 -0.5760  0.3031  2.0268
 5269SOL    HW226737   3.992   3.905   3.701 -1.3767 -1.5974  0.7479
 5270SOL     OW26738   5.849   8.926   4.368  0.0131  0.1493 -0.2912
 5270SOL    HW126739   5.785   8.966   4.433  0.7602 -0.4104  0.8035
 5270SOL    HW226740   5.832   8.963   4.277 -0.0484  2.0763  0.4855
 5271SOL     OW26741   1.782   1.969   3.706 -0.5630  0.1414 -0.1755
 5271SOL    HW126742   1.698   1.936   3.749  0.3628 -1.2261  0.6341
 5271SOL    HW226743   1.839   2.013   3.775  0.9119 -2.0218  0.0236
 5272SOL     OW26744   0.763   3.194   5.610 -0.2842  0.5582  0.0369
 5272SOL    HW126745   0.766   3.286   5.572 -0.3715  0.8562  0.7452
 5272SOL    HW226746   0.669   3.159   5.605 -0.2931  0.5898 -0.0215
 5273SOL     OW26747   9.633   2.914   4.406 -0.0414 -0.2952  0.2454
 5273SOL    HW126748   9.565   2.954   4.345  0.2589 -1.1595 -0.6757
 5273SOL    HW226749   9.723   2.953   4.387  0.0287 -0.4630  0.2264
 5274SOL     OW26750   3.356   0.374   2.312 -0.2666 -0.0476 -0.2170
 5274SOL    HW126751   3.381   0.465   2.278  0.5259  0.1104  0.7508
 5274SOL    HW226752   3.257   0.362   2.305 -0.5609  1.4869  1.0806
 5275SOL     OW26753   0.832   7.294   3.541  0.3432  0.5257  0.1812
 5275SOL    HW126754   0.904   7.262   3.603  0.6799 -0.9172 -0.9223
 5275SOL    HW226755   0.773   7.359   3.589  0.0412 -1.2570  2.3110
 5276SOL     OW26756   1.059   8.272   0.661 -0.1693  0.4674  0.0964
 5276SOL    HW126757   1.127   8.198   0.657  0.9794  1.5082  0.1269
 5276SOL    HW226758   0.968   8.234   0.644  0.4574 -0.8832 -0.3486
 5277SOL     OW26759   0.508   8.136   2.783  0.3559 -0.1294  0.2144
 5277SOL    HW126760   0.602   8.167   2.768 -0.0185  0.2773 -1.3950
 5277SOL    HW226761   0.474   8.092   2.700 -0.3671 -1.6267  1.2922
 5278SOL     OW26762   2.900   4.263   0.891 -0.4602  0.1367  0.1913
 5278SOL    HW126763   2.966   4.190   0.875 -1.7276 -1.1697  0.8114
 5278SOL    HW226764   2.868   4.299   0.804  1.6097  1.2830 -0.1076
 5279SOL     OW26765   9.637   3.822   4.187 -0.1128  0.4018  0.4026
 5279SOL    HW126766   9.616   3.902   4.130 -2.3510 -0.1703  0.3972
 5279SOL    HW226767   9.553   3.785   4.225  0.4455 -3.8699 -2.1403
 5280SOL     OW26768   6.611   8.243   3.838  0.7209  0.6316 -0.6539
 5280SOL    HW126769   6.693   8.298   3.855  1.4250 -0.5973  0.0240
 5280SOL    HW226770   6.538   8.270   3.900  1.2988  0.3271  0.1671
 5281SOL     OW26771   2.136   2.015   0.782 -0.2056  0.0558 -0.2466
 5281SOL    HW126772   2.139   2.026   0.682  1.5829 -0.2407 -0.2342
 5281SOL    HW226773   2.146   1.918   0.805 -1.1075  0.0679  0.2100
 5282SOL     OW26774   7.357   7.300   3.786 -0.1836  0.1919 -0.9352
 5282SOL    HW126775   7.289   7.267   3.720  0.2445 -2.8392  0.1026
 5282SOL    HW226776   7.331   7.271   3.878  1.9777 -0.1053 -0.4018
 5283SOL     OW26777   0.834   1.631   2.688 -0.1763 -0.1790 -0.0178
 5283SOL    HW126778   0.845   1.712   2.631 -0.5647  1.7569  2.5610
 5283SOL    HW226779   0.763   1.572   2.649 -1.2771  1.6899 -0.9137
 5284SOL     OW26780   0.813   6.768   5.515 -0.0906 -0.1563 -0.5065
 5284SOL    HW126781   0.877   6.836   5.477 -0.1357  0.3271  0.2731
 5284SOL    HW226782   0.823   6.765   5.614 -0.8361 -0.5373 -0.4412
 5285SOL     OW26783   1.521   7.949   4.053  1.1435 -0.0001 -0.0746
 5285SOL    HW126784   1.485   7.999   4.132  0.4728  1.4968 -1.2999
 5285SOL    HW226785   1.569   7.866   4.084 -0.0168  0.0227  1.8148
 5286SOL     OW26786   2.118   6.159   4.404 -0.0804  0.3005  0.3187
 5286SOL    HW126787   2.106   6.199   4.314  0.0328  1.0021  0.6160
 5286SOL    HW226788   2.177   6.217   4.459  0.4974 -0.5280  0.5814
 5287SOL     OW26789   5.509   1.335   1.491  0.0262  0.1447 -0.2298
 5287SOL    HW126790   5.433   1.400   1.489  0.2386  0.3749 -0.6810
 5287SOL    HW226791   5.524   1.298   1.399 -0.3588 -0.8459  0.0929
 5288SOL     OW26792   0.049   1.156   3.939 -0.0627 -1.6024 -0.0569
 5288SOL    HW126793  -0.029   1.103   3.903  0.7647 -1.2679 -2.4393
 5288SOL    HW226794   0.134   1.114   3.908  0.6943 -1.3340  1.6391
 5289SOL     OW26795   7.878   1.114   4.774  0.1451 -0.1415  0.0896
 5289SOL    HW126796   7.788   1.096   4.734  0.2605  0.2813 -0.3702
 5289SOL    HW226797   7.949   1.079   4.714  0.4012  2.4619 -1.2067
 5290SOL     OW26798   1.283   4.050   2.222 -0.0827  0.4731  0.3151
 5290SOL    HW126799   1.371   4.005   2.207  0.0279  0.4202  1.1071
 5290SOL    HW226800   1.298   4.139   2.264 -0.3303  1.0488 -0.7956
 5291SOL     OW26801   9.554   1.749   0.766 -0.3764  0.2960 -0.1991
 5291SOL    HW126802   9.624   1.739   0.837 -1.2450 -1.0390  0.4855
 5291SOL    HW226803   9.556   1.843   0.730  1.0179  0.5758  0.5848
 5292SOL     OW26804   8.670   0.364   3.913 -0.6601  0.7309 -0.0428
 5292SOL    HW126805   8.596   0.393   3.853 -0.5848  1.1794  0.0762
 5292SOL    HW226806   8.635   0.298   3.980 -1.3573  2.2237  1.1066
 5293SOL     OW26807   2.433   5.467   1.874 -0.4511  0.3373  0.1899
 5293SOL    HW126808   2.516   5.478   1.820 -0.9098  1.4279 -0.3034
 5293SOL    HW226809   2.455   5.471   1.971  0.3153 -1.1592  0.0833
 5294SOL     OW26810   0.954   7.172   2.638  0.0312 -0.1944  0.0775
 5294SOL    HW126811   0.888   7.229   2.687 -0.2895  0.5326 -1.1775
 5294SOL    HW226812   0.921   7.154   2.546  1.0936 -0.7273 -0.2127
 5295SOL     OW26813   0.560   5.281   0.376 -0.2330  0.2080 -0.0134
 5295SOL    HW126814   0.551   5.346   0.300 -0.5386  1.0863  0.7693
 5295SOL    HW226815   0.485   5.215   0.372 -0.4770  0.4986 -0.2384
 5296SOL     OW26816   3.347   2.610   1.856  0.1012 -0.0628 -0.0048
 5296SOL    HW126817   3.363   2.515   1.882 -2.6494 -1.5176 -3.1865
 5296SOL    HW226818   3.262   2.642   1.897  1.5918  1.4467  1.9699
 5297SOL     OW26819   9.651   8.814   3.350  0.1509 -0.0734 -0.6171
 5297SOL    HW126820   9.639   8.913   3.351  2.1131  0.1735 -0.5423
 5297SOL    HW226821   9.703   8.787   3.269  1.5661 -0.8022  0.5142
 5298SOL     OW26822   8.447   6.309   0.669  0.6660 -0.1150  0.3203
 5298SOL    HW126823   8.355   6.339   0.644  0.3805  1.5363  3.1529
 5298SOL    HW226824   8.514   6.372   0.630  0.4627  0.0860  0.2930
 5299SOL     OW26825   5.998   9.084   3.965  0.1434 -0.4389 -0.1073
 5299SOL    HW126826   5.934   9.155   3.994 -0.4092 -0.9314 -0.1009
 5299SOL    HW226827   6.054   9.056   4.042  1.1992  0.8478 -0.4028
 5300SOL     OW26828   7.904   7.484   2.695  0.1399 -0.7633 -0.4471
 5300SOL    HW126829   7.981   7.420   2.696  0.2147 -0.6677 -0.1685
 5300SOL    HW226830   7.838   7.457   2.764 -0.2618 -1.0697 -0.9471
 5301SOL     OW26831   8.358   1.851   2.599  0.1574 -0.0138 -0.4661
 5301SOL    HW126832   8.385   1.755   2.605  2.8693  0.8316  1.8079
 5301SOL    HW226833   8.412   1.897   2.529  0.6191  0.4037  0.1575
 5302SOL     OW26834   7.670   0.466   4.242  0.3404  0.7722  0.1003
 5302SOL    HW126835   7.765   0.483   4.216 -0.1211  1.8218 -0.9657
 5302SOL    HW226836   7.659   0.370   4.268  1.6773  0.6362  0.1844
 5303SOL     OW26837   2.746   5.740   2.026 -0.8164 -0.1357 -0.2596
 5303SOL    HW126838   2.768   5.752   1.929 -0.6781 -1.1244 -0.3591
 5303SOL    HW226839   2.811   5.676   2.067 -0.4761  0.7781  0.6484
 5304SOL     OW26840   8.823   5.133   2.384 -0.7263 -0.4875  1.0356
 5304SOL    HW126841   8.760   5.185   2.326 -0.2663  1.3371  2.1213
 5304SOL    HW226842   8.782   5.045   2.408 -0.7432 -1.5130 -2.4094
 5305SOL     OW26843   1.594   1.042   3.753 -0.2272 -0.2402 -0.5607
 5305SOL    HW126844   1.660   1.020   3.825 -0.5159 -1.3988 -0.6421
 5305SOL    HW226845   1.530   1.111   3.787  0.1838 -0.1254 -0.0079
 5306SOL     OW26846   2.313   9.177   0.412  0.1247 -0.3052  0.1919
 5306SOL    HW126847   2.243   9.154   0.480  0.4706  0.7175  0.9148
 5306SOL    HW226848   2.315   9.276   0.399  1.8833 -0.2625  0.6711
 5307SOL     OW26849   8.712   5.844   3.911  0.0920  0.0844  0.0162
 5307SOL    HW126850   8.638   5.909   3.930  0.6171  0.3292  1.2904
 5307SOL    HW226851   8.696   5.760   3.963 -0.3305 -0.6374 -1.2574
 5308SOL     OW26852   0.630   0.944   0.695  0.2249 -0.9269  0.0750
 5308SOL    HW126853   0.530   0.939   0.699  0.0780  0.6852 -1.3868
 5308SOL    HW226854   0.668   0.911   0.782 -1.6497  0.9704  1.6636
 5309SOL     OW26855   4.400   0.946   3.153  0.5123 -0.2837  0.0287
 5309SOL    HW126856   4.386   0.872   3.088  2.6113 -1.3369  0.7226
 5309SOL    HW226857   4.485   0.994   3.132 -0.5902  1.6772 -0.1413
 5310SOL     OW26858   0.978   2.030   4.613  0.1577 -0.2715  0.1529
 5310SOL    HW126859   1.074   2.013   4.594  0.7172  1.8483  1.0226
 5310SOL    HW226860   0.942   1.956   4.670  1.3134 -0.9338  0.0448
 5311SOL     OW26861   5.155   8.556   1.995  0.3894  0.3161 -0.1261
 5311SOL    HW126862   5.157   8.502   1.910  0.0998 -1.0947  0.7440
 5311SOL    HW226863   5.060   8.567   2.025  0.6260 -1.0504  1.1672
 5312SOL     OW26864   3.626   3.095   1.705  0.0828 -0.1037 -0.2473
 5312SOL    HW126865   3.598   3.130   1.615 -2.3111  3.8536  1.9258
 5312SOL    HW226866   3.574   3.013   1.726 -1.4757  0.6003 -1.2407
 5313SOL     OW26867   4.776   1.329   4.912  0.5666 -0.3179  0.1064
 5313SOL    HW126868   4.781   1.318   5.011 -1.5172  0.0063  0.2636
 5313SOL    HW226869   4.719   1.258   4.873  1.3817 -0.4433 -0.8738
 5314SOL     OW26870   8.529   9.250   2.282 -0.0155 -0.5302  0.1392
 5314SOL    HW126871   8.519   9.189   2.361  1.5274 -0.9721 -0.0047
 5314SOL    HW226872   8.624   9.252   2.253 -0.3596  0.6174 -0.9377
 5315SOL     OW26873   1.503   6.782   2.614  0.0852 -0.3451  0.0884
 5315SOL    HW126874   1.486   6.805   2.518 -0.7737 -0.2141  0.2661
 5315SOL    HW226875   1.428   6.725   2.648 -0.1573  0.5036  0.9912
 5316SOL     OW26876   6.629   8.387   4.163 -0.1245  0.3954  0.7998
 5316SOL    HW126877   6.644   8.288   4.165 -0.5583  0.2807 -0.7632
 5316SOL    HW226878   6.579   8.411   4.080 -0.9662  1.8027  1.7090
 5317SOL     OW26879   9.104   2.586   1.903 -0.0887  0.1925  0.3779
 5317SOL    HW126880   9.142   2.508   1.853 -0.9187  0.3381 -0.4925
 5317SOL    HW226881   9.163   2.666   1.890  0.8257 -0.3064  1.3661
 5318SOL     OW26882   8.144   1.391   2.959  0.8002  0.1978  0.3893
 5318SOL    HW126883   8.113   1.296   2.951 -1.4654  1.0273 -0.9519
 5318SOL    HW226884   8.143   1.418   3.055 -0.8898 -0.3634  0.5320
 5319SOL     OW26885   0.549   7.494   4.203 -0.8078 -0.3651 -1.1519
 5319SOL    HW126886   0.451   7.477   4.196 -1.2531  1.6284 -0.1672
 5319SOL    HW226887   0.568   7.590   4.180  0.6818 -0.2489  0.4906
 5320SOL     OW26888   6.073   9.335   2.707 -0.5674 -0.3223  0.3766
 5320SOL    HW126889   6.058   9.434   2.705  1.9399  0.0661 -0.8433
 5320SOL    HW226890   6.122   9.311   2.791 -1.4959 -0.6013  0.8484
 5321SOL     OW26891   0.462   6.920   1.094 -0.1459  0.3330 -0.2210
 5321SOL    HW126892   0.456   7.012   1.131 -0.3928  0.3591 -0.3270
 5321SOL    HW226893   0.418   6.916   1.004  1.1595  0.4560 -0.8764
 5322SOL     OW26894   9.418   3.615   0.751 -0.5580 -0.2957  0.2730
 5322SOL    HW126895   9.324   3.583   0.757 -0.5009 -0.4050  0.6042
 5322SOL    HW226896   9.426   3.683   0.679 -0.3985 -2.0395 -1.3929
 5323SOL     OW26897   2.685   7.734   3.515 -0.2482  0.2349 -0.4867
 5323SOL    HW126898   2.588   7.752   3.496 -0.1225  0.9762 -0.4510
 5323SOL    HW226899   2.735   7.820   3.512  0.2857 -0.0535  0.2129
 5324SOL     OW26900   2.990   8.722   4.656 -0.0482  0.1136  0.3357
 5324SOL    HW126901   3.040   8.647   4.614  0.1807 -0.0778  0.9332
 5324SOL    HW226902   3.045   8.806   4.651  0.1737 -0.0093  0.6442
 5325SOL     OW26903   2.904   2.274   0.796 -0.0149  0.2674  0.5324
 5325SOL    HW126904   2.901   2.338   0.719 -0.5305  0.8781  1.0577
 5325SOL    HW226905   2.847   2.195   0.777 -0.4740  0.6171  0.4656
 5326SOL     OW26906   0.799   0.461   0.168 -0.1579  0.1823  0.2824
 5326SOL    HW126907   0.867   0.432   0.235 -1.0182 -0.4875  0.8859
 5326SOL    HW226908   0.784   0.560   0.176 -0.1612  0.1268  0.9855
 5327SOL     OW26909   3.447   2.965   4.001  0.2958  0.1698  0.2251
 5327SOL    HW126910   3.482   3.012   3.919  0.6443  1.2223  0.9722
 5327SOL    HW226911   3.476   2.869   3.999  1.7798  0.6245 -0.0033
 5328SOL     OW26912   4.067   9.789   3.135  0.0167 -0.0028 -0.0286
 5328SOL    HW126913   4.006   9.834   3.201  0.4927  0.9335 -0.2270
 5328SOL    HW226914   4.107   9.708   3.177 -0.7633 -0.1976  0.3663
 5329SOL     OW26915   1.020   1.437   5.487  0.3592 -0.0846 -0.2685
 5329SOL    HW126916   0.961   1.358   5.466 -0.6655  0.2379  1.3650
 5329SOL    HW226917   1.115   1.409   5.481  0.0215 -1.1841 -0.7275
 5330SOL     OW26918   1.227   4.981   4.348 -0.2961 -0.4439 -0.1224
 5330SOL    HW126919   1.142   4.997   4.297 -0.1964  0.8740  0.0982
 5330SOL    HW226920   1.205   4.945   4.438 -0.7189  1.1248  0.4273
 5331SOL     OW26921   9.769   3.744   2.601  0.3554  0.1948 -0.1936
 5331SOL    HW126922   9.846   3.748   2.537  0.7837  0.6522  0.3333
 5331SOL    HW226923   9.801   3.709   2.689 -0.2123 -0.3581 -0.2030
 5332SOL     OW26924   9.888   4.644   1.961  0.5722  0.6625  0.7957
 5332SOL    HW126925   9.798   4.620   1.926  0.5710  0.1833  1.1299
 5332SOL    HW226926   9.957   4.585   1.918  0.6082  0.3080  1.3337
 5333SOL     OW26927   4.211   1.798   3.306 -0.0998  0.4455 -0.5730
 5333SOL    HW126928   4.145   1.725   3.290 -0.3803  0.0791  2.0159
 5333SOL    HW226929   4.166   1.887   3.295 -1.2646  0.2030  1.8108
 5334SOL     OW26930   4.695   0.612   3.067  0.1109  0.6270 -0.3063
 5334SOL    HW126931   4.630   0.536   3.070  0.9829 -0.0887  0.9428
 5334SOL    HW226932   4.680   0.672   3.146  1.1070  0.3295  0.1191
 5335SOL     OW26933   9.048   1.441   5.617  0.5765  0.0143 -0.0220
 5335SOL    HW126934   9.020   1.525   5.664 -0.0783 -1.5721  2.5446
 5335SOL    HW226935   9.121   1.397   5.669  0.2495 -1.4993 -0.8197
 5336SOL     OW26936   5.994   0.754   1.244 -0.1669  0.0610 -0.4020
 5336SOL    HW126937   5.999   0.727   1.148  0.1288 -1.6272  0.0820
 5336SOL    HW226938   5.898   0.762   1.272 -0.2510 -0.0008 -0.6737
 5337SOL     OW26939   8.293   5.378   3.706  0.4776 -0.4557  1.2027
 5337SOL    HW126940   8.251   5.376   3.615  1.4099  1.8654  0.6785
 5337SOL    HW226941   8.224   5.404   3.774 -0.2410 -2.2752  1.1998
 5338SOL     OW26942   1.898   9.721   4.409  0.4071 -0.8375 -0.8891
 5338SOL    HW126943   1.901   9.661   4.329 -3.0295 -1.6572 -0.4670
 5338SOL    HW226944   1.911   9.667   4.492  2.7741 -0.1572 -0.7765
 5339SOL     OW26945   7.841   9.870   2.006  0.0414 -0.2524  0.2896
 5339SOL    HW126946   7.923   9.903   1.960 -0.8700  0.6177 -0.7493
 5339SOL    HW226947   7.764   9.929   1.983 -0.8026 -0.8428  1.5425
 5340SOL     OW26948   8.701   7.043   2.105  0.5824 -0.0740 -0.0902
 5340SOL    HW126949   8.612   7.002   2.086  0.3828 -1.0585  2.6621
 5340SOL    HW226950   8.773   6.976   2.085  0.6135  0.1963 -0.8898
 5341SOL     OW26951   3.243   0.734   4.326 -0.4619  0.0095 -0.0880
 5341SOL    HW126952   3.278   0.645   4.297  0.2918 -0.2023  1.4063
 5341SOL    HW226953   3.233   0.794   4.246  0.4494 -0.9316 -0.9232
 5342SOL     OW26954   5.661   6.857   2.388  0.1389  0.4013 -0.1966
 5342SOL    HW126955   5.752   6.818   2.376 -1.5986 -3.6914 -0.5879
 5342SOL    HW226956   5.617   6.868   2.298 -1.2080 -1.3782  0.2129
 5343SOL     OW26957   4.207   2.744   4.611 -0.0262 -0.3392  0.0681
 5343SOL    HW126958   4.248   2.654   4.623 -2.2319 -1.4561 -0.4977
 5343SOL    HW226959   4.257   2.794   4.541  2.4251 -0.3323  1.7637
 5344SOL     OW26960   2.374   7.476   2.176 -0.1146  0.4378  0.2327
 5344SOL    HW126961   2.362   7.576   2.177  0.8687  0.5636  1.2965
 5344SOL    HW226962   2.452   7.452   2.234 -1.1568 -1.0585  1.0567
 5345SOL     OW26963   1.026   4.104   5.114  0.3972  0.3240  0.0654
 5345SOL    HW126964   1.095   4.160   5.068  0.7441 -0.6456 -0.6177
 5345SOL    HW226965   1.051   4.094   5.211  0.3992  1.2350  0.1634
 5346SOL     OW26966   6.512   9.613   4.870 -0.0948  0.0812  0.5319
 5346SOL    HW126967   6.412   9.619   4.865 -0.0368  0.2895 -0.3972
 5346SOL    HW226968   6.553   9.690   4.821  0.5293 -0.7301 -0.2342
 5347SOL     OW26969   4.031   1.305   4.521  0.4015  0.1485  0.2825
 5347SOL    HW126970   3.987   1.219   4.546 -0.7389  0.3055 -1.1342
 5347SOL    HW226971   4.074   1.297   4.431  0.4414  0.9991  0.2152
 5348SOL     OW26972   2.575   2.542   1.928  0.1763 -0.6893 -0.0313
 5348SOL    HW126973   2.491   2.529   1.981 -0.4348 -0.9279 -1.0427
 5348SOL    HW226974   2.562   2.615   1.861  1.5329  0.8343  1.3505
 5349SOL     OW26975   2.842   9.701   2.572  0.0806  0.1867 -0.0314
 5349SOL    HW126976   2.864   9.789   2.613 -0.8202 -0.6213  2.2943
 5349SOL    HW226977   2.801   9.641   2.641 -0.9668 -1.4535 -1.9935
 5350SOL     OW26978   5.693   9.224   4.699 -0.5132  0.6601  0.6314
 5350SOL    HW126979   5.664   9.140   4.653 -1.2529  1.8604 -1.1477
 5350SOL    HW226980   5.613   9.282   4.716 -0.0617  0.8646  2.2007
 5351SOL     OW26981   8.840   5.334   0.924 -0.4459  0.1214  0.2839
 5351SOL    HW126982   8.913   5.400   0.941 -1.6877  0.9686  2.5984
 5351SOL    HW226983   8.756   5.383   0.900 -0.4959 -0.7924 -1.4390
 5352SOL     OW26984   7.795   0.736   4.888 -0.0321  0.4986  0.4899
 5352SOL    HW126985   7.740   0.652   4.885  0.4351  0.2485 -1.2918
 5352SOL    HW226986   7.772   0.788   4.971 -0.6944 -1.1301  1.3442
 5353SOL     OW26987   8.203   3.081   0.685  0.1224 -0.0513 -0.5724
 5353SOL    HW126988   8.139   3.061   0.611  2.1237 -0.2147 -2.2994
 5353SOL    HW226989   8.158   3.139   0.753 -1.6043  0.5441 -2.1810
 5354SOL     OW26990   2.743   9.458   5.062  0.3134 -0.2941 -0.2036
 5354SOL    HW126991   2.795   9.517   5.000 -1.9887  1.4207 -0.5662
 5354SOL    HW226992   2.770   9.477   5.157  0.6598  0.2740 -0.4151
 5355SOL     OW26993   5.905   8.075   2.413 -0.5705 -0.2846  0.3212
 5355SOL    HW126994   5.925   8.169   2.385 -0.6117 -0.6860 -1.0644
 5355SOL    HW226995   5.949   8.011   2.350 -0.8264 -1.1990  1.0589
 5356SOL     OW26996   2.657   8.979   5.396 -0.0905  0.1442 -0.4140
 5356SOL    HW126997   2.699   8.905   5.448  0.0775  0.6403  0.1682
 5356SOL    HW226998   2.661   9.063   5.450 -0.5390  0.5101 -0.9499
 5357SOL     OW26999   6.295   9.179   1.603 -0.3225 -0.0809 -0.4684
 5357SOL    HW127000   6.211   9.226   1.576 -0.3147 -1.0863 -2.3369
 5357SOL    HW227001   6.272   9.090   1.643 -0.2204  0.4619  0.8302
 5358SOL     OW27002   1.835   5.035   3.901  0.1787 -0.5718  0.1287
 5358SOL    HW127003   1.752   5.023   3.847 -0.5423 -0.0590  1.1075
 5358SOL    HW227004   1.844   4.959   3.966 -0.2700  0.0955  0.9805
 5359SOL     OW27005   3.076   7.953   0.921  0.3992  0.4695  0.3778
 5359SOL    HW127006   3.146   7.947   0.850 -1.4288  0.4872 -1.4791
 5359SOL    HW227007   3.001   8.011   0.889 -0.3627  0.6576  2.4227
 5360SOL     OW27008   8.635   2.389   0.531 -0.2426 -0.2386  0.6592
 5360SOL    HW127009   8.691   2.318   0.489 -0.4778 -1.3518  2.1983
 5360SOL    HW227010   8.559   2.412   0.470  0.3939 -0.5884 -0.2730
 5361SOL     OW27011   0.925   3.488   0.066 -0.9274  0.0498  0.1538
 5361SOL    HW127012   0.914   3.515  -0.029  0.6860  1.7713  0.4290
 5361SOL    HW227013   0.858   3.538   0.122 -1.0327 -0.0055  0.0767
 5362SOL     OW27014   3.185   8.215   3.813 -0.0791  0.5287 -0.0616
 5362SOL    HW127015   3.101   8.252   3.774 -0.5345 -1.6258 -1.2167
 5362SOL    HW227016   3.263   8.269   3.781 -0.7446  0.6920 -1.4545
 5363SOL     OW27017   9.436   4.593   1.602  0.7032 -0.1138 -0.2277
 5363SOL    HW127018   9.355   4.612   1.658  1.0852  0.4192  0.1491
 5363SOL    HW227019   9.507   4.660   1.622  0.6051  0.5116 -1.8430
 5364SOL     OW27020   4.623   2.270   0.545 -0.2517 -0.3144  0.2678
 5364SOL    HW127021   4.696   2.336   0.530 -1.1839  0.5421 -0.6051
 5364SOL    HW227022   4.566   2.263   0.462 -1.7862 -0.1614  1.2859
 5365SOL     OW27023   9.184   3.875   2.766 -0.8565  0.4458 -0.0973
 5365SOL    HW127024   9.196   3.973   2.782 -2.9163  0.5671  0.9665
 5365SOL    HW227025   9.138   3.862   2.678  0.0789  0.3852 -0.5826
 5366SOL     OW27026   4.549   0.075   5.181 -0.0959 -0.0910 -0.3536
 5366SOL    HW127027   4.585   0.049   5.271  0.4673  0.3251 -0.4527
 5366SOL    HW227028   4.569   0.002   5.116  1.1431  0.3921 -0.5440
 5367SOL     OW27029   8.477   7.274   0.629 -0.1451 -0.3103  0.0411
 5367SOL    HW127030   8.378   7.272   0.615  0.0357  0.3561 -1.4602
 5367SOL    HW227031   8.522   7.233   0.549  0.8903  2.0884 -0.6617
 5368SOL     OW27032   0.553   3.343   4.736 -0.5260  0.0417 -0.3758
 5368SOL    HW127033   0.477   3.408   4.732  1.8741  3.5099  4.0968
 5368SOL    HW227034   0.544   3.286   4.818  0.7758 -0.6932 -0.7322
 5369SOL     OW27035   8.250   8.065   5.603  0.0212  0.1488 -0.2374
 5369SOL    HW127036   8.263   8.158   5.639 -0.0611 -0.3688  1.1521
 5369SOL    HW227037   8.211   8.007   5.674 -0.7186 -0.7530 -1.3609
 5370SOL     OW27038   2.210   6.612   3.499  0.6410 -0.0876  0.1914
 5370SOL    HW127039   2.202   6.514   3.517  1.0598 -0.0514  0.5696
 5370SOL    HW227040   2.178   6.631   3.406 -2.2231 -0.1646  1.1077
 5371SOL     OW27041   2.671   6.889   2.384  0.1726 -0.0467 -0.4530
 5371SOL    HW127042   2.581   6.880   2.428  0.5680 -1.3226  0.1258
 5371SOL    HW227043   2.695   6.985   2.376 -1.3128  0.3109 -0.7306
 5372SOL     OW27044   6.053   0.898   2.900 -0.2170  0.1421 -0.2835
 5372SOL    HW127045   5.998   0.842   2.839  1.9473  1.4854 -3.6009
 5372SOL    HW227046   6.147   0.862   2.904  0.6759  2.2988 -0.8559
 5373SOL     OW27047   3.176   9.064   4.063 -0.6455  0.2120 -0.2328
 5373SOL    HW127048   3.249   9.086   3.998  2.0132 -0.9117  2.3000
 5373SOL    HW227049   3.149   8.969   4.051  0.0033 -0.0586  0.4622
 5374SOL     OW27050   7.094   9.644   1.086  0.7157  0.0892  0.1529
 5374SOL    HW127051   7.053   9.696   1.161 -1.9910 -1.0909 -0.4577
 5374SOL    HW227052   7.129   9.708   1.017 -0.8272  1.1327  0.3029
 5375SOL     OW27053   2.967   8.432   2.658  0.4029  0.0764 -1.2473
 5375SOL    HW127054   2.978   8.378   2.741 -0.2795  1.9046  0.0525
 5375SOL    HW227055   3.050   8.425   2.603  1.0837 -0.6910 -0.1459
 5376SOL     OW27056   1.802   7.476   4.697  0.4715  0.3319  0.8752
 5376SOL    HW127057   1.899   7.470   4.675  0.9259  0.7009  2.7164
 5376SOL    HW227058   1.755   7.529   4.626  0.8644 -3.1586 -2.1341
 5377SOL     OW27059   1.424   8.741   5.201 -0.4349  0.1646 -0.6156
 5377SOL    HW127060   1.465   8.799   5.271  0.3491  0.9049 -1.6809
 5377SOL    HW227061   1.467   8.650   5.204 -0.0807  0.3374 -0.4414
 5378SOL     OW27062   2.991   4.890   2.434 -0.0253  0.5217 -0.3093
 5378SOL    HW127063   2.911   4.848   2.476 -2.1385  2.3342 -2.3624
 5378SOL    HW227064   3.009   4.847   2.346  1.6585 -0.2536  0.3804
 5379SOL     OW27065   9.627   3.954   0.931  0.3942 -0.3214  0.2043
 5379SOL    HW127066   9.596   4.039   0.887 -0.1692 -0.6865 -0.1108
 5379SOL    HW227067   9.708   3.973   0.986 -0.4267  0.6876  1.1166
 5380SOL     OW27068   4.448   5.382   1.126 -0.3470  0.7414 -0.1711
 5380SOL    HW127069   4.541   5.352   1.105 -0.4227  0.7422 -0.5089
 5380SOL    HW227070   4.444   5.416   1.220 -0.1932 -0.0325  0.1205
 5381SOL     OW27071   3.976   1.037   5.182  0.2188 -0.1640 -0.0073
 5381SOL    HW127072   3.962   0.943   5.153  0.0062 -0.1584  0.0727
 5381SOL    HW227073   3.911   1.059   5.255  0.3349  0.0124  0.0423
 5382SOL     OW27074   2.284   1.206   4.152 -0.3856  0.3692  0.0730
 5382SOL    HW127075   2.240   1.120   4.128  0.7971 -0.9616  2.4914
 5382SOL    HW227076   2.288   1.215   4.251 -0.0231  2.9980 -0.1283
 5383SOL     OW27077   8.593   6.237   2.583  0.0346  0.1750 -0.6364
 5383SOL    HW127078   8.572   6.335   2.581 -0.5897  0.0344 -2.2472
 5383SOL    HW227079   8.648   6.213   2.503  1.4929 -0.5260  0.5547
 5384SOL     OW27080   6.295   9.427   1.883  0.4563 -0.4769 -0.1792
 5384SOL    HW127081   6.371   9.456   1.942 -1.3403  2.7624  0.6949
 5384SOL    HW227082   6.296   9.480   1.799 -1.0438 -0.1344  0.0087
 5385SOL     OW27083   3.499   4.413   2.801  0.2841  0.0292  0.2498
 5385SOL    HW127084   3.597   4.402   2.786  0.5868  0.0904  2.0423
 5385SOL    HW227085   3.461   4.327   2.836 -0.4741 -0.2640 -1.2543
 5386SOL     OW27086   2.492   7.554   3.998 -0.3370 -0.1155 -0.6516
 5386SOL    HW127087   2.409   7.565   4.054  0.7433 -0.9219  1.1327
 5386SOL    HW227088   2.493   7.625   3.927 -2.6882 -0.2557 -0.8885
 5387SOL     OW27089   8.540   6.038   5.270 -0.6483  0.4396  0.9310
 5387SOL    HW127090   8.477   6.072   5.340 -0.0789 -0.1379  1.7339
 5387SOL    HW227091   8.522   5.941   5.254  0.9885 -0.0968  2.2285
 5388SOL     OW27092   2.545   3.578   4.597  0.0987  0.4639  0.1893
 5388SOL    HW127093   2.638   3.544   4.615  0.1367  0.4841  0.0341
 5388SOL    HW227094   2.483   3.545   4.668 -0.2100 -1.3734 -0.8762
 5389SOL     OW27095   2.365   8.347   4.867  0.2170  0.1682  0.0161
 5389SOL    HW127096   2.316   8.346   4.954 -0.5115 -0.5048 -0.3962
 5389SOL    HW227097   2.424   8.428   4.863  1.0834 -0.3568  1.5762
 5390SOL     OW27098   2.650   3.824   1.329  0.8661  0.4979 -0.2549
 5390SOL    HW127099   2.634   3.922   1.333 -3.1120  0.0203 -2.2236
 5390SOL    HW227100   2.660   3.788   1.422  0.2962  2.4439  0.5872
 5391SOL     OW27101   4.731   2.550   3.196 -0.6905 -0.2533  0.0056
 5391SOL    HW127102   4.783   2.565   3.112 -0.8236 -1.7205 -0.3618
 5391SOL    HW227103   4.794   2.545   3.274 -0.5911  1.3820  0.0473
 5392SOL     OW27104   2.888   7.711   3.290 -0.5401 -0.0213  0.2026
 5392SOL    HW127105   2.793   7.681   3.278 -0.7825  1.0254 -0.5447
 5392SOL    HW227106   2.893   7.779   3.363 -0.5060  0.6091 -0.3883
 5393SOL     OW27107   0.494   3.668   0.709  0.3947  0.7299  0.0495
 5393SOL    HW127108   0.480   3.621   0.796  1.0826 -1.1645 -0.8422
 5393SOL    HW227109   0.570   3.733   0.718 -0.4997  1.6465  1.2572
 5394SOL     OW27110   8.804   6.043   5.304 -0.0674 -0.2100  0.1879
 5394SOL    HW127111   8.704   6.050   5.306 -0.0271  1.2824 -1.8433
 5394SOL    HW227112   8.836   5.998   5.388 -2.3356  0.5168  1.4843
 5395SOL     OW27113   8.821   3.347   1.370  0.2682  0.6803  0.1402
 5395SOL    HW127114   8.916   3.321   1.391 -0.1324 -1.0238 -0.0825
 5395SOL    HW227115   8.819   3.399   1.285  1.1033  1.5655  0.6431
 5396SOL     OW27116   4.060   5.060   4.265  0.6166 -0.1583  0.3520
 5396SOL    HW127117   4.124   5.043   4.340  0.7101  0.4147  0.4072
 5396SOL    HW227118   4.096   5.023   4.180 -0.2248 -2.2597  0.8764
 5397SOL     OW27119   9.191   4.127   2.350 -0.0438  0.6762  0.4193
 5397SOL    HW127120   9.288   4.119   2.328  0.1290  2.8140  0.2698
 5397SOL    HW227121   9.137   4.131   2.266  0.0018  2.1575  0.4448
 5398SOL     OW27122   2.135   9.557   2.669  0.0526  0.0561 -0.4283
 5398SOL    HW127123   2.195   9.556   2.590  0.5872  0.3626 -0.0274
 5398SOL    HW227124   2.189   9.567   2.753 -0.5058 -0.2220 -0.0238
 5399SOL     OW27125   9.703   4.242   3.181  0.1354  0.3069  0.1354
 5399SOL    HW127126   9.683   4.316   3.245 -1.9713  0.8835 -1.1206
 5399SOL    HW227127   9.680   4.155   3.224 -0.4105  0.6231  0.4999
 5400SOL     OW27128   1.082   1.688   3.794 -0.4171 -0.1105 -0.0986
 5400SOL    HW127129   1.003   1.628   3.782 -0.2346 -0.0136 -1.9905
 5400SOL    HW227130   1.161   1.635   3.823 -1.4490 -0.0312  3.0399
 5401SOL     OW27131   4.020   3.972   1.562  0.6510 -0.2534  0.6505
 5401SOL    HW127132   4.006   3.888   1.510  1.5006 -0.6058  0.9702
 5401SOL    HW227133   3.932   4.013   1.583  0.1919 -1.4098  1.0425
 5402SOL     OW27134   4.431   3.503   1.412  0.1025 -0.4086 -0.3306
 5402SOL    HW127135   4.496   3.575   1.390  0.0092  0.1395  1.1152
 5402SOL    HW227136   4.460   3.457   1.496 -1.1916 -0.3598  0.1540
 5403SOL     OW27137   3.868   9.241   2.376 -0.1541 -0.2263  0.4062
 5403SOL    HW127138   3.827   9.201   2.458 -0.9690  0.1209  0.1698
 5403SOL    HW227139   3.931   9.174   2.335 -0.1071 -0.5788  1.0368
 5404SOL     OW27140   3.319   5.917   0.594 -0.7822 -0.7277 -0.4090
 5404SOL    HW127141   3.244   5.873   0.546 -0.2197 -0.0264 -1.9964
 5404SOL    HW227142   3.381   5.848   0.631 -0.6258 -1.3055 -1.7010
 5405SOL     OW27143   9.019   0.423   5.049  0.3273  0.6987  0.0133
 5405SOL    HW127144   8.972   0.497   5.096 -0.5878  0.4342 -0.4545
 5405SOL    HW227145   9.014   0.438   4.950  0.1525  0.0429 -0.0838
 5406SOL     OW27146   1.731   1.714   5.591  0.6237 -0.0588 -0.0658
 5406SOL    HW127147   1.804   1.730   5.657  1.3261 -0.7105 -0.6842
 5406SOL    HW227148   1.670   1.793   5.589  1.3622  0.5258  0.3868
 5407SOL     OW27149   4.839   9.708   2.878  0.1463  0.0524 -0.3540
 5407SOL    HW127150   4.786   9.792   2.889  0.5499  0.1711  0.7857
 5407SOL    HW227151   4.782   9.629   2.900 -0.3940 -0.0241 -1.9524
 5408SOL     OW27152   1.113   0.504   3.725  0.4708 -0.9528  0.0479
 5408SOL    HW127153   1.198   0.553   3.702  0.1623 -0.8134 -0.8049
 5408SOL    HW227154   1.136   0.419   3.772  1.1856 -1.8684 -1.8895
 5409SOL     OW27155   3.513   0.056   3.753 -0.0628 -0.0604 -0.4666
 5409SOL    HW127156   3.586  -0.012   3.766  0.7085  1.0014  0.9184
 5409SOL    HW227157   3.430   0.025   3.799 -0.3038 -0.9840 -1.5153
 5410SOL     OW27158   8.358   9.743   2.013 -0.3317  0.2223 -0.2209
 5410SOL    HW127159   8.439   9.783   1.970 -0.8630  1.6846  0.1076
 5410SOL    HW227160   8.283   9.738   1.947 -0.4230  0.2577 -0.1228
 5411SOL     OW27161   2.997   7.874   5.579 -0.3455  0.1211  0.1255
 5411SOL    HW127162   3.079   7.926   5.605 -0.6942  1.0867 -0.6867
 5411SOL    HW227163   3.010   7.777   5.602  0.7167  0.3924  0.7030
 5412SOL     OW27164   0.334   6.930   3.286 -0.1550 -0.6696 -0.2688
 5412SOL    HW127165   0.320   6.956   3.381 -1.1491 -0.2265 -0.5242
 5412SOL    HW227166   0.257   6.876   3.254 -0.0494 -0.4354 -0.9481
 5413SOL     OW27167   0.569   3.605   5.634 -0.0808 -0.8306 -0.6464
 5413SOL    HW127168   0.517   3.680   5.592 -1.4840 -0.4053  1.7458
 5413SOL    HW227169   0.550   3.603   5.733  1.4206 -3.1564 -0.3757
 5414SOL     OW27170   6.611   0.959   3.313 -0.4166 -0.0010  0.1889
 5414SOL    HW127171   6.704   0.997   3.316 -0.7952  0.9728 -0.1713
 5414SOL    HW227172   6.612   0.865   3.349  1.0621 -0.7332 -1.6576
 5415SOL     OW27173   7.210   3.743   5.398  0.1401 -0.3878  0.1559
 5415SOL    HW127174   7.266   3.817   5.360 -0.6299  0.4563  0.6201
 5415SOL    HW227175   7.268   3.680   5.448  0.4668  1.5994  2.3877
 5416SOL     OW27176   8.195   3.833   3.323 -0.3703  0.4713  0.4855
 5416SOL    HW127177   8.128   3.804   3.392 -1.0504  1.0047  0.0482
 5416SOL    HW227178   8.195   3.768   3.247 -2.8708  2.2879 -1.1389
 5417SOL     OW27179   0.324   7.949   0.994  0.8752  0.3041  0.0394
 5417SOL    HW127180   0.388   7.986   1.062  1.5544 -1.8791  0.6237
 5417SOL    HW227181   0.370   7.877   0.941 -0.6257 -0.2211 -0.5696
 5418SOL     OW27182   8.301   8.260   3.102 -0.1374 -0.5561 -0.0449
 5418SOL    HW127183   8.306   8.222   3.010 -0.8199 -1.0951  0.1317
 5418SOL    HW227184   8.375   8.224   3.158  0.9737  0.6742 -0.6996
 5419SOL     OW27185   8.271   5.586   3.290 -0.1700 -0.2089  0.2439
 5419SOL    HW127186   8.266   5.686   3.284 -3.0592 -0.2956  0.2732
 5419SOL    HW227187   8.251   5.547   3.200  1.9296 -0.7829 -0.0071
 5420SOL     OW27188   0.958   1.587   3.499 -0.6400 -0.9940 -0.1193
 5420SOL    HW127189   0.927   1.563   3.591 -0.8468  2.0799  0.6792
 5420SOL    HW227190   1.054   1.561   3.489  0.7463  2.5627  2.6247
 5421SOL     OW27191   2.867   7.988   4.555  0.1559  0.4731  0.0582
 5421SOL    HW127192   2.828   7.927   4.487  1.9106 -0.0954 -0.4733
 5421SOL    HW227193   2.831   7.966   4.645 -0.9817  0.1876 -0.4633
 5422SOL     OW27194   9.081   3.435   3.564 -0.2176  0.1144 -0.7068
 5422SOL    HW127195   9.016   3.411   3.491  0.6221 -1.0802 -1.0902
 5422SOL    HW227196   9.081   3.534   3.578 -2.9788  0.0329  0.1220
 5423SOL     OW27197   2.002   9.168   4.651  0.0175  0.9744  0.0876
 5423SOL    HW127198   2.009   9.207   4.742 -1.6022 -0.3494  0.8039
 5423SOL    HW227199   1.906   9.150   4.629  0.3938  1.1151 -1.8171
 5424SOL     OW27200   0.464   7.178   1.235 -0.1027 -0.3942  0.2694
 5424SOL    HW127201   0.445   7.164   1.333  0.1945 -2.9493 -0.0129
 5424SOL    HW227202   0.558   7.209   1.224  0.0443 -0.6488  0.7620
 5425SOL     OW27203   5.296   7.984   1.966  0.4973 -0.1575 -0.6074
 5425SOL    HW127204   5.253   8.044   2.033  1.5348 -0.8428  0.6844
 5425SOL    HW227205   5.232   7.912   1.940  0.5219 -0.6111  0.5770
 5426SOL     OW27206   4.819   6.976   2.683 -0.1648  0.7860 -0.4298
 5426SOL    HW127207   4.744   7.015   2.629 -0.0340  1.0414 -0.4239
 5426SOL    HW227208   4.782   6.939   2.768 -0.5559 -0.7081 -1.2252
 5427SOL     OW27209   0.696   4.881   4.338  0.0210  0.5773  0.0719
 5427SOL    HW127210   0.673   4.850   4.430  1.0250  0.7922  0.3920
 5427SOL    HW227211   0.626   4.848   4.274  0.6995 -1.7720  0.4955
 5428SOL     OW27212   5.293   7.512   2.215  0.4079 -0.0259  0.3884
 5428SOL    HW127213   5.374   7.466   2.251 -0.5434 -1.3362  0.8896
 5428SOL    HW227214   5.294   7.510   2.115  1.0505  0.0749  0.3924
 5429SOL     OW27215   1.556   4.457   3.466  0.0427 -0.4417 -0.1110
 5429SOL    HW127216   1.500   4.401   3.527 -0.7213 -0.6241 -0.9553
 5429SOL    HW227217   1.640   4.485   3.512 -0.2161 -1.1363  0.7807
 5430SOL     OW27218   2.829   2.772   4.689  0.0272  0.4388  0.3543
 5430SOL    HW127219   2.788   2.832   4.620  0.5208  0.8619  0.4279
 5430SOL    HW227220   2.818   2.676   4.661 -0.5480  0.5688  0.1196
 5431SOL     OW27221   7.683   5.904   5.254  0.2139 -0.4181 -0.4491
 5431SOL    HW127222   7.724   5.995   5.247  2.8726 -1.4943  0.5276
 5431SOL    HW227223   7.628   5.899   5.337 -0.4956  0.4930 -0.8543
 5432SOL     OW27224   9.533   6.875   3.580  0.2827 -0.2527  0.3625
 5432SOL    HW127225   9.512   6.873   3.482  1.9188 -1.9533  0.0333
 5432SOL    HW227226   9.447   6.876   3.631 -0.5992 -0.7521 -1.0622
 5433SOL     OW27227   8.650   4.799   5.061 -0.1591 -0.5633  0.0108
 5433SOL    HW127228   8.729   4.852   5.030 -1.5142  0.7065 -1.3312
 5433SOL    HW227229   8.675   4.702   5.065  1.6205 -0.1241  0.1381
 5434SOL     OW27230   7.908   7.366   4.039 -0.0562 -0.0803  0.3717
 5434SOL    HW127231   7.882   7.460   4.015  0.7206  0.2467  0.7664
 5434SOL    HW227232   7.961   7.367   4.124  1.6695 -0.6450 -0.6660
 5435SOL     OW27233   1.207   6.340   2.699  0.0652  0.1051 -0.1030
 5435SOL    HW127234   1.304   6.363   2.707  0.1243  0.1060 -0.8204
 5435SOL    HW227235   1.194   6.244   2.723  0.4931 -0.3490 -1.6435
 5436SOL     OW27236   5.266   8.814   4.673  0.4133 -0.4173 -0.2453
 5436SOL    HW127237   5.215   8.728   4.681 -0.7668  0.3173  0.2157
 5436SOL    HW227238   5.338   8.804   4.604 -1.4305 -0.9405 -2.1177
 5437SOL     OW27239   0.883   3.635   3.248 -0.1686  0.0112 -0.5019
 5437SOL    HW127240   0.833   3.721   3.238 -0.5934 -0.1659  0.1245
 5437SOL    HW227241   0.858   3.591   3.334 -2.1902 -2.2069 -2.1575
 5438SOL     OW27242   3.847   1.695   5.140 -0.1399 -0.0303  0.1620
 5438SOL    HW127243   3.914   1.694   5.066 -0.3477 -0.5736 -0.0206
 5438SOL    HW227244   3.866   1.621   5.204  0.6107  1.0338  1.1728
 5439SOL     OW27245   8.011   8.469   4.690  0.0474  0.0196 -0.0821
 5439SOL    HW127246   7.998   8.499   4.784  0.8536  0.6976 -0.1848
 5439SOL    HW227247   8.082   8.523   4.647  0.1011 -0.6868 -0.9045
 5440SOL     OW27248   8.721   2.229   3.717  0.3467  0.0374  0.7343
 5440SOL    HW127249   8.797   2.208   3.655 -0.3749  0.8188 -0.4233
 5440SOL    HW227250   8.641   2.258   3.664 -0.7618 -0.7279  1.9375
 5441SOL     OW27251   9.221   6.071   2.564  0.0659  0.5681 -0.0325
 5441SOL    HW127252   9.140   6.089   2.508  1.2052 -1.1104 -2.3326
 5441SOL    HW227253   9.275   6.155   2.574 -0.3860  0.9925 -1.1138
 5442SOL     OW27254   1.867   9.250   5.409 -0.0774 -0.2323 -0.3154
 5442SOL    HW127255   1.902   9.320   5.470 -0.5447  0.7758 -1.1924
 5442SOL    HW227256   1.939   9.220   5.347 -0.1015  0.0495 -0.4759
 5443SOL     OW27257   2.873   9.194   1.293 -0.1169 -0.1562  0.2575
 5443SOL    HW127258   2.916   9.146   1.370  1.1462  0.8975  0.2277
 5443SOL    HW227259   2.824   9.275   1.327  2.3942  1.6250 -0.2667
 5444SOL     OW27260   1.322   4.193   1.933 -0.5232  0.2671 -0.1806
 5444SOL    HW127261   1.266   4.155   2.005 -0.1285  1.0300  0.5373
 5444SOL    HW227262   1.264   4.229   1.860 -0.8898 -2.2414 -1.1577
 5445SOL     OW27263   3.088   2.972   1.541  0.3088  0.4679 -0.3845
 5445SOL    HW127264   3.146   3.036   1.490  1.1098  0.9638  1.1305
 5445SOL    HW227265   3.003   3.017   1.568  0.3422  0.5247 -0.3735
 5446SOL     OW27266   0.068   3.517   0.147 -0.3483 -1.1079  0.0441
 5446SOL    HW127267   0.018   3.430   0.152 -0.7396 -1.0414 -2.2141
 5446SOL    HW227268   0.011   3.590   0.183 -0.0685 -1.7436  1.8385
 5447SOL     OW27269   9.769   0.913   5.242 -0.0645 -0.6083 -0.0487
 5447SOL    HW127270   9.779   0.840   5.310 -1.3066 -0.4657  0.2924
 5447SOL    HW227271   9.855   0.923   5.191  1.1921 -0.0516  2.1320
 5448SOL     OW27272   0.672   4.021   2.819  0.1032 -0.1580  0.5472
 5448SOL    HW127273   0.594   4.051   2.874  0.0394  1.6130 -0.4702
 5448SOL    HW227274   0.740   3.978   2.878 -1.8007 -2.1001  1.4016
 5449SOL     OW27275   0.384   1.291   3.867  0.2619  0.1531 -0.3798
 5449SOL    HW127276   0.470   1.274   3.819  1.1317  0.3734  1.0924
 5449SOL    HW227277   0.355   1.207   3.913 -0.8289 -0.1944 -1.6628
 5450SOL     OW27278   9.675   4.796   0.911  0.3513  0.0845  0.1668
 5450SOL    HW127279   9.610   4.733   0.953  2.4389 -1.2713  1.4311
 5450SOL    HW227280   9.649   4.890   0.933 -0.4531 -0.4981  1.7795
 5451SOL     OW27281   9.496   0.969   4.585  0.0637 -0.1796 -0.3596
 5451SOL    HW127282   9.575   0.998   4.639 -1.5343  2.0799  0.9031
 5451SOL    HW227283   9.526   0.935   4.496  2.6053 -1.8598  1.0726
 5452SOL     OW27284   2.495   5.065   3.461  0.1337 -0.8208  0.1244
 5452SOL    HW127285   2.557   5.109   3.397  0.2098  1.9700  2.0513
 5452SOL    HW227286   2.412   5.036   3.413  0.6549  0.1969 -1.4171
 5453SOL     OW27287   0.018   6.571   1.724  0.0134 -0.2790 -0.1819
 5453SOL    HW127288   0.016   6.631   1.645 -0.3850 -1.6660 -1.2406
 5453SOL    HW227289  -0.074   6.562   1.763  0.1493  0.1437  0.2353
 5454SOL     OW27290   8.120   2.764   3.903  0.2251 -0.5311  0.0286
 5454SOL    HW127291   8.208   2.765   3.952  0.4510 -0.2721 -0.3868
 5454SOL    HW227292   8.135   2.785   3.807 -0.4942  1.1761  0.2720
 5455SOL     OW27293   7.967   0.122   2.372 -0.0800  0.1546  0.4414
 5455SOL    HW127294   8.024   0.046   2.404 -0.0051  0.3001  0.6566
 5455SOL    HW227295   8.009   0.209   2.399 -0.8341  0.2463  1.3502
 5456SOL     OW27296   9.001   9.998   0.892  0.0144 -0.1962  0.2156
 5456SOL    HW127297   9.095   9.971   0.872 -0.1783 -1.4517  0.9501
 5456SOL    HW227298   8.938   9.942   0.838 -0.2962  1.3379 -1.0497
 5457SOL     OW27299   3.360   3.203   1.039  0.8095  0.1248  0.2234
 5457SOL    HW127300   3.454   3.170   1.033  0.6229  0.0298 -2.5855
 5457SOL    HW227301   3.357   3.300   1.013 -0.1179 -0.3149 -1.3114
 5458SOL     OW27302   3.253   7.078   1.965  0.5277  0.7395 -0.4254
 5458SOL    HW127303   3.341   7.037   1.939 -0.0634 -0.3352 -0.7973
 5458SOL    HW227304   3.180   7.028   1.919 -0.5826 -1.1220  3.1561
 5459SOL     OW27305   3.848   2.112   2.916 -0.0523  0.0136  0.2191
 5459SOL    HW127306   3.902   2.196   2.925  0.9749 -0.5519 -0.5794
 5459SOL    HW227307   3.902   2.034   2.949  0.0376 -0.7021 -1.5867
 5460SOL     OW27308   2.592   2.165   1.160 -0.5295 -0.2792 -0.1523
 5460SOL    HW127309   2.682   2.209   1.164 -0.7234 -0.0027  1.4503
 5460SOL    HW227310   2.582   2.103   1.238 -1.6252 -0.5094 -0.4688
 5461SOL     OW27311   9.501   7.563   0.326 -0.5365 -0.3728  0.2182
 5461SOL    HW127312   9.529   7.650   0.285 -0.4773  0.0383  1.1055
 5461SOL    HW227313   9.561   7.490   0.295  1.2845  0.4234  1.7570
 5462SOL     OW27314   5.200   3.624   1.058  0.5364  0.1082  0.1958
 5462SOL    HW127315   5.245   3.678   0.987  1.0147 -0.2574  0.2215
 5462SOL    HW227316   5.111   3.593   1.025  0.4084  0.6294  0.0569
 5463SOL     OW27317   8.940   9.454   4.585 -0.1743 -0.0508  0.0483
 5463SOL    HW127318   8.931   9.449   4.485 -1.4597 -0.4947  0.1715
 5463SOL    HW227319   8.893   9.535   4.619 -0.0588 -0.0994  0.3237
 5464SOL     OW27320   1.989   2.451   0.707  0.2686  0.7868  0.5100
 5464SOL    HW127321   2.035   2.526   0.659  2.1805  0.0633  1.1565
 5464SOL    HW227322   1.962   2.380   0.641  1.1006  0.7073  0.2553
 5465SOL     OW27323   3.872   1.339   5.059 -0.2420  0.4253  0.1779
 5465SOL    HW127324   3.787   1.389   5.041 -0.1691  0.6987  0.5873
 5465SOL    HW227325   3.926   1.389   5.127  0.1805  0.1782  0.0248
 5466SOL     OW27326   3.249   1.630   3.070 -0.2008 -0.0699  0.1196
 5466SOL    HW127327   3.331   1.666   3.027  0.5063  0.1744  1.6754
 5466SOL    HW227328   3.255   1.530   3.074  0.3167 -0.0136  0.8203
 5467SOL     OW27329   0.445   0.452   4.702  0.4617 -0.0092 -0.1815
 5467SOL    HW127330   0.381   0.375   4.696 -2.2390  1.9085  2.0314
 5467SOL    HW227331   0.418   0.522   4.636 -1.3115  1.8224  2.3782
 5468SOL     OW27332   4.274   2.848   1.050  0.4343  0.1726 -0.2997
 5468SOL    HW127333   4.363   2.804   1.035  1.0096  1.5929 -1.1232
 5468SOL    HW227334   4.222   2.795   1.117  1.6568 -1.0040 -0.2541
 5469SOL     OW27335   7.363   2.308   3.711 -0.3729 -0.2168  0.2538
 5469SOL    HW127336   7.317   2.390   3.746  1.4237  1.1351 -0.5033
 5469SOL    HW227337   7.414   2.265   3.786  1.0954  1.0403 -0.0037
 5470SOL     OW27338   3.047   9.596   5.044  0.0845  0.1150 -0.1966
 5470SOL    HW127339   2.985   9.596   4.966  0.8643 -0.2624 -0.8208
 5470SOL    HW227340   3.061   9.690   5.075 -1.3750  0.1463  0.4252
 5471SOL     OW27341   7.985   5.508   0.307 -0.0164  0.2588 -0.2465
 5471SOL    HW127342   7.989   5.608   0.317  1.4894  0.1685  0.2540
 5471SOL    HW227343   7.908   5.483   0.249 -0.3025  1.7286 -0.5203
 5472SOL     OW27344   9.341   8.965   1.857  0.1620 -0.1003 -0.2943
 5472SOL    HW127345   9.311   9.010   1.941  1.5701 -0.5458  0.4740
 5472SOL    HW227346   9.333   8.865   1.868 -1.8830 -0.1212 -1.5747
 5473SOL     OW27347   8.048   8.063   4.922 -0.1379  0.4104  0.2746
 5473SOL    HW127348   7.959   8.085   4.882 -0.5774  0.6783  1.3706
 5473SOL    HW227349   8.103   8.146   4.930  0.3414  0.1967 -0.6887
 5474SOL     OW27350   5.673   8.990   3.398  0.8084 -0.0276  0.1851
 5474SOL    HW127351   5.617   9.022   3.322  0.6112  1.6437  1.0016
 5474SOL    HW227352   5.687   9.065   3.463  1.6991 -1.1812  1.3616
 5475SOL     OW27353   8.865   6.312   4.781  0.0371  0.0199  0.3663
 5475SOL    HW127354   8.962   6.334   4.771  0.0119 -0.0968 -0.1800
 5475SOL    HW227355   8.855   6.216   4.808  0.0702  0.0203  0.3807
 5476SOL     OW27356   4.040   0.921   1.879  0.0040  0.2242 -0.1109
 5476SOL    HW127357   4.063   0.849   1.814  1.9452  1.4021 -0.7541
 5476SOL    HW227358   4.087   0.905   1.965 -2.2403 -1.1067  0.9025
 5477SOL     OW27359   3.031   7.166   1.201 -0.5075  0.6574 -0.1963
 5477SOL    HW127360   2.944   7.121   1.224  0.3411 -0.6339  0.5493
 5477SOL    HW227361   3.055   7.144   1.106 -0.5365  0.2503 -0.1118
 5478SOL     OW27362   8.710   3.061   0.310 -0.2045  0.0707 -0.0456
 5478SOL    HW127363   8.612   3.078   0.315  0.0754  2.0257 -0.5453
 5478SOL    HW227364   8.742   3.021   0.396 -1.2429  0.5659  0.5769
 5479SOL     OW27365   8.027   4.495   5.579 -0.0674 -0.2211  0.1447
 5479SOL    HW127366   8.087   4.415   5.566  1.4575  1.3083 -2.6920
 5479SOL    HW227367   8.043   4.534   5.670 -0.1973 -2.5989  1.2255
 5480SOL     OW27368   1.807   3.111   0.332  0.0115 -0.1969  0.1745
 5480SOL    HW127369   1.754   3.121   0.248 -1.1431 -0.5350  0.8476
 5480SOL    HW227370   1.744   3.095   0.409  1.0252  0.4928  1.1579
 5481SOL     OW27371   5.656   1.562   1.557 -0.3454 -0.1289  0.4449
 5481SOL    HW127372   5.609   1.560   1.644 -0.5539  0.7677  0.3638
 5481SOL    HW227373   5.635   1.479   1.505  0.5000 -1.0789  1.6118
 5482SOL     OW27374   0.765   0.568   2.177 -0.5938 -0.5619 -0.0948
 5482SOL    HW127375   0.796   0.486   2.225 -0.2582 -1.5982 -2.0078
 5482SOL    HW227376   0.843   0.613   2.135 -0.7302  0.9680  1.2546
 5483SOL     OW27377   5.264   8.318   4.138 -0.0749  0.6185 -0.3271
 5483SOL    HW127378   5.292   8.238   4.085 -1.3121 -0.2344  0.2825
 5483SOL    HW227379   5.292   8.401   4.091  3.5033 -0.1788  0.2734
 5484SOL     OW27380   9.420   0.119   5.140 -0.1324 -0.1332 -0.0602
 5484SOL    HW127381   9.350   0.141   5.208 -0.8281  2.0197 -1.4044
 5484SOL    HW227382   9.376   0.081   5.059  0.4942 -0.8454 -0.0736
 5485SOL     OW27383   9.356   6.205   3.189 -0.2176 -0.2420  0.0065
 5485SOL    HW127384   9.379   6.301   3.203 -1.4539  0.3271 -1.7149
 5485SOL    HW227385   9.324   6.166   3.276 -0.1520  1.0206  0.6088
 5486SOL     OW27386   4.953   8.449   4.431  0.5004 -0.3916 -0.0071
 5486SOL    HW127387   4.984   8.378   4.368  0.0726 -0.3177 -0.3052
 5486SOL    HW227388   4.855   8.438   4.448  0.1927  0.8141 -0.9569
 5487SOL     OW27389   8.471   6.109   4.578  0.3814 -0.3567  0.1596
 5487SOL    HW127390   8.424   6.147   4.498 -0.8465 -0.5188  0.7877
 5487SOL    HW227391   8.504   6.184   4.635  1.6410 -0.2384 -0.7052
 5488SOL     OW27392   6.161   9.106   2.154  0.1847 -0.5657 -0.5564
 5488SOL    HW127393   6.131   9.145   2.067 -0.5674 -2.0303 -0.9682
 5488SOL    HW227394   6.086   9.109   2.220  0.4022 -0.4937 -0.3132
 5489SOL     OW27395   4.657   6.706   2.338  0.8113  0.1455  0.1011
 5489SOL    HW127396   4.739   6.703   2.396  0.6021  0.4777  0.4218
 5489SOL    HW227397   4.587   6.646   2.376  1.0807 -0.5193 -0.4494
 5490SOL     OW27398   3.500   7.496   4.994  0.1812 -0.2242 -0.3340
 5490SOL    HW127399   3.600   7.496   4.999  0.2600 -0.2466 -1.8348
 5490SOL    HW227400   3.468   7.587   4.969 -0.2589  0.1073  1.3492
 5491SOL     OW27401   1.340   4.318   0.598  0.2867  0.7299 -0.4607
 5491SOL    HW127402   1.291   4.397   0.563  1.4371  1.0243 -1.3908
 5491SOL    HW227403   1.436   4.321   0.570  0.3511 -0.9866 -0.5228
 5492SOL     OW27404   1.521   8.437   5.400 -0.3560  0.1085 -0.3800
 5492SOL    HW127405   1.433   8.390   5.397 -0.3058  0.0093 -0.3365
 5492SOL    HW227406   1.508   8.532   5.427 -0.6084  0.4849 -1.7566
 5493SOL     OW27407   1.604   2.592   4.702  0.6447  0.2741 -0.4678
 5493SOL    HW127408   1.587   2.688   4.727  1.0516  0.2273 -0.0011
 5493SOL    HW227409   1.687   2.587   4.647  1.1474  0.0853  0.2963
 5494SOL     OW27410   1.057   5.787   4.530  0.2020  0.7744  0.2502
 5494SOL    HW127411   1.074   5.689   4.539  0.0901  0.8954  1.7935
 5494SOL    HW227412   0.973   5.812   4.577 -3.7032  0.4904 -5.9129
 5495SOL     OW27413   4.124   8.731   1.541 -0.5178  0.5492 -0.9225
 5495SOL    HW127414   4.137   8.666   1.466  0.0889 -0.4736  0.0628
 5495SOL    HW227415   4.071   8.688   1.613  2.5314  0.0568  1.1054
 5496SOL     OW27416   9.495   2.230   1.973  0.2531 -0.7184  0.3491
 5496SOL    HW127417   9.428   2.167   1.934 -0.2007 -0.3025  0.4487
 5496SOL    HW227418   9.573   2.178   2.008  0.6271 -1.1024 -1.0252
 5497SOL     OW27419   7.964   8.625   4.063 -0.5713 -0.4492  0.6151
 5497SOL    HW127420   7.877   8.670   4.080 -0.5113 -1.3435  3.4138
 5497SOL    HW227421   7.952   8.526   4.063 -0.0346 -0.5727 -1.9345
 5498SOL     OW27422   3.889   1.592   3.617 -0.2294  0.3492  0.5394
 5498SOL    HW127423   3.789   1.596   3.621 -0.3210 -0.9382 -0.1485
 5498SOL    HW227424   3.926   1.593   3.710 -0.9719 -0.9953  0.8684
 5499SOL     OW27425   0.815   2.320   0.351 -0.1582 -0.1398 -0.4201
 5499SOL    HW127426   0.797   2.406   0.304 -3.9288  0.4767  1.9145
 5499SOL    HW227427   0.854   2.338   0.441  2.1586 -1.0734 -1.1955
 5500SOL     OW27428   9.876   7.598   2.226 -0.6373 -0.4475 -0.4890
 5500SOL    HW127429   9.791   7.552   2.253 -0.5976 -0.4880 -0.4321
 5500SOL    HW227430   9.901   7.666   2.295 -0.1845 -1.0017 -0.1066
 5501SOL     OW27431   2.513   1.108   4.371 -0.2815 -0.0665  0.3304
 5501SOL    HW127432   2.509   1.208   4.380  0.0376  0.0174 -0.4212
 5501SOL    HW227433   2.603   1.081   4.337 -0.3828 -0.6075  0.4831
 5502SOL     OW27434   3.490   4.163   1.041 -0.7305 -0.5187 -0.3231
 5502SOL    HW127435   3.578   4.210   1.046 -1.3894  0.8146 -1.1842
 5502SOL    HW227436   3.421   4.214   1.093 -1.0447 -1.4559  0.1902
 5503SOL     OW27437   0.920   7.461   5.376  0.0920 -0.9151  0.4924
 5503SOL    HW127438   0.964   7.417   5.454  0.9818 -1.1502 -0.1364
 5503SOL    HW227439   0.900   7.392   5.306 -1.8414 -0.9253  1.0090
 5504SOL     OW27440   1.806   2.703   5.034 -0.2183 -0.1855 -0.5391
 5504SOL    HW127441   1.888   2.647   5.048 -0.6605 -1.0427 -1.2758
 5504SOL    HW227442   1.726   2.643   5.027 -0.4176  0.3352 -3.5662
 5505SOL     OW27443   3.524   8.695   3.683 -0.2614 -0.1668  0.5741
 5505SOL    HW127444   3.589   8.628   3.650  0.7468  1.3024 -0.4891
 5505SOL    HW227445   3.478   8.739   3.605  1.6874  2.8988  1.0658
 5506SOL     OW27446   8.806   1.993   0.894  0.1377 -0.3674 -0.3762
 5506SOL    HW127447   8.804   1.916   0.957  2.2374 -0.5617 -0.5411
 5506SOL    HW227448   8.797   2.078   0.946  0.3317 -0.6030  0.0427
 5507SOL     OW27449   8.654   6.554   4.195  0.2201 -0.5380  0.6227
 5507SOL    HW127450   8.696   6.503   4.120 -0.1656  1.0509 -0.7156
 5507SOL    HW227451   8.667   6.652   4.180 -1.1445 -0.1368  1.8833
 5508SOL     OW27452   3.627   1.433   5.011  0.5900 -0.1091  0.2623
 5508SOL    HW127453   3.620   1.532   5.006 -0.7080 -0.2162 -0.3327
 5508SOL    HW227454   3.613   1.393   4.920 -1.0665 -0.9298  0.8484
 5509SOL     OW27455   1.822   3.374   0.277  0.6252 -0.4996 -0.1006
 5509SOL    HW127456   1.881   3.372   0.197  1.1424 -0.6873  0.2857
 5509SOL    HW227457   1.819   3.283   0.320 -1.0602 -0.8642 -0.9257
 5510SOL     OW27458   1.098   3.427   0.935 -0.2400 -0.3312  0.1184
 5510SOL    HW127459   1.004   3.449   0.960 -0.8018 -1.9653 -0.4527
 5510SOL    HW227460   1.100   3.392   0.841  0.7094 -1.7405  0.6413
 5511SOL     OW27461   8.143   1.924   0.258 -0.4533 -0.4023 -0.2235
 5511SOL    HW127462   8.209   1.860   0.298  1.8900  1.7548 -0.5161
 5511SOL    HW227463   8.083   1.875   0.195  2.7689 -1.9464 -2.1980
 5512SOL     OW27464   9.097   7.692   3.645 -0.0759 -0.3712 -0.2436
 5512SOL    HW127465   9.183   7.715   3.598  0.2510 -0.2180  0.4304
 5512SOL    HW227466   9.021   7.699   3.580  0.1403  1.6591 -0.3015
 5513SOL     OW27467   9.845   4.686   1.496  0.0004 -0.1808 -0.2309
 5513SOL    HW127468   9.793   4.603   1.516  0.5880 -0.5807 -0.3836
 5513SOL    HW227469   9.836   4.708   1.398 -1.7754  1.0408  0.1591
 5514SOL     OW27470   3.039   6.687   0.838  0.0708  0.1700 -0.0026
 5514SOL    HW127471   3.055   6.735   0.924  2.3748  0.5986 -0.6352
 5514SOL    HW227472   3.068   6.592   0.847  0.9561  0.3850 -0.4850
 5515SOL     OW27473   0.227   0.930   2.002 -0.7189 -0.2800 -0.3147
 5515SOL    HW127474   0.304   0.901   2.058 -0.7382  3.4467  1.8025
 5515SOL    HW227475   0.248   0.916   1.906  2.0051 -0.6894  0.3109
 5516SOL     OW27476   3.218   0.552   4.629  0.0266 -0.3883 -0.2695
 5516SOL    HW127477   3.221   0.465   4.579 -2.1404 -0.3136 -0.5544
 5516SOL    HW227478   3.176   0.537   4.719  1.5282 -0.0115  0.5123
 5517SOL     OW27479   3.465   2.180   1.095 -0.2045  0.5834  0.2455
 5517SOL    HW127480   3.464   2.194   1.194  1.6067 -0.8831  0.5041
 5517SOL    HW227481   3.526   2.247   1.052  0.2093  0.2463  0.3025
 5518SOL     OW27482   8.695   3.608   4.987  0.5431  0.5115 -0.2875
 5518SOL    HW127483   8.712   3.649   5.077  2.6584  0.4354 -0.6191
 5518SOL    HW227484   8.721   3.512   4.990 -1.8327 -0.1651 -0.2837
 5519SOL     OW27485   6.008   8.711   3.927 -0.1920 -0.1200  0.5374
 5519SOL    HW127486   5.959   8.723   4.013  0.0841 -1.1258  0.8425
 5519SOL    HW227487   5.943   8.691   3.853 -0.2798 -1.1463  0.8829
 5520SOL     OW27488   8.321   1.526   4.022 -0.2158 -0.2628  0.4113
 5520SOL    HW127489   8.367   1.574   4.096  0.6479  1.0555 -0.9470
 5520SOL    HW227490   8.318   1.585   3.941 -0.0973 -2.0989 -0.9582
 5521SOL     OW27491   4.670   8.452   4.097  0.1600 -0.5577  0.7005
 5521SOL    HW127492   4.635   8.385   4.162 -1.6673 -1.9471 -1.6267
 5521SOL    HW227493   4.595   8.512   4.068  0.6796 -0.6472 -0.9012
 5522SOL     OW27494   2.237   1.025   5.539  0.2485  0.0575  0.0189
 5522SOL    HW127495   2.319   0.974   5.516 -0.4231 -0.7000 -0.7053
 5522SOL    HW227496   2.205   0.999   5.630  0.6537  0.1662  0.1940
 5523SOL     OW27497   0.098   7.708   4.408  0.2732 -0.0521  1.1404
 5523SOL    HW127498   0.055   7.621   4.434 -2.0203  0.2923 -1.2784
 5523SOL    HW227499   0.075   7.778   4.476 -1.8580 -0.2184  0.6247
 5524SOL     OW27500   0.845   1.373   0.822 -0.0136 -0.1488 -0.3348
 5524SOL    HW127501   0.828   1.453   0.878  0.0756 -0.4116  0.0659
 5524SOL    HW227502   0.891   1.302   0.876  0.9127 -0.0499 -0.9714
 5525SOL     OW27503   8.476   3.986   4.255 -0.1468  0.1675 -0.3156
 5525SOL    HW127504   8.564   4.022   4.284 -0.8988  0.0618  2.2181
 5525SOL    HW227505   8.410   4.061   4.245 -0.3832  0.0171  0.0857
 5526SOL     OW27506   2.533   8.691   3.490  0.1801 -0.0988  0.1042
 5526SOL    HW127507   2.567   8.757   3.556 -0.4166  0.2766  0.0325
 5526SOL    HW227508   2.542   8.598   3.528  1.6580 -0.0415 -0.0742
 5527SOL     OW27509   8.695   4.471   3.497  0.9222 -0.3496 -0.0541
 5527SOL    HW127510   8.734   4.538   3.434  0.7683  0.6412  0.8872
 5527SOL    HW227511   8.598   4.491   3.512  0.9735 -0.5344  0.5548
 5528SOL     OW27512   3.130   7.839   2.578  0.5879  0.0298  0.4919
 5528SOL    HW127513   3.229   7.848   2.592  0.5642 -1.4968  1.8557
 5528SOL    HW227514   3.109   7.845   2.481  2.2025 -1.1602  0.0461
 5529SOL     OW27515   9.508   3.268   0.041  0.9207 -0.5251 -0.5011
 5529SOL    HW127516   9.435   3.243   0.105  0.6651 -0.0196 -0.5915
 5529SOL    HW227517   9.545   3.185  -0.001  1.6543 -0.9232  0.9051
 5530SOL     OW27518   2.602   5.521   0.140 -0.0280 -0.1582  0.6312
 5530SOL    HW127519   2.514   5.476   0.125 -1.7137  2.5134  2.1367
 5530SOL    HW227520   2.639   5.552   0.052 -0.6266 -1.2051 -0.0007
 5531SOL     OW27521   0.811   3.785   3.967 -0.4313 -0.4888 -0.0893
 5531SOL    HW127522   0.774   3.693   3.983  0.9991 -1.0578  0.0284
 5531SOL    HW227523   0.907   3.787   3.993 -0.2593  0.8530 -0.7911
 5532SOL     OW27524   8.569   6.024   2.256 -0.0646  0.0630  0.0513
 5532SOL    HW127525   8.519   5.943   2.226 -0.7109  0.1745  0.8091
 5532SOL    HW227526   8.581   6.086   2.178  1.0716 -1.0620 -0.7056
 5533SOL     OW27527   3.603   2.866   0.323  0.1230  0.4022 -0.5219
 5533SOL    HW127528   3.529   2.901   0.266 -0.2750  0.5821  0.1011
 5533SOL    HW227529   3.598   2.766   0.325 -0.1456  0.4150 -0.4332
 5534SOL     OW27530   7.844   0.916   2.983  0.1572 -0.2531 -0.1160
 5534SOL    HW127531   7.917   0.970   3.027  0.9029 -0.1953 -1.3854
 5534SOL    HW227532   7.852   0.926   2.884 -0.8001 -1.2898 -0.2949
 5535SOL     OW27533   1.563   4.464   5.097 -0.1047  0.5734  0.6739
 5535SOL    HW127534   1.643   4.408   5.079 -1.7542 -1.8540  0.6413
 5535SOL    HW227535   1.575   4.514   5.183  2.5367  2.3625 -0.6899
 5536SOL     OW27536   2.085   9.221   5.249  0.0467  0.1089  0.0079
 5536SOL    HW127537   2.127   9.224   5.158 -0.2837 -1.8331 -0.2454
 5536SOL    HW227538   2.155   9.233   5.319  0.7231 -1.0098 -0.4637
 5537SOL     OW27539   4.681   0.969   5.022 -0.4962 -0.2338  0.4750
 5537SOL    HW127540   4.702   0.873   5.006  0.1997  0.1616 -1.1422
 5537SOL    HW227541   4.749   1.008   5.084 -0.3709 -0.6233  0.5844
 5538SOL     OW27542   2.318   3.057   1.925 -0.0700  0.0620 -0.7920
 5538SOL    HW127543   2.293   3.151   1.904  0.0966  0.0694 -0.9593
 5538SOL    HW227544   2.258   3.022   1.997 -0.0494  0.3380 -0.6392
 5539SOL     OW27545   3.656   0.624   4.835  0.1302 -0.0812 -0.2367
 5539SOL    HW127546   3.680   0.655   4.743 -0.0063 -0.3561 -0.3647
 5539SOL    HW227547   3.597   0.543   4.830 -0.4074  0.2805  0.0817
 5540SOL     OW27548   3.692   9.071   2.550  0.5470 -0.1102  0.4677
 5540SOL    HW127549   3.715   9.067   2.648 -0.2734 -0.6832  0.6411
 5540SOL    HW227550   3.603   9.116   2.539  0.9670  0.5965 -0.0736
 5541SOL     OW27551   5.269   4.254   5.386 -0.2876 -0.6126  0.1170
 5541SOL    HW127552   5.245   4.332   5.443 -0.4559 -1.5055  1.2815
 5541SOL    HW227553   5.359   4.269   5.346 -0.4605  0.3251  0.0650
 5542SOL     OW27554   4.451   2.099   4.679  0.2764 -0.6662 -0.3798
 5542SOL    HW127555   4.394   2.132   4.754  2.2472 -0.2077  0.9517
 5542SOL    HW227556   4.482   2.006   4.698  3.5885  0.6398  1.1106
 5543SOL     OW27557   0.638   6.981   1.488 -0.0413  0.5179 -0.9802
 5543SOL    HW127558   0.669   7.030   1.407 -2.5847  0.2173 -2.1609
 5543SOL    HW227559   0.567   7.034   1.535  1.6315  0.8519  1.2754
 5544SOL     OW27560   0.195   0.206   1.346  0.2648 -0.3012 -0.1572
 5544SOL    HW127561   0.245   0.219   1.432  0.0373 -2.2123  0.2893
 5544SOL    HW227562   0.110   0.158   1.364  0.3317 -0.9477 -1.5053
 5545SOL     OW27563   8.749   8.754   1.785  0.3663  0.6241 -0.0694
 5545SOL    HW127564   8.836   8.759   1.736  1.1879 -0.8187  1.2067
 5545SOL    HW227565   8.762   8.782   1.880  0.0667 -2.2994  0.8691
 5546SOL     OW27566   5.476   9.139   4.979  0.2632  0.4513 -0.5723
 5546SOL    HW127567   5.434   9.209   4.921  0.6496  1.7686  0.6851
 5546SOL    HW227568   5.567   9.115   4.943  0.1984  0.7229 -0.9155
 5547SOL     OW27569   0.021   1.201   5.529  0.0534 -0.3459 -0.0693
 5547SOL    HW127570   0.082   1.179   5.606 -0.2679  0.1609  0.3290
 5547SOL    HW227571   0.020   1.124   5.465 -0.2523 -1.0731  0.7992
 5548SOL     OW27572   8.166   4.607   2.330  0.1969  0.3971  0.0534
 5548SOL    HW127573   8.229   4.621   2.406 -0.8369  0.9116  0.8257
 5548SOL    HW227574   8.100   4.536   2.353 -0.7275  1.2379  0.0285
 5549SOL     OW27575   7.802   2.976   1.025  0.0320  0.1376  0.1989
 5549SOL    HW127576   7.762   2.993   0.934  0.1057 -0.4342  0.0548
 5549SOL    HW227577   7.813   3.063   1.073  1.2329  0.5983 -0.8611
 5550SOL     OW27578   2.139   1.052   4.630  0.2272  0.1849  0.1399
 5550SOL    HW127579   2.124   0.955   4.647  0.8833 -0.3678 -2.1461
 5550SOL    HW227580   2.162   1.099   4.715  0.6423 -1.8168  1.1484
 5551SOL     OW27581   4.143   3.853   1.292  0.4214  0.2991  0.0059
 5551SOL    HW127582   4.064   3.893   1.247  0.7175  0.7570 -0.1095
 5551SOL    HW227583   4.167   3.766   1.248 -1.1346 -0.7601  1.2043
 5552SOL     OW27584   7.778   7.515   4.314 -0.5798  0.0712  0.4379
 5552SOL    HW127585   7.831   7.569   4.249  0.4950 -1.9123 -0.3562
 5552SOL    HW227586   7.699   7.474   4.268  1.1796 -2.8254 -0.1263
 5553SOL     OW27587   1.938   6.783   1.462 -0.1483  0.8068 -0.0722
 5553SOL    HW127588   2.002   6.706   1.465  0.0541  0.9938  0.5670
 5553SOL    HW227589   1.986   6.867   1.488 -0.2859  1.2083 -1.1057
 5554SOL     OW27590   0.952   4.860   4.263 -0.2882 -0.1957 -0.2571
 5554SOL    HW127591   0.855   4.881   4.280  0.4014  2.4873  0.6436
 5554SOL    HW227592   0.961   4.817   4.173 -2.4724 -1.8988  0.2880
 5555SOL     OW27593   0.319   1.982   4.368  0.2498 -0.4445  0.5765
 5555SOL    HW127594   0.271   1.922   4.431  0.4833  0.0380  1.2126
 5555SOL    HW227595   0.404   2.013   4.409  0.8708 -0.8875 -0.3465
 5556SOL     OW27596   2.324   5.235   3.665  0.1931  0.8582  0.0537
 5556SOL    HW127597   2.424   5.234   3.665  0.1941  0.7650  0.9144
 5556SOL    HW227598   2.291   5.328   3.678  0.1629  0.9139 -0.3970
 5557SOL     OW27599   4.882   4.605   0.978  0.2862 -0.3781  0.2580
 5557SOL    HW127600   4.939   4.640   0.903  1.0392 -0.7688  0.6434
 5557SOL    HW227601   4.853   4.512   0.958  0.9115 -0.6659  0.6865
 5558SOL     OW27602   1.779   4.357   4.934  0.4416 -0.0846 -0.4470
 5558SOL    HW127603   1.819   4.266   4.940  1.0482  0.2457  0.6200
 5558SOL    HW227604   1.826   4.409   4.862  0.9899 -0.1687 -0.1489
 5559SOL     OW27605   0.448   6.343   3.570 -0.3276 -0.6480  0.4048
 5559SOL    HW127606   0.414   6.285   3.496 -1.7763 -1.3957  1.6340
 5559SOL    HW227607   0.542   6.315   3.593 -0.4635 -1.5063 -0.0539
 5560SOL     OW27608   3.237   2.489   3.514  0.3411  0.0936  0.6043
 5560SOL    HW127609   3.235   2.587   3.495  1.0620  0.1310  0.7167
 5560SOL    HW227610   3.172   2.442   3.454  2.1946  0.2641 -1.5981
 5561SOL     OW27611   5.116   1.772   0.756 -0.8313  0.5380 -0.1862
 5561SOL    HW127612   5.142   1.864   0.725  0.5938 -0.0256 -0.7071
 5561SOL    HW227613   5.181   1.740   0.824  0.0163 -0.9883 -1.6670
 5562SOL     OW27614   5.120   3.206   2.406  0.0790  0.2735 -0.0267
 5562SOL    HW127615   5.130   3.305   2.418 -1.1680  0.4818 -0.5877
 5562SOL    HW227616   5.024   3.180   2.417  0.4007 -0.8808  0.1451
 5563SOL     OW27617   2.228   7.028   1.230 -0.4536  0.0766  0.3386
 5563SOL    HW127618   2.195   7.101   1.170  1.6032 -0.0258 -0.9607
 5563SOL    HW227619   2.324   7.009   1.210 -0.3340 -1.4603  2.2027
 5564SOL     OW27620   8.449   6.014   3.216 -0.6564 -0.3850  0.0545
 5564SOL    HW127621   8.508   6.057   3.284 -0.2079 -0.6822 -0.1428
 5564SOL    HW227622   8.418   6.083   3.151 -1.6736  0.0355  0.9734
 5565SOL     OW27623   9.946   9.607   0.681  0.2357 -1.2240  0.0290
 5565SOL    HW127624  10.029   9.631   0.630  0.2130 -0.1790  0.4889
 5565SOL    HW227625   9.869   9.600   0.618 -0.0215  1.1318  0.0453
 5566SOL     OW27626   7.323   6.942   3.325  0.4766 -0.0072  0.1728
 5566SOL    HW127627   7.382   6.870   3.362 -1.7767 -1.8569  0.2944
 5566SOL    HW227628   7.340   7.028   3.373  1.5398 -1.0261  1.6494
 5567SOL     OW27629   4.172   3.699   3.529 -0.2910  0.1190 -0.0013
 5567SOL    HW127630   4.229   3.747   3.595 -0.5332  2.9861 -1.8153
 5567SOL    HW227631   4.172   3.601   3.550  2.3575  0.5353  2.1784
 5568SOL     OW27632   8.034   0.821   1.729  0.1295  0.0609  0.0180
 5568SOL    HW127633   8.079   0.736   1.703 -1.1211 -0.4925 -0.3274
 5568SOL    HW227634   7.958   0.801   1.791  0.8333  1.0623  1.2358
 5569SOL     OW27635   6.090   0.507   4.193 -0.1428  0.3350 -0.6489
 5569SOL    HW127636   6.066   0.601   4.166  1.4780  0.9802  0.0843
 5569SOL    HW227637   6.121   0.457   4.113 -2.1569  0.0404 -1.2699
 5570SOL     OW27638   4.821   7.197   3.216  0.4513  0.1611  0.3264
 5570SOL    HW127639   4.870   7.191   3.129  0.7353  0.7593  0.4438
 5570SOL    HW227640   4.733   7.152   3.207 -0.2198  1.6369 -0.7611
 5571SOL     OW27641   7.722   6.638   3.315  0.3353  0.0940  0.8285
 5571SOL    HW127642   7.787   6.693   3.368  0.9539  0.0864  0.0870
 5571SOL    HW227643   7.755   6.544   3.308 -0.9232 -0.4947  2.4396
 5572SOL     OW27644   7.961   0.373   0.333 -0.5097  0.6116  0.4887
 5572SOL    HW127645   7.887   0.406   0.391 -0.4111  1.5562  0.0913
 5572SOL    HW227646   7.940   0.392   0.237  0.3746  1.1751  0.3919
 5573SOL     OW27647   0.736   9.029   0.166  0.4002  0.1049  0.1657
 5573SOL    HW127648   0.704   9.023   0.260  2.0815 -0.9742  0.6845
 5573SOL    HW227649   0.669   8.987   0.105  0.3474 -1.2079  1.1256
 5574SOL     OW27650   2.873   9.212   3.964 -0.1066  0.6283  0.2388
 5574SOL    HW127651   2.854   9.115   3.977  5.0906 -0.6369 -0.4040
 5574SOL    HW227652   2.903   9.228   3.869 -1.3678  2.9472  0.2019
 5575SOL     OW27653   7.028   1.272   4.747 -0.1035  0.4095 -0.5115
 5575SOL    HW127654   7.076   1.321   4.675  0.8672  0.2502  0.0282
 5575SOL    HW227655   7.068   1.294   4.836 -0.3929 -0.4768 -0.1547
 5576SOL     OW27656   4.568   2.182   4.031  0.7160 -0.1569 -0.3913
 5576SOL    HW127657   4.600   2.262   4.082 -0.5787 -0.9716  1.7505
 5576SOL    HW227658   4.473   2.195   4.004  0.7538 -0.6187 -0.7464
 5577SOL     OW27659   0.319   7.626   1.094 -0.4803  0.1221 -0.1396
 5577SOL    HW127660   0.303   7.528   1.083 -0.3267 -0.1367  1.7779
 5577SOL    HW227661   0.345   7.665   1.006  2.7870 -2.1974 -0.3100
 5578SOL     OW27662   9.098   8.757   1.221  0.0260  0.5803  0.4922
 5578SOL    HW127663   9.163   8.827   1.251 -0.1442  0.4060  1.2904
 5578SOL    HW227664   9.130   8.716   1.136  0.4665  1.1689  0.3714
 5579SOL     OW27665   2.302   3.607   1.922  0.0373 -0.1742  0.0053
 5579SOL    HW127666   2.316   3.704   1.941  1.3793 -0.4213  0.3121
 5579SOL    HW227667   2.362   3.552   1.979 -0.0301 -1.1539 -0.8412
 5580SOL     OW27668   7.465   8.818   4.190  0.3407 -0.2576 -0.1945
 5580SOL    HW127669   7.529   8.793   4.262  0.2389 -0.2089 -0.0861
 5580SOL    HW227670   7.454   8.917   4.188  0.2921 -0.2641 -0.2301
 5581SOL     OW27671   1.989   8.505   5.217  0.4343  0.0429  0.2739
 5581SOL    HW127672   2.040   8.591   5.207  1.0117 -0.4981 -1.7687
 5581SOL    HW227673   1.892   8.522   5.203  0.6263  0.2624 -0.8479
 5582SOL     OW27674   4.236   1.030   3.800 -0.4836 -0.3971  0.1488
 5582SOL    HW127675   4.249   1.124   3.832  1.5777 -1.0572  1.3246
 5582SOL    HW227676   4.297   1.012   3.723 -1.4971 -0.5206 -0.6340
 5583SOL     OW27677   7.608   0.202   4.296  0.0232 -0.0359 -0.4713
 5583SOL    HW127678   7.535   0.163   4.351  0.6648  0.5120  0.8003
 5583SOL    HW227679   7.697   0.171   4.332  0.4994  1.7103 -0.1084
 5584SOL     OW27680   8.452   2.261   5.101  0.1341 -0.1075  0.5569
 5584SOL    HW127681   8.417   2.173   5.133 -0.6751 -0.2094 -0.5910
 5584SOL    HW227682   8.514   2.246   5.025 -0.6023  0.3584 -0.1432
 5585SOL     OW27683   0.948   7.450   3.807 -0.5049 -0.0913 -0.1400
 5585SOL    HW127684   0.944   7.368   3.863 -0.6390 -0.0199 -0.0453
 5585SOL    HW227685   0.887   7.520   3.845 -1.2566 -0.3483 -0.8649
 5586SOL     OW27686   2.042   2.952   4.848  0.4419  0.2646 -0.2431
 5586SOL    HW127687   2.077   3.029   4.794  1.7322 -0.1022  0.0486
 5586SOL    HW227688   1.988   2.988   4.925  1.1899  0.8931 -0.0004
 5587SOL     OW27689   4.347   4.226   3.243 -0.4959  0.2090 -0.4398
 5587SOL    HW127690   4.349   4.139   3.291 -0.2424  1.0345  1.0704
 5587SOL    HW227691   4.389   4.215   3.153  0.7964 -0.9010  0.2743
 5588SOL     OW27692   8.351   5.721   4.638  0.2819  0.0191  0.7433
 5588SOL    HW127693   8.425   5.763   4.692 -0.4470  1.4780  0.6514
 5588SOL    HW227694   8.274   5.785   4.633 -0.1855 -0.6520 -0.8908
 5589SOL     OW27695   7.861   4.069   4.261 -0.1524  0.2356  0.5742
 5589SOL    HW127696   7.953   4.032   4.265 -1.3838 -2.9460  0.4910
 5589SOL    HW227697   7.857   4.141   4.192  1.9203 -0.6086 -0.4501
 5590SOL     OW27698   3.624   9.919   3.062  0.0381 -0.6336 -0.1432
 5590SOL    HW127699   3.619  10.015   3.034 -1.9595 -0.1990  1.5933
 5590SOL    HW227700   3.690   9.871   3.004  0.5455  1.6141 -1.4927
 5591SOL     OW27701   6.621   4.281   0.122  0.4774  0.1658 -0.0439
 5591SOL    HW127702   6.674   4.362   0.148 -0.4159  0.6479  0.3183
 5591SOL    HW227703   6.606   4.224   0.203 -1.4976  1.1916  0.3633
 5592SOL     OW27704   1.814   4.764   1.890 -0.5515  0.1630  0.5465
 5592SOL    HW127705   1.914   4.764   1.892 -0.5196 -0.0336 -0.6019
 5592SOL    HW227706   1.780   4.671   1.899 -0.5315 -0.1244 -1.8303
 5593SOL     OW27707   5.512   8.367   3.874 -0.2443  0.2925  0.2250
 5593SOL    HW127708   5.436   8.309   3.843 -0.0442 -0.7238  1.5766
 5593SOL    HW227709   5.597   8.332   3.834 -0.1403 -0.2750  0.9331
 5594SOL     OW27710   3.552   8.549   0.995  0.0667 -0.2340  0.2883
 5594SOL    HW127711   3.541   8.498   0.910  2.0373  1.9162 -1.3034
 5594SOL    HW227712   3.496   8.506   1.067 -2.6673 -1.2940 -2.3669
 5595SOL     OW27713   4.566   4.451   4.984  0.2598 -0.3962  0.4992
 5595SOL    HW127714   4.587   4.500   4.899 -3.0601 -0.2076 -0.2600
 5595SOL    HW227715   4.554   4.516   5.058  2.3532 -0.5134  0.9696
 5596SOL     OW27716   3.246   1.233   5.605  0.3210  0.5397 -0.4098
 5596SOL    HW127717   3.211   1.302   5.542 -0.7205  0.1194 -0.3010
 5596SOL    HW227718   3.170   1.185   5.647  1.0123  0.6084  0.9510
 5597SOL     OW27719   2.229   9.700   2.249 -0.9636 -0.2485 -0.5958
 5597SOL    HW127720   2.322   9.716   2.214 -1.5293 -1.2915 -2.6607
 5597SOL    HW227721   2.223   9.609   2.289 -0.7999  0.2695  0.6350
 5598SOL     OW27722   9.262   3.685   0.440 -0.8711  0.0176  0.1015
 5598SOL    HW127723   9.302   3.593   0.436  0.1162  0.5140 -2.3179
 5598SOL    HW227724   9.329   3.749   0.476 -0.6453  0.2516 -0.7299
 5599SOL     OW27725   0.166   5.297   1.142 -0.0806  0.0565  0.2823
 5599SOL    HW127726   0.234   5.280   1.213  0.5046 -2.2668 -0.7916
 5599SOL    HW227727   0.088   5.235   1.155 -0.6792  0.6957 -0.1883
 5600SOL     OW27728   3.943   1.047   4.540  0.1618  0.5259  0.2289
 5600SOL    HW127729   3.930   1.001   4.452  3.4190  1.1575 -0.6550
 5600SOL    HW227730   4.032   1.023   4.578 -0.0251  2.4681  1.9953
 5601SOL     OW27731   1.091   3.905   5.639  0.0373  0.1642  0.5619
 5601SOL    HW127732   1.111   3.891   5.542 -1.1879 -0.7661  0.4323
 5601SOL    HW227733   1.172   3.941   5.685  1.1632 -1.0212 -0.4586
 5602SOL     OW27734   2.764   8.745   3.812 -0.4964 -0.1289 -0.7849
 5602SOL    HW127735   2.864   8.750   3.803 -0.1609  0.4593  2.3791
 5602SOL    HW227736   2.737   8.651   3.830 -0.4827 -0.2305 -1.2841
 5603SOL     OW27737   6.064   8.696   2.488 -0.0053 -0.4980 -0.6424
 5603SOL    HW127738   5.985   8.747   2.522 -1.2720 -1.7947 -1.6011
 5603SOL    HW227739   6.084   8.620   2.550  2.5748  1.7494  1.3924
 5604SOL     OW27740   9.793   5.838   0.041  0.1296 -0.4565  0.1456
 5604SOL    HW127741   9.876   5.784   0.051  1.3030  1.1600 -0.6831
 5604SOL    HW227742   9.809   5.931   0.075 -1.5662 -0.3421  0.6729
 5605SOL     OW27743   8.819   0.622   1.376 -0.1947 -0.1407  0.6491
 5605SOL    HW127744   8.770   0.539   1.353 -0.7933 -0.4857  3.0284
 5605SOL    HW227745   8.762   0.680   1.435  0.8880  1.1070  0.5064
 5606SOL     OW27746   0.050   2.228   0.905  0.0432  0.2912 -0.4845
 5606SOL    HW127747   0.072   2.240   0.808  0.8623  1.6144 -0.1478
 5606SOL    HW227748  -0.050   2.230   0.916 -0.0262  1.1490 -1.1840
 5607SOL     OW27749   2.839   6.980   4.829 -0.0065  0.1592 -0.1253
 5607SOL    HW127750   2.769   7.014   4.891  0.8731  1.3527  0.2232
 5607SOL    HW227751   2.812   6.998   4.734 -0.0566  0.8164  0.0172
 5608SOL     OW27752   1.501   0.809   2.678  0.4922  0.5820 -0.5272
 5608SOL    HW127753   1.510   0.729   2.737 -0.0632  0.4738 -0.5888
 5608SOL    HW227754   1.531   0.890   2.727  0.7035  0.3900 -0.3375
 5609SOL     OW27755   9.471   7.174   2.539  0.1187 -0.5751  0.5833
 5609SOL    HW127756   9.566   7.147   2.524  0.9954  2.3998  0.4502
 5609SOL    HW227757   9.420   7.166   2.454  0.3612 -1.6349  0.5225
 5610SOL     OW27758   9.453   9.716   5.412  0.6775 -0.3655 -0.1059
 5610SOL    HW127759   9.428   9.650   5.341 -1.1496  1.6618 -1.4150
 5610SOL    HW227760   9.378   9.723   5.478  0.8960  0.3557  0.0634
 5611SOL     OW27761   1.769   8.334   4.972  0.2162 -0.1707 -0.2234
 5611SOL    HW127762   1.815   8.260   5.020 -1.3554  0.2905  2.0725
 5611SOL    HW227763   1.705   8.296   4.905  0.7306 -0.8330 -0.3470
 5612SOL     OW27764   1.992   7.034   3.671 -0.2233 -0.5756  0.1237
 5612SOL    HW127765   2.071   7.059   3.615 -0.3698  1.5062  0.7731
 5612SOL    HW227766   2.023   6.992   3.756  0.2363  0.8046  0.6531
 5613SOL     OW27767   9.076   1.181   3.226 -0.0100  0.6838  0.1345
 5613SOL    HW127768   9.160   1.131   3.247 -0.5206 -0.9598 -1.6339
 5613SOL    HW227769   9.040   1.222   3.310  0.4821 -1.8228  1.6270
 5614SOL     OW27770   0.734   6.500   1.085 -0.2230 -0.2935  0.1552
 5614SOL    HW127771   0.711   6.541   0.997 -1.1444  0.0512  0.5502
 5614SOL    HW227772   0.780   6.569   1.142  0.0056 -0.3968  0.0981
 5615SOL     OW27773   6.641   7.325   2.432 -0.0589  0.4462 -0.0175
 5615SOL    HW127774   6.555   7.342   2.385  1.0540 -0.4280 -2.4251
 5615SOL    HW227775   6.659   7.227   2.435  0.4441  0.5665  1.2474
 5616SOL     OW27776   0.858   6.344   5.611  0.0932  0.1107 -0.2061
 5616SOL    HW127777   0.864   6.248   5.582  0.3239 -0.1420  0.6644
 5616SOL    HW227778   0.762   6.370   5.621 -0.0270  0.6019 -2.5033
 5617SOL     OW27779   4.403   8.704   4.691 -0.0924  0.0662 -0.1644
 5617SOL    HW127780   4.486   8.690   4.637  0.9236  0.0424  1.3649
 5617SOL    HW227781   4.330   8.645   4.656  0.2386  0.7873 -2.1126
 5618SOL     OW27782   9.986   1.652   2.699  0.2803  0.1097 -0.6414
 5618SOL    HW127783   9.983   1.737   2.647  1.2161  1.1141  0.8994
 5618SOL    HW227784  10.077   1.640   2.738 -0.2695 -0.8368  0.3890
 5619SOL     OW27785   0.077   8.296   1.547 -0.0689 -0.0607 -0.1805
 5619SOL    HW127786   0.148   8.249   1.496  0.1730 -1.0470  1.0543
 5619SOL    HW227787   0.096   8.394   1.548 -0.0664 -0.0178 -1.9376
 5620SOL     OW27788   4.750   0.855   4.697  0.3367 -0.5365  0.2430
 5620SOL    HW127789   4.807   0.861   4.615 -0.5906  0.5059 -0.3516
 5620SOL    HW227790   4.808   0.845   4.777  1.2644 -1.4680 -0.5270
 5621SOL     OW27791   9.848   5.873   2.063 -0.1043  0.2937 -0.7150
 5621SOL    HW127792   9.864   5.777   2.038 -0.3080  0.0155  0.1795
 5621SOL    HW227793   9.798   5.876   2.150 -0.6673  1.2048 -1.0675
 5622SOL     OW27794   2.375   5.816   0.980 -0.0328  0.4844  0.2019
 5622SOL    HW127795   2.385   5.844   1.076 -1.4307 -0.2868  0.5992
 5622SOL    HW227796   2.347   5.894   0.925 -0.3087  0.6949  0.6386
 5623SOL     OW27797   6.798   0.910   5.008  0.0572 -0.0242 -0.1319
 5623SOL    HW127798   6.897   0.925   5.004  0.2572 -1.1486  0.6179
 5623SOL    HW227799   6.775   0.855   5.089 -1.1481 -0.0403 -0.4735
 5624SOL     OW27800   3.972   2.872   2.339 -0.0748 -0.1936  0.6529
 5624SOL    HW127801   4.062   2.901   2.306  0.4731 -0.3938  1.9809
 5624SOL    HW227802   3.903   2.938   2.308 -0.1908 -2.3189 -4.2163
 5625SOL     OW27803   3.787   3.926   0.556 -0.2163 -0.1673 -0.4257
 5625SOL    HW127804   3.837   4.010   0.534 -0.0806  0.0256  0.5677
 5625SOL    HW227805   3.693   3.934   0.523 -0.6618  1.0504  1.0586
 5626SOL     OW27806   2.108   8.343   1.919  0.0619 -0.1603  0.3329
 5626SOL    HW127807   2.202   8.309   1.924  0.5099  0.9070 -0.5805
 5626SOL    HW227808   2.056   8.287   1.854  0.4565  0.1207 -0.2276
 5627SOL     OW27809   0.847   4.109   2.316  0.7471  0.1094 -0.4769
 5627SOL    HW127810   0.905   4.182   2.281  0.3755  2.0079  2.6071
 5627SOL    HW227811   0.752   4.125   2.288  0.6509  0.9046  0.2752
 5628SOL     OW27812   0.815   5.367   0.055  0.6145  0.0205 -0.2710
 5628SOL    HW127813   0.907   5.360   0.094  1.0281 -0.3791 -1.2994
 5628SOL    HW227814   0.798   5.287  -0.003 -0.0740  0.5096 -0.7448
 5629SOL     OW27815   1.424   9.220   2.543 -0.3671 -0.2008  0.0140
 5629SOL    HW127816   1.455   9.276   2.620  0.3191  0.2623 -0.5904
 5629SOL    HW227817   1.387   9.134   2.577 -1.4649  0.6369  0.9579
 5630SOL     OW27818   1.402   7.994   5.337 -0.0052  0.2167 -0.0476
 5630SOL    HW127819   1.345   7.913   5.346 -0.1576  0.3501  0.2227
 5630SOL    HW227820   1.389   8.053   5.417 -0.7115  1.0217 -0.7415
 5631SOL     OW27821   1.057   7.475   0.721 -0.0765 -0.1114 -0.9667
 5631SOL    HW127822   1.059   7.566   0.679 -0.1478  0.0436 -0.6376
 5631SOL    HW227823   1.137   7.423   0.693  0.5934  0.4837 -0.1991
 5632SOL     OW27824   2.326   5.046   0.518 -0.4643 -0.5745  0.4540
 5632SOL    HW127825   2.282   5.135   0.506  0.4847 -0.5573 -3.8405
 5632SOL    HW227826   2.258   4.979   0.548 -2.1328  0.7200 -0.3536
 5633SOL     OW27827   6.545   8.120   3.359 -0.1513 -0.3536 -1.0331
 5633SOL    HW127828   6.594   8.036   3.339 -1.8092 -1.2770 -1.2965
 5633SOL    HW227829   6.516   8.119   3.455 -0.4456 -0.2133 -1.1216
 5634SOL     OW27830   4.481   9.983   3.058 -0.2829 -0.4351  0.6256
 5634SOL    HW127831   4.443  10.032   2.980  0.0896 -0.4777  0.4153
 5634SOL    HW227832   4.436  10.013   3.142  0.7884  1.1759  0.6454
 5635SOL     OW27833   1.965   7.693   5.617  0.2015  0.1433  0.7055
 5635SOL    HW127834   1.955   7.774   5.559 -0.4571 -0.3908  0.0656
 5635SOL    HW227835   1.894   7.694   5.687 -0.4571 -0.4084  0.0549
 5636SOL     OW27836   3.091   1.041   2.111 -0.0014  0.0001  0.1281
 5636SOL    HW127837   3.148   1.006   2.036 -0.3638 -0.9860  0.3034
 5636SOL    HW227838   3.147   1.052   2.193  0.1570  0.0308  0.0153
 5637SOL     OW27839   0.787   9.537   0.715  0.7295 -0.0325 -0.1491
 5637SOL    HW127840   0.745   9.605   0.655 -1.6264 -1.5088 -0.2680
 5637SOL    HW227841   0.848   9.478   0.661  1.5007  0.9326 -0.3511
 5638SOL     OW27842   9.106   6.791   5.010 -0.1299  0.3525  0.0206
 5638SOL    HW127843   9.092   6.700   4.971 -0.5105  0.4830 -0.1558
 5638SOL    HW227844   9.024   6.818   5.061 -0.1627  0.7554 -0.2456
 5639SOL     OW27845   3.007   6.661   2.697 -0.5049 -0.4157  0.1048
 5639SOL    HW127846   3.073   6.713   2.642 -0.4324 -0.0613  0.5222
 5639SOL    HW227847   2.915   6.674   2.660 -0.5656  0.4774  0.5406
 5640SOL     OW27848   9.181   4.495   2.242  0.4603  0.0624  0.1727
 5640SOL    HW127849   9.105   4.431   2.228  1.0484 -0.5672 -0.1824
 5640SOL    HW227850   9.212   4.489   2.337  0.1042  0.2790  0.3037
 5641SOL     OW27851   7.814   9.897   4.363 -0.0324 -1.0431  0.4404
 5641SOL    HW127852   7.835   9.991   4.388 -0.1043 -1.2035  1.1176
 5641SOL    HW227853   7.886   9.837   4.398  1.5502 -0.9322 -2.5086
 5642SOL     OW27854   4.086   0.523   4.307 -0.2502  0.2771 -0.2736
 5642SOL    HW127855   4.047   0.441   4.264  0.3741 -0.1062 -0.1288
 5642SOL    HW227856   4.152   0.564   4.244  1.1303 -0.6382  0.5458
 5643SOL     OW27857   6.231   0.208   1.218  0.0431  0.3149  0.2611
 5643SOL    HW127858   6.162   0.279   1.237  1.5828  2.0255 -0.4134
 5643SOL    HW227859   6.249   0.157   1.302 -2.3005 -0.4109  0.3681
 5644SOL     OW27860   3.312   9.799   5.349 -0.5560  0.3169  0.0495
 5644SOL    HW127861   3.379   9.781   5.421 -0.5124  1.7233  0.3780
 5644SOL    HW227862   3.327   9.736   5.272  0.1290 -0.4213  0.7858
 5645SOL     OW27863   1.971   4.202   0.707  0.0932 -0.4160  0.3159
 5645SOL    HW127864   2.000   4.211   0.802 -0.4137 -2.0248  0.6363
 5645SOL    HW227865   1.872   4.194   0.703  0.1304 -0.5762 -0.3280
 5646SOL     OW27866   3.873   1.551   4.387 -0.2341  0.2720 -0.2533
 5646SOL    HW127867   3.789   1.530   4.337 -1.3859  0.5623  1.5270
 5646SOL    HW227868   3.873   1.504   4.475  0.9193  1.2332  0.2833
 5647SOL     OW27869   8.042   1.281   4.524 -0.1158 -0.0423 -0.0495
 5647SOL    HW127870   8.063   1.184   4.538 -3.6972 -1.0022 -0.7875
 5647SOL    HW227871   8.113   1.322   4.466  1.5114 -2.1788  0.3671
 5648SOL     OW27872   9.199   5.912   0.849  0.3671  0.4102  0.2294
 5648SOL    HW127873   9.216   5.848   0.775  1.7646  0.1590  0.7442
 5648SOL    HW227874   9.231   5.872   0.935  2.7933  2.4087  0.3319
 5649SOL     OW27875   8.530   4.439   0.271 -0.3581 -0.2040  0.0793
 5649SOL    HW127876   8.470   4.440   0.351  0.3910 -0.3794  0.6522
 5649SOL    HW227877   8.500   4.509   0.206 -0.3638  0.6416  0.9737
 5650SOL     OW27878   5.612   7.479   2.593 -0.0407  0.0173  0.7529
 5650SOL    HW127879   5.566   7.467   2.681 -1.4878  2.2791  0.3349
 5650SOL    HW227880   5.658   7.567   2.591  0.9160 -0.4980 -0.3545
 5651SOL     OW27881   4.952   1.313   3.875 -0.0456  0.0803  0.2851
 5651SOL    HW127882   4.942   1.411   3.860  3.5451  1.0229  3.1982
 5651SOL    HW227883   4.890   1.283   3.947 -0.6352  0.3486 -0.1097
 5652SOL     OW27884   7.004   0.475   1.469 -0.3109  0.5014 -0.2031
 5652SOL    HW127885   6.990   0.568   1.502 -0.9063  0.7171 -1.0400
 5652SOL    HW227886   6.989   0.472   1.370  1.2068 -0.1730 -0.4322
 5653SOL     OW27887   4.515   1.479   1.281  0.0947 -0.4559  0.1853
 5653SOL    HW127888   4.536   1.381   1.287  0.9259 -0.4435 -2.1120
 5653SOL    HW227889   4.418   1.490   1.259 -0.0430 -0.7397  0.6281
 5654SOL     OW27890   7.821   0.577   1.396  0.4624  0.0820  0.3302
 5654SOL    HW127891   7.738   0.528   1.370  0.2070  0.8709 -0.3671
 5654SOL    HW227892   7.846   0.552   1.490  0.4197 -1.4578 -0.0622
 5655SOL     OW27893   1.092   4.747   5.535 -0.3326 -0.0439 -0.2589
 5655SOL    HW127894   1.171   4.716   5.589  0.1818  1.9456  0.1562
 5655SOL    HW227895   1.123   4.778   5.445 -0.7775 -0.1411 -0.4479
 5656SOL     OW27896   9.424   7.107   0.576  1.0438 -0.2963  0.5231
 5656SOL    HW127897   9.443   7.041   0.648  0.3243 -0.2859  0.7213
 5656SOL    HW227898   9.439   7.200   0.610  0.8066 -0.2967  0.6315
 5657SOL     OW27899   9.412   8.369   3.451  0.1705  0.3125 -0.2231
 5657SOL    HW127900   9.321   8.335   3.429 -0.0927  0.1785  1.0155
 5657SOL    HW227901   9.478   8.294   3.447 -0.1283 -0.0185  0.8783
 5658SOL     OW27902   3.058   1.747   0.604 -0.3758 -0.5084  0.5009
 5658SOL    HW127903   2.983   1.752   0.537 -0.4832  0.2419  0.6746
 5658SOL    HW227904   3.079   1.651   0.622 -0.4940 -0.7216 -0.4453
 5659SOL     OW27905   0.943   3.379   3.759  0.3761  0.3026 -0.1604
 5659SOL    HW127906   0.929   3.427   3.845  1.0896  0.0812  0.0845
 5659SOL    HW227907   1.041   3.377   3.737  0.1857  0.4876 -1.0489
 5660SOL     OW27908   7.551   9.487   4.524 -0.3928 -0.1423 -0.1279
 5660SOL    HW127909   7.543   9.389   4.503  1.1134 -0.6155  1.3715
 5660SOL    HW227910   7.646   9.509   4.545 -0.7368  1.6445 -0.4055
 5661SOL     OW27911   9.212   0.795   2.199 -0.3365  0.0661  0.6873
 5661SOL    HW127912   9.138   0.791   2.265 -0.7345  0.1455  0.2444
 5661SOL    HW227913   9.211   0.884   2.153 -0.6746 -0.3614 -0.1363
 5662SOL     OW27914   5.121   2.048   2.320 -0.2735 -0.2648 -0.2064
 5662SOL    HW127915   5.159   1.991   2.393 -2.7025  0.0643  1.3635
 5662SOL    HW227916   5.038   2.006   2.284 -1.9844  2.1232  0.8209
 5663SOL     OW27917   7.463   9.573   1.153  0.2990 -0.0638 -0.0306
 5663SOL    HW127918   7.476   9.557   1.055  2.5249 -1.0766  0.3910
 5663SOL    HW227919   7.369   9.601   1.171 -0.4411 -1.0269 -2.3072
 5664SOL     OW27920   1.616   0.450   3.015  0.2610  0.8420  0.2716
 5664SOL    HW127921   1.713   0.444   3.038  0.4078  1.4506 -0.1827
 5664SOL    HW227922   1.583   0.360   2.985  0.6486  0.6029  0.5579
 5665SOL     OW27923   0.989   6.619   4.681  0.0395  0.4182  0.1173
 5665SOL    HW127924   0.986   6.530   4.635  0.5984  0.7504 -0.5781
 5665SOL    HW227925   0.941   6.614   4.769 -1.0418 -0.2290 -0.5046
 5666SOL     OW27926   2.951   0.878   5.186 -0.4237  0.1323 -0.3959
 5666SOL    HW127927   2.982   0.922   5.270  0.9637 -0.6380 -0.4998
 5666SOL    HW227928   2.884   0.937   5.140 -1.4366  0.4195  1.3936
 5667SOL     OW27929   5.888   1.398   2.635  0.3055 -0.7498  0.1717
 5667SOL    HW127930   5.932   1.353   2.712  1.5400 -0.1645 -0.1684
 5667SOL    HW227931   5.914   1.495   2.634 -2.4103  0.0132  0.9680
 5668SOL     OW27932   9.424   9.708   3.127 -0.3161 -0.4888 -0.2064
 5668SOL    HW127933   9.502   9.768   3.143  0.0676 -1.0289 -0.0255
 5668SOL    HW227934   9.422   9.681   3.030 -0.5572 -0.0993 -0.3132
 5669SOL     OW27935   4.727   1.158   4.483  0.2019  0.1151  0.3568
 5669SOL    HW127936   4.741   1.060   4.470 -1.3363 -0.3770  2.2334
 5669SOL    HW227937   4.792   1.192   4.550 -0.8528 -0.1118  1.4984
 5670SOL     OW27938   9.758   6.011   5.468 -0.4407  0.0349  0.3987
 5670SOL    HW127939   9.760   5.914   5.493 -0.3391  0.2732  1.3403
 5670SOL    HW227940   9.844   6.054   5.493 -1.0821  0.7213  1.4662
 5671SOL     OW27941   4.092   1.484   3.468 -0.5307 -0.6787  0.0562
 5671SOL    HW127942   4.098   1.549   3.392 -2.2216 -1.5613 -0.8652
 5671SOL    HW227943   4.027   1.518   3.536  1.3953  0.3843  1.4345
 5672SOL     OW27944   8.327   6.851   1.442  0.1455  0.3439 -0.0207
 5672SOL    HW127945   8.421   6.831   1.414 -0.3182 -0.1475 -1.2712
 5672SOL    HW227946   8.299   6.786   1.513  1.0121  0.9994  0.9386
 5673SOL     OW27947   4.282   8.140   2.011 -0.0584 -0.4735 -0.1459
 5673SOL    HW127948   4.311   8.224   1.967  1.4213 -0.8952  0.0057
 5673SOL    HW227949   4.357   8.073   2.009 -0.3312 -0.8925  2.0051
 5674SOL     OW27950   0.516   1.632   1.465  0.3113 -0.2750  0.0283
 5674SOL    HW127951   0.529   1.716   1.411 -3.8132  0.1876 -0.3993
 5674SOL    HW227952   0.507   1.655   1.561  0.2136 -0.3395  0.0347
 5675SOL     OW27953   3.240   8.868   1.884 -0.4125  0.2184 -0.5186
 5675SOL    HW127954   3.258   8.795   1.818  0.6987  0.2334 -0.2455
 5675SOL    HW227955   3.145   8.864   1.913 -0.8815  0.1281 -2.0185
 5676SOL     OW27956   4.126   8.748   0.532  0.2023 -0.1078  0.8066
 5676SOL    HW127957   4.034   8.733   0.495  0.3039  1.1603 -0.0016
 5676SOL    HW227958   4.128   8.836   0.580  1.4425  0.6790 -0.6624
 5677SOL     OW27959   3.952   8.793   4.964 -0.1549  0.2816 -0.1423
 5677SOL    HW127960   4.032   8.744   4.998 -0.6135 -0.0036  0.5389
 5677SOL    HW227961   3.909   8.740   4.891 -0.0425  0.1738 -0.1308
 5678SOL     OW27962   5.469   9.689   1.321  0.2415  0.1039 -0.3795
 5678SOL    HW127963   5.462   9.599   1.363  0.3401  0.6420  0.8251
 5678SOL    HW227964   5.515   9.752   1.384  1.1520  0.7274 -1.6359
 5679SOL     OW27965   2.576   5.115   5.135  0.0016 -0.2759  0.5947
 5679SOL    HW127966   2.535   5.085   5.049 -0.1313  0.0715  0.5379
 5679SOL    HW227967   2.629   5.040   5.174  2.7325  0.5109 -1.3963
 5680SOL     OW27968   5.170   8.029   2.726 -0.1250  0.1127  0.1440
 5680SOL    HW127969   5.106   8.081   2.783 -0.3332 -1.0500  0.9671
 5680SOL    HW227970   5.242   8.091   2.694  0.0166  0.7775  1.6857
 5681SOL     OW27971   5.924   1.616   3.493  0.0821  0.5694  0.5313
 5681SOL    HW127972   5.952   1.582   3.582 -2.1374  0.5944  1.2714
 5681SOL    HW227973   5.832   1.655   3.499  0.1352  1.1323 -1.6294
 5682SOL     OW27974   7.515   1.334   2.356 -0.5224  0.3892  0.2221
 5682SOL    HW127975   7.502   1.361   2.260 -1.3219 -1.3904 -0.2092
 5682SOL    HW227976   7.481   1.406   2.416 -1.1016  1.0338 -0.8555
 5683SOL     OW27977   3.243   6.882   0.708 -0.1838 -0.1698  0.1408
 5683SOL    HW127978   3.337   6.848   0.718  0.3039  0.6408 -1.4714
 5683SOL    HW227979   3.190   6.856   0.789  1.7282  0.3635  1.6157
 5684SOL     OW27980   3.610   0.970   2.804  0.1093 -0.0267 -0.1045
 5684SOL    HW127981   3.587   1.053   2.856  2.5069 -0.4787  1.7515
 5684SOL    HW227982   3.672   0.993   2.729 -1.0674  0.1729 -1.0443
 5685SOL     OW27983   9.498   1.004   0.954 -0.2019  0.3378 -0.0816
 5685SOL    HW127984   9.419   1.011   0.893 -1.5128  1.1128  1.6701
 5685SOL    HW227985   9.491   0.921   1.008  0.3345  0.2676 -0.1173
 5686SOL     OW27986   8.366   9.457   1.980 -0.4653  0.3142 -0.1759
 5686SOL    HW127987   8.424   9.440   1.901 -0.4866 -0.4512 -0.0382
 5686SOL    HW227988   8.370   9.553   2.006 -0.2434  0.5078 -0.9358
 5687SOL     OW27989   9.561   1.259   1.047  0.7944 -0.4998  0.7070
 5687SOL    HW127990   9.558   1.166   1.009  0.0362 -0.3701  0.4386
 5687SOL    HW227991   9.571   1.254   1.146 -0.9574 -0.9006  0.8821
 5688SOL     OW27992   3.669   9.645   4.380  0.6108 -0.3971  0.5327
 5688SOL    HW127993   3.715   9.715   4.436 -1.0336 -0.2861  1.7853
 5688SOL    HW227994   3.571   9.663   4.378  0.3682 -1.7607 -0.4679
 5689SOL     OW27995   8.045   0.528   5.403 -0.0182 -0.0265  0.0335
 5689SOL    HW127996   8.041   0.442   5.353  2.0951  0.6643 -1.4386
 5689SOL    HW227997   8.094   0.515   5.489  0.3982 -0.2919 -0.2414
 5690SOL     OW27998   6.816   8.448   2.732  0.0884 -0.1849 -0.3921
 5690SOL    HW127999   6.790   8.535   2.692  2.2903  1.0755  0.8407
 5690SOL    HW228000   6.851   8.462   2.824  3.0261 -2.0218 -1.1434
 5691SOL     OW28001   5.038   0.984   3.720 -0.1327 -0.2577  0.0965
 5691SOL    HW128002   5.088   0.908   3.761  0.3330  0.3509  0.6698
 5691SOL    HW228003   4.966   1.014   3.782 -1.1880 -1.1101 -0.7168
 5692SOL     OW28004   2.903   9.812   2.247  0.4313  0.1285  0.3880
 5692SOL    HW128005   2.945   9.764   2.324 -0.9840  1.3105  1.9183
 5692SOL    HW228006   2.842   9.884   2.281 -0.1254  0.7488 -1.8358
 5693SOL     OW28007   8.295   7.197   3.941  0.2405  0.5867  0.0599
 5693SOL    HW128008   8.235   7.273   3.917  2.2048  2.7230  1.7416
 5693SOL    HW228009   8.239   7.120   3.973 -1.7132  1.7879 -0.3753
 5694SOL     OW28010   3.766   0.514   3.300 -0.3586 -0.5131  0.5969
 5694SOL    HW128011   3.795   0.450   3.228  0.5479 -0.1716  0.6527
 5694SOL    HW228012   3.667   0.523   3.298 -0.3303 -0.3968 -0.7076
 5695SOL     OW28013   8.151   0.878   4.081 -0.1583  0.2260  0.4449
 5695SOL    HW128014   8.116   0.966   4.048 -0.7297  0.3072  1.2697
 5695SOL    HW228015   8.136   0.808   4.012 -1.7875  0.2960  0.7245
 5696SOL     OW28016   5.437   2.106   3.130 -0.3619 -0.3663  0.1455
 5696SOL    HW128017   5.400   2.085   3.039 -0.6822 -0.0223  0.1976
 5696SOL    HW228018   5.411   2.199   3.156  2.7777  0.9144 -0.9704
 5697SOL     OW28019   2.010   3.145   1.109 -0.7455 -0.0048 -0.8525
 5697SOL    HW128020   2.077   3.074   1.133 -0.7786  0.0913 -0.4632
 5697SOL    HW228021   2.055   3.215   1.054 -0.1755  0.7611  0.5680
 5698SOL     OW28022   8.784   2.190   0.386  0.2937 -0.3807 -0.8129
 5698SOL    HW128023   8.731   2.150   0.311  1.7096  0.8870 -2.5523
 5698SOL    HW228024   8.872   2.223   0.351  0.2434  1.9103  1.0360
 5699SOL     OW28025   0.481   7.653   3.795  0.3962  0.0450 -0.5331
 5699SOL    HW128026   0.510   7.747   3.778  0.4888  0.3196  1.0684
 5699SOL    HW228027   0.442   7.647   3.887  1.5134 -1.7290 -0.1514
 5700SOL     OW28028   8.337   9.574   2.453  0.7215 -0.6255  0.4534
 5700SOL    HW128029   8.334   9.599   2.549  1.5571  1.0228  0.0671
 5700SOL    HW228030   8.266   9.625   2.403  0.2133 -1.5609  0.2101
 5701SOL     OW28031   3.607   1.949   2.702  0.0076  0.1227 -0.1998
 5701SOL    HW128032   3.585   1.986   2.792 -0.1207  0.1989 -0.2619
 5701SOL    HW228033   3.677   2.007   2.659  1.1654 -0.7653  0.4619
 5702SOL     OW28034   1.240   8.756   4.928  0.0297 -0.4389  0.2639
 5702SOL    HW128035   1.296   8.785   5.006 -1.6041  0.2620  1.1870
 5702SOL    HW228036   1.270   8.665   4.898  2.8886  0.6707 -0.4498
 5703SOL     OW28037   1.502   0.229   2.234 -0.2448 -0.2964  0.4381
 5703SOL    HW128038   1.490   0.146   2.178 -2.4625 -1.3700  2.4134
 5703SOL    HW228039   1.490   0.205   2.331  0.2420  2.1389  1.1187
 5704SOL     OW28040   9.750   5.400   3.022 -0.4483  0.4895  0.3958
 5704SOL    HW128041   9.747   5.482   2.964 -1.0006  0.6303  0.6266
 5704SOL    HW228042   9.805   5.419   3.103  0.0960  0.3777  0.0608
 5705SOL     OW28043   3.881   2.401   5.037 -0.3061 -0.1287 -0.2318
 5705SOL    HW128044   3.851   2.332   4.971 -2.3588  0.7151 -0.2309
 5705SOL    HW228045   3.970   2.437   5.010 -0.5671 -0.6719 -1.8788
 5706SOL     OW28046   6.926   0.191   4.325 -0.1115 -0.6009  0.2438
 5706SOL    HW128047   6.890   0.275   4.366 -0.2132 -0.3549 -0.3498
 5706SOL    HW228048   7.005   0.160   4.378  2.2181  1.8827 -1.6313
 5707SOL     OW28049   9.935   1.773   0.301  0.8842  0.2705  0.2686
 5707SOL    HW128050   9.960   1.779   0.204  2.8372 -0.7523  0.6690
 5707SOL    HW228051   9.936   1.677   0.330  0.6045  0.5931  1.3771
 5708SOL     OW28052   4.165   4.207   2.127 -0.5685 -0.1730  0.2361
 5708SOL    HW128053   4.257   4.169   2.116  0.3401  1.6020  1.3869
 5708SOL    HW228054   4.160   4.258   2.213 -3.1038 -1.5222  0.9200
 5709SOL     OW28055   0.053   9.785   1.461  0.0375  0.0976 -0.1649
 5709SOL    HW128056   0.057   9.733   1.546  0.0083  1.3595  0.6182
 5709SOL    HW228057   0.045   9.722   1.383 -0.0978 -1.0507  0.7744
 5710SOL     OW28058   2.891   9.784   3.580 -0.1918  0.6683 -0.4658
 5710SOL    HW128059   2.875   9.688   3.555 -2.1762  0.9740 -0.3616
 5710SOL    HW228060   2.908   9.837   3.497  0.1026  0.3980 -0.5854
 5711SOL     OW28061   1.667   5.222   2.786  0.6984 -0.3772  0.2852
 5711SOL    HW128062   1.660   5.174   2.699  2.2251 -0.1020  0.0017
 5711SOL    HW228063   1.671   5.320   2.769 -2.5204 -0.1035  0.8668
 5712SOL     OW28064   2.065   9.055   2.388 -0.1307  0.1490  0.0598
 5712SOL    HW128065   1.975   9.093   2.409 -0.3295 -0.4283  0.2682
 5712SOL    HW228066   2.068   8.959   2.415 -0.8630 -1.0625 -3.8030
 5713SOL     OW28067   0.412   0.057   3.339 -0.5368 -0.3191  0.1045
 5713SOL    HW128068   0.352   0.022   3.411 -0.0581  0.3817  0.8419
 5713SOL    HW228069   0.403   0.157   3.334  0.7948 -0.1769  0.4212
 5714SOL     OW28070   2.971   2.680   0.689 -0.5655 -0.4585  0.2185
 5714SOL    HW128071   2.924   2.601   0.649  0.6945 -0.4586 -1.3067
 5714SOL    HW228072   2.925   2.764   0.662 -0.8397 -0.5670  0.3471
 5715SOL     OW28073   1.611   3.374   5.164 -0.1346  0.3306  0.2894
 5715SOL    HW128074   1.626   3.314   5.086 -0.3103  0.8634 -0.1529
 5715SOL    HW228075   1.597   3.319   5.246  2.3041 -0.1998  0.3598
 5716SOL     OW28076   3.284   7.418   3.531 -0.1695  0.3161  0.3716
 5716SOL    HW128077   3.203   7.437   3.587 -1.2398 -0.9601 -0.6999
 5716SOL    HW228078   3.324   7.330   3.559  0.8997  0.9774  0.9456
 5717SOL     OW28079   4.660   2.201   2.355 -0.5580 -0.7496  0.1482
 5717SOL    HW128080   4.643   2.149   2.272  0.2700  0.0462 -0.5294
 5717SOL    HW228081   4.740   2.260   2.342 -1.4632  0.6791  0.8817
 5718SOL     OW28082   9.547   9.147   3.521 -0.0013 -0.2338  0.4503
 5718SOL    HW128083   9.493   9.065   3.498  2.3769 -2.4008  2.2817
 5718SOL    HW228084   9.492   9.206   3.581 -1.0470 -1.4824  0.7706
 5719SOL     OW28085   3.674   0.649   1.286 -0.2409 -0.0717  0.2734
 5719SOL    HW128086   3.664   0.747   1.266  1.1881 -0.2149 -1.3069
 5719SOL    HW228087   3.586   0.603   1.272 -0.8003  0.9033  0.5140
 5720SOL     OW28088   8.084   1.028   3.109 -0.6504  0.0202  0.2451
 5720SOL    HW128089   8.113   0.936   3.137  1.3847 -0.0030 -1.7741
 5720SOL    HW228090   8.127   1.051   3.022 -0.7763  3.0731  0.9337
 5721SOL     OW28091   9.731   4.037   1.374 -0.2311  0.2738  0.2783
 5721SOL    HW128092   9.672   3.962   1.341  1.0622  0.5663 -2.8384
 5721SOL    HW228093   9.721   4.116   1.314  0.5187  1.6885  1.9618
 5722SOL     OW28094   9.293   0.050   3.464 -0.0024 -0.3424 -0.1904
 5722SOL    HW128095   9.253   0.078   3.377  1.4088  1.4851 -0.2824
 5722SOL    HW228096   9.222   0.044   3.534 -1.1464 -1.8657 -1.4521
 5723SOL     OW28097   8.876   0.465   3.650 -0.2899  0.4760 -0.3710
 5723SOL    HW128098   8.778   0.447   3.646 -0.2575  0.7595 -2.5358
 5723SOL    HW228099   8.891   0.560   3.680 -0.6273  0.1224  0.9831
 5724SOL     OW28100   8.731   0.665   1.809  0.0085  0.3398  0.7689
 5724SOL    HW128101   8.647   0.625   1.846  1.5676 -0.2926  3.7475
 5724SOL    HW228102   8.773   0.600   1.745  0.0202 -0.7984  1.9087
 5725SOL     OW28103   2.850   0.796   1.308 -0.9297 -0.3133 -0.4950
 5725SOL    HW128104   2.930   0.765   1.360 -0.0365  1.0036 -1.0631
 5725SOL    HW228105   2.814   0.880   1.349 -0.8780  0.1297 -1.3367
 5726SOL     OW28106   8.795   9.193   5.608  0.0468  0.2830 -0.1669
 5726SOL    HW128107   8.805   9.261   5.680 -1.5142 -1.1098  1.4088
 5726SOL    HW228108   8.708   9.208   5.560  0.1755  0.0306 -0.4836
 5727SOL     OW28109   1.689   5.153   3.198  0.0182 -0.9173 -0.3376
 5727SOL    HW128110   1.744   5.236   3.206 -0.1628 -0.7714 -0.5897
 5727SOL    HW228111   1.708   5.108   3.110  1.3001 -2.0090  0.4746
 5728SOL     OW28112   2.260   0.492   0.328  0.0849 -0.0374 -0.4129
 5728SOL    HW128113   2.352   0.459   0.348  0.2377  0.7066  0.1399
 5728SOL    HW228114   2.266   0.582   0.285 -0.4098  0.3653  0.3501
 5729SOL     OW28115   1.417   1.197   3.893  0.3026  0.1049 -0.0134
 5729SOL    HW128116   1.335   1.246   3.922  0.3985 -0.7465  1.7011
 5729SOL    HW228117   1.434   1.121   3.954  0.4410 -1.8172 -2.3669
 5730SOL     OW28118   8.217   4.698   5.462  0.3282 -0.7635  0.8510
 5730SOL    HW128119   8.169   4.735   5.383  1.6057 -1.1094 -0.1071
 5730SOL    HW228120   8.160   4.629   5.507 -0.6306 -0.1595  0.5731
 5731SOL     OW28121   8.054   6.035   3.378  0.5419  0.3694  0.0759
 5731SOL    HW128122   8.081   6.113   3.434 -0.2490  1.1394 -0.6113
 5731SOL    HW228123   7.975   5.990   3.419  0.5130  0.4014  0.0557
 5732SOL     OW28124   0.397   7.657   2.579 -0.5524  0.2511 -0.3212
 5732SOL    HW128125   0.358   7.722   2.514 -0.3649  1.1097  0.4302
 5732SOL    HW228126   0.429   7.705   2.661  0.6112 -0.6303 -0.2344
 5733SOL     OW28127   0.496   6.112   2.919 -0.7267 -0.0393 -0.8942
 5733SOL    HW128128   0.529   6.024   2.884 -0.1555  0.9325 -2.8882
 5733SOL    HW228129   0.574   6.166   2.951 -0.6516  1.1720 -3.0656
 5734SOL     OW28130   3.772   2.260   1.176  0.6179 -0.0722 -0.2892
 5734SOL    HW128131   3.827   2.188   1.219  1.0562  0.2450 -0.3197
 5734SOL    HW228132   3.682   2.262   1.219  1.5496  1.2348  1.6694
 5735SOL     OW28133   7.782   6.815   5.405  0.1153 -0.2017 -0.2502
 5735SOL    HW128134   7.865   6.806   5.350  0.5612  0.7460  0.2566
 5735SOL    HW228135   7.754   6.725   5.438  0.4338 -0.6372 -1.1595
 5736SOL     OW28136   4.244   9.574   3.220  0.0426 -0.1379  0.7360
 5736SOL    HW128137   4.330   9.616   3.189 -0.1730 -0.8197 -0.8217
 5736SOL    HW228138   4.248   9.561   3.319  2.0783 -0.9469  0.5738
 5737SOL     OW28139   9.767   2.174   1.630  0.3006 -0.3203 -0.0777
 5737SOL    HW128140   9.859   2.210   1.645  0.0672  0.8682 -1.4432
 5737SOL    HW228141   9.757   2.146   1.534 -0.6629 -0.7252  0.1332
 5738SOL     OW28142   7.054   1.908   3.254 -0.5809  0.2754  0.3747
 5738SOL    HW128143   7.065   1.877   3.349 -0.5425  1.1139  0.6439
 5738SOL    HW228144   7.086   2.002   3.246 -0.0162  0.0033 -0.6056
 5739SOL     OW28145   4.177   1.088   4.890  0.0445  0.4442  0.8836
 5739SOL    HW128146   4.123   1.050   4.965 -0.4622 -0.9656 -0.1896
 5739SOL    HW228147   4.273   1.061   4.901 -0.4678 -2.0600 -0.4121
 5740SOL     OW28148   9.213   0.900   4.994  0.3544 -0.2442  0.0903
 5740SOL    HW128149   9.160   0.858   4.920 -1.3104 -1.0278  1.6950
 5740SOL    HW228150   9.216   0.999   4.981 -1.8458 -0.1528  0.1845
 5741SOL     OW28151   0.139   5.126   0.859  0.1872  0.0329 -0.5692
 5741SOL    HW128152   0.219   5.122   0.919 -0.1261 -0.1086 -0.1618
 5741SOL    HW228153   0.125   5.221   0.829  1.0443 -0.0897 -1.3720
 5742SOL     OW28154   7.722   3.200   0.790 -0.5976 -0.8536 -0.2895
 5742SOL    HW128155   7.691   3.286   0.749 -1.5132 -1.5088 -0.9975
 5742SOL    HW228156   7.747   3.136   0.717  0.7595 -0.9562  0.2420
 5743SOL     OW28157   3.222   5.009   4.279 -0.7203 -0.2975 -0.0913
 5743SOL    HW128158   3.257   4.988   4.187  3.2074  0.6892  1.0520
 5743SOL    HW228159   3.241   4.932   4.340  0.0688  0.4869  0.6807
 5744SOL     OW28160   0.773   9.334   5.014  0.3334  0.0005 -0.3856
 5744SOL    HW128161   0.744   9.259   4.955 -1.1149  1.0516 -1.0538
 5744SOL    HW228162   0.709   9.410   5.005  1.3480  1.0370  0.8543
 5745SOL     OW28163   0.024   6.097   1.166  0.0441 -0.0065 -0.7461
 5745SOL    HW128164   0.002   6.033   1.092  0.4021 -0.1644 -0.7143
 5745SOL    HW228165   0.121   6.119   1.164 -0.2350  1.2314 -1.3061
 5746SOL     OW28166   0.921   4.430   2.458 -0.1198 -0.1960  0.2403
 5746SOL    HW128167   0.830   4.393   2.479 -0.1520  0.3452  1.0499
 5746SOL    HW228168   0.944   4.409   2.363 -0.5703 -1.4072  0.3918
 5747SOL     OW28169   7.083   0.356   0.596 -0.0285  0.1818  0.3131
 5747SOL    HW128170   7.087   0.258   0.615 -0.7273 -0.1763 -1.2372
 5747SOL    HW228171   7.169   0.399   0.621  0.8196 -1.0966 -0.3499
 5748SOL     OW28172   3.755   3.764   1.438  0.7220  0.1698 -0.3298
 5748SOL    HW128173   3.770   3.669   1.468 -2.2608 -0.6374 -1.2202
 5748SOL    HW228174   3.702   3.764   1.353 -0.4724  2.6715  0.3774
 5749SOL     OW28175   2.896   8.210   0.405 -0.1389  1.0533 -0.7836
 5749SOL    HW128176   2.837   8.290   0.395 -0.5710  0.7366 -0.8020
 5749SOL    HW228177   2.846   8.128   0.377 -0.6635  0.4114  1.9199
 5750SOL     OW28178   4.234   9.089   0.845  0.2220  0.2953 -0.3508
 5750SOL    HW128179   4.200   9.002   0.881  1.3500  0.6539  1.6585
 5750SOL    HW228180   4.307   9.123   0.903  0.3211  2.2266 -1.5498
 5751SOL     OW28181   0.975   6.735   4.337 -0.1813 -0.2212  0.2303
 5751SOL    HW128182   0.975   6.635   4.345  0.6616 -0.1756  0.8502
 5751SOL    HW228183   1.025   6.761   4.254  0.6139 -0.2789  0.6819
 5752SOL     OW28184   0.887   8.135   0.325 -0.2084  0.6827  0.0790
 5752SOL    HW128185   0.883   8.218   0.269 -0.5317 -0.4176 -1.5518
 5752SOL    HW228186   0.798   8.089   0.324  0.2559 -0.2407  0.1144
 5753SOL     OW28187   9.844   5.075   2.718 -0.6144  0.8930  0.6081
 5753SOL    HW128188   9.854   5.076   2.818  2.4286 -2.1613  0.4606
 5753SOL    HW228189   9.799   4.990   2.690  1.3389  0.2697 -0.7478
 5754SOL     OW28190   4.082   2.596   0.898  0.2305  0.7353  0.0086
 5754SOL    HW128191   4.024   2.568   0.975  1.1947  0.9058  0.8091
 5754SOL    HW228192   4.171   2.626   0.933 -0.3424  3.6582 -0.9317
 5755SOL     OW28193   5.057   1.806   1.428 -0.2535 -0.1894 -0.1228
 5755SOL    HW128194   5.127   1.754   1.379  0.6075 -0.2306  1.1101
 5755SOL    HW228195   5.056   1.777   1.524 -1.4920  0.3099  0.0185
 5756SOL     OW28196   2.580   3.934   2.029  0.0456 -0.3649 -0.1529
 5756SOL    HW128197   2.621   4.014   1.986  1.3568 -0.4296  0.9244
 5756SOL    HW228198   2.629   3.913   2.113 -1.8418 -0.8306  0.8648
 5757SOL     OW28199   4.001   9.733   2.103  0.2533 -0.3464 -0.5162
 5757SOL    HW128200   3.908   9.697   2.097  0.4564 -1.1382  0.8382
 5757SOL    HW228201   4.057   9.694   2.029  0.1296 -1.8067  0.1406
 5758SOL     OW28202   4.946   2.900   1.326 -0.4058 -0.1650 -0.1120
 5758SOL    HW128203   4.872   2.906   1.393 -1.8624 -1.0635 -1.6165
 5758SOL    HW228204   4.963   2.990   1.286 -2.2906 -0.3763 -1.4401
 5759SOL     OW28205   8.682   2.199   1.764 -0.2399 -0.3941 -0.4763
 5759SOL    HW128206   8.608   2.132   1.757 -1.2826  0.7059 -0.1248
 5759SOL    HW228207   8.746   2.186   1.688 -2.3454  0.4798 -2.4754
 5760SOL     OW28208   8.655   6.845   4.448 -0.2068  0.2107  0.1854
 5760SOL    HW128209   8.700   6.767   4.492 -0.3737 -1.1127 -1.9488
 5760SOL    HW228210   8.720   6.892   4.388 -0.7656  0.2393 -0.4079
 5761SOL     OW28211   2.586   7.734   5.602  0.0486 -0.0348  0.1006
 5761SOL    HW128212   2.665   7.671   5.600 -0.8044 -1.0946 -1.0873
 5761SOL    HW228213   2.607   7.816   5.550  0.5713 -0.0632  0.2643
 5762SOL     OW28214   0.663   3.471   5.218  0.0762 -0.3532  0.1220
 5762SOL    HW128215   0.582   3.507   5.264  0.0833  0.1196 -0.2351
 5762SOL    HW228216   0.658   3.491   5.121 -0.1883 -1.8013 -0.1854
 5763SOL     OW28217   4.103   2.140   5.017  0.0705  0.1171  0.3004
 5763SOL    HW128218   4.041   2.210   5.051  0.6888  1.5431 -1.4324
 5763SOL    HW228219   4.050   2.062   4.983 -0.5787 -0.9914  3.6511
 5764SOL     OW28220   2.009   2.946   3.877 -0.3005  0.0969 -0.0417
 5764SOL    HW128221   2.080   3.014   3.862 -0.2153  0.1720  0.7194
 5764SOL    HW228222   1.919   2.987   3.860 -0.0991 -0.4641 -2.7671
 5765SOL     OW28223   5.576   7.404   3.222  0.0810  0.4000 -0.0472
 5765SOL    HW128224   5.478   7.387   3.218 -0.7239  4.1638  2.0802
 5765SOL    HW228225   5.615   7.391   3.131 -2.2098 -1.7737 -0.7910
 5766SOL     OW28226   7.977   8.600   2.813 -0.0079 -0.1719 -0.6189
 5766SOL    HW128227   7.941   8.682   2.770  1.5612  1.0479  0.3340
 5766SOL    HW228228   7.907   8.558   2.871 -1.6055 -0.9280 -3.0516
 5767SOL     OW28229   5.299   0.137   1.803 -0.4465 -0.5118 -0.4051
 5767SOL    HW128230   5.240   0.084   1.864  0.0700 -0.7302 -0.0939
 5767SOL    HW228231   5.242   0.183   1.735 -0.9563 -0.9409 -0.2814
 5768SOL     OW28232   9.404   3.433   3.995  0.3128  0.0693 -0.3197
 5768SOL    HW128233   9.385   3.354   3.937  0.4548  0.2316 -0.5815
 5768SOL    HW228234   9.318   3.479   4.017  0.3555  0.5349 -1.1350
 5769SOL     OW28235   6.847   7.304   3.099  0.8048  0.1044 -0.6325
 5769SOL    HW128236   6.896   7.311   3.186 -0.1580  3.0631 -0.2546
 5769SOL    HW228237   6.759   7.258   3.114  0.9089  0.0536 -0.1699
 5770SOL     OW28238   8.397   1.825   0.424 -0.8643 -0.6689 -0.0667
 5770SOL    HW128239   8.406   1.881   0.506 -0.6049  0.5005 -0.8938
 5770SOL    HW228240   8.481   1.772   0.410 -0.0310  0.8494 -0.8462
 5771SOL     OW28241   2.802   5.450   4.039  0.1086  0.8455  0.3369
 5771SOL    HW128242   2.849   5.447   4.127  1.4197  0.5479 -0.3676
 5771SOL    HW228243   2.854   5.507   3.975 -0.1631  0.0137 -0.6358
 5772SOL     OW28244   3.857   9.173   0.212 -0.0436 -0.1599  0.0564
 5772SOL    HW128245   3.822   9.121   0.290 -0.7154  1.0625  0.5896
 5772SOL    HW228246   3.932   9.232   0.242  0.4237 -0.4900 -0.4525
 5773SOL     OW28247   0.602   9.611   0.933  0.3224 -0.0074  0.4406
 5773SOL    HW128248   0.600   9.519   0.972  2.9019 -0.5431 -0.5378
 5773SOL    HW228249   0.633   9.606   0.838  0.0536  1.8415  0.2362
 5774SOL     OW28250   3.834   0.411   5.594  0.2121  0.4722 -0.2105
 5774SOL    HW128251   3.866   0.396   5.688  0.7324  0.9236 -0.3118
 5774SOL    HW228252   3.887   0.485   5.552  0.1625  0.1031 -0.9450
 5775SOL     OW28253   3.364   3.818   2.729 -0.1486 -0.3485  0.2216
 5775SOL    HW128254   3.422   3.746   2.765  0.6321  0.9585  1.6685
 5775SOL    HW228255   3.368   3.818   2.629  1.5143 -0.9530  0.2727
 5776SOL     OW28256   4.227   5.192   5.576 -0.1161  0.0370  0.0942
 5776SOL    HW128257   4.185   5.197   5.486  0.5212 -1.1364 -0.2781
 5776SOL    HW228258   4.265   5.101   5.590  0.3787  0.4178  1.2837
 5777SOL     OW28259   9.686   0.457   0.677  0.0769  0.1257  0.0956
 5777SOL    HW128260   9.686   0.387   0.606  0.7883 -1.0360  1.2211
 5777SOL    HW228261   9.766   0.516   0.665  0.9996 -0.9757  0.8056
 5778SOL     OW28262   9.503   8.369   0.550 -0.0887  0.0777 -0.4228
 5778SOL    HW128263   9.462   8.358   0.459 -2.0324 -0.1855  0.4752
 5778SOL    HW228264   9.439   8.339   0.620  1.1057  0.9989  1.1003
 5779SOL     OW28265   9.340   7.974   4.214  0.0722  0.4765  0.4474
 5779SOL    HW128266   9.293   7.971   4.126  0.1391  1.0236  0.3919
 5779SOL    HW228267   9.273   7.993   4.287  0.3393  2.1406  0.2636
 5780SOL     OW28268   2.726   7.984   0.327 -0.4967 -0.1652  0.2380
 5780SOL    HW128269   2.757   7.999   0.233 -2.8752 -0.9591 -0.7156
 5780SOL    HW228270   2.782   7.913   0.369  0.8211  0.4442 -0.4423
 5781SOL     OW28271   4.783   5.333   1.672  0.2780  0.6395 -0.9677
 5781SOL    HW128272   4.721   5.354   1.748  1.3900 -0.1847  0.1728
 5781SOL    HW228273   4.828   5.417   1.641 -0.9160  1.1389 -1.3905
 5782SOL     OW28274   4.335   4.066   0.471 -0.0682  0.4146 -0.0073
 5782SOL    HW128275   4.285   4.007   0.534  1.0444 -0.8795 -0.2882
 5782SOL    HW228276   4.348   4.017   0.384 -0.0133  1.4745 -0.5965
 5783SOL     OW28277   4.693   8.898   2.075 -0.0398 -0.1621  0.2397
 5783SOL    HW128278   4.764   8.910   2.144 -2.6009  1.5725  2.6636
 5783SOL    HW228279   4.712   8.957   1.996  0.5049  1.2740  1.4356
 5784SOL     OW28280   8.762   9.318   2.576 -0.0126 -0.2629 -0.5140
 5784SOL    HW128281   8.711   9.362   2.503  1.3210  0.6782 -0.9047
 5784SOL    HW228282   8.808   9.237   2.541  2.0874  1.1866 -1.1891
 5785SOL     OW28283   6.398   1.684   2.171  0.0062  0.2071 -0.3320
 5785SOL    HW128284   6.395   1.605   2.110 -0.1945 -0.3870  0.4526
 5785SOL    HW228285   6.455   1.755   2.130  0.2775 -0.3837 -0.9824
 5786SOL     OW28286   9.671   7.385   4.201 -0.0245  0.1404  0.2122
 5786SOL    HW128287   9.654   7.443   4.121 -1.7577  0.7974  1.0148
 5786SOL    HW228288   9.611   7.305   4.197  2.3957 -1.6504 -0.9125
 5787SOL     OW28289   0.174   0.422   2.894  0.2738 -0.5669  0.3070
 5787SOL    HW128290   0.137   0.348   2.951 -1.4037  1.7571  2.3636
 5787SOL    HW228291   0.239   0.475   2.948 -0.4530  0.9616 -0.3207
 5788SOL     OW28292   1.408   3.855   2.770 -0.0672 -0.5779 -0.1627
 5788SOL    HW128293   1.458   3.769   2.760  1.8447  0.2413  2.0961
 5788SOL    HW228294   1.411   3.905   2.683  2.5371 -0.8195 -0.2469
 5789SOL     OW28295   1.833   7.254   3.593  0.6626 -0.7410  0.6620
 5789SOL    HW128296   1.894   7.176   3.605  0.4275 -0.9052  0.7813
 5789SOL    HW228297   1.849   7.294   3.502 -1.0219 -2.5050 -0.4511
 5790SOL     OW28298   4.352   4.775   2.598 -0.2107  0.0514  0.0248
 5790SOL    HW128299   4.272   4.835   2.597 -1.0610 -1.0673 -0.7690
 5790SOL    HW228300   4.414   4.802   2.524  0.1868  0.9593  0.6799
 5791SOL     OW28301   0.949   8.718   3.443  0.4602  0.3014 -0.3228
 5791SOL    HW128302   1.029   8.660   3.461  0.3112  0.1323 -0.1967
 5791SOL    HW228303   0.934   8.778   3.522  1.1247  1.1139 -0.8056
 5792SOL     OW28304   8.927   9.123   1.005 -0.5279  0.5212  0.3769
 5792SOL    HW128305   8.901   9.028   1.023  1.3044  0.2870  1.8894
 5792SOL    HW228306   8.984   9.127   0.924 -1.4246  0.4659 -0.2658
 5793SOL     OW28307   8.594   6.338   4.343  0.0924  0.1955 -0.3379
 5793SOL    HW128308   8.630   6.418   4.296  1.8181  0.0294  0.6431
 5793SOL    HW228309   8.654   6.315   4.420 -0.0746 -2.3585 -0.9188
 5794SOL     OW28310   3.901   8.012   2.686  0.0760  0.4460 -0.3175
 5794SOL    HW128311   3.895   7.915   2.664 -1.2440 -0.2269  2.7639
 5794SOL    HW228312   3.818   8.058   2.654 -0.5235  0.0333  0.6247
 5795SOL     OW28313   7.588   3.329   5.453 -0.2521  0.0143 -0.1083
 5795SOL    HW128314   7.535   3.304   5.534 -0.5711 -1.2591 -0.7062
 5795SOL    HW228315   7.618   3.247   5.405 -0.3773  0.7556 -1.4832
 5796SOL     OW28316   3.518   3.064   2.492 -0.1055 -0.3047  0.1407
 5796SOL    HW128317   3.423   3.039   2.509 -0.0926  0.3796  1.2993
 5796SOL    HW228318   3.523   3.158   2.459  0.2845  0.4125  2.1081
 5797SOL     OW28319   2.503   7.565   2.442 -0.5546  0.4258  0.3166
 5797SOL    HW128320   2.565   7.639   2.417  0.2945 -0.4022 -0.0676
 5797SOL    HW228321   2.408   7.595   2.429 -0.2016  1.1083 -0.7973
 5798SOL     OW28322   1.262   9.429   4.394 -0.0855 -0.3851  0.2283
 5798SOL    HW128323   1.164   9.438   4.410 -0.2927  1.2405 -1.8018
 5798SOL    HW228324   1.309   9.512   4.425  0.6498 -1.0843  1.0381
 5799SOL     OW28325   8.437   7.571   1.587 -0.6402 -0.1231  0.5103
 5799SOL    HW128326   8.442   7.593   1.684  0.6062 -0.5007  0.5443
 5799SOL    HW228327   8.406   7.477   1.575 -1.8885  0.2760  0.4931
 5800SOL     OW28328   1.286   0.668   1.239  0.6060  0.1514 -0.3809
 5800SOL    HW128329   1.221   0.643   1.311  0.6174 -0.1167 -0.4646
 5800SOL    HW228330   1.332   0.753   1.265 -0.5007  0.8886 -0.7789
 5801SOL     OW28331   1.575   0.787   2.395 -0.2724  0.4985  0.0177
 5801SOL    HW128332   1.565   0.691   2.369  1.1779  0.0199  1.1553
 5801SOL    HW228333   1.558   0.797   2.493  0.7700  1.1911  0.1341
 5802SOL     OW28334   3.713   6.653   4.258 -0.0691 -0.5829  0.1133
 5802SOL    HW128335   3.662   6.568   4.271  2.3181 -1.9326  0.9032
 5802SOL    HW228336   3.743   6.661   4.163 -0.3393 -0.5833  0.0278
 5803SOL     OW28337   8.066   3.142   5.381  0.3234  1.3574 -0.1888
 5803SOL    HW128338   8.161   3.166   5.365  1.0447 -1.6367 -0.6284
 5803SOL    HW228339   8.053   3.123   5.479  0.9051 -1.1633 -0.5808
 5804SOL     OW28340   4.606   8.858   1.788  0.1760  0.1375 -0.2227
 5804SOL    HW128341   4.540   8.805   1.735  1.6291 -1.5324 -0.3964
 5804SOL    HW228342   4.695   8.857   1.742  0.5936  1.5560  0.5012
 5805SOL     OW28343   3.552   8.347   5.185 -0.3034 -0.2152  0.4658
 5805SOL    HW128344   3.598   8.258   5.186 -2.0532 -1.1615 -0.4135
 5805SOL    HW228345   3.614   8.415   5.146  1.7415 -0.6110  2.8709
 5806SOL     OW28346   5.994   9.482   4.473 -0.4131 -0.1849  0.3618
 5806SOL    HW128347   6.005   9.400   4.416  0.1576  0.1483 -0.0023
 5806SOL    HW228348   5.991   9.563   4.415  0.3289  0.1670  0.8194
 5807SOL     OW28349   3.886   3.029   1.766  0.5586 -0.4263  0.2183
 5807SOL    HW128350   3.795   3.064   1.745  1.2900  1.3993 -0.0943
 5807SOL    HW228351   3.927   2.991   1.683  0.7124  0.3043 -0.0504
 5808SOL     OW28352   3.063   8.056   3.104 -0.2581 -0.1824 -0.0095
 5808SOL    HW128353   3.066   7.972   3.049  1.0160 -0.2478  0.1592
 5808SOL    HW228354   2.968   8.076   3.128 -0.5732 -1.6049 -0.0270
 5809SOL     OW28355   6.607   8.121   3.019 -0.3352 -0.3322 -0.3197
 5809SOL    HW128356   6.697   8.159   3.043  0.7318 -3.2039  0.4144
 5809SOL    HW228357   6.536   8.174   3.065  0.8045  3.0262 -2.1860
 5810SOL     OW28358   2.658   4.919   1.637  0.2993 -0.4093 -0.3036
 5810SOL    HW128359   2.629   5.006   1.678 -0.6225 -0.7704 -0.1714
 5810SOL    HW228360   2.599   4.897   1.559  3.2035  1.2154 -3.0766
 5811SOL     OW28361   1.451   8.813   1.866  0.6734 -0.0107 -0.3808
 5811SOL    HW128362   1.457   8.817   1.966 -1.6917 -0.4408 -0.1853
 5811SOL    HW228363   1.497   8.893   1.827  0.6145  0.7736  1.1135
 5812SOL     OW28364   4.237   2.384   1.421  0.3503  0.0493 -0.0096
 5812SOL    HW128365   4.257   2.369   1.324  0.0287  0.5868 -0.1588
 5812SOL    HW228366   4.295   2.324   1.477  2.2204  1.3892 -0.4619
 5813SOL     OW28367   9.495   6.116   4.892  0.3913 -0.2752  0.0173
 5813SOL    HW128368   9.409   6.165   4.877  0.8025 -0.3764 -2.9118
 5813SOL    HW228369   9.482   6.019   4.875  0.9743 -0.3547  0.0049
 5814SOL     OW28370   1.571   2.297   4.710 -0.4969 -0.1651 -0.3379
 5814SOL    HW128371   1.576   2.272   4.807  0.9090 -0.1407 -0.3980
 5814SOL    HW228372   1.588   2.395   4.701 -0.5687 -0.1797 -0.6205
 5815SOL     OW28373   0.379   2.282   1.333 -0.6987  0.2608 -0.6052
 5815SOL    HW128374   0.314   2.310   1.263 -1.6628 -2.7499 -0.9777
 5815SOL    HW228375   0.341   2.207   1.386  0.8613  1.1342  1.8529
 5816SOL     OW28376   4.924   5.944   1.607  0.9528 -0.3655  0.0450
 5816SOL    HW128377   4.972   5.866   1.647  2.2810  0.3125 -0.1957
 5816SOL    HW228378   4.858   5.911   1.539  0.7775 -1.3373  0.6791
 5817SOL     OW28379   8.378   2.150   2.006 -0.0116 -0.6763 -0.2525
 5817SOL    HW128380   8.300   2.139   1.945 -0.5244 -1.9919  0.6249
 5817SOL    HW228381   8.346   2.152   2.101  0.8523  0.5204  0.0221
 5818SOL     OW28382   9.106   0.167   2.988 -0.1483 -0.1103 -0.4679
 5818SOL    HW128383   9.039   0.107   3.032  1.2960 -0.8024  0.8323
 5818SOL    HW228384   9.113   0.144   2.891 -1.0941 -0.6724 -0.4095
 5819SOL     OW28385   2.611   1.452   1.148  0.0209 -0.3087 -0.0946
 5819SOL    HW128386   2.663   1.407   1.220 -1.5569 -0.2718  1.0731
 5819SOL    HW228387   2.648   1.544   1.133  0.0027 -0.1120  1.0537
 5820SOL     OW28388   0.567   7.768   4.121  0.1011 -0.2597  0.3560
 5820SOL    HW128389   0.579   7.849   4.063 -2.3003 -0.9599 -1.1887
 5820SOL    HW228390   0.485   7.778   4.176  0.1307 -1.3810  0.6193
 5821SOL     OW28391   9.549   0.989   5.093  0.3472 -0.4381  0.6648
 5821SOL    HW128392   9.494   0.905   5.095 -0.7402  0.2673  1.3764
 5821SOL    HW228393   9.628   0.978   5.153 -1.4390  0.0993  3.2287
 5822SOL     OW28394   8.420   1.112   4.371 -0.1787  0.0505  0.3285
 5822SOL    HW128395   8.437   1.143   4.278 -0.0278  0.1232  0.3789
 5822SOL    HW228396   8.397   1.191   4.428 -2.1066 -0.2138 -0.0498
 5823SOL     OW28397   7.617   8.387   4.415 -0.3361  0.1412  0.4036
 5823SOL    HW128398   7.616   8.296   4.457 -2.1457  0.2978  0.7721
 5823SOL    HW228399   7.661   8.452   4.477  0.8268 -0.4519  0.2045
 5824SOL     OW28400   2.424   0.726   1.744  0.1392 -0.2835 -0.5288
 5824SOL    HW128401   2.351   0.794   1.756  1.8134  1.3830  0.5926
 5824SOL    HW228402   2.430   0.701   1.648 -2.0113 -0.5692 -0.6134
 5825SOL     OW28403   7.927   9.573   3.658  0.4220  0.2860 -0.0789
 5825SOL    HW128404   8.019   9.597   3.686  1.6153 -1.1804 -2.6050
 5825SOL    HW228405   7.916   9.473   3.659 -1.0962  0.4350  0.0643
 5826SOL     OW28406   9.442   5.988   1.127 -0.1570  0.1787  0.0308
 5826SOL    HW128407   9.533   5.985   1.086 -0.4456 -0.5128 -0.5750
 5826SOL    HW228408   9.415   6.083   1.145 -0.2175  0.5237 -1.8105
 5827SOL     OW28409   8.274   2.975   2.611 -0.0817  0.3635 -0.7035
 5827SOL    HW128410   8.359   2.921   2.604  1.1341  2.0647  0.5298
 5827SOL    HW228411   8.197   2.913   2.625  1.5025 -0.9947  2.6079
 5828SOL     OW28412   4.405   2.284   3.559  0.3149  0.1814  0.1665
 5828SOL    HW128413   4.420   2.311   3.464  1.4402 -2.3482 -0.4038
 5828SOL    HW228414   4.344   2.205   3.562 -0.9372  1.1726  1.6660
 5829SOL     OW28415   9.031   6.130   5.046 -0.1803 -0.3564 -0.2990
 5829SOL    HW128416   9.074   6.039   5.044 -1.2648 -0.9192  1.0149
 5829SOL    HW228417   8.935   6.122   5.018 -0.6871  0.1362  1.2374
 5830SOL     OW28418   4.252   1.648   2.211 -0.2646 -0.3048 -0.6039
 5830SOL    HW128419   4.205   1.601   2.286 -0.1078  0.6692  0.1098
 5830SOL    HW228420   4.326   1.704   2.247 -0.0013 -0.0496 -1.5196
 5831SOL     OW28421   9.582   0.509   2.243  0.3093 -0.5017  0.0322
 5831SOL    HW128422   9.563   0.606   2.261 -0.8430 -0.9791  1.4664
 5831SOL    HW228423   9.665   0.501   2.187  1.6219  1.2249  1.6920
 5832SOL     OW28424   0.123   3.950   2.774  0.0657 -0.2706 -0.0587
 5832SOL    HW128425   0.184   3.892   2.827 -0.1013  0.1818  0.6357
 5832SOL    HW228426   0.102   4.033   2.826  1.3513  1.0417 -1.5688
 5833SOL     OW28427   8.094   0.783   3.289 -0.1605 -0.0437  0.5585
 5833SOL    HW128428   8.007   0.733   3.281  0.6603 -1.1849 -1.8622
 5833SOL    HW228429   8.151   0.739   3.358  0.5148 -2.4793 -1.4767
 5834SOL     OW28430   4.393   1.483   4.329 -0.2839  0.4267 -0.1178
 5834SOL    HW128431   4.397   1.576   4.365 -0.2610  0.8968 -1.3095
 5834SOL    HW228432   4.432   1.481   4.237 -1.6256 -0.4529 -0.6874
 5835SOL     OW28433   9.780   2.150   5.336 -0.7069  0.2114 -0.6306
 5835SOL    HW128434   9.870   2.122   5.370 -2.0682  1.6088  4.6077
 5835SOL    HW228435   9.788   2.236   5.285  1.2114 -1.0981 -2.6409
 5836SOL     OW28436   2.564   6.370   2.373  0.3231 -0.1294  0.1844
 5836SOL    HW128437   2.479   6.318   2.388  0.0389 -0.1885 -1.4559
 5836SOL    HW228438   2.541   6.465   2.352  0.6621 -0.1274 -0.1761
 5837SOL     OW28439   4.968   1.056   1.934 -0.3842 -0.7274  0.0216
 5837SOL    HW128440   5.053   1.004   1.929 -0.1344 -0.3582  0.3714
 5837SOL    HW228441   4.940   1.083   1.842 -0.5547 -1.5353 -0.1672
 5838SOL     OW28442   3.904   5.834   0.964  0.1080 -0.2392  0.4322
 5838SOL    HW128443   3.907   5.878   1.054 -0.2867  0.4822  0.1054
 5838SOL    HW228444   3.925   5.902   0.893  0.5718 -0.8360 -0.0113
 5839SOL     OW28445   5.166   4.034   0.698  0.1849 -0.0646 -0.3087
 5839SOL    HW128446   5.116   4.121   0.696  1.4259  0.7161  1.6413
 5839SOL    HW228447   5.102   3.960   0.714 -0.5035  0.8161  1.1136
 5840SOL     OW28448   9.709   9.322   1.841  0.0931  0.4072  0.3785
 5840SOL    HW128449   9.625   9.364   1.807 -1.6694 -1.9082  1.7878
 5840SOL    HW228450   9.737   9.368   1.925 -1.5143 -0.7738  1.6005
 5841SOL     OW28451   2.878   3.270   5.302 -0.1032  0.3171  0.6907
 5841SOL    HW128452   2.818   3.249   5.224 -0.4421  0.7011  0.8457
 5841SOL    HW228453   2.973   3.255   5.275 -0.1520  1.3864 -0.1181
 5842SOL     OW28454   2.619   8.672   2.537 -0.6417  0.9881  0.4199
 5842SOL    HW128455   2.559   8.655   2.615  0.1027  0.2223  0.8225
 5842SOL    HW228456   2.691   8.736   2.563 -0.1572  0.4223  0.4731
 5843SOL     OW28457   7.892   1.107   4.202  0.0961  0.5470  0.2775
 5843SOL    HW128458   7.968   1.108   4.137 -1.6658  0.3900 -1.8582
 5843SOL    HW228459   7.891   1.194   4.252  0.9006  1.0899 -0.6158
 5844SOL     OW28460   2.283   2.407   5.324  0.2907 -0.7639  0.6671
 5844SOL    HW128461   2.280   2.507   5.312  1.6761 -0.8260 -0.3204
 5844SOL    HW228462   2.197   2.376   5.365  0.1588  0.9249  1.7008
 5845SOL     OW28463   3.621   1.277   0.819 -0.4336  0.4466  0.6084
 5845SOL    HW128464   3.536   1.230   0.844 -0.5683  0.0729 -0.4945
 5845SOL    HW228465   3.690   1.208   0.794 -0.7517  0.8316 -1.3968
 5846SOL     OW28466   8.952   3.315   1.773  0.5761  0.3305  0.5115
 5846SOL    HW128467   9.013   3.259   1.829  0.5032  0.8121  1.0775
 5846SOL    HW228468   8.975   3.412   1.785  0.0824  0.4759  0.2842
 5847SOL     OW28469   2.815   5.954   1.346  0.2191  0.5728  0.0431
 5847SOL    HW128470   2.735   6.013   1.335  0.3730  1.0464  1.3406
 5847SOL    HW228471   2.896   6.000   1.310  0.0053  0.3306 -0.7483
 5848SOL     OW28472   9.853   9.508   1.504 -0.2996  0.6522  0.3907
 5848SOL    HW128473   9.844   9.537   1.409 -0.9279  0.6710  0.4545
 5848SOL    HW228474   9.795   9.429   1.521  2.5559 -1.6774 -0.1753
 5849SOL     OW28475   9.994   7.056   1.675 -0.4446 -0.1118 -0.1078
 5849SOL    HW128476  10.042   7.123   1.730  0.1978 -0.5478 -0.1311
 5849SOL    HW228477  10.040   6.968   1.682 -0.3080 -0.1460 -1.4206
 5850SOL     OW28478   6.880   9.174   4.819  0.2329  0.8257  0.3421
 5850SOL    HW128479   6.948   9.196   4.749 -1.1503  2.1037 -0.6373
 5850SOL    HW228480   6.811   9.247   4.823  0.2991  0.7969  3.0591
 5851SOL     OW28481   3.222   7.835   3.913 -0.2350  0.7760  0.4890
 5851SOL    HW128482   3.208   7.929   3.943  1.7779  0.8874  1.1431
 5851SOL    HW228483   3.155   7.776   3.957 -0.2756  1.6266  1.5945
 5852SOL     OW28484   4.869   9.497   1.747  0.2063 -0.4743 -0.2363
 5852SOL    HW128485   4.924   9.417   1.772  0.9239 -0.3042 -1.2738
 5852SOL    HW228486   4.783   9.466   1.707 -0.8043 -0.7466  2.0816
 5853SOL     OW28487   9.894   0.590   1.232  0.1643  0.5974 -0.2645
 5853SOL    HW128488   9.892   0.530   1.312  0.8108  0.7680 -0.1204
 5853SOL    HW228489   9.972   0.567   1.175 -1.0056 -0.3692 -1.5120
 5854SOL     OW28490   3.823   3.422   2.201 -0.4981  0.1906  0.4580
 5854SOL    HW128491   3.891   3.394   2.133 -0.1781 -1.5861  1.4843
 5854SOL    HW228492   3.736   3.439   2.155 -0.7173 -2.5723 -0.2200
 5855SOL     OW28493   2.089   4.541   4.256  0.0479  0.0880 -0.2664
 5855SOL    HW128494   2.170   4.598   4.269 -0.0281  0.2100 -0.3283
 5855SOL    HW228495   2.113   4.460   4.202 -0.1674  0.8077 -1.4511
 5856SOL     OW28496   1.915   4.017   3.186 -0.6487  0.4968 -0.4884
 5856SOL    HW128497   1.962   3.929   3.183 -0.0235  0.7586  1.1189
 5856SOL    HW228498   1.970   4.087   3.141 -0.1233  0.5147  0.1734
 5857SOL     OW28499   1.123   7.791   0.127  0.1435 -0.1961 -0.0501
 5857SOL    HW128500   1.135   7.852   0.206  0.0567 -1.3037  0.8216
 5857SOL    HW228501   1.074   7.708   0.156 -0.3374 -0.3855 -1.3741
 5858SOL     OW28502   0.573   8.327   3.582 -0.4625  0.2452 -0.0834
 5858SOL    HW128503   0.671   8.307   3.581 -0.4682  0.2019  0.2904
 5858SOL    HW228504   0.538   8.318   3.675 -1.6867 -4.0667 -0.8165
 5859SOL     OW28505   4.277   4.651   5.200  0.1005  0.3960  0.3854
 5859SOL    HW128506   4.305   4.555   5.207  1.8331  0.8495  0.0988
 5859SOL    HW228507   4.274   4.692   5.291 -1.2130 -0.0816  0.5589
 5860SOL     OW28508   3.494   5.983   4.278  0.4021 -0.4708 -0.5984
 5860SOL    HW128509   3.582   5.936   4.284  1.7352  1.9624 -0.3178
 5860SOL    HW228510   3.472   6.002   4.183 -0.0634 -1.4849 -0.7012
 5861SOL     OW28511   9.991   3.126   2.813  0.3811  0.4487  0.1589
 5861SOL    HW128512  10.025   3.109   2.721  0.6476 -1.4875  0.6036
 5861SOL    HW228513   9.900   3.086   2.824  0.5353  0.2728  0.8646
 5862SOL     OW28514   8.834   2.473   5.091 -0.4364 -0.0672 -0.3324
 5862SOL    HW128515   8.856   2.394   5.148 -1.5168 -0.6426 -0.7089
 5862SOL    HW228516   8.742   2.505   5.114  0.2724  1.5498  0.3561
 5863SOL     OW28517   9.033   9.028   0.010 -0.0633 -0.0292 -0.1895
 5863SOL    HW128518   8.959   9.091  -0.016 -1.7011 -1.4195  1.0450
 5863SOL    HW228519   9.044   9.028   0.109 -0.0040 -1.5961 -0.1857
 5864SOL     OW28520   6.082   8.701   2.845 -0.4884  0.5994 -0.3292
 5864SOL    HW128521   5.982   8.705   2.854 -0.4870  2.2134 -0.8005
 5864SOL    HW228522   6.117   8.792   2.821  1.1063  0.0601 -0.1227
 5865SOL     OW28523   8.682   1.287   3.446 -0.3532  0.2430 -0.1523
 5865SOL    HW128524   8.602   1.260   3.500 -0.3761  0.3961 -0.1100
 5865SOL    HW228525   8.687   1.229   3.364  0.2790 -0.7132  0.5458
 5866SOL     OW28526   5.305   1.534   1.568  0.5603 -0.0543  0.3517
 5866SOL    HW128527   5.340   1.625   1.591 -0.5904  0.7425 -0.9519
 5866SOL    HW228528   5.254   1.498   1.646  0.6824  0.5918  0.7377
 5867SOL     OW28529   3.866   8.664   3.775 -0.4777  0.3328 -0.4238
 5867SOL    HW128530   3.834   8.720   3.852 -0.0810  0.3147 -0.2479
 5867SOL    HW228531   3.948   8.706   3.736 -0.1420 -0.1629 -0.2530
 5868SOL     OW28532   0.788   0.525   0.900 -0.2233 -0.1462 -0.1781
 5868SOL    HW128533   0.754   0.434   0.876 -0.6438 -0.7590  2.5516
 5868SOL    HW228534   0.883   0.533   0.871 -0.6008 -0.9115 -1.7153
 5869SOL     OW28535   9.912   3.721   0.245  0.2779 -0.4249 -0.5307
 5869SOL    HW128536   9.898   3.762   0.336  1.0577 -0.3343 -0.4490
 5869SOL    HW228537   9.835   3.746   0.185 -0.0446 -0.1619 -0.0132
 5870SOL     OW28538   0.731   9.645   1.929 -0.1867  0.5392 -0.1230
 5870SOL    HW128539   0.712   9.725   1.986 -3.3444 -1.5058  1.8547
 5870SOL    HW228540   0.764   9.570   1.986 -1.6096 -0.9599 -1.2104
 5871SOL     OW28541   7.457   0.839   4.989  0.1712  1.2428 -0.4876
 5871SOL    HW128542   7.530   0.778   5.021 -1.8210 -1.8338 -1.5306
 5871SOL    HW228543   7.495   0.929   4.970  3.5991 -0.1079 -0.5063
 5872SOL     OW28544   0.834   0.813   2.997  0.1232 -0.3903  0.4512
 5872SOL    HW128545   0.848   0.738   2.932 -1.2000  0.1579 -0.4869
 5872SOL    HW228546   0.780   0.780   3.075  1.0228 -0.8458  0.8848
 5873SOL     OW28547   8.443   3.293   2.009 -0.0518 -0.0333  0.2468
 5873SOL    HW128548   8.529   3.307   1.960 -0.9836 -0.9108 -1.7114
 5873SOL    HW228549   8.455   3.220   2.077  1.8082  2.5739  2.8535
 5874SOL     OW28550   3.915   1.086   0.994 -0.1226  0.3597  0.4446
 5874SOL    HW128551   3.878   1.059   0.906  0.2423  0.0383  0.3858
 5874SOL    HW228552   3.939   1.005   1.047  0.1540  0.5539  0.6257
 5875SOL     OW28553   0.856   1.244   2.568 -0.0087  0.2667 -0.0358
 5875SOL    HW128554   0.919   1.198   2.506 -0.0036 -1.8887  1.5018
 5875SOL    HW228555   0.900   1.257   2.657 -1.1198  0.3199  0.5130
 5876SOL     OW28556   8.392   0.445   2.426  0.5673  0.2528  0.2523
 5876SOL    HW128557   8.469   0.409   2.374 -0.2257 -0.5939 -0.3542
 5876SOL    HW228558   8.355   0.525   2.379 -0.0744 -0.4411 -0.4492
 5877SOL     OW28559   6.584   1.267   3.356  0.1850 -0.4020 -0.0898
 5877SOL    HW128560   6.655   1.197   3.364  1.1894  0.5040 -0.9044
 5877SOL    HW228561   6.589   1.310   3.266 -1.3962 -0.3142 -0.1413
 5878SOL     OW28562   4.341   8.422   2.270  0.2143  0.1041 -0.4006
 5878SOL    HW128563   4.326   8.518   2.292  0.3903  0.3144 -1.1950
 5878SOL    HW228564   4.277   8.393   2.198 -0.0828 -0.4713  0.0845
 5879SOL     OW28565   9.565   8.224   3.988 -0.4132 -0.1666 -0.0931
 5879SOL    HW128566   9.580   8.246   3.891  0.0957  2.1744  0.5038
 5879SOL    HW228567   9.653   8.222   4.035 -0.7278 -0.6334  0.4871
 5880SOL     OW28568   3.194   7.578   1.413 -0.2628  0.0736  0.3878
 5880SOL    HW128569   3.279   7.530   1.388 -1.2632 -0.7218 -1.6389
 5880SOL    HW228570   3.128   7.512   1.448 -0.5845  0.4564  0.5027
 5881SOL     OW28571   2.061   6.042   2.223 -0.1970 -0.3368  0.3296
 5881SOL    HW128572   2.060   5.957   2.276  2.1533  1.0449  2.7623
 5881SOL    HW228573   2.132   6.036   2.153 -0.6142 -0.6988 -0.0620
 5882SOL     OW28574   0.200   1.188   3.160  0.1062 -0.4472  0.1354
 5882SOL    HW128575   0.257   1.140   3.227  2.0863  0.8542 -0.5652
 5882SOL    HW228576   0.209   1.287   3.173  0.7224 -0.1661 -2.1543
 5883SOL     OW28577   8.760   2.538   3.098  0.7554 -0.5136  0.1214
 5883SOL    HW128578   8.718   2.454   3.066  2.2273 -1.0897 -0.3198
 5883SOL    HW228579   8.811   2.581   3.024 -1.8296  1.9988 -0.3300
 5884SOL     OW28580   5.555   0.519   4.076  0.2170 -0.2954 -0.0376
 5884SOL    HW128581   5.564   0.427   4.114  0.6279 -0.6723 -1.0518
 5884SOL    HW228582   5.462   0.553   4.094 -0.0838 -1.0847 -0.0664
 5885SOL     OW28583   4.289   3.360   1.779 -0.0773  0.2240 -0.4063
 5885SOL    HW128584   4.321   3.455   1.786 -0.3590  0.5367 -2.7309
 5885SOL    HW228585   4.190   3.357   1.785  0.0027 -0.0528  0.7797
 5886SOL     OW28586   8.190   4.897   0.552  0.1174  0.3202 -0.0653
 5886SOL    HW128587   8.210   4.935   0.462 -0.9429  2.0298  0.4078
 5886SOL    HW228588   8.201   4.968   0.622 -1.5182 -0.3243  0.8763
 5887SOL     OW28589   3.131   9.088   2.221  0.1861  0.3408  0.0370
 5887SOL    HW128590   3.204   9.088   2.152  2.1730  0.0655  2.0957
 5887SOL    HW228591   3.102   9.182   2.238  1.2201  0.6095  0.3745
 5888SOL     OW28592   5.531   9.890   4.144 -0.2515 -0.6570 -0.0965
 5888SOL    HW128593   5.516   9.833   4.063 -2.3008  0.8516 -0.8173
 5888SOL    HW228594   5.469   9.861   4.217 -0.2980 -0.2701  0.0165
 5889SOL     OW28595   0.886   1.335   1.681  0.2983  0.4984  0.1185
 5889SOL    HW128596   0.812   1.273   1.705  2.3924 -1.1350  2.5784
 5889SOL    HW228597   0.897   1.404   1.754  0.5351  1.3722 -0.7301
 5890SOL     OW28598   1.564   9.035   1.788  0.1570 -0.1445 -0.2171
 5890SOL    HW128599   1.483   9.085   1.818  0.8222  0.6998  0.1799
 5890SOL    HW228600   1.612   9.088   1.718  0.9646 -0.1486  0.3353
 5891SOL     OW28601   3.827   5.330   4.015  0.0599 -0.2537 -0.0064
 5891SOL    HW128602   3.732   5.330   3.983  0.3103 -0.1275 -0.7628
 5891SOL    HW228603   3.829   5.344   4.114 -0.8499 -2.9769  0.4533
 5892SOL     OW28604   6.135   4.173   5.522  0.0975 -0.2677 -0.0442
 5892SOL    HW128605   6.231   4.192   5.545 -0.1700 -1.3210  2.0445
 5892SOL    HW228606   6.099   4.248   5.467  1.5008  1.1951  0.9826
 5893SOL     OW28607   3.531   8.026   0.241 -0.0085 -0.3794  0.0899
 5893SOL    HW128608   3.529   8.025   0.141 -0.3552  0.2005  0.0926
 5893SOL    HW228609   3.625   8.019   0.273  0.3008  1.9190 -0.2949
 5894SOL     OW28610   3.412   1.911   3.378  0.1202  0.4613 -0.1756
 5894SOL    HW128611   3.508   1.889   3.361  0.1232 -0.6842  1.2082
 5894SOL    HW228612   3.386   1.990   3.323  1.8989  0.9028 -0.4253
 5895SOL     OW28613   3.653   5.041   0.969 -0.2600  0.0562  0.6295
 5895SOL    HW128614   3.572   5.095   0.993 -0.7923 -1.0863  1.4260
 5895SOL    HW228615   3.734   5.086   1.006 -0.6450  0.5859  0.8450
 5896SOL     OW28616   9.564   3.653   3.116  0.4311  0.2270  0.2859
 5896SOL    HW128617   9.621   3.652   3.198  0.6119  1.9177  0.1998
 5896SOL    HW228618   9.588   3.731   3.059 -1.5592  0.6308 -0.0436
 5897SOL     OW28619   0.023   6.402   1.082 -0.4984 -0.1943 -0.6863
 5897SOL    HW128620   0.016   6.306   1.053 -1.4656  0.4474 -2.6438
 5897SOL    HW228621  -0.069   6.440   1.094 -0.1189 -0.1338  2.2714
 5898SOL     OW28622   0.251   5.350   4.506  0.2178  0.0318 -0.4870
 5898SOL    HW128623   0.236   5.373   4.602  1.4234  1.7069 -0.6922
 5898SOL    HW228624   0.337   5.301   4.496  0.0946 -0.1402 -0.7147
 5899SOL     OW28625   2.396   1.336   2.925  0.2805 -0.9024  0.3456
 5899SOL    HW128626   2.350   1.338   2.836 -1.6670 -0.7145  1.3337
 5899SOL    HW228627   2.422   1.429   2.951  2.1323 -1.1127 -0.6456
 5900SOL     OW28628   4.071   7.669   2.331 -0.1922  0.1498  0.2537
 5900SOL    HW128629   3.979   7.638   2.306  0.0883 -0.0297 -0.5744
 5900SOL    HW228630   4.139   7.610   2.288  0.3091 -0.0774  1.3456
 5901SOL     OW28631   0.588   2.494   0.545  0.1164  0.0939 -0.4888
 5901SOL    HW128632   0.609   2.582   0.586 -1.5354  0.1762  0.1861
 5901SOL    HW228633   0.658   2.427   0.572  1.1672  1.0819 -0.7107
 5902SOL     OW28634   7.470   3.914   5.381  0.1683  0.0320 -0.3549
 5902SOL    HW128635   7.491   3.905   5.284 -0.2274  1.7617 -0.6005
 5902SOL    HW228636   7.554   3.933   5.432 -0.1172  2.7667 -0.8279
 5903SOL     OW28637   0.988   7.821   0.779 -0.7959 -0.3982 -0.6789
 5903SOL    HW128638   1.001   7.834   0.681  1.8159 -0.6562 -0.4016
 5903SOL    HW228639   0.895   7.789   0.797 -0.6853 -2.2420 -3.2328
 5904SOL     OW28640   3.271   3.066   1.256  0.0887 -0.9647 -0.2220
 5904SOL    HW128641   3.255   2.970   1.231 -1.3248 -0.1750 -2.5768
 5904SOL    HW228642   3.272   3.121   1.173 -0.7145  1.2931  1.2419
 5905SOL     OW28643   6.524   7.347   3.522 -0.2245  0.0053 -0.1490
 5905SOL    HW128644   6.540   7.254   3.487 -0.0705 -0.3402  0.8088
 5905SOL    HW228645   6.435   7.350   3.567  0.7605 -0.3487  1.9309
 5906SOL     OW28646   7.863   1.373   2.562  0.3458  0.3578 -0.0897
 5906SOL    HW128647   7.769   1.360   2.595 -0.0119 -1.0642 -1.6114
 5906SOL    HW228648   7.926   1.326   2.623 -0.1949 -1.1670 -0.6928
 5907SOL     OW28649   0.334   5.091   4.894 -0.3943  0.4601 -0.0891
 5907SOL    HW128650   0.321   5.170   4.952 -1.5745  0.1161  0.1303
 5907SOL    HW228651   0.377   5.017   4.946  0.2075  0.7717 -0.1466
 5908SOL     OW28652   3.317   3.582   3.140 -0.0954 -0.2496  0.1310
 5908SOL    HW128653   3.406   3.620   3.116  0.0580 -0.7938 -0.1888
 5908SOL    HW228654   3.280   3.629   3.220  0.3533  0.1645  0.0956
 5909SOL     OW28655   5.980   7.906   3.931  0.1834  0.6535 -0.2883
 5909SOL    HW128656   6.076   7.911   3.906  0.3863  1.4059  0.6034
 5909SOL    HW228657   5.961   7.818   3.973  1.0003  1.3390  1.5701
 5910SOL     OW28658   8.713   9.792   4.808 -0.0121 -0.1797 -0.1273
 5910SOL    HW128659   8.800   9.767   4.766 -0.1201  1.1616 -1.1684
 5910SOL    HW228660   8.689   9.723   4.877  2.3311 -0.0780  0.8386
 5911SOL     OW28661   9.569   2.989   2.202  0.3010 -0.3000 -0.3579
 5911SOL    HW128662   9.661   3.007   2.235  0.3252 -0.3623 -0.3939
 5911SOL    HW228663   9.509   3.065   2.226 -0.1115 -1.1647  1.4775
 5912SOL     OW28664   5.576   9.225   2.971  0.5150 -0.3362 -0.2136
 5912SOL    HW128665   5.639   9.286   3.018 -1.8735  0.1901  2.3819
 5912SOL    HW228666   5.569   9.138   3.021 -0.3451 -0.6349 -0.8279
 5913SOL     OW28667   1.135   7.069   1.714 -0.0477  0.0854 -0.2584
 5913SOL    HW128668   1.037   7.063   1.693  0.2727 -1.3563 -1.3913
 5913SOL    HW228669   1.182   7.119   1.641  0.1004  0.6256  0.2000
 5914SOL     OW28670   8.877   9.554   5.130  0.7971 -0.4000 -0.4023
 5914SOL    HW128671   8.879   9.466   5.082  0.6965 -0.8326  0.3698
 5914SOL    HW228672   8.805   9.612   5.092  1.3707 -0.3489 -1.4340
 5915SOL     OW28673   9.598   6.892   3.217 -1.1121  0.5722  0.6011
 5915SOL    HW128674   9.637   6.968   3.268 -0.5909  0.2050  0.7534
 5915SOL    HW228675   9.671   6.836   3.179 -1.5039  0.9601 -0.7268
 5916SOL     OW28676   9.612   2.802   1.568  0.7559 -0.1007  0.9350
 5916SOL    HW128677   9.529   2.766   1.523  0.0014  0.6675  1.7060
 5916SOL    HW228678   9.667   2.725   1.600  0.6393 -0.6346 -0.1151
 5917SOL     OW28679   9.550   3.276   4.271  0.3331  0.4052  0.0211
 5917SOL    HW128680   9.610   3.223   4.211  0.4680  0.1843  0.3495
 5917SOL    HW228681   9.585   3.369   4.279 -1.5728  1.4818 -3.0349
 5918SOL     OW28682   4.160   4.200   4.180  0.8194  0.1472 -0.0922
 5918SOL    HW128683   4.117   4.197   4.090  0.8012  2.0664 -0.1796
 5918SOL    HW228684   4.090   4.188   4.250  0.2920  1.9182 -0.2718
 5919SOL     OW28685   2.943   1.306   4.298 -0.0833 -0.3636 -0.3803
 5919SOL    HW128686   2.852   1.336   4.272 -0.7480 -1.0568  1.0569
 5919SOL    HW228687   2.936   1.245   4.378  1.4640 -1.8543 -1.3465
 5920SOL     OW28688   3.271   8.063   4.293  0.4748 -0.6107  0.4182
 5920SOL    HW128689   3.292   7.982   4.348  2.2792 -1.7042 -1.8015
 5920SOL    HW228690   3.342   8.132   4.307 -1.0936  0.6466  2.3529
 5921SOL     OW28691   4.409   3.060   3.093 -0.1994 -0.1936 -0.0925
 5921SOL    HW128692   4.417   2.966   3.125  0.0406 -0.5199 -1.0903
 5921SOL    HW228693   4.371   3.060   3.000  0.5352  0.6413 -0.3994
 5922SOL     OW28694   3.841   8.958   0.004  0.4578  0.1239  0.3324
 5922SOL    HW128695   3.847   9.054   0.030  0.2199  0.1752  0.2059
 5922SOL    HW228696   3.910   8.938  -0.066 -0.9096  0.7376 -1.2243
 5923SOL     OW28697   1.908   4.532   4.779  0.2864  0.4826  0.4977
 5923SOL    HW128698   1.945   4.511   4.688 -1.5945 -2.9509  0.4430
 5923SOL    HW228699   1.844   4.608   4.772  0.6297  0.6607 -0.9237
 5924SOL     OW28700   0.890   7.664   1.031 -0.1409 -0.6067 -0.1702
 5924SOL    HW128701   0.825   7.653   0.956 -1.2186  0.5074  0.5852
 5924SOL    HW228702   0.980   7.630   1.003  0.0074  1.7679 -2.6866
 5925SOL     OW28703   8.384   8.317   0.391 -0.1294 -0.2575  0.1162
 5925SOL    HW128704   8.406   8.349   0.483  2.9203  1.0154 -1.0008
 5925SOL    HW228705   8.353   8.394   0.335  2.6983 -0.0170 -1.2374
 5926SOL     OW28706   5.343   8.539   4.019  0.2518  0.1635  0.0536
 5926SOL    HW128707   5.349   8.628   3.974 -0.1863 -0.8318 -2.0443
 5926SOL    HW228708   5.414   8.478   3.983  0.1456 -0.5373  1.0056
 5927SOL     OW28709   6.240   8.850   3.794  0.0649  0.0606  0.1370
 5927SOL    HW128710   6.143   8.831   3.809 -0.1289  0.1712 -0.9293
 5927SOL    HW228711   6.272   8.914   3.864 -0.4365 -0.5665  0.9540
 5928SOL     OW28712   2.628   2.378   4.782  0.1866  0.4104 -0.0253
 5928SOL    HW128713   2.682   2.445   4.831  0.5579  1.2090 -1.4988
 5928SOL    HW228714   2.531   2.403   4.786  0.1502  0.1509  0.7866
 5929SOL     OW28715   6.325   1.913   3.125 -0.4948 -0.0319 -0.1652
 5929SOL    HW128716   6.403   1.860   3.091 -1.4418 -2.3132  1.0718
 5929SOL    HW228717   6.332   1.922   3.225 -2.6470 -1.7539  0.1784
 5930SOL     OW28718   7.786   1.601   5.314 -0.3807 -0.3476  0.3867
 5930SOL    HW128719   7.801   1.514   5.269 -0.4632  0.8547 -2.0076
 5930SOL    HW228720   7.688   1.613   5.331 -0.2706 -1.1672  1.6995
 5931SOL     OW28721   3.776   6.825   1.911  0.0919  0.2246  0.3370
 5931SOL    HW128722   3.780   6.891   1.836  2.0688  0.4714  0.6419
 5931SOL    HW228723   3.760   6.873   1.997 -0.9386  0.0611  0.2388
 5932SOL     OW28724   7.718   3.430   4.986  0.2083 -0.0434  0.3439
 5932SOL    HW128725   7.804   3.419   5.035  0.1212  0.5034  0.6191
 5932SOL    HW228726   7.646   3.456   5.050  0.7840  3.9973 -0.5117
 5933SOL     OW28727   8.404   6.673   0.261  0.2609 -0.2237 -0.7796
 5933SOL    HW128728   8.443   6.686   0.352 -0.5805  0.3547 -0.4877
 5933SOL    HW228729   8.471   6.630   0.201  0.9704 -0.2047 -0.0048
 5934SOL     OW28730   0.304   9.048   2.521 -0.3081  0.6148 -0.0676
 5934SOL    HW128731   0.321   9.019   2.616 -2.1619  2.2629  0.8074
 5934SOL    HW228732   0.364   9.125   2.499  1.4384 -0.9308 -0.8967
 5935SOL     OW28733   2.811   5.380   3.016  0.1910 -0.1692 -0.0686
 5935SOL    HW128734   2.785   5.413   2.925 -1.9569  0.6348  0.7884
 5935SOL    HW228735   2.874   5.445   3.058  0.2711  0.0555 -0.5294
 5936SOL     OW28736   3.780   3.343   0.938 -0.1332  0.3281 -0.2201
 5936SOL    HW128737   3.834   3.382   0.864 -1.1409  0.5329 -0.8517
 5936SOL    HW228738   3.763   3.413   1.008  1.7151 -0.1449  0.7325
 5937SOL     OW28739   7.043   9.956   5.471  0.3557 -1.1549 -0.0704
 5937SOL    HW128740   7.005  10.013   5.399  0.3303 -0.3445  0.5688
 5937SOL    HW228741   7.142   9.949   5.460  0.7644  1.4828  1.5219
 5938SOL     OW28742   8.677   0.433   4.866  0.3614  0.6188  0.3117
 5938SOL    HW128743   8.586   0.415   4.829  0.4186 -0.6856  0.7604
 5938SOL    HW228744   8.704   0.356   4.925  1.3955  1.3931  0.8566
 5939SOL     OW28745   2.707   5.727   1.269  0.0084  0.0625 -0.8651
 5939SOL    HW128746   2.752   5.810   1.300 -0.4686  0.0031  0.0108
 5939SOL    HW228747   2.769   5.675   1.210  0.6112  0.6114 -0.7192
 5940SOL     OW28748   9.357   6.002   3.008  0.0387 -0.5170  0.5292
 5940SOL    HW128749   9.405   6.000   2.920 -0.4787  1.3502  0.1751
 5940SOL    HW228750   9.372   6.091   3.052 -0.8010 -0.9462  1.7116
 5941SOL     OW28751   9.001   2.170   2.887 -0.0751 -0.1068 -0.9431
 5941SOL    HW128752   9.059   2.121   2.952 -0.0877  0.4664 -0.5027
 5941SOL    HW228753   8.917   2.117   2.872 -0.1568 -0.1505 -0.3481
 5942SOL     OW28754   8.271   2.339   3.150 -0.3935 -0.0904  0.1429
 5942SOL    HW128755   8.247   2.428   3.111  0.8385 -0.0724 -0.5951
 5942SOL    HW228756   8.291   2.351   3.248 -1.3480  0.2453  0.2985
 5943SOL     OW28757   9.455   6.456   3.958 -0.1101 -0.2019  0.3133
 5943SOL    HW128758   9.521   6.492   4.023  0.1084  0.7155 -0.4137
 5943SOL    HW228759   9.503   6.423   3.877 -0.4340 -0.7668  0.3524
 5944SOL     OW28760   2.819   8.939   1.052 -0.1057  0.1677  0.2063
 5944SOL    HW128761   2.732   8.916   1.095 -0.2547  1.1651  0.4393
 5944SOL    HW228762   2.819   9.035   1.025  1.3491  0.4670  1.2211
 5945SOL     OW28763   8.157   4.626   2.059 -0.1296  0.5463 -0.5931
 5945SOL    HW128764   8.177   4.601   2.153  1.3662 -0.7292 -1.2255
 5945SOL    HW228765   8.082   4.569   2.025  1.8974 -1.7311 -1.3712
 5946SOL     OW28766   2.760   3.982   4.089  0.4798  0.9664  0.7396
 5946SOL    HW128767   2.749   3.938   4.178 -1.0161  0.6580  0.4044
 5946SOL    HW228768   2.808   3.920   4.027 -1.2487 -0.0672  0.3932
 5947SOL     OW28769   4.303   2.208   3.994  0.6306 -0.3961  0.0868
 5947SOL    HW128770   4.286   2.114   3.967  0.0554 -0.4898  0.7546
 5947SOL    HW228771   4.244   2.232   4.071  2.1097 -0.0806  1.1463
 5948SOL     OW28772   1.708   9.522   3.884 -0.5549  0.1606  0.2900
 5948SOL    HW128773   1.757   9.444   3.923  0.6848  1.0440  0.5354
 5948SOL    HW228774   1.765   9.604   3.892 -1.5810  0.9636 -0.5509
 5949SOL     OW28775   7.207   5.401   5.475 -0.0693 -0.0974 -0.6581
 5949SOL    HW128776   7.108   5.388   5.488 -0.1886  1.3670  0.0268
 5949SOL    HW228777   7.247   5.317   5.439 -1.0787 -1.7371  1.8749
 5950SOL     OW28778   3.828   9.033   4.637 -0.3474  0.0623 -0.4290
 5950SOL    HW128779   3.820   9.112   4.577  0.8301  1.0177  0.6488
 5950SOL    HW228780   3.924   9.006   4.643 -0.6919 -1.2180 -0.4800
 5951SOL     OW28781   6.449   4.177   5.553 -0.1604  0.4087  0.0265
 5951SOL    HW128782   6.508   4.219   5.621 -0.2404 -0.3108  0.5444
 5951SOL    HW228783   6.505   4.137   5.480  0.0377 -1.0128  0.9449
 5952SOL     OW28784   9.801   8.518   5.005  0.3066  0.5621  0.2540
 5952SOL    HW128785   9.741   8.525   5.085  1.8502 -0.2017  1.5121
 5952SOL    HW228786   9.847   8.605   4.990  1.5430  0.1472  1.4655
 5953SOL     OW28787   3.241   7.641   5.399 -0.6106 -0.3762 -0.0948
 5953SOL    HW128788   3.197   7.720   5.355  1.8988  0.9942 -0.2699
 5953SOL    HW228789   3.317   7.610   5.342  0.6038 -0.6864  1.6619
 5954SOL     OW28790   2.214   2.618   0.636 -0.4096  0.3300 -0.2138
 5954SOL    HW128791   2.254   2.670   0.711 -0.0073  0.4256 -0.4910
 5954SOL    HW228792   2.189   2.680   0.561 -0.8491  0.2412 -0.1412
 5955SOL     OW28793   8.806   1.762   1.892  0.2034 -0.0291  0.1692
 5955SOL    HW128794   8.883   1.815   1.854  1.5065 -1.4645  0.7712
 5955SOL    HW228795   8.720   1.798   1.855  1.0704  2.2883  0.2915
 5956SOL     OW28796   7.335   5.471   4.996  0.0264 -0.7681  0.0032
 5956SOL    HW128797   7.353   5.374   5.011 -2.4138 -1.0487  1.2736
 5956SOL    HW228798   7.352   5.493   4.900  0.1350 -2.5359 -0.4070
 5957SOL     OW28799   2.544   1.466   2.621 -0.1084  0.1604  0.3923
 5957SOL    HW128800   2.609   1.495   2.691  0.9144 -0.8771 -0.1071
 5957SOL    HW228801   2.487   1.392   2.657  0.5956 -0.5544  0.0531
 5958SOL     OW28802   4.436   6.852   2.206 -0.5018 -0.0248 -0.6584
 5958SOL    HW128803   4.413   6.807   2.120 -0.4848  0.1063 -0.7303
 5958SOL    HW228804   4.525   6.819   2.238 -0.1510  0.5182 -1.0876
 5959SOL     OW28805   4.959   0.661   1.586 -0.4908  0.0155 -0.4391
 5959SOL    HW128806   5.010   0.602   1.524 -1.0313 -0.6992 -0.2070
 5959SOL    HW228807   4.926   0.607   1.664  0.8106  1.0415  0.8500
 5960SOL     OW28808   8.382   5.931   0.283  0.3074 -0.0012 -0.1421
 5960SOL    HW128809   8.308   5.936   0.349  0.6074  0.5780  0.1580
 5960SOL    HW228810   8.458   5.988   0.314  0.5862  0.0040 -0.8136
 5961SOL     OW28811   8.584   7.833   5.495 -0.3134 -0.0819  0.2048
 5961SOL    HW128812   8.552   7.818   5.401  2.7322  1.0692 -1.0885
 5961SOL    HW228813   8.627   7.749   5.529  1.3734  0.4000 -0.6465
 5962SOL     OW28814   9.323   2.354   3.550 -0.0050 -0.0189 -0.2233
 5962SOL    HW128815   9.338   2.362   3.451 -0.2514  2.3744 -0.0964
 5962SOL    HW228816   9.316   2.257   3.575  2.2680 -0.7398 -2.2089
 5963SOL     OW28817   0.244   3.361   3.720  0.0477 -0.1400 -0.3761
 5963SOL    HW128818   0.324   3.398   3.672 -0.4784  0.2511 -0.9542
 5963SOL    HW228819   0.270   3.337   3.813  0.6494  0.7388 -0.3073
 5964SOL     OW28820   1.223   5.961   3.104 -0.3373  0.2305  0.3836
 5964SOL    HW128821   1.139   6.014   3.119 -0.3769  0.0732  0.7245
 5964SOL    HW228822   1.301   6.013   3.139  0.0556  1.5608 -2.2846
 5965SOL     OW28823   0.566   3.595   3.448 -0.5521 -0.4174 -0.1602
 5965SOL    HW128824   0.540   3.567   3.356 -0.2058 -1.3008  0.0036
 5965SOL    HW228825   0.661   3.627   3.448 -0.5402 -0.4516 -0.1091
 5966SOL     OW28826   1.867   4.616   3.314  0.7167  0.2148 -0.4861
 5966SOL    HW128827   1.845   4.714   3.313  1.0553  0.3116  0.3781
 5966SOL    HW228828   1.860   4.579   3.222 -2.5716  0.3252 -0.3437
 5967SOL     OW28829   9.730   5.393   0.006  0.5454  0.6694  0.0110
 5967SOL    HW128830   9.700   5.453   0.080 -0.5849  0.2794 -0.1328
 5967SOL    HW228831   9.711   5.437  -0.082 -0.5807 -0.0437 -0.0999
 5968SOL     OW28832   0.707   2.604   4.267  0.3391 -0.0010  0.1549
 5968SOL    HW128833   0.760   2.632   4.188 -1.1576  0.0910 -0.8381
 5968SOL    HW228834   0.661   2.683   4.307 -2.8614 -0.7480 -1.8815
 5969SOL     OW28835   5.062   0.037   0.908 -0.3320  0.0406 -0.1152
 5969SOL    HW128836   5.050   0.134   0.892  1.7370  0.4585  0.6751
 5969SOL    HW228837   5.156   0.011   0.886 -0.3494 -1.3976  1.3738
 5970SOL     OW28838   0.196   5.184   3.951  0.4208  0.2426 -0.0389
 5970SOL    HW128839   0.139   5.262   3.979 -0.5967 -0.6984  0.5605
 5970SOL    HW228840   0.292   5.205   3.970  0.0434  0.8860  1.2587
 5971SOL     OW28841   2.489   5.135   0.848 -0.1360  0.5378  0.2271
 5971SOL    HW128842   2.399   5.159   0.813 -1.3675 -1.8138  1.6173
 5971SOL    HW228843   2.538   5.080   0.779 -0.0858  1.1148 -0.2008
 5972SOL     OW28844   3.598   8.009   2.730 -0.6077 -0.2995 -0.3927
 5972SOL    HW128845   3.614   7.947   2.808  1.4266 -1.3285 -1.5981
 5972SOL    HW228846   3.597   8.103   2.763 -0.4543 -0.7639  0.9948
 5973SOL     OW28847   9.014   1.585   1.217 -0.0272 -0.1887  0.5940
 5973SOL    HW128848   9.007   1.509   1.281  0.2585 -0.8278 -0.1158
 5973SOL    HW228849   9.035   1.549   1.126 -0.0267  0.7337  0.2268
 5974SOL     OW28850   5.687   0.051   3.808 -0.4430 -0.4045 -0.2522
 5974SOL    HW128851   5.762   0.082   3.749 -1.7170  2.8997 -0.2707
 5974SOL    HW228852   5.600   0.068   3.762 -1.3202 -1.2642  1.0759
 5975SOL     OW28853   1.135   4.883   5.277 -0.0646 -1.0512  0.3546
 5975SOL    HW128854   1.039   4.910   5.286  0.3442 -0.0967  2.0357
 5975SOL    HW228855   1.162   4.886   5.180 -1.4488 -0.3730 -0.0159
 5976SOL     OW28856   8.962   5.555   1.461 -0.3968  0.1536 -0.2227
 5976SOL    HW128857   8.883   5.606   1.498  0.2166  0.1856  1.0723
 5976SOL    HW228858   8.980   5.586   1.368 -1.7324  0.3657 -0.4265
 5977SOL     OW28859   8.540   5.580   0.034  0.1487  0.2699 -0.2690
 5977SOL    HW128860   8.464   5.541  -0.018 -0.3631  1.1567 -0.1993
 5977SOL    HW228861   8.571   5.514   0.102 -1.1999  0.2409  0.3444
 5978SOL     OW28862   8.815   3.984   2.032 -0.0792 -0.2688  0.0359
 5978SOL    HW128863   8.824   4.004   1.935 -2.8339 -0.5022 -0.3092
 5978SOL    HW228864   8.745   3.913   2.045  0.4508 -0.4377  2.1749
 5979SOL     OW28865   1.260   8.067   0.650 -0.1841 -0.0688 -0.3861
 5979SOL    HW128866   1.279   8.089   0.745  0.4408 -0.7142 -0.3552
 5979SOL    HW228867   1.235   7.971   0.642  0.6671 -0.2488 -0.9829
 5980SOL     OW28868   9.468   6.935   4.250  0.1462  0.0072  0.2869
 5980SOL    HW128869   9.558   6.893   4.255 -0.0826 -0.4126  0.9726
 5980SOL    HW228870   9.475   7.025   4.206  1.2672  1.0228  2.4627
 5981SOL     OW28871   5.194   7.815   3.069  0.0383 -0.4661  0.4429
 5981SOL    HW128872   5.255   7.888   3.036 -1.6708  1.0111  0.4758
 5981SOL    HW228873   5.248   7.745   3.116  2.0631 -0.6646 -2.0605
 5982SOL     OW28874   9.813   3.490   3.927  1.3777  0.0162  0.2345
 5982SOL    HW128875   9.861   3.576   3.910  0.8692  0.2983  0.2274
 5982SOL    HW228876   9.747   3.473   3.853 -0.9483  1.3208  1.9489
 5983SOL     OW28877   1.638   5.912   1.397  0.2531 -0.3237 -1.1354
 5983SOL    HW128878   1.546   5.895   1.433  0.8161 -0.0923  0.4774
 5983SOL    HW228879   1.701   5.845   1.435  0.7300 -0.5438 -2.3184
 5984SOL     OW28880   3.420   7.026   3.066  0.4371 -0.3151  0.1455
 5984SOL    HW128881   3.389   6.934   3.042  0.0434 -0.4936  1.3308
 5984SOL    HW228882   3.441   7.031   3.164  0.5724  0.8206  0.0738
 5985SOL     OW28883   2.742   0.787   3.594 -0.6826  0.2855  0.2139
 5985SOL    HW128884   2.804   0.854   3.634 -0.2705 -0.0686  0.1784
 5985SOL    HW228885   2.768   0.695   3.624 -1.0518  0.1137  0.0194
 5986SOL     OW28886   1.328   2.318   0.589 -0.4349 -0.2910  0.0292
 5986SOL    HW128887   1.287   2.229   0.569  1.5968 -1.4194  0.6817
 5986SOL    HW228888   1.382   2.348   0.510  1.0598 -0.9250  0.7988
 5987SOL     OW28889   5.235   7.561   2.898  0.2373 -0.2599  0.2763
 5987SOL    HW128890   5.194   7.641   2.854  0.1457 -0.2127  0.4440
 5987SOL    HW228891   5.164   7.511   2.948  0.4227 -0.0593  0.7437
 5988SOL     OW28892   8.616   9.211   1.198 -0.1620 -0.2660  0.1257
 5988SOL    HW128893   8.517   9.212   1.188  0.0312 -1.6469 -2.2132
 5988SOL    HW228894   8.645   9.120   1.229  0.4549 -0.1637 -0.1558
 5989SOL     OW28895   9.032   2.400   4.379 -0.7908  0.4005 -0.5100
 5989SOL    HW128896   9.125   2.389   4.413 -0.2485 -1.7033 -2.5751
 5989SOL    HW228897   8.967   2.365   4.446  0.1453 -1.6524 -0.6493
 5990SOL     OW28898   3.275   4.644   1.787 -0.0165  0.4513 -0.5164
 5990SOL    HW128899   3.206   4.602   1.728  0.2605  1.1306 -1.3376
 5990SOL    HW228900   3.362   4.596   1.777 -0.3729 -0.4271  0.5463
 5991SOL     OW28901   9.942   8.838   1.779  0.3002  0.3029  0.2140
 5991SOL    HW128902   9.856   8.807   1.738  0.1359  1.0835 -0.0359
 5991SOL    HW228903   9.927   8.858   1.875 -0.0905  1.5691 -0.0964
 5992SOL     OW28904   7.741   8.743   4.789 -0.2712 -0.4547 -0.2781
 5992SOL    HW128905   7.644   8.766   4.796 -0.0814 -0.0002  0.9435
 5992SOL    HW228906   7.787   8.762   4.876  1.3235  1.2517 -1.4517
 5993SOL     OW28907   9.697   3.052   4.644  0.8469  0.2086 -0.0360
 5993SOL    HW128908   9.663   3.011   4.559  2.1292  3.9430 -2.4354
 5993SOL    HW228909   9.623   3.103   4.688  1.3762  2.3673 -1.5460
 5994SOL     OW28910   5.778   9.791   4.317 -0.2520 -0.1284 -0.2277
 5994SOL    HW128911   5.754   9.885   4.291 -1.0958  0.6057  2.9619
 5994SOL    HW228912   5.734   9.727   4.254 -1.1199  1.5683 -1.3842
 5995SOL     OW28913   2.332   5.006   1.119  0.4138  0.0501 -0.0895
 5995SOL    HW128914   2.430   4.991   1.103  0.5777  1.5646 -0.6038
 5995SOL    HW228915   2.281   4.986   1.035  0.4382  0.6569 -0.2480
 5996SOL     OW28916   2.073   6.647   0.069  0.1738 -0.1937  0.5586
 5996SOL    HW128917   2.036   6.684  -0.016  0.9999  0.7843  0.6146
 5996SOL    HW228918   2.100   6.551   0.056  3.6313  0.9552 -1.3404
 5997SOL     OW28919   8.575   9.395   4.709  0.1292  0.1476 -0.0706
 5997SOL    HW128920   8.509   9.346   4.766  0.0939 -1.1352 -1.1810
 5997SOL    HW228921   8.665   9.352   4.718  1.2714  2.9656  2.8072
 5998SOL     OW28922   3.254   6.412   3.918 -0.0318 -0.0276  0.0605
 5998SOL    HW128923   3.336   6.439   3.868 -0.0739  1.1296  0.6184
 5998SOL    HW228924   3.280   6.381   4.010 -0.1024 -0.8095 -0.1772
 5999SOL     OW28925   2.501   1.317   5.303  0.2197  0.3986 -0.2702
 5999SOL    HW128926   2.463   1.377   5.373  0.8022 -0.3976  0.7437
 5999SOL    HW228927   2.580   1.268   5.340  0.7888  0.2660 -1.6107
 6000SOL     OW28928   4.042   8.191   2.520  0.0966 -0.0314 -0.0955
 6000SOL    HW128929   3.998   8.117   2.571  0.7720  1.6446  3.0605
 6000SOL    HW228930   4.125   8.156   2.475 -0.5041 -1.5520 -0.0500
 6001SOL     OW28931   7.936   8.259   3.441 -0.7008 -0.3277 -0.7850
 6001SOL    HW128932   7.902   8.292   3.529 -0.6129  0.2786 -0.9727
 6001SOL    HW228933   7.995   8.329   3.400 -1.3490 -0.2838 -1.6719
 6002SOL     OW28934   2.114   8.101   3.221  0.0959 -0.2757  0.8408
 6002SOL    HW128935   2.182   8.050   3.167  0.4528  0.0681  0.9629
 6002SOL    HW228936   2.149   8.114   3.314 -0.8161 -1.4792  1.3667
 6003SOL     OW28937   6.823   0.837   4.154  0.0667 -0.1827  0.2236
 6003SOL    HW128938   6.723   0.837   4.164  0.2079  0.8796  1.7495
 6003SOL    HW228939   6.862   0.765   4.211  0.2589  0.1138  0.4628
 6004SOL     OW28940   8.072   3.766   1.052  0.2792  0.3894 -0.1481
 6004SOL    HW128941   8.013   3.695   1.088 -1.3238  1.6599 -0.2240
 6004SOL    HW228942   8.151   3.779   1.112  1.4682 -2.5685 -0.9919
 6005SOL     OW28943   8.481   3.833   3.824  0.1301  0.0334  0.0169
 6005SOL    HW128944   8.401   3.836   3.764 -1.1515  1.1074  1.7073
 6005SOL    HW228945   8.459   3.781   3.906  1.7733 -1.1983 -0.3093
 6006SOL     OW28946   2.511   1.277   0.204  0.1406 -0.7091 -0.2035
 6006SOL    HW128947   2.472   1.273   0.296 -2.3963  0.1259 -1.2247
 6006SOL    HW228948   2.611   1.279   0.211 -0.0424  0.6783  2.5757
 6007SOL     OW28949   8.603   1.554   1.438  0.4227 -0.5601  0.6510
 6007SOL    HW128950   8.564   1.612   1.367  0.3166 -0.2018  1.0036
 6007SOL    HW228951   8.627   1.465   1.399 -1.4669 -1.0585  0.5961
 6008SOL     OW28952   3.078   2.530   4.861 -0.0733 -0.0323  0.4015
 6008SOL    HW128953   3.121   2.612   4.822  1.1531 -0.3711  1.0110
 6008SOL    HW228954   3.094   2.452   4.801 -0.3352 -0.0385  0.3408
 6009SOL     OW28955   2.009   9.665   0.941  0.2230 -0.0047 -0.0821
 6009SOL    HW128956   2.024   9.756   0.902  1.8941 -0.3692 -0.3251
 6009SOL    HW228957   2.073   9.600   0.900  0.2636 -0.9248  1.4046
 6010SOL     OW28958   9.222   9.391   4.614  0.1702 -0.9226  0.0204
 6010SOL    HW128959   9.125   9.407   4.635 -0.0512  2.5042 -3.1745
 6010SOL    HW228960   9.230   9.317   4.547 -0.5078  0.7288 -1.9239
 6011SOL     OW28961   0.573   4.355   5.589 -0.5418 -0.1275 -0.2600
 6011SOL    HW128962   0.617   4.368   5.500 -0.3208 -3.2869 -0.6545
 6011SOL    HW228963   0.514   4.434   5.608  0.1553  1.0624 -2.7351
 6012SOL     OW28964   5.477   6.892   2.173 -0.0806 -0.3613 -0.0845
 6012SOL    HW128965   5.447   6.987   2.166 -0.3465 -0.4600 -0.2948
 6012SOL    HW228966   5.409   6.832   2.130  0.4783 -0.5799 -0.6717
 6013SOL     OW28967   4.163   1.826   4.572 -0.0247  0.3299 -0.2760
 6013SOL    HW128968   4.180   1.732   4.602  0.8866  0.6059  0.1031
 6013SOL    HW228969   4.094   1.826   4.500  0.8996 -0.7578 -1.1830
 6014SOL     OW28970   8.711   4.047   5.522  0.3254 -0.8292 -0.1624
 6014SOL    HW128971   8.664   4.128   5.558  2.5894  0.7349 -0.5769
 6014SOL    HW228972   8.674   3.965   5.565 -2.6139  0.3356 -0.3664
 6015SOL     OW28973   2.835   0.736   1.660 -0.0102  0.1659  0.4461
 6015SOL    HW128974   2.921   0.783   1.641  0.5986 -1.4690 -1.0388
 6015SOL    HW228975   2.762   0.802   1.671  1.3400  1.5575  1.1995
 6016SOL     OW28976   8.462   7.743   3.555 -0.1932 -0.3596  0.6012
 6016SOL    HW128977   8.552   7.705   3.535 -0.7377 -1.3560 -0.0034
 6016SOL    HW228978   8.395   7.705   3.492 -0.8324  1.3114  0.2496
 6017SOL     OW28979   9.929   0.053   4.799  0.1834  0.1727 -0.1222
 6017SOL    HW128980   9.983   0.135   4.817  1.2058 -0.5676  0.1711
 6017SOL    HW228981   9.902   0.011   4.885 -1.7471  1.0918 -0.2303
 6018SOL     OW28982   8.385   6.797   3.202 -0.1223 -0.1228  0.3813
 6018SOL    HW128983   8.386   6.890   3.240  4.0194  0.3181 -0.6244
 6018SOL    HW228984   8.365   6.801   3.105 -0.2995 -0.3247  0.4097
 6019SOL     OW28985   1.192   9.975   2.412  0.1346  0.0007  0.4350
 6019SOL    HW128986   1.290   9.984   2.424  0.3417 -1.1070 -0.3418
 6019SOL    HW228987   1.148  10.064   2.426  1.2078  0.4388  1.0654
 6020SOL     OW28988   1.037   4.508   2.986  0.6637 -0.6706  0.3837
 6020SOL    HW128989   1.025   4.568   3.064 -0.3158  2.6532 -2.1813
 6020SOL    HW228990   1.132   4.476   2.982  1.5882  1.8885  1.0249
 6021SOL     OW28991   3.129   4.278   2.014  0.0929  0.2046  0.1259
 6021SOL    HW128992   3.207   4.297   2.074  0.5697  1.1426 -0.7684
 6021SOL    HW228993   3.163   4.241   1.928 -0.6583 -2.2088  0.8258
 6022SOL     OW28994   2.337   0.197   3.008  0.5547  0.4479  0.1516
 6022SOL    HW128995   2.319   0.284   2.961  0.2923  0.2091 -0.1903
 6022SOL    HW228996   2.334   0.212   3.107  2.5772  1.2678  0.1211
 6023SOL     OW28997   4.111   3.532   0.465 -0.0238 -0.2288  0.7806
 6023SOL    HW128998   4.036   3.598   0.465  0.4076  0.2753  1.8197
 6023SOL    HW228999   4.077   3.443   0.435 -0.5595  0.5157 -0.8645
 6024SOL     OW29000   8.785   6.087   4.908  0.0100  0.5694  0.0271
 6024SOL    HW129001   8.772   6.014   4.841  1.7384 -0.8553  1.2200
 6024SOL    HW229002   8.698   6.104   4.955 -0.1435 -1.5590  0.5774
 6025SOL     OW29003   5.433   0.961   1.251 -0.5886 -0.3411 -0.5329
 6025SOL    HW129004   5.381   0.884   1.289  0.5206  0.7411  3.3348
 6025SOL    HW229005   5.515   0.926   1.206 -1.8012 -1.6302 -1.8232
 6026SOL     OW29006   7.814   1.746   4.567  0.3236 -0.5196 -0.0125
 6026SOL    HW129007   7.821   1.759   4.666  1.2746 -1.2356  0.0261
 6026SOL    HW229008   7.719   1.757   4.538 -0.2307 -1.8698  1.2099
 6027SOL     OW29009   4.117   3.727   4.190 -0.2899  0.2485 -0.0336
 6027SOL    HW129010   4.079   3.794   4.254  0.1956  2.6192 -2.1630
 6027SOL    HW229011   4.214   3.747   4.176  0.4382 -2.3241  1.0196
 6028SOL     OW29012   4.928   0.187   3.800  0.1399  0.1406 -0.5304
 6028SOL    HW129013   4.837   0.149   3.818 -0.5032  2.4427  1.3278
 6028SOL    HW229014   4.997   0.114   3.809 -1.4453 -1.5411 -1.5790
 6029SOL     OW29015   3.013   4.266   3.032 -0.2439 -0.5797 -0.1881
 6029SOL    HW129016   2.971   4.290   3.120  0.3889 -0.6397  0.1350
 6029SOL    HW229017   3.010   4.346   2.972  2.5519  0.6537  1.1585
 6030SOL     OW29018   4.808   3.997   3.664  0.1917  0.2403 -0.5977
 6030SOL    HW129019   4.741   4.065   3.633  0.5808  1.1124  0.4408
 6030SOL    HW229020   4.827   4.012   3.761  0.8456 -0.8893 -0.5517
 6031SOL     OW29021   0.248   9.410   0.382  0.3359  0.1496  0.2457
 6031SOL    HW129022   0.274   9.316   0.364 -0.0909  0.3283 -1.3217
 6031SOL    HW229023   0.245   9.461   0.296 -0.7198  1.2657  0.9378
 6032SOL     OW29024   9.539   3.980   0.222 -0.1482 -0.1706 -0.7376
 6032SOL    HW129025   9.616   3.935   0.178  0.8600  1.9526 -1.2174
 6032SOL    HW229026   9.455   3.962   0.171  0.4074 -0.6432 -1.4849
 6033SOL     OW29027   0.941   4.362   3.718  0.0642 -0.0956 -0.5992
 6033SOL    HW129028   0.939   4.457   3.687  1.2331  0.3147  0.5613
 6033SOL    HW229029   1.031   4.323   3.701  0.5383 -0.0569  1.6419
 6034SOL     OW29030   0.852   9.505   3.851  0.3339 -0.1359  0.0670
 6034SOL    HW129031   0.915   9.550   3.788 -0.0862 -0.8071 -0.8552
 6034SOL    HW229032   0.766   9.486   3.804 -0.3408  0.2217  1.1375
 6035SOL     OW29033   3.068   4.140   4.512 -0.1191 -0.2402 -0.1382
 6035SOL    HW129034   3.147   4.200   4.508  0.0395 -0.3909  0.5806
 6035SOL    HW229035   3.076   4.068   4.443  0.8506 -0.8239  0.5705
 6036SOL     OW29036   4.281   0.545   1.341  0.4282 -0.1394  0.0466
 6036SOL    HW129037   4.235   0.569   1.255 -1.4088 -2.7165  0.2604
 6036SOL    HW229038   4.376   0.522   1.321 -0.0452 -0.9856 -1.3705
 6037SOL     OW29039   9.650   3.895   2.989  0.3761 -0.7082  0.1612
 6037SOL    HW129040   9.749   3.909   2.986  0.5175 -1.7514 -0.1303
 6037SOL    HW229041   9.615   3.881   2.897  0.0438 -0.9639  0.3248
 6038SOL     OW29042   3.200   8.557   4.560  0.3893 -0.9101 -0.4955
 6038SOL    HW129043   3.248   8.492   4.500  0.0501  0.5021 -2.3310
 6038SOL    HW229044   3.264   8.630   4.586 -0.0986 -0.2774 -1.0518
 6039SOL     OW29045   4.187   1.313   4.301 -0.0475 -0.6974  0.1142
 6039SOL    HW129046   4.174   1.297   4.203  1.1404 -2.0022  0.1514
 6039SOL    HW229047   4.255   1.385   4.314  0.4136 -1.0973 -0.0335
 6040SOL     OW29048   3.763   4.811   1.077 -0.0616  0.2397  0.2228
 6040SOL    HW129049   3.718   4.895   1.046  0.5646  0.0266 -1.2666
 6040SOL    HW229050   3.857   4.831   1.103 -0.0865  0.0984  0.4249
 6041SOL     OW29051   9.626   2.544   0.069  0.6653 -0.8117 -0.0530
 6041SOL    HW129052   9.678   2.544  -0.017 -0.2912  2.0577 -0.6924
 6041SOL    HW229053   9.538   2.500   0.055  1.0039 -1.4461 -0.2145
 6042SOL     OW29054   2.159   8.280   4.693  0.4765 -0.6503 -0.7652
 6042SOL    HW129055   2.228   8.299   4.762 -0.2183  0.4919 -0.3804
 6042SOL    HW229056   2.181   8.330   4.609 -0.2326  0.2336 -0.4274
 6043SOL     OW29057   7.476   8.791   3.920 -0.2476  0.5224  0.1740
 6043SOL    HW129058   7.456   8.795   4.018 -2.1568 -2.1383 -0.0403
 6043SOL    HW229059   7.414   8.852   3.871 -0.5437  0.4609  0.4675
 6044SOL     OW29060   3.296   6.437   3.183  0.2072  0.0374  0.1882
 6044SOL    HW129061   3.206   6.404   3.156  0.3157 -1.0475  1.1254
 6044SOL    HW229062   3.362   6.415   3.111 -0.1602  0.2697 -0.2200
 6045SOL     OW29063   7.640   8.591   3.799  0.0499  0.3439  0.3819
 6045SOL    HW129064   7.588   8.555   3.721 -0.8836 -0.4233  1.3389
 6045SOL    HW229065   7.579   8.647   3.855  1.4120  3.2685 -0.9448
 6046SOL     OW29066   2.078   6.337   5.347  0.6108  0.2651  0.1811
 6046SOL    HW129067   2.028   6.261   5.390 -0.1325  1.6064  1.7101
 6046SOL    HW229068   2.158   6.360   5.402  0.6255  0.8464 -0.0863
 6047SOL     OW29069   7.213   8.288   2.898 -0.6647  0.2369  0.2234
 6047SOL    HW129070   7.244   8.270   2.805 -0.2312  0.6435  0.2853
 6047SOL    HW229071   7.135   8.230   2.919  1.7496 -2.8489  1.0237
 6048SOL     OW29072   7.757   4.346   5.490 -0.6427  0.3440 -0.0936
 6048SOL    HW129073   7.856   4.365   5.487 -0.8706  1.6415  0.6309
 6048SOL    HW229074   7.735   4.296   5.573 -0.5423 -0.3018 -0.4503
 6049SOL     OW29075   9.015   9.454   2.984 -0.1366 -0.2398  0.1015
 6049SOL    HW129076   8.991   9.463   2.888  0.4187 -0.9185 -0.1054
 6049SOL    HW229077   9.041   9.543   3.021 -0.4167  0.0314 -0.3613
 6050SOL     OW29078   7.283   1.808   2.225  0.4141  0.3391 -0.1605
 6050SOL    HW129079   7.373   1.776   2.194 -0.5794 -1.4229 -1.3266
 6050SOL    HW229080   7.222   1.729   2.234 -1.0522  1.5471  0.4727
 6051SOL     OW29081   9.676   7.182   5.156  0.6512 -0.0222 -0.2724
 6051SOL    HW129082   9.611   7.242   5.109  1.1370 -0.1547 -1.1419
 6051SOL    HW229083   9.651   7.086   5.139  1.1327 -0.0733 -0.7006
 6052SOL     OW29084   8.157   0.332   2.503  0.3665  0.1834  0.1446
 6052SOL    HW129085   8.219   0.393   2.453  0.8398 -0.0148  0.4865
 6052SOL    HW229086   8.162   0.352   2.600 -0.6187  0.6224  0.1136
 6053SOL     OW29087   0.680   0.922   1.680 -0.4531  0.0734 -0.3347
 6053SOL    HW129088   0.715   0.854   1.744 -1.8362 -0.9887 -0.6882
 6053SOL    HW229089   0.708   0.898   1.587 -2.0575 -0.7768 -0.6189
 6054SOL     OW29090   6.725   9.739   1.413  0.1950 -0.1617  0.0902
 6054SOL    HW129091   6.642   9.684   1.418 -0.7857  1.2216 -0.7761
 6054SOL    HW229092   6.711   9.825   1.461  1.3692 -0.2133  0.5420
 6055SOL     OW29093   2.439   5.750   3.713 -0.3039 -0.1143 -0.0771
 6055SOL    HW129094   2.392   5.796   3.637  0.8588  1.2334 -0.0101
 6055SOL    HW229095   2.474   5.819   3.777  0.3407 -1.1632  0.7217
 6056SOL     OW29096   1.158   6.856   4.712  0.0199 -0.8306 -0.3374
 6056SOL    HW129097   1.109   6.773   4.738  0.0143 -1.0806 -1.1401
 6056SOL    HW229098   1.094   6.932   4.708  0.1567 -0.6195  1.1456
 6057SOL     OW29099   2.028   7.108   1.406  0.4525  0.1615 -0.5061
 6057SOL    HW129100   2.107   7.077   1.355  1.6414  1.7458  0.3131
 6057SOL    HW229101   1.957   7.140   1.343  2.6987  4.0125 -1.2440
 6058SOL     OW29102   8.111   4.978   0.039 -0.0300 -0.8297 -0.8053
 6058SOL    HW129103   8.053   4.897   0.048 -0.4897 -0.2539  2.0747
 6058SOL    HW229104   8.067   5.056   0.083  0.9561  0.7107 -2.4688
 6059SOL     OW29105   7.576   0.595   1.812 -0.3385 -0.8721  0.2682
 6059SOL    HW129106   7.564   0.685   1.854  1.9456 -0.9746  1.2290
 6059SOL    HW229107   7.519   0.528   1.861 -1.0013 -0.2052  0.4233
 6060SOL     OW29108   8.550   4.795   4.064  0.1733 -0.6124  0.1023
 6060SOL    HW129109   8.512   4.722   4.006 -1.0917  0.1603 -0.0570
 6060SOL    HW229110   8.649   4.795   4.056  0.0349 -0.7464 -1.8093
 6061SOL     OW29111   0.587   0.979   3.729 -0.0318 -0.5968 -0.0205
 6061SOL    HW129112   0.500   0.931   3.718  0.0415 -1.0176  1.1351
 6061SOL    HW229113   0.647   0.925   3.787  0.6563  0.1472 -0.0308
 6062SOL     OW29114   6.652   9.353   4.851  0.2841  0.2596 -0.0734
 6062SOL    HW129115   6.667   9.347   4.950  1.2079 -0.8673 -0.2663
 6062SOL    HW229116   6.628   9.447   4.827  4.0483  1.5551  0.7435
 6063SOL     OW29117   1.141   3.120   5.491 -0.1514  0.2077  0.3142
 6063SOL    HW129118   1.103   3.173   5.567 -2.1045 -1.0676  0.2443
 6063SOL    HW229119   1.171   3.183   5.419 -0.4483  1.3208  1.1417
 6064SOL     OW29120   9.743   2.514   3.340 -0.2938 -0.6007 -0.1531
 6064SOL    HW129121   9.697   2.466   3.264  0.2703 -1.3018 -0.0516
 6064SOL    HW229122   9.729   2.463   3.425 -3.6798  1.8315  0.8640
 6065SOL     OW29123   7.940   3.839   0.249  0.1264  0.2254  0.0492
 6065SOL    HW129124   7.842   3.824   0.265 -0.0385  1.3574  0.1881
 6065SOL    HW229125   7.994   3.779   0.308 -0.4864 -0.7702 -0.3963
 6066SOL     OW29126   1.206   0.775   0.604  0.3135 -0.4007 -0.3629
 6066SOL    HW129127   1.210   0.847   0.535 -0.2033 -2.5673 -2.7235
 6066SOL    HW229128   1.125   0.789   0.662  0.7187  1.3885 -0.2004
 6067SOL     OW29129   0.646   9.553   0.318  0.4458 -0.2331  0.2995
 6067SOL    HW129130   0.568   9.511   0.271  0.0270  1.3801 -0.5011
 6067SOL    HW229131   0.716   9.484   0.335 -0.8051 -1.5392  0.2845
 6068SOL     OW29132   8.296   2.830   2.002  0.5069 -0.0724  0.8008
 6068SOL    HW129133   8.237   2.891   2.055 -0.4675  0.5582 -0.9495
 6068SOL    HW229134   8.377   2.881   1.973 -0.2097  0.3639 -0.4885
 6069SOL     OW29135   9.891   4.634   2.494  0.2396 -0.2772 -0.2882
 6069SOL    HW129136   9.910   4.682   2.409 -0.1993  0.1309 -0.1573
 6069SOL    HW229137   9.958   4.662   2.563  0.6104 -0.6271 -0.5028
 6070SOL     OW29138   9.798   0.468   2.079 -0.2457 -0.4558 -0.2047
 6070SOL    HW129139   9.852   0.411   2.142  1.3918  0.6475 -0.5892
 6070SOL    HW229140   9.807   0.432   1.986  0.6594  0.3045 -0.4225
 6071SOL     OW29141   8.930   6.691   3.165 -0.0350  0.3102 -0.0358
 6071SOL    HW129142   8.884   6.613   3.208  3.6753 -2.2163 -0.4439
 6071SOL    HW229143   8.941   6.764   3.232 -0.2262 -0.9805  1.4325
 6072SOL     OW29144   1.658   3.202   4.573  0.1331 -0.3623  0.2757
 6072SOL    HW129145   1.593   3.172   4.643 -0.2066 -2.0817 -0.7473
 6072SOL    HW229146   1.678   3.125   4.512  1.1915  0.8521 -0.9172
 6073SOL     OW29147   8.525   3.422   2.404 -0.2093  0.1235  0.5959
 6073SOL    HW129148   8.439   3.401   2.451  0.0722 -0.0745  1.0299
 6073SOL    HW229149   8.545   3.520   2.413 -0.5949  0.2456  0.1444
 6074SOL     OW29150   8.805   2.715   0.895  0.6403  0.3157  0.3643
 6074SOL    HW129151   8.768   2.673   0.812  0.6429 -2.6019  1.7913
 6074SOL    HW229152   8.904   2.702   0.898  0.8256  1.5654  0.2234
 6075SOL     OW29153   5.531   0.419   0.876  0.0271 -0.3170  0.3583
 6075SOL    HW129154   5.488   0.329   0.866  1.2253 -1.0134  1.1535
 6075SOL    HW229155   5.461   0.489   0.886 -0.9705 -0.9225 -2.0244
 6076SOL     OW29156   2.086   5.915   0.471  0.2123 -0.1929  0.1207
 6076SOL    HW129157   2.011   5.979   0.456  0.2053 -0.4819 -1.1519
 6076SOL    HW229158   2.103   5.863   0.387 -0.2549 -2.3749  1.3179
 6077SOL     OW29159   9.664   2.511   0.336 -0.4936  0.0663 -1.1886
 6077SOL    HW129160   9.645   2.515   0.238  0.2028 -0.6256 -1.3554
 6077SOL    HW229161   9.737   2.445   0.354 -1.3145 -0.5805 -0.0970
 6078SOL     OW29162   0.489   1.476   3.641  0.5353  0.1771  0.6459
 6078SOL    HW129163   0.391   1.492   3.628  0.5458 -0.6079 -0.5344
 6078SOL    HW229164   0.512   1.483   3.738 -0.8427 -0.5176  1.0296
 6079SOL     OW29165   3.042   7.751   4.583  0.3998  0.2041  0.3138
 6079SOL    HW129166   3.008   7.844   4.588 -0.9307 -0.1775 -1.2878
 6079SOL    HW229167   3.022   7.712   4.493  1.5251 -1.4093  0.7251
 6080SOL     OW29168   9.577   6.681   5.572  0.9321 -0.0403  0.1850
 6080SOL    HW129169   9.654   6.707   5.632  0.4908  1.5013  0.1149
 6080SOL    HW229170   9.603   6.696   5.477  0.7762 -0.1381  0.1276
 6081SOL     OW29171   7.881   1.610   4.256  0.5253 -0.0536  0.0926
 6081SOL    HW129172   7.905   1.637   4.349 -1.4952  1.3852  0.2516
 6081SOL    HW229173   7.926   1.671   4.191 -1.7245  1.9543  0.3433
 6082SOL     OW29174   0.204   0.574   3.499  0.0748  0.4707 -0.4920
 6082SOL    HW129175   0.230   0.600   3.406  1.9076 -1.0557 -0.4390
 6082SOL    HW229176   0.153   0.648   3.541  0.3996  1.7297 -2.2509
 6083SOL     OW29177   6.110   0.245   4.857  0.1368  1.0892 -0.5039
 6083SOL    HW129178   6.200   0.266   4.896  0.6264 -2.2554  0.3205
 6083SOL    HW229179   6.117   0.236   4.758  0.6511  1.1162 -0.4689
 6084SOL     OW29180   1.155   8.756   3.719  0.3373 -0.3298  0.3166
 6084SOL    HW129181   1.226   8.794   3.659  0.0646  1.2039  0.9263
 6084SOL    HW229182   1.066   8.790   3.690  0.0204 -0.9878  0.5228
 6085SOL     OW29183   9.286   5.712   1.357 -0.0136 -0.3397  0.2292
 6085SOL    HW129184   9.363   5.708   1.421  1.0129  0.3677 -0.9407
 6085SOL    HW229185   9.248   5.620   1.344  0.0684 -0.5519  1.4826
 6086SOL     OW29186   1.119   9.112   4.430  0.6565 -0.1295  0.7239
 6086SOL    HW129187   1.047   9.179   4.446 -0.2753 -0.8853 -0.2055
 6086SOL    HW229188   1.157   9.125   4.338  0.6545 -0.6946  0.6402
 6087SOL     OW29189   8.071   1.486   0.570 -0.1353  0.1314 -0.4210
 6087SOL    HW129190   8.031   1.557   0.628 -2.0583  0.7996 -2.4854
 6087SOL    HW229191   8.073   1.399   0.619  1.2671  1.3626  1.7582
 6088SOL     OW29192   2.157   7.991   2.610  0.3267  0.1655  0.1600
 6088SOL    HW129193   2.239   8.026   2.565 -0.5495  0.2081 -1.4639
 6088SOL    HW229194   2.086   8.062   2.610 -0.4680 -0.6127 -0.5071
 6089SOL     OW29195   8.845   7.988   5.457  0.2336 -0.4973  0.6898
 6089SOL    HW129196   8.810   8.067   5.406  0.2458 -0.6290  0.4757
 6089SOL    HW229197   8.774   7.917   5.462  0.8284 -1.2253 -0.7193
 6090SOL     OW29198   9.628   9.951   0.316  0.2294 -1.0367  0.5952
 6090SOL    HW129199   9.578   9.922   0.235 -0.1978 -0.6104  0.7060
 6090SOL    HW229200   9.720   9.911   0.314  0.0821 -1.3624  0.1108
 6091SOL     OW29201   6.178   6.814   3.093  0.2770 -0.4584  0.4483
 6091SOL    HW129202   6.196   6.901   3.048  1.4462 -0.4674  0.9018
 6091SOL    HW229203   6.225   6.741   3.044 -0.1142 -0.7383  0.4902
 6092SOL     OW29204   4.546   2.074   1.934 -0.6551 -0.1962 -0.4396
 6092SOL    HW129205   4.568   2.035   2.024 -0.1970  1.6105  0.2561
 6092SOL    HW229206   4.608   2.037   1.865 -0.8125 -1.3732  0.0340
 6093SOL     OW29207   4.006   8.931   4.197 -0.2385  0.1402 -0.0329
 6093SOL    HW129208   3.963   9.002   4.142 -0.8826 -1.4409 -1.6095
 6093SOL    HW229209   3.936   8.881   4.248 -0.0200 -0.7162 -0.5609
 6094SOL     OW29210   4.213   3.101   2.638  0.0356 -0.3139  0.5407
 6094SOL    HW129211   4.164   3.013   2.638 -0.4463 -0.0531 -0.0054
 6094SOL    HW229212   4.219   3.136   2.545 -0.8720  0.8332  0.8946
 6095SOL     OW29213   9.937   5.111   0.066 -0.9872 -0.3462 -0.2792
 6095SOL    HW129214   9.899   5.122   0.157 -0.5959 -0.6971 -0.0729
 6095SOL    HW229215   9.882   5.164   0.000 -0.5670  0.8516  0.3276
 6096SOL     OW29216   9.326   7.067   2.053  0.2208 -0.3926 -0.0506
 6096SOL    HW129217   9.417   7.059   2.013  0.9455  0.7981  1.3062
 6096SOL    HW229218   9.272   7.134   2.000  1.4521  1.7976  1.3809
 6097SOL     OW29219   0.982   4.126   2.545  0.0741 -0.2011 -0.2314
 6097SOL    HW129220   0.939   4.116   2.455 -1.1038 -1.4102  0.4369
 6097SOL    HW229221   1.063   4.067   2.550 -0.3012 -0.7294 -0.2545
 6098SOL     OW29222   8.718   7.706   3.224 -0.0064 -0.3638 -0.2424
 6098SOL    HW129223   8.756   7.779   3.167 -2.1099  0.8807 -0.0995
 6098SOL    HW229224   8.718   7.621   3.172 -0.7005  0.4732 -1.6693
 6099SOL     OW29225   1.025   1.928   2.716  0.6848 -0.2515 -0.0073
 6099SOL    HW129226   1.043   1.938   2.618  0.3592  0.2317 -0.0160
 6099SOL    HW229227   1.065   1.842   2.748  1.6745  0.0759 -0.3544
 6100SOL     OW29228   1.394   7.633   1.382  0.5317 -0.3299  0.2846
 6100SOL    HW129229   1.481   7.658   1.423  0.3690  1.3605 -0.3428
 6100SOL    HW229230   1.319   7.665   1.440  0.3210  0.7624 -0.5614
 6101SOL     OW29231   7.517   0.030   2.778 -0.3298 -0.1676  0.6849
 6101SOL    HW129232   7.460   0.098   2.824 -1.2487  0.4152 -1.2596
 6101SOL    HW229233   7.597   0.076   2.737 -0.5273 -0.3719  0.0626
 6102SOL     OW29234   1.969   5.698   2.354 -0.2276 -0.4739  0.0409
 6102SOL    HW129235   1.947   5.676   2.259 -0.5004 -2.3062  0.5075
 6102SOL    HW229236   1.887   5.690   2.410 -0.0219  0.3948  0.4835
 6103SOL     OW29237   9.730   1.583   4.004 -0.7575  0.2335 -0.0877
 6103SOL    HW129238   9.781   1.619   4.081 -2.3317  1.2951  0.4862
 6103SOL    HW229239   9.792   1.534   3.942  0.8066  0.9192  0.9203
 6104SOL     OW29240   3.575   7.486   0.928  0.2453  0.4927 -0.0874
 6104SOL    HW129241   3.620   7.546   0.995 -0.5844 -1.2694  2.1075
 6104SOL    HW229242   3.638   7.412   0.903 -0.2083 -0.0213  0.3151
 6105SOL     OW29243   1.549   7.807   1.096  0.2677 -0.3821 -0.5195
 6105SOL    HW129244   1.462   7.762   1.118  0.4258 -1.1922 -1.5216
 6105SOL    HW229245   1.584   7.771   1.010  0.5679  1.4391 -1.1731
 6106SOL     OW29246   7.118   7.592   2.083  1.1471  0.1247  0.1907
 6106SOL    HW129247   7.102   7.518   2.148 -0.3213  0.9151  0.7791
 6106SOL    HW229248   7.200   7.574   2.030  1.3154 -1.4589  0.9706
 6107SOL     OW29249   9.913   5.164   2.995  0.7158  0.1449  0.1079
 6107SOL    HW129250  10.011   5.178   2.983  0.5738  1.8640  0.8272
 6107SOL    HW229251   9.865   5.251   2.980 -0.8211 -0.9212 -1.4260
 6108SOL     OW29252   9.550   2.811   5.351 -0.0757  0.4306 -0.1378
 6108SOL    HW129253   9.643   2.815   5.387 -0.8497  1.2093  1.8113
 6108SOL    HW229254   9.535   2.722   5.307  1.5473  0.2781 -0.4194
 6109SOL     OW29255   2.394   3.114   0.377  0.7030 -0.1902 -0.2751
 6109SOL    HW129256   2.382   3.194   0.318  1.0479  1.6056  2.0207
 6109SOL    HW229257   2.322   3.047   0.357  0.8890  0.2907 -2.7931
 6110SOL     OW29258   0.941   6.098   3.130 -0.1006 -0.3589  0.4943
 6110SOL    HW129259   0.876   6.089   3.205  0.0905 -0.6671  0.6237
 6110SOL    HW229260   0.946   6.194   3.102 -0.3112 -0.2728  0.7503
 6111SOL     OW29261   2.165   1.674   0.351  0.0541 -0.5929  0.2074
 6111SOL    HW129262   2.206   1.587   0.322 -2.9787 -1.7363 -0.8044
 6111SOL    HW229263   2.109   1.659   0.432  0.7115  0.7493  0.9293
 6112SOL     OW29264   2.129   2.829   0.474 -0.0775  0.7315  0.0794
 6112SOL    HW129265   2.113   2.920   0.511 -1.1103  0.3916  0.4741
 6112SOL    HW229266   2.153   2.836   0.377  0.2065  1.4400  0.1976
 6113SOL     OW29267   5.048   1.650   5.194 -0.0933  0.1773 -0.1649
 6113SOL    HW129268   5.054   1.613   5.102  0.9766 -0.7810  0.2673
 6113SOL    HW229269   5.076   1.747   5.194 -0.6621  0.3388 -0.9302
 6114SOL     OW29270   8.614   1.448   4.528 -0.4560  0.3168  0.2468
 6114SOL    HW129271   8.585   1.519   4.592 -0.9687  0.0675  0.2944
 6114SOL    HW229272   8.695   1.403   4.564  0.3281  1.3959 -0.1550
 6115SOL     OW29273   3.212   6.997   3.807 -0.2796 -0.5765  0.0506
 6115SOL    HW129274   3.258   6.910   3.789  1.2207  0.0117  0.9389
 6115SOL    HW229275   3.218   7.019   3.904  2.2503  2.0699 -0.6244
 6116SOL     OW29276   1.486   2.024   0.422 -0.0314  0.3913 -0.3602
 6116SOL    HW129277   1.500   2.025   0.323  0.1259 -1.2223 -0.3744
 6116SOL    HW229278   1.520   1.938   0.459 -3.1927 -0.4973  0.6358
 6117SOL     OW29279   8.645   4.747   1.431  0.2859  0.4352 -0.5495
 6117SOL    HW129280   8.603   4.657   1.446  2.1888 -0.5757 -1.0284
 6117SOL    HW229281   8.689   4.748   1.342  2.0984  1.0997  0.3284
 6118SOL     OW29282   7.849   0.836   0.886  0.2410 -0.2510 -0.0642
 6118SOL    HW129283   7.869   0.813   0.981 -3.2430 -1.3746  0.4636
 6118SOL    HW229284   7.843   0.753   0.831  0.9560  0.3131 -1.0288
 6119SOL     OW29285   4.036   1.947   2.533  0.2875 -0.0215  0.1756
 6119SOL    HW129286   3.969   2.000   2.586 -0.6762 -1.0165 -0.0475
 6119SOL    HW229287   4.119   1.935   2.588 -0.5006 -0.5911  1.2634
 6120SOL     OW29288   9.055   3.002   0.978  0.2170 -0.3236  0.0432
 6120SOL    HW129289   8.956   3.014   0.969  0.7228  2.2561 -3.2562
 6120SOL    HW229290   9.085   2.929   0.918  0.6309  0.8098 -1.1579
 6121SOL     OW29291   0.152   5.530   1.555  0.2291 -0.1802 -0.1310
 6121SOL    HW129292   0.165   5.629   1.553 -1.3415  0.0858  1.4625
 6121SOL    HW229293   0.159   5.498   1.649 -0.3197 -1.4438 -0.5178
 6122SOL     OW29294   4.695   7.879   5.250 -0.1025 -0.3449  0.2916
 6122SOL    HW129295   4.705   7.914   5.157  1.4166 -0.1014  0.5428
 6122SOL    HW229296   4.693   7.779   5.248  2.0756 -0.4049  0.1876
 6123SOL     OW29297   2.549   8.006   2.646  0.0305 -0.6087  0.1843
 6123SOL    HW129298   2.648   8.004   2.632  0.0374  1.2751 -0.0963
 6123SOL    HW229299   2.503   7.993   2.558 -0.0029 -2.4724  0.4483
 6124SOL     OW29300   7.890   1.253   0.440  0.2880 -0.2029 -0.1802
 6124SOL    HW129301   7.921   1.328   0.381  0.3170 -0.0739 -0.0013
 6124SOL    HW229302   7.948   1.249   0.521 -0.1031 -0.0234  0.1092
 6125SOL     OW29303   0.797   7.234   5.263  0.0975 -0.2240  0.5643
 6125SOL    HW129304   0.813   7.201   5.170  1.5111  0.5791  0.5060
 6125SOL    HW229305   0.775   7.156   5.323  2.7096 -1.2199  0.2952
 6126SOL     OW29306   5.748   1.140   2.824 -0.2048  0.3145  0.0471
 6126SOL    HW129307   5.836   1.150   2.872 -1.3829 -0.5000  2.4195
 6126SOL    HW229308   5.762   1.087   2.741  2.1771  3.1138 -1.4695
 6127SOL     OW29309   6.200   8.216   3.729 -0.9550  0.2776  0.0556
 6127SOL    HW129310   6.195   8.237   3.631 -3.9940  0.6878  0.2728
 6127SOL    HW229311   6.203   8.301   3.782 -0.8773  0.0573  0.4073
 6128SOL     OW29312   3.097   4.736   1.494 -0.0669  0.9290 -0.1367
 6128SOL    HW129313   3.140   4.666   1.550 -0.0756  0.1415 -1.0868
 6128SOL    HW229314   3.062   4.694   1.410 -0.9746  1.8926 -0.2546
 6129SOL     OW29315   3.616   7.271   2.097 -0.9128  0.2318  0.6949
 6129SOL    HW129316   3.611   7.213   2.178  1.8120 -1.7609 -0.4840
 6129SOL    HW229317   3.633   7.215   2.016  0.7505  2.5302 -0.6400
 6130SOL     OW29318   2.557   6.856   3.315 -0.4484  0.3007 -0.0949
 6130SOL    HW129319   2.655   6.865   3.297 -0.6113  0.1581 -1.0965
 6130SOL    HW229320   2.522   6.943   3.349  0.0339  0.3353  0.3248
 6131SOL     OW29321   1.392   8.328   4.996 -0.4271 -0.1647 -0.1263
 6131SOL    HW129322   1.335   8.331   5.078 -2.5887  0.0006 -1.5948
 6131SOL    HW229323   1.455   8.251   5.003 -1.1904 -0.6963  1.2963
 6132SOL     OW29324   6.488   1.229   2.039 -0.0566 -0.0221 -0.6672
 6132SOL    HW129325   6.463   1.321   2.010 -1.7281 -0.0800  0.5399
 6132SOL    HW229326   6.534   1.232   2.127 -2.7990 -0.5437  0.8457
 6133SOL     OW29327   8.518   0.159   3.402  0.0737  0.0740 -0.5098
 6133SOL    HW129328   8.548   0.168   3.497 -0.3902 -1.3176 -0.2182
 6133SOL    HW229329   8.419   0.153   3.399 -0.0913  2.7899 -1.3171
 6134SOL     OW29330   9.399   6.966   5.498 -0.0522 -0.2439 -0.4968
 6134SOL    HW129331   9.467   7.011   5.441 -1.5659  1.4477 -1.0133
 6134SOL    HW229332   9.372   6.879   5.456 -1.5470  1.2332 -2.6602
 6135SOL     OW29333   2.735   3.681   0.755  0.3417  0.0233 -0.3195
 6135SOL    HW129334   2.734   3.778   0.729  1.7997 -0.4657 -2.3582
 6135SOL    HW229335   2.674   3.629   0.695 -0.8489 -0.2714  1.1114
 6136SOL     OW29336   8.487   5.500   2.494 -0.5257 -0.2318 -0.2233
 6136SOL    HW129337   8.455   5.486   2.401 -1.3812  1.0803 -0.1432
 6136SOL    HW229338   8.586   5.492   2.497 -0.4359  0.3481 -1.3711
 6137SOL     OW29339   8.320   2.160   2.267  0.2132 -0.0103  0.8868
 6137SOL    HW129340   8.254   2.095   2.305 -1.1962  0.7158 -0.2743
 6137SOL    HW229341   8.308   2.249   2.310  1.2244 -0.1494  1.4860
 6138SOL     OW29342   2.647   7.138   1.690 -0.3207  0.4620 -0.9494
 6138SOL    HW129343   2.707   7.191   1.749 -0.7931 -0.3694  0.2876
 6138SOL    HW229344   2.692   7.122   1.602  0.7166  0.9964 -0.5215
 6139SOL     OW29345   4.211   8.429   1.121 -0.3277 -0.7672 -0.3311
 6139SOL    HW129346   4.136   8.363   1.114  0.7846 -1.9877 -1.1245
 6139SOL    HW229347   4.224   8.474   1.033 -0.6791  0.0529  0.0390
 6140SOL     OW29348   4.821   0.259   5.305 -0.1891  0.0950  0.1435
 6140SOL    HW129349   4.790   0.235   5.397 -0.5289 -0.4315 -0.1064
 6140SOL    HW229350   4.862   0.179   5.262 -0.1590  0.3052 -0.2179
 6141SOL     OW29351   0.831   7.790   0.030 -0.2684 -0.2808 -0.7647
 6141SOL    HW129352   0.916   7.819   0.076 -1.1987  1.6263 -0.1753
 6141SOL    HW229353   0.849   7.777  -0.067  0.4839  1.2049 -0.8513
 6142SOL     OW29354   8.677   2.929   2.394  0.6737 -0.7080  0.3232
 6142SOL    HW129355   8.610   2.877   2.447  0.5177  0.4763  1.3102
 6142SOL    HW229356   8.688   3.020   2.434  1.2449 -0.1142 -1.1447
 6143SOL     OW29357   3.533   0.162   2.824 -0.3497  0.8665 -0.3903
 6143SOL    HW129358   3.433   0.157   2.830 -0.3241 -0.0663 -0.7605
 6143SOL    HW229359   3.559   0.232   2.757 -0.7471  1.3006 -0.0961
 6144SOL     OW29360   3.284   9.730   3.844  0.4185  0.0762 -0.3250
 6144SOL    HW129361   3.258   9.826   3.836  1.9247  0.4850 -0.3520
 6144SOL    HW229362   3.217   9.673   3.795  0.1106  1.1918 -1.2130
 6145SOL     OW29363   0.471   9.167   0.951 -0.1081  0.2266  0.6321
 6145SOL    HW129364   0.383   9.214   0.955 -0.1441  0.2017  0.1900
 6145SOL    HW229365   0.514   9.184   0.862  0.3056  0.1886  0.8244
 6146SOL     OW29366   1.493   1.481   5.175  0.1923 -0.1273 -0.2142
 6146SOL    HW129367   1.427   1.416   5.210 -0.4765  0.1839 -0.8905
 6146SOL    HW229368   1.466   1.574   5.201  0.7487 -0.0594  0.1263
 6147SOL     OW29369   7.920   7.103   0.335  0.0621 -0.2315  0.4155
 6147SOL    HW129370   7.953   7.094   0.241 -0.0362 -1.7059  0.5067
 6147SOL    HW229371   7.996   7.132   0.394  0.1977  0.3956 -0.0653
 6148SOL     OW29372   0.111   8.682   4.164  0.4960 -0.1518 -0.0482
 6148SOL    HW129373   0.191   8.644   4.210  0.5910  0.0999  0.0005
 6148SOL    HW229374   0.029   8.659   4.215  0.5967  0.0867  0.2220
 6149SOL     OW29375   2.197   3.850   5.322 -0.1820  0.3079 -0.5051
 6149SOL    HW129376   2.138   3.919   5.365 -1.2952 -0.9514  0.0208
 6149SOL    HW229377   2.287   3.851   5.366 -0.6453  0.4676  0.4553
 6150SOL     OW29378   7.595   4.800   4.203  0.0638  0.5161 -0.1838
 6150SOL    HW129379   7.637   4.862   4.138  0.2548  1.2085  0.5949
 6150SOL    HW229380   7.610   4.705   4.174  0.1861  0.8182 -1.1086
 6151SOL     OW29381   1.953   8.176   2.601 -0.0361 -0.2773 -0.0454
 6151SOL    HW129382   1.953   8.273   2.623  2.4150 -0.0575 -0.9016
 6151SOL    HW229383   1.859   8.145   2.586 -0.9664  1.5920  1.7147
 6152SOL     OW29384   8.891   1.623   3.139  0.4174  0.0944 -0.2789
 6152SOL    HW129385   8.900   1.722   3.152  0.9713  0.0635 -0.3922
 6152SOL    HW229386   8.882   1.603   3.042 -1.3607  0.1519 -0.1354
 6153SOL     OW29387   4.067   9.947   1.590 -0.4783 -0.1454 -0.7439
 6153SOL    HW129388   4.023   9.975   1.504  0.7567  0.5832 -1.1498
 6153SOL    HW229389   4.166   9.952   1.580 -0.3282  0.1582  0.8143
 6154SOL     OW29390   0.707   4.703   0.877 -0.5291  0.5026  0.1732
 6154SOL    HW129391   0.695   4.622   0.820 -1.0344  0.1529  0.7702
 6154SOL    HW229392   0.618   4.735   0.908 -0.4021  1.8107 -0.7673
 6155SOL     OW29393   1.335   5.810   2.093 -0.3909  0.7455  0.4021
 6155SOL    HW129394   1.272   5.823   2.016 -0.6856  0.0453  0.5196
 6155SOL    HW229395   1.308   5.868   2.169 -0.2548  1.2473  0.0669
 6156SOL     OW29396   2.746   6.179   4.290  0.3245  0.3911 -0.4633
 6156SOL    HW129397   2.676   6.191   4.361 -1.2085 -0.0252 -1.8558
 6156SOL    HW229398   2.792   6.267   4.273  2.6693 -0.1017  2.9737
 6157SOL     OW29399   9.506   9.662   1.884  0.0738 -0.2681 -0.4148
 6157SOL    HW129400   9.480   9.632   1.975  0.2413 -1.1478 -0.6559
 6157SOL    HW229401   9.457   9.609   1.815  1.5882 -1.1323 -0.8587
 6158SOL     OW29402   3.642   7.576   2.153 -0.5738  0.2132 -0.0893
 6158SOL    HW129403   3.604   7.523   2.076  0.8025  0.2263 -0.7993
 6158SOL    HW229404   3.737   7.599   2.133 -0.3877  0.7413  1.3716
 6159SOL     OW29405   8.956   6.906   1.107 -0.9500  0.2210  0.3462
 6159SOL    HW129406   8.912   6.918   1.196 -0.5873 -2.1437  0.8658
 6159SOL    HW229407   9.049   6.871   1.120 -0.3057  1.3935 -0.9206
 6160SOL     OW29408   3.755   7.226   1.163 -0.0210  0.3470  0.3813
 6160SOL    HW129409   3.842   7.275   1.171 -0.9938  2.0007  0.9970
 6160SOL    HW229410   3.680   7.287   1.187 -1.2654 -1.4802  1.2571
 6161SOL     OW29411   9.013   9.484   2.257 -0.0422 -0.1401  0.2566
 6161SOL    HW129412   8.982   9.485   2.162  0.4041  1.2961  0.1208
 6161SOL    HW229413   9.042   9.575   2.284  0.5582 -0.6969  1.5447
 6162SOL     OW29414   4.168   8.668   5.110  0.9193 -0.2250  0.1482
 6162SOL    HW129415   4.147   8.578   5.147  0.3944 -1.0907 -2.1121
 6162SOL    HW229416   4.257   8.699   5.144  0.8233 -1.3099  1.4282
 6163SOL     OW29417   1.810   4.222   2.749  0.3952  0.7578 -0.3199
 6163SOL    HW129418   1.842   4.252   2.838  0.5516  3.1112 -1.1516
 6163SOL    HW229419   1.874   4.252   2.678 -0.4881  0.1764 -1.3812
 6164SOL     OW29420   8.380   9.219   0.060  0.8292 -0.4507  0.2171
 6164SOL    HW129421   8.373   9.315   0.034  1.6610 -0.2469  0.7347
 6164SOL    HW229422   8.305   9.167   0.017  1.0225  0.2262 -0.9609
 6165SOL     OW29423   3.720   0.920   1.776 -0.1292  0.4544  0.3261
 6165SOL    HW129424   3.804   0.972   1.789 -0.0023  0.6237 -1.1240
 6165SOL    HW229425   3.733   0.826   1.807  1.1836 -0.0132 -1.5663
 6166SOL     OW29426   9.058   9.293   0.540 -0.1091 -0.1258 -0.2805
 6166SOL    HW129427   9.015   9.266   0.454  1.0543 -2.4662 -0.1511
 6166SOL    HW229428   9.002   9.363   0.585 -2.5500 -1.4394 -1.2208
 6167SOL     OW29429   3.242   3.311   2.496 -0.3765 -0.4888  0.4901
 6167SOL    HW129430   3.274   3.380   2.560 -2.6138  0.7181  0.3266
 6167SOL    HW229431   3.321   3.268   2.451  1.0092  2.7354 -0.2608
 6168SOL     OW29432   8.496   2.074   1.158 -0.3140  0.2658  0.6418
 6168SOL    HW129433   8.524   2.170   1.151  1.8098 -0.2602  1.4805
 6168SOL    HW229434   8.399   2.066   1.134 -0.0193  2.3044 -1.3915
 6169SOL     OW29435   2.797   0.749   4.713  0.2211 -0.0298  0.1565
 6169SOL    HW129436   2.822   0.829   4.658  0.0236 -0.5296 -0.6683
 6169SOL    HW229437   2.856   0.745   4.794  1.5546 -0.1353 -0.7916
 6170SOL     OW29438   2.712   9.670   3.808  0.5308 -0.0393 -0.6043
 6170SOL    HW129439   2.663   9.669   3.895  1.5389 -1.8277 -0.0296
 6170SOL    HW229440   2.785   9.738   3.812  0.8091 -0.3789  0.0834
 6171SOL     OW29441   2.065   3.118   0.512  0.0835  0.0789 -0.2695
 6171SOL    HW129442   2.101   3.210   0.498 -1.2135  0.8285  1.1997
 6171SOL    HW229443   1.985   3.104   0.454  0.1084 -0.0301 -0.2785
 6172SOL     OW29444   9.823   9.296   2.320 -0.0413  0.7641 -0.0055
 6172SOL    HW129445   9.910   9.272   2.279 -0.3933 -0.1825 -0.2101
 6172SOL    HW229446   9.787   9.218   2.372 -1.5980  0.5346 -1.3734
 6173SOL     OW29447   8.091   6.693   2.864  0.4450  0.3375 -0.3181
 6173SOL    HW129448   8.006   6.742   2.844 -1.4004 -3.1563 -1.4331
 6173SOL    HW229449   8.077   6.630   2.940  2.2483  0.1898 -0.0791
 6174SOL     OW29450   5.106   2.505   2.215 -0.2818 -0.1985  0.5611
 6174SOL    HW129451   5.041   2.539   2.283  0.1576 -0.0214  0.8944
 6174SOL    HW229452   5.135   2.413   2.239 -0.4505 -0.2984  0.3829
 6175SOL     OW29453   0.485   3.188   3.360  0.1510 -0.0402  0.1248
 6175SOL    HW129454   0.445   3.277   3.338  0.4397  0.0345 -0.1059
 6175SOL    HW229455   0.466   3.124   3.285 -2.6009 -1.0131  1.5898
 6176SOL     OW29456   1.909   5.465   0.562 -0.2048  0.0461  0.1505
 6176SOL    HW129457   1.909   5.387   0.625 -1.6817  0.2517  0.4244
 6176SOL    HW229458   1.972   5.535   0.596 -1.8734  0.6694  2.0700
 6177SOL     OW29459   3.120   1.207   4.767  0.5139  0.6913 -0.2194
 6177SOL    HW129460   3.054   1.227   4.840  0.1611  1.3880 -0.7232
 6177SOL    HW229461   3.126   1.108   4.754 -1.8478  0.6548 -1.4505
 6178SOL     OW29462   8.667   5.594   4.834  0.0169 -0.9113 -0.5160
 6178SOL    HW129463   8.697   5.689   4.839 -1.2572 -0.5371  0.2210
 6178SOL    HW229464   8.691   5.548   4.919 -1.5547 -0.5817  0.1223
 6179SOL     OW29465   0.401   6.665   1.159 -0.0714 -0.3131  0.0245
 6179SOL    HW129466   0.457   6.633   1.236 -0.2062  1.2085  0.7857
 6179SOL    HW229467   0.428   6.759   1.136 -1.9326  0.2486  0.0546
 6180SOL     OW29468   7.856   0.158   4.419  0.5584 -0.0339  0.1281
 6180SOL    HW129469   7.900   0.190   4.335 -0.0968  1.0324  0.1765
 6180SOL    HW229470   7.911   0.185   4.497  0.5381  0.0664  0.1082
 6181SOL     OW29471   5.547   9.699   4.556  0.1942  0.0472  0.3050
 6181SOL    HW129472   5.599   9.730   4.476 -2.7983  1.1563 -1.2597
 6181SOL    HW229473   5.606   9.643   4.613  2.4103 -0.8200 -2.6980
 6182SOL     OW29474   9.003   6.137   3.482 -0.2622 -0.0738  0.0660
 6182SOL    HW129475   8.904   6.130   3.473 -0.2971  1.2756 -0.7919
 6182SOL    HW229476   9.024   6.194   3.562 -0.2002  0.5309 -0.3797
 6183SOL     OW29477   2.938   7.593   2.403  0.1625  0.2436 -0.1544
 6183SOL    HW129478   3.032   7.560   2.394  0.1471  0.0731  0.2866
 6183SOL    HW229479   2.921   7.664   2.335  1.4351  2.1433  1.4425
 6184SOL     OW29480   9.621   1.824   4.222 -0.3960  0.4278 -0.3927
 6184SOL    HW129481   9.709   1.818   4.174 -0.1192  2.8717 -0.2639
 6184SOL    HW229482   9.616   1.752   4.291  0.6228 -1.0175 -1.7750
 6185SOL     OW29483   3.246   7.273   1.295 -0.2721  0.0873 -0.2866
 6185SOL    HW129484   3.163   7.232   1.259  1.3213 -3.0185 -0.5539
 6185SOL    HW229485   3.302   7.308   1.220 -0.1948 -0.0242 -0.2799
 6186SOL     OW29486   1.697   7.360   0.180 -0.0046 -0.8555 -0.1560
 6186SOL    HW129487   1.786   7.325   0.152 -0.6282 -2.2531 -0.4807
 6186SOL    HW229488   1.702   7.459   0.193  1.6826 -0.9744  0.2223
 6187SOL     OW29489   1.373   7.770   0.052 -0.1690  0.4168 -0.4512
 6187SOL    HW129490   1.280   7.801   0.071  0.0294 -0.1774  1.5556
 6187SOL    HW229491   1.398   7.794  -0.042 -2.6069 -0.0860 -1.2460
 6188SOL     OW29492   0.662   3.565   4.955 -0.0388 -0.5179 -0.3793
 6188SOL    HW129493   0.657   3.518   4.867 -0.6130  1.4182 -1.4174
 6188SOL    HW229494   0.670   3.664   4.939 -0.8752 -0.0896  1.7379
 6189SOL     OW29495   7.445   7.558   2.406  0.0840  0.0260 -0.3134
 6189SOL    HW129496   7.542   7.582   2.405 -0.2640  1.4740 -0.8214
 6189SOL    HW229497   7.431   7.477   2.462  1.2208  1.3759  1.9748
 6190SOL     OW29498   0.692   7.000   3.310 -0.1858 -0.1719  0.1074
 6190SOL    HW129499   0.788   6.975   3.300 -0.0754  0.6401 -0.9843
 6190SOL    HW229500   0.635   6.918   3.300  0.2601 -0.2776 -1.8217
 6191SOL     OW29501   7.814   9.170   1.141 -0.1461  0.4442  0.3919
 6191SOL    HW129502   7.821   9.269   1.148  0.7483  0.4153 -0.0680
 6191SOL    HW229503   7.903   9.128   1.159 -0.3642 -0.2362 -0.0590
 6192SOL     OW29504   8.468   6.862   2.178 -0.2907 -0.1519 -0.0127
 6192SOL    HW129505   8.505   6.821   2.094  1.2892  1.4272 -0.1244
 6192SOL    HW229506   8.509   6.817   2.257  0.6508  0.4912 -0.1269
 6193SOL     OW29507   0.797   8.573   0.668  0.1888 -0.1014 -0.0814
 6193SOL    HW129508   0.788   8.498   0.603  0.0969 -1.1292  1.0979
 6193SOL    HW229509   0.893   8.601   0.675  0.4488 -1.1342  0.5957
 6194SOL     OW29510   0.069   7.288   0.239 -0.2398 -0.4929  0.6048
 6194SOL    HW129511   0.097   7.381   0.212 -0.7150 -0.5454 -0.0784
 6194SOL    HW229512  -0.004   7.294   0.306 -0.5718 -0.3778  0.2311
 6195SOL     OW29513   2.104   5.455   4.448 -0.0652 -0.3426 -0.8415
 6195SOL    HW129514   2.012   5.465   4.409 -0.6464  0.0091  0.5936
 6195SOL    HW229515   2.159   5.396   4.389 -0.9577  0.0930 -2.1346
 6196SOL     OW29516   4.454   2.575   3.964 -0.0992  0.1404  0.1897
 6196SOL    HW129517   4.419   2.668   3.952 -1.2604 -0.0066  2.1384
 6196SOL    HW229518   4.395   2.510   3.916 -0.0510  0.2866 -0.0665
 6197SOL     OW29519   4.373   9.870   4.537  0.0148  0.5779 -0.4253
 6197SOL    HW129520   4.312   9.945   4.564 -0.1742  0.1585  0.3314
 6197SOL    HW229521   4.403   9.821   4.619 -2.2140 -2.0057 -1.0981
 6198SOL     OW29522   1.851   3.933   0.433  0.1270 -0.2378 -0.2300
 6198SOL    HW129523   1.790   3.932   0.512 -0.7189 -0.0314 -0.8743
 6198SOL    HW229524   1.915   3.857   0.439 -1.4536 -1.6066 -0.5342
 6199SOL     OW29525   9.656   1.640   3.103 -0.4074  0.1930  0.0283
 6199SOL    HW129526   9.587   1.637   3.030 -0.8409 -0.2076  0.4576
 6199SOL    HW229527   9.745   1.662   3.063  0.0095 -3.2928 -1.1061
 6200SOL     OW29528   0.920   5.150   4.870 -0.0520 -0.0733  0.1134
 6200SOL    HW129529   0.937   5.082   4.942 -0.4751 -0.9405 -0.5897
 6200SOL    HW229530   0.968   5.124   4.787  0.8912  1.2312  0.2400
 6201SOL     OW29531   9.098   2.938   2.707 -0.1910  0.5470 -0.2206
 6201SOL    HW129532   9.070   2.901   2.618  0.6379  1.0771 -0.7170
 6201SOL    HW229533   9.198   2.945   2.710 -0.2128  0.5306  0.7568
 6202SOL     OW29534   4.062   2.741   4.020  0.2753 -0.2624 -0.2229
 6202SOL    HW129535   4.113   2.756   3.936 -0.3373  2.8936 -0.0997
 6202SOL    HW229536   4.126   2.718   4.094  1.0643 -0.6191 -1.0044
 6203SOL     OW29537   2.621   8.503   3.158 -0.3321  0.2028 -0.0496
 6203SOL    HW129538   2.665   8.432   3.214 -0.0277  0.9252  0.6466
 6203SOL    HW229539   2.684   8.581   3.149 -0.7624  0.4829 -0.5879
 6204SOL     OW29540   0.383   5.602   0.639  0.1418 -0.0612  0.3437
 6204SOL    HW129541   0.320   5.656   0.584 -0.8534  0.8379  2.3132
 6204SOL    HW229542   0.369   5.505   0.621  0.8354  0.2590 -2.0324
 6205SOL     OW29543   1.773   1.075   3.974  0.3142  0.1838 -0.2271
 6205SOL    HW129544   1.750   1.148   4.038 -0.8119 -0.3583  0.0037
 6205SOL    HW229545   1.815   0.999   4.025  0.4125  0.1901 -0.2985
 6206SOL     OW29546   9.510   0.418   0.220 -0.2170  0.4517  0.0529
 6206SOL    HW129547   9.530   0.330   0.262 -1.6113 -0.5537 -1.3070
 6206SOL    HW229548   9.585   0.482   0.237  2.5903 -2.1388 -2.1362
 6207SOL     OW29549   2.749   4.496   4.852 -0.4222  0.4390  0.1289
 6207SOL    HW129550   2.704   4.409   4.872 -1.2979  0.9652  0.5602
 6207SOL    HW229551   2.762   4.507   4.754  0.3725 -0.5009  0.1301
 6208SOL     OW29552   9.340   7.853   3.436  0.6750 -0.4355 -0.1673
 6208SOL    HW129553   9.304   7.941   3.465 -0.7272 -1.7030  2.0371
 6208SOL    HW229554   9.352   7.853   3.336  2.4507  2.8482 -0.0179
 6209SOL     OW29555   3.486   1.657   0.454  0.4392  0.2226  0.0770
 6209SOL    HW129556   3.549   1.579   0.445  0.8911  0.8733 -3.0543
 6209SOL    HW229557   3.393   1.626   0.435  0.4384  0.1656  0.1745
 6210SOL     OW29558   8.961   3.964   1.042 -0.2237 -0.7573 -0.2180
 6210SOL    HW129559   8.903   3.893   1.082 -0.8728 -2.0256 -3.2098
 6210SOL    HW229560   9.055   3.953   1.076 -0.5752 -2.2800  0.3173
 6211SOL     OW29561   3.278   1.533   0.301 -0.4381  0.0151  0.2274
 6211SOL    HW129562   3.222   1.504   0.378  0.2444 -0.0105  0.7140
 6211SOL    HW229563   3.274   1.463   0.229 -0.8106 -0.1107  0.3723
 6212SOL     OW29564   1.813   2.682   3.525  0.2680  0.4755 -0.0029
 6212SOL    HW129565   1.798   2.704   3.621  0.3678  0.5627 -0.0076
 6212SOL    HW229566   1.732   2.637   3.488  0.7667 -0.8858  0.5183
 6213SOL     OW29567   1.857   7.487   0.732 -0.2170 -0.2623 -0.2027
 6213SOL    HW129568   1.780   7.433   0.766  0.5079 -2.0413 -1.3223
 6213SOL    HW229569   1.913   7.431   0.672  0.8495  1.6120 -0.9973
 6214SOL     OW29570   9.303   7.574   4.902 -0.5694 -0.0207  0.1809
 6214SOL    HW129571   9.287   7.645   4.834  0.1878  0.4822  0.5225
 6214SOL    HW229572   9.277   7.609   4.992  0.4436  0.0613  0.4427
 6215SOL     OW29573   4.350   9.191   3.772  0.3836 -0.0028 -0.3741
 6215SOL    HW129574   4.424   9.127   3.748  0.8732  1.3926 -2.6713
 6215SOL    HW229575   4.360   9.218   3.868  0.9638 -2.2966  0.2445
 6216SOL     OW29576   1.016   5.333   1.718  0.4593  0.4042  0.2465
 6216SOL    HW129577   0.957   5.284   1.783  0.4486  2.6950  2.0529
 6216SOL    HW229578   1.079   5.392   1.769  0.0347  2.7583 -1.8306
 6217SOL     OW29579   4.026   8.204   1.077  0.1348  0.5163 -0.4073
 6217SOL    HW129580   4.097   8.190   1.007  1.4031 -1.4743  1.2124
 6217SOL    HW229581   3.968   8.123   1.081  0.0395  0.6398  0.8028
 6218SOL     OW29582   4.599   3.431   5.223  0.0447  0.0627 -0.1143
 6218SOL    HW129583   4.551   3.419   5.310 -0.9832 -0.1586 -0.7149
 6218SOL    HW229584   4.644   3.521   5.222 -1.1026  0.6456  0.0864
 6219SOL     OW29585   7.873   8.440   3.644 -0.3728 -0.1561  0.2995
 6219SOL    HW129586   7.815   8.496   3.703  0.3260  1.0369 -0.1231
 6219SOL    HW229587   7.896   8.490   3.561  0.6563 -0.8850  0.1228
 6220SOL     OW29588   8.726   5.612   1.098 -0.0734 -0.0981 -0.4145
 6220SOL    HW129589   8.816   5.586   1.062 -1.4564 -0.2037 -4.0012
 6220SOL    HW229590   8.683   5.533   1.142  0.3224 -0.8688 -1.4091
 6221SOL     OW29591   0.583   8.319   1.306  0.1631 -0.4074  0.2015
 6221SOL    HW129592   0.513   8.373   1.352  0.2664 -0.4983  0.4651
 6221SOL    HW229593   0.620   8.370   1.229 -0.6559 -0.6071 -0.3363
 6222SOL     OW29594   0.804   5.565   0.599  0.0230 -0.2842  0.6866
 6222SOL    HW129595   0.763   5.474   0.593  1.8149 -1.1074  0.5943
 6222SOL    HW229596   0.870   5.566   0.674  0.0732  0.9176  0.6228
 6223SOL     OW29597   1.316   4.530   5.397 -0.0196  0.1362 -0.2346
 6223SOL    HW129598   1.237   4.542   5.336  0.2834  0.5838 -0.5348
 6223SOL    HW229599   1.325   4.432   5.419  0.3412 -0.1304 -1.5379
 6224SOL     OW29600   0.684   5.006   4.967  0.1132 -0.1526  0.0729
 6224SOL    HW129601   0.758   4.940   4.982  0.1155  0.0457  1.0111
 6224SOL    HW229602   0.721   5.091   4.930  0.4311  0.1224  1.0078
 6225SOL     OW29603   7.591   8.721   4.437 -0.0827 -0.7738 -0.4802
 6225SOL    HW129604   7.628   8.806   4.475  1.9926 -0.9453 -2.0471
 6225SOL    HW229605   7.642   8.644   4.475  0.1486 -1.1142 -1.4743
 6226SOL     OW29606   8.018   0.287   4.215  0.8434  0.4343  0.1029
 6226SOL    HW129607   7.981   0.378   4.194  1.0340  0.6840  0.8306
 6226SOL    HW229608   8.011   0.229   4.134 -1.5828  0.3176  0.3351
 6227SOL     OW29609   1.660   2.654   3.766 -0.1463 -0.2333  0.4509
 6227SOL    HW129610   1.599   2.643   3.845  1.9665  0.1618  2.1797
 6227SOL    HW229611   1.679   2.564   3.727 -0.9370 -0.4708  0.5992
 6228SOL     OW29612   3.319   4.589   4.941 -0.3889 -0.4443  0.6986
 6228SOL    HW129613   3.266   4.658   4.990 -1.2501 -1.1832  0.8218
 6228SOL    HW229614   3.285   4.581   4.847  0.0430 -0.3411  0.5330
 6229SOL     OW29615   1.300   2.480   4.288 -0.0241 -0.0229  0.4138
 6229SOL    HW129616   1.252   2.549   4.342  0.8299 -0.7041  2.0895
 6229SOL    HW229617   1.233   2.425   4.237 -0.9426 -0.1027  1.6692
 6230SOL     OW29618   2.022   3.899   1.496  0.1514  0.0157 -0.0277
 6230SOL    HW129619   1.925   3.877   1.503  0.1480  1.0099  5.7813
 6230SOL    HW229620   2.076   3.817   1.514  0.3525 -0.0756 -1.0676
 6231SOL     OW29621   1.107   0.226   0.536 -0.1630  0.2019  0.4038
 6231SOL    HW129622   1.114   0.129   0.559  0.4244  0.1860  0.1503
 6231SOL    HW229623   1.170   0.279   0.592 -0.3070  0.4140  0.3682
 6232SOL     OW29624   1.001   2.882   2.936 -0.0983  0.1058 -0.1459
 6232SOL    HW129625   1.022   2.804   2.877  0.2085  1.5136 -1.9488
 6232SOL    HW229626   1.055   2.876   3.020  0.7263 -1.0591 -0.7489
 6233SOL     OW29627   2.867   8.486   4.140  0.2719  0.6065 -0.0749
 6233SOL    HW129628   2.871   8.460   4.236  1.1941  0.5201 -0.1268
 6233SOL    HW229629   2.772   8.493   4.111 -0.0074 -2.1166  0.0851
 6234SOL     OW29630   6.012   0.750   4.094  0.2945 -0.2200  0.1146
 6234SOL    HW129631   5.923   0.773   4.054 -1.4181 -0.7879  3.4278
 6234SOL    HW229632   6.084   0.801   4.047 -1.9069  1.2877 -1.7434
 6235SOL     OW29633   0.042   9.605   1.675  0.2829  0.1562  0.5338
 6235SOL    HW129634   0.093   9.520   1.691  0.6869  0.1474 -0.8190
 6235SOL    HW229635  -0.034   9.587   1.613  0.1978  0.7274  0.4738
 6236SOL     OW29636   2.901   0.683   3.346 -0.4983 -0.0176 -0.3356
 6236SOL    HW129637   2.879   0.670   3.249 -1.0925  0.9807 -0.3361
 6236SOL    HW229638   2.818   0.705   3.396  0.1032  1.3715  0.0770
 6237SOL     OW29639   2.263   6.967   4.957  0.0366 -0.7384  0.3866
 6237SOL    HW129640   2.300   7.058   4.940 -2.5465 -0.0216 -1.6646
 6237SOL    HW229641   2.219   6.965   5.047 -2.4700  0.9510 -0.7596
 6238SOL     OW29642   4.554   4.547   0.668 -0.0588  0.1067 -0.3648
 6238SOL    HW129643   4.492   4.509   0.600 -0.9098 -1.6426  1.3370
 6238SOL    HW229644   4.501   4.576   0.748  0.9943  1.4621 -0.1347
 6239SOL     OW29645   1.179   2.879   4.005 -0.8271  0.6185  0.0328
 6239SOL    HW129646   1.221   2.789   3.991 -1.1614  0.6137 -0.9419
 6239SOL    HW229647   1.090   2.883   3.960 -0.8235  1.4378  0.0795
 6240SOL     OW29648   4.184   4.910   4.075  0.0491 -0.4313  0.3261
 6240SOL    HW129649   4.124   4.874   4.004 -0.3155  0.1673  0.3271
 6240SOL    HW229650   4.278   4.908   4.042 -0.0783 -0.4672 -0.0459
 6241SOL     OW29651   9.972   4.903   1.881  0.0686  0.3836 -0.1100
 6241SOL    HW129652   9.936   4.820   1.924  0.6637 -0.1811 -0.7098
 6241SOL    HW229653   9.926   4.983   1.921 -0.5824 -0.2328  0.3898
 6242SOL     OW29654   4.753   8.511   1.511  0.0095  0.4574 -0.3746
 6242SOL    HW129655   4.837   8.544   1.553  0.0378  1.5054 -1.2362
 6242SOL    HW229656   4.727   8.571   1.436 -1.2544 -0.1271 -0.4238
 6243SOL     OW29657   8.061   3.823   5.632 -0.3589  0.2893 -0.3500
 6243SOL    HW129658   8.063   3.724   5.642 -2.3723  0.2734  0.0530
 6243SOL    HW229659   8.006   3.863   5.705  0.2409  1.6849 -0.6509
 6244SOL     OW29660   1.202   6.203   4.855 -0.0622  0.0432  0.0287
 6244SOL    HW129661   1.292   6.196   4.898  0.4525  2.4091 -0.5981
 6244SOL    HW229662   1.189   6.126   4.792  1.5422 -0.2925  0.0989
 6245SOL     OW29663   7.606   6.778   4.073  0.1774 -0.6156 -0.3322
 6245SOL    HW129664   7.564   6.863   4.106 -0.5794 -0.4287 -1.7133
 6245SOL    HW229665   7.547   6.701   4.095  1.6689 -1.0274  2.4329
 6246SOL     OW29666   9.971   0.721   5.364 -0.1648  0.0271 -0.3195
 6246SOL    HW129667   9.916   0.638   5.355  1.3222 -1.0417  0.1508
 6246SOL    HW229668  10.056   0.700   5.412 -0.8708  2.3438  2.0669
 6247SOL     OW29669   7.892   4.652   4.659  0.5193 -0.2175  0.2089
 6247SOL    HW129670   7.828   4.677   4.731  0.8005  0.9807  0.0562
 6247SOL    HW229671   7.855   4.680   4.570  1.0030 -0.0201  0.0660
 6248SOL     OW29672   1.866   0.967   5.080  0.1647 -0.3936 -0.8857
 6248SOL    HW129673   1.832   0.898   5.016 -3.5902 -0.0437  0.5864
 6248SOL    HW229674   1.902   0.923   5.162 -0.4039 -0.6889 -0.7927
 6249SOL     OW29675   0.543   0.221   1.406 -0.0303 -0.6877  0.0723
 6249SOL    HW129676   0.589   0.173   1.331  1.6025 -1.2019  1.3807
 6249SOL    HW229677   0.575   0.315   1.410 -0.6689 -0.4482 -0.3228
 6250SOL     OW29678   3.277   8.608   3.293 -0.2693  0.0127 -0.3265
 6250SOL    HW129679   3.178   8.618   3.303 -0.3356  1.0658 -1.8458
 6250SOL    HW229680   3.297   8.569   3.203  0.7327  0.4800 -0.3087
 6251SOL     OW29681   9.346   1.872   0.364 -0.2328  0.1735 -0.1842
 6251SOL    HW129682   9.377   1.783   0.397  0.9864  1.1950  1.4700
 6251SOL    HW229683   9.367   1.881   0.267 -0.2954 -1.2986 -0.3460
 6252SOL     OW29684   0.451   7.828   1.747 -0.1094  0.8420  0.7472
 6252SOL    HW129685   0.400   7.879   1.817 -0.6385  0.1347  0.8785
 6252SOL    HW229686   0.490   7.893   1.681 -1.2892  1.3988  0.5722
 6253SOL     OW29687   3.754   3.279   5.399 -0.7358 -0.0510 -0.0338
 6253SOL    HW129688   3.799   3.206   5.449  0.1386 -0.5801 -1.5416
 6253SOL    HW229689   3.785   3.278   5.303 -0.9597  2.0512 -0.1705
 6254SOL     OW29690   3.131   3.655   0.932 -0.0056 -0.6042 -0.5694
 6254SOL    HW129691   3.141   3.676   1.029  0.8616 -4.0531  0.1515
 6254SOL    HW229692   3.194   3.711   0.879  0.3390  0.4727  0.9574
 6255SOL     OW29693   3.525   7.460   4.662  0.0469  0.0103 -0.0519
 6255SOL    HW129694   3.462   7.393   4.702 -0.4893  1.3127  1.3137
 6255SOL    HW229695   3.618   7.442   4.694 -0.3689  1.0222  1.8131
 6256SOL     OW29696   8.694   8.138   5.316  0.0326  0.0294  0.4036
 6256SOL    HW129697   8.602   8.125   5.354  0.1083  0.5924  0.7752
 6256SOL    HW229698   8.734   8.221   5.353  0.7372 -0.2657  0.3068
 6257SOL     OW29699   4.478   2.212   5.218 -0.1433 -0.2628  0.0541
 6257SOL    HW129700   4.431   2.124   5.221 -0.7540  0.0862  0.8165
 6257SOL    HW229701   4.562   2.206   5.273 -0.4823 -0.1967  0.5799
 6258SOL     OW29702   1.799   6.220   4.594 -0.2431 -0.9074 -0.1517
 6258SOL    HW129703   1.856   6.140   4.612 -0.2354 -0.9258 -0.2578
 6258SOL    HW229704   1.729   6.195   4.527 -0.4412 -0.9132  0.0569
 6259SOL     OW29705   2.242   6.614   2.688 -0.0631  0.6298 -0.5023
 6259SOL    HW129706   2.215   6.558   2.609  0.1619  1.0558 -0.8846
 6259SOL    HW229707   2.242   6.558   2.770  1.5426 -0.3022 -1.1072
 6260SOL     OW29708   8.505   3.116   3.129 -0.1990 -0.8552  0.4954
 6260SOL    HW129709   8.412   3.113   3.093 -0.0694 -2.1718  0.2644
 6260SOL    HW229710   8.563   3.169   3.067 -0.7237 -0.2691  0.4970
 6261SOL     OW29711   9.178   7.328   3.906  0.2434  0.2731 -0.6935
 6261SOL    HW129712   9.229   7.367   3.983 -0.0322 -0.0622 -0.3437
 6261SOL    HW229713   9.083   7.357   3.910  0.1884  0.1114 -0.8122
 6262SOL     OW29714   3.626   3.990   2.557  0.0849 -0.1014  0.4396
 6262SOL    HW129715   3.689   4.009   2.633  0.4334  1.6560 -0.2767
 6262SOL    HW229716   3.665   3.917   2.501  0.4933 -0.4527  1.1584
 6263SOL     OW29717   7.998   8.845   3.577  0.1926 -0.1802  0.0617
 6263SOL    HW129718   8.024   8.778   3.647 -1.1165  0.4423  1.1855
 6263SOL    HW229719   7.918   8.897   3.609 -0.1307  0.4510 -1.7033
 6264SOL     OW29720   8.565   9.143   0.239  0.2857 -0.5384  1.0219
 6264SOL    HW129721   8.557   9.207   0.315 -0.9428 -1.5407  1.7585
 6264SOL    HW229722   8.500   9.168   0.167 -0.5311 -1.2194  1.5135
 6265SOL     OW29723   6.146   9.795   2.312  0.0123 -0.3897  0.0774
 6265SOL    HW129724   6.056   9.752   2.301  0.4338 -0.7262 -2.5364
 6265SOL    HW229725   6.212   9.750   2.252  1.7905  0.2665  1.4967
 6266SOL     OW29726   7.967   4.397   1.865 -0.2408 -0.6603  0.6870
 6266SOL    HW129727   8.023   4.410   1.783  2.7980 -0.8620  2.6516
 6266SOL    HW229728   7.898   4.327   1.848  0.1160 -0.4255 -1.8191
 6267SOL     OW29729   5.455   8.839   1.431  0.5746 -0.1940  0.1148
 6267SOL    HW129730   5.501   8.780   1.365 -1.0548  0.0051 -1.2204
 6267SOL    HW229731   5.432   8.926   1.388 -1.3333 -0.4083  0.6666
 6268SOL     OW29732   2.905   4.523   5.204 -0.5467 -0.2035 -0.3535
 6268SOL    HW129733   2.819   4.524   5.154 -0.5862  2.3530 -0.3244
 6268SOL    HW229734   2.960   4.602   5.177  2.0485 -2.0793 -0.7637
 6269SOL     OW29735   9.587   5.041   0.975 -0.5457  0.0099  0.1683
 6269SOL    HW129736   9.581   5.061   1.073  1.8767  1.4735  0.0551
 6269SOL    HW229737   9.555   5.120   0.923 -3.4878 -1.4018 -0.2615
 6270SOL     OW29738   2.151   3.403   0.486 -0.2968 -0.1609  0.4358
 6270SOL    HW129739   2.083   3.470   0.516  0.3163 -0.8541  3.5936
 6270SOL    HW229740   2.226   3.400   0.552  0.5492 -2.6776 -0.5702
 6271SOL     OW29741   2.521   2.228   2.912 -0.0435 -0.1313 -0.0306
 6271SOL    HW129742   2.438   2.183   2.881  0.3916 -1.1358  0.2444
 6271SOL    HW229743   2.521   2.232   3.012 -0.2173  0.7439 -0.0647
 6272SOL     OW29744   6.526   1.109   0.863 -0.0865 -0.0272 -0.0597
 6272SOL    HW129745   6.522   1.140   0.768 -1.1389 -1.5796 -0.5444
 6272SOL    HW229746   6.617   1.070   0.882 -0.0142 -0.0844 -0.5350
 6273SOL     OW29747   0.967   9.830   0.416 -0.2260  0.4714 -0.0049
 6273SOL    HW129748   0.992   9.900   0.349 -0.1480 -0.1580 -0.6451
 6273SOL    HW229749   0.871   9.841   0.442 -0.5201  0.1398 -0.9386
 6274SOL     OW29750   9.234   5.650   1.838  0.1541  0.1053  0.1124
 6274SOL    HW129751   9.242   5.620   1.933  0.4260 -1.4354 -0.3749
 6274SOL    HW229752   9.266   5.744   1.829  2.4082 -0.5494  1.1231
 6275SOL     OW29753   1.346   5.853   1.161 -0.1700  0.2212 -0.0248
 6275SOL    HW129754   1.414   5.924   1.180 -0.2549  0.3700 -0.2781
 6275SOL    HW229755   1.359   5.776   1.224  0.6041 -0.0085 -0.4623
 6276SOL     OW29756   4.594   2.355   3.052  0.3296 -0.6780  0.0150
 6276SOL    HW129757   4.639   2.405   3.125  1.2679 -0.0645 -0.9701
 6276SOL    HW229758   4.507   2.399   3.029  1.2223  0.6017 -0.9520
 6277SOL     OW29759   0.090   6.163   0.850  0.6145 -0.0244  0.6159
 6277SOL    HW129760   0.078   6.080   0.905  0.2512  0.1279  0.7722
 6277SOL    HW229761   0.185   6.192   0.853  0.4966  0.2852  1.6018
 6278SOL     OW29762   9.111   0.558   3.970  0.3823  0.2937 -0.0077
 6278SOL    HW129763   9.114   0.654   3.942  0.2678  0.5457  0.8562
 6278SOL    HW229764   9.041   0.545   4.040 -0.8515 -0.7601 -1.4104
 6279SOL     OW29765   3.758   5.271   2.243 -0.1121 -0.2273 -0.4433
 6279SOL    HW129766   3.790   5.180   2.272 -0.3253 -0.6349 -1.4783
 6279SOL    HW229767   3.778   5.284   2.147 -0.4788  0.6604 -0.4014
 6280SOL     OW29768   9.623   1.265   2.309  0.0722  0.0737  0.3113
 6280SOL    HW129769   9.721   1.285   2.309  0.0144  0.4497 -1.2645
 6280SOL    HW229770   9.594   1.240   2.401  1.7439 -0.5114  0.6932
 6281SOL     OW29771   9.933   5.462   3.234  0.4457  0.0846  1.0429
 6281SOL    HW129772  10.029   5.455   3.205  0.5066  2.0318  0.6580
 6281SOL    HW229773   9.926   5.448   3.332  1.5192  2.5751  1.5131
 6282SOL     OW29774   1.660   5.095   4.151 -0.8307  0.0163  0.4013
 6282SOL    HW129775   1.720   5.074   4.074  0.0481 -0.0888  1.1075
 6282SOL    HW229776   1.671   5.191   4.177 -1.2492  0.0961  0.2903
 6283SOL     OW29777   1.166   1.166   4.789 -0.0990  0.3573  0.1819
 6283SOL    HW129778   1.193   1.083   4.839  2.3009  0.6104 -0.6206
 6283SOL    HW229779   1.092   1.144   4.725  0.5537 -1.1963 -0.0755
 6284SOL     OW29780   9.291   7.948   1.882  0.4868 -0.1226 -0.3965
 6284SOL    HW129781   9.212   7.912   1.832  1.0126 -0.8299 -0.7331
 6284SOL    HW229782   9.304   8.044   1.859 -1.1886  0.4177  0.8350
 6285SOL     OW29783   9.389   1.746   4.927  0.2718 -0.0295 -0.7658
 6285SOL    HW129784   9.387   1.793   5.015  0.6097 -2.0799  0.3821
 6285SOL    HW229785   9.321   1.785   4.866  1.0038  2.3654 -0.0865
 6286SOL     OW29786   7.969   6.157   0.565  0.5230  0.7687  0.1870
 6286SOL    HW129787   7.897   6.225   0.550 -0.9029 -0.7692 -0.1994
 6286SOL    HW229788   7.995   6.156   0.661  0.3867  1.7009  0.2328
 6287SOL     OW29789   0.874   7.478   3.356 -0.3172 -0.4793 -0.0552
 6287SOL    HW129790   0.889   7.425   3.440  0.6792  0.8027  0.5846
 6287SOL    HW229791   0.890   7.419   3.277  1.0430 -1.0761  0.6509
 6288SOL     OW29792   7.691   0.034   1.810 -0.1703 -0.0355 -0.1276
 6288SOL    HW129793   7.733  -0.031   1.746  0.8317  0.1759  0.2978
 6288SOL    HW229794   7.600   0.002   1.835 -0.1694 -0.6416 -0.8768
 6289SOL     OW29795   7.576   0.883   1.497  0.0831 -0.5264 -0.4558
 6289SOL    HW129796   7.664   0.898   1.543  0.2234  1.8181 -1.4014
 6289SOL    HW229797   7.502   0.889   1.564  0.4231  0.8601 -0.1880
 6290SOL     OW29798   1.704   6.942   3.906 -0.1022 -0.3070 -0.2568
 6290SOL    HW129799   1.722   6.868   3.840 -3.0799 -1.0794 -0.2526
 6290SOL    HW229800   1.644   7.010   3.864 -3.7318 -1.8350  2.2572
 6291SOL     OW29801   4.269   5.215   0.979 -0.1755 -0.0486 -0.0072
 6291SOL    HW129802   4.313   5.184   0.895 -0.6935 -2.6605  0.6423
 6291SOL    HW229803   4.332   5.274   1.030  1.2847 -0.9331 -0.7576
 6292SOL     OW29804   2.149   4.453   0.094  0.6323  0.2506  0.2782
 6292SOL    HW129805   2.229   4.429   0.148  1.3438  0.8389 -0.5145
 6292SOL    HW229806   2.161   4.544   0.053 -1.0697  1.0146  1.3971
 6293SOL     OW29807   8.035   4.804   4.867  0.3337  0.2624  0.3088
 6293SOL    HW129808   7.971   4.740   4.824  1.0927 -0.1884 -0.1548
 6293SOL    HW229809   8.092   4.847   4.797  0.7549  0.4231  0.7468
 6294SOL     OW29810   9.304   4.279   4.683  0.1960 -0.2585  0.0302
 6294SOL    HW129811   9.274   4.364   4.728  2.2478  0.1942  0.5924
 6294SOL    HW229812   9.284   4.201   4.742  1.7534  0.2201  1.2304
 6295SOL     OW29813   1.946   1.427   4.978  0.5564  0.2459  0.0215
 6295SOL    HW129814   1.950   1.436   4.879  2.1745 -1.0585 -0.0561
 6295SOL    HW229815   1.971   1.334   5.004 -1.5123  0.0908  1.5676
 6296SOL     OW29816   2.834   2.313   2.631 -0.5635  0.0745  0.4488
 6296SOL    HW129817   2.895   2.241   2.598 -0.2568  0.5736 -0.0607
 6296SOL    HW229818   2.780   2.277   2.708  1.1629 -0.0406  1.6460
 6297SOL     OW29819   8.827   7.646   0.904 -0.0571 -1.0126 -0.6023
 6297SOL    HW129820   8.925   7.650   0.924 -0.0136 -1.0161 -0.8161
 6297SOL    HW229821   8.783   7.584   0.970 -0.5970  2.0828  2.0445
 6298SOL     OW29822   8.576   2.352   1.504  0.1049 -0.3972  0.6601
 6298SOL    HW129823   8.599   2.293   1.581 -1.7275  1.9252  3.1070
 6298SOL    HW229824   8.476   2.358   1.495  0.2784  0.8540 -0.6817
 6299SOL     OW29825   4.055   5.211   2.292  0.5036  0.2683 -0.2985
 6299SOL    HW129826   4.060   5.132   2.230  2.3817  0.9341 -1.0274
 6299SOL    HW229827   4.067   5.295   2.240 -1.0100  1.0300  0.5501
 6300SOL     OW29828   9.805   9.129   0.675  0.3939 -0.1511  0.1895
 6300SOL    HW129829   9.900   9.157   0.694 -0.0371  0.5575  1.3545
 6300SOL    HW229830   9.742   9.197   0.713 -0.5545  0.1979 -1.9590
 6301SOL     OW29831   6.455   2.150   3.068  0.2922  0.0689 -0.3021
 6301SOL    HW129832   6.490   2.174   3.159  2.6123 -1.2677 -0.8004
 6301SOL    HW229833   6.398   2.068   3.074 -1.6985  1.4534  0.3006
 6302SOL     OW29834   7.875   3.099   2.706  0.0569 -0.2477 -0.3278
 6302SOL    HW129835   7.792   3.089   2.652 -0.4233 -1.5046  0.6039
 6302SOL    HW229836   7.889   3.016   2.761  0.5155  1.0025  1.4848
 6303SOL     OW29837   2.657   6.894   4.600 -0.0883 -0.1203 -0.3310
 6303SOL    HW129838   2.637   6.892   4.502  1.0784  0.6557 -0.5923
 6303SOL    HW229839   2.618   6.813   4.643 -0.8428 -0.3370 -1.3902
 6304SOL     OW29840   9.984   7.124   4.819 -0.5847  0.3979 -0.1928
 6304SOL    HW129841  10.014   7.193   4.885  0.5319 -2.0318  1.9250
 6304SOL    HW229842  10.055   7.113   4.749  0.0716  0.0893  0.5131
 6305SOL     OW29843   0.185   6.561   0.900 -0.1988 -0.5616  0.0897
 6305SOL    HW129844   0.272   6.517   0.877 -0.6779 -1.1168 -0.6938
 6305SOL    HW229845   0.142   6.512   0.975 -0.3317 -0.9171 -0.2193
 6306SOL     OW29846   8.701   7.079   4.630  0.1537 -0.2342 -0.2752
 6306SOL    HW129847   8.654   7.001   4.587  0.6913  0.8789 -2.9718
 6306SOL    HW229848   8.650   7.163   4.610  1.2898  0.5109 -0.0502
 6307SOL     OW29849   0.010   7.715   4.139 -0.6243 -0.7233  0.2764
 6307SOL    HW129850   0.053   7.796   4.098 -0.6904 -0.7509  0.1541
 6307SOL    HW229851   0.051   7.698   4.229 -3.0595  1.6034  1.9299
 6308SOL     OW29852   3.948   8.024   0.004 -0.5788 -0.1594  0.7893
 6308SOL    HW129853   3.971   7.935   0.044  0.2064 -0.0435  0.6089
 6308SOL    HW229854   4.032   8.069  -0.027 -1.3214 -1.2764 -3.1428
 6309SOL     OW29855   7.844   8.088   2.795  0.1589  0.2788  0.6054
 6309SOL    HW129856   7.872   7.996   2.822 -0.4673 -0.3268 -0.7279
 6309SOL    HW229857   7.744   8.093   2.789  0.2509  0.4332 -1.3055
 6310SOL     OW29858   4.345   2.500   2.927 -0.2985 -0.4079  0.5761
 6310SOL    HW129859   4.292   2.447   2.861  1.8740  0.3271 -1.8678
 6310SOL    HW229860   4.289   2.574   2.963 -1.3744 -0.5222 -0.8247
 6311SOL     OW29861   8.514   2.972   1.882  0.0180 -0.3815  0.1597
 6311SOL    HW129862   8.604   2.930   1.898 -0.0264 -0.6995 -0.4334
 6311SOL    HW229863   8.521   3.071   1.894  1.0532 -0.0981 -2.4686
 6312SOL     OW29864   2.949   2.407   0.316  0.7231 -0.1341  0.1246
 6312SOL    HW129865   3.026   2.382   0.374  0.4330  1.7327  1.3698
 6312SOL    HW229866   2.939   2.507   0.316 -0.9874 -0.2939 -0.9287
 6313SOL     OW29867   9.301   8.920   1.009 -0.6324 -0.0398  0.2685
 6313SOL    HW129868   9.352   8.984   0.951 -1.8971  0.3889 -0.3773
 6313SOL    HW229869   9.214   8.897   0.965 -0.9839 -0.7961  1.3472
 6314SOL     OW29870   9.019   2.022   2.141 -1.0184  0.7709  0.5056
 6314SOL    HW129871   9.035   2.120   2.130 -0.5924  0.2771 -3.9965
 6314SOL    HW229872   8.925   2.001   2.116 -0.7108 -0.1502  0.1238
 6315SOL     OW29873   4.362   9.706   1.614  0.5402 -0.5851 -0.2458
 6315SOL    HW129874   4.286   9.654   1.576  1.1502 -1.5163 -0.2024
 6315SOL    HW229875   4.361   9.798   1.576  0.1293 -0.9788 -1.2122
 6316SOL     OW29876   4.379   2.230   0.384  0.0152  0.1527  0.4043
 6316SOL    HW129877   4.294   2.272   0.353 -0.7300 -1.7477 -0.2091
 6316SOL    HW229878   4.359   2.159   0.451  1.0939 -0.5829 -0.0397
 6317SOL     OW29879   3.866   8.401   1.180 -0.3415 -0.7991 -0.0302
 6317SOL    HW129880   3.832   8.343   1.254 -2.1773 -0.0878 -0.2968
 6317SOL    HW229881   3.924   8.347   1.119 -1.2601 -2.1274  0.2452
 6318SOL     OW29882   9.716   1.722   2.770  0.0998 -0.1651 -0.3596
 6318SOL    HW129883   9.622   1.703   2.743 -0.1694  2.0533 -1.1502
 6318SOL    HW229884   9.771   1.739   2.688  0.2070  2.6041  0.2193
 6319SOL     OW29885   3.344   0.657   2.643  0.2142 -0.2231  0.3944
 6319SOL    HW129886   3.263   0.651   2.584  0.2113 -0.7580  0.4462
 6319SOL    HW229887   3.426   0.638   2.589  0.4587  1.8586  0.0014
 6320SOL     OW29888   7.427   8.500   2.700 -0.5196 -0.0606 -0.6823
 6320SOL    HW129889   7.331   8.512   2.725  0.0075 -1.1251  2.0165
 6320SOL    HW229890   7.476   8.585   2.716 -0.8548  0.2936 -1.4647
 6321SOL     OW29891   6.877   8.545   3.505  0.4778  0.8777 -0.0273
 6321SOL    HW129892   6.949   8.614   3.500  0.5838  0.6772 -1.3132
 6321SOL    HW229893   6.800   8.572   3.446  0.9149 -0.5489 -1.2802
 6322SOL     OW29894   2.884   8.107   4.931 -0.1717 -0.5544 -0.2990
 6322SOL    HW129895   2.974   8.149   4.939  0.0618 -1.0377 -0.4084
 6322SOL    HW229896   2.814   8.175   4.952  0.1787  0.1040 -1.2273
 6323SOL     OW29897   2.087   0.724   5.604  0.0326  0.8646  0.3795
 6323SOL    HW129898   2.110   0.779   5.684  0.9328 -1.5105  1.7927
 6323SOL    HW229899   1.996   0.683   5.616  0.9339 -0.9995  1.0705
 6324SOL     OW29900   1.919   9.566   4.180  0.4458  0.3594  0.4453
 6324SOL    HW129901   1.979   9.598   4.107 -1.2351  1.2023 -0.5940
 6324SOL    HW229902   1.849   9.506   4.142 -1.7624  2.5048  0.9519
 6325SOL     OW29903   2.673   0.186   3.684  0.4183 -0.1935  0.2431
 6325SOL    HW129904   2.751   0.123   3.683 -0.1498 -0.9323  1.5755
 6325SOL    HW229905   2.592   0.139   3.719 -0.8377  0.3603 -1.8125
 6326SOL     OW29906   6.385   0.289   1.602 -0.0040 -0.3876 -0.2556
 6326SOL    HW129907   6.304   0.284   1.543 -1.5339 -0.3063  1.7883
 6326SOL    HW229908   6.367   0.241   1.688  1.2436  1.6961  1.2222
 6327SOL     OW29909   4.100   6.059   1.240  0.1422  0.1805 -0.1851
 6327SOL    HW129910   4.148   5.999   1.176  0.1012  0.2005 -0.2347
 6327SOL    HW229911   4.041   6.122   1.188  1.4610  1.3990 -0.2250
 6328SOL     OW29912   1.294   3.507   1.361 -0.2772 -0.2480  0.2267
 6328SOL    HW129913   1.286   3.464   1.451 -2.9657  0.9426  0.6022
 6328SOL    HW229914   1.243   3.452   1.294  0.9798 -0.6518 -0.4134
 6329SOL     OW29915   9.599   0.731   4.869 -0.4405  0.4327 -0.4739
 6329SOL    HW129916   9.569   0.685   4.952  1.6508 -1.2281 -0.5909
 6329SOL    HW229917   9.521   0.746   4.809 -1.5776 -0.5342  0.7230
 6330SOL     OW29918   3.584   3.309   1.907 -1.0652  0.1025  0.3714
 6330SOL    HW129919   3.589   3.236   1.976  1.4047  0.4152  0.5757
 6330SOL    HW229920   3.625   3.276   1.822 -0.7429  0.9568  0.1966
 6331SOL     OW29921   1.248   9.351   3.807  0.3241  0.1402 -0.3910
 6331SOL    HW129922   1.342   9.317   3.807  0.3982  0.3166 -1.0397
 6331SOL    HW229923   1.185   9.280   3.838  0.9232  0.7765  2.3470
 6332SOL     OW29924   1.748   7.210   2.680 -0.4554 -0.5318 -1.1182
 6332SOL    HW129925   1.844   7.236   2.675  0.1963 -2.2869  1.0379
 6332SOL    HW229926   1.692   7.291   2.699  1.1457 -0.1503  2.3165
 6333SOL     OW29927   2.166   4.696   5.636 -0.0681  0.3176 -0.2837
 6333SOL    HW129928   2.155   4.755   5.556 -1.3867  1.6118  0.8381
 6333SOL    HW229929   2.148   4.748   5.719  0.1673 -1.3080  0.8156
 6334SOL     OW29930   9.865   8.083   4.903 -0.3405 -0.1586  0.8633
 6334SOL    HW129931   9.949   8.045   4.944 -1.1722 -1.0320  1.7736
 6334SOL    HW229932   9.797   8.011   4.893 -2.0648  1.0997  2.9309
 6335SOL     OW29933   0.828   4.782   1.117 -0.3458  0.6001  0.2776
 6335SOL    HW129934   0.807   4.717   1.044  0.3034 -0.5535  1.0887
 6335SOL    HW229935   0.793   4.747   1.204  0.0139  1.3332  0.7259
 6336SOL     OW29936   1.929   1.441   1.251 -0.0547  0.3211  0.3889
 6336SOL    HW129937   1.998   1.512   1.238  1.1404 -0.8959  0.0938
 6336SOL    HW229938   1.875   1.463   1.333  2.2459  0.0158  2.0465
 6337SOL     OW29939   3.843   9.638   3.697  0.0747  0.2854  0.5076
 6337SOL    HW129940   3.911   9.686   3.642  3.2762 -2.7386  1.6169
 6337SOL    HW229941   3.854   9.665   3.793 -1.9736  1.6010  0.3947
 6338SOL     OW29942   0.406   4.235   4.642 -0.2647  0.0476 -0.0480
 6338SOL    HW129943   0.428   4.252   4.546 -1.6469 -0.8990 -0.5502
 6338SOL    HW229944   0.312   4.262   4.659 -0.2353 -0.4258  0.8752
 6339SOL     OW29945   7.530   0.863   0.210  0.5111 -0.1233 -0.0119
 6339SOL    HW129946   7.567   0.956   0.218  1.6904 -0.5919  0.0654
 6339SOL    HW229947   7.500   0.832   0.300 -0.8287  0.5560 -0.2095
 6340SOL     OW29948   6.132   0.961   3.962  0.6230 -0.5089  0.1058
 6340SOL    HW129949   6.173   1.042   4.003 -0.3410  0.2839 -0.4590
 6340SOL    HW229950   6.052   0.988   3.909 -0.8390 -2.0418  1.4607
 6341SOL     OW29951   1.859   6.488   3.702 -0.0343  0.2273  0.2244
 6341SOL    HW129952   1.825   6.409   3.754  0.0114 -1.1741 -1.8123
 6341SOL    HW229953   1.826   6.482   3.608  1.0811  1.9507 -0.2911
 6342SOL     OW29954   2.313   6.344   0.497  0.1189 -0.7046  0.7091
 6342SOL    HW129955   2.399   6.297   0.474  0.4152 -0.3073  0.9875
 6342SOL    HW229956   2.298   6.339   0.595  1.4660  1.9583  1.0997
 6343SOL     OW29957   3.614   2.337   2.619  0.1063 -0.2173  0.1122
 6343SOL    HW129958   3.601   2.300   2.711 -0.4619 -0.4790 -0.0685
 6343SOL    HW229959   3.543   2.405   2.600 -0.9002 -1.5114 -0.8203
 6344SOL     OW29960   1.620   8.918   5.351 -0.3284 -0.3111 -0.1651
 6344SOL    HW129961   1.614   9.016   5.335 -0.9067 -0.5613 -1.6554
 6344SOL    HW229962   1.670   8.875   5.275  2.0846 -0.8846  1.6821
 6345SOL     OW29963   9.985   7.382   4.934  0.0989 -0.2102  0.0536
 6345SOL    HW129964  10.021   7.427   5.016  0.4840  1.0122 -0.7687
 6345SOL    HW229965   9.889   7.407   4.922  0.7429  1.7479 -1.2931
 6346SOL     OW29966   8.226   4.332   0.972  0.5585 -0.6365 -0.5913
 6346SOL    HW129967   8.163   4.400   0.934  1.6038  0.4770 -0.3792
 6346SOL    HW229968   8.314   4.339   0.925  0.6255 -1.9843 -0.6900
 6347SOL     OW29969   6.253   0.946   2.662 -0.5023  0.4093 -0.0854
 6347SOL    HW129970   6.205   1.008   2.599 -1.0096  0.4169  0.2990
 6347SOL    HW229971   6.288   0.999   2.739  0.4384  0.4573 -0.5408
 6348SOL     OW29972   7.210   6.851   3.848  0.1764 -0.0817 -0.3005
 6348SOL    HW129973   7.204   6.785   3.923  0.7560 -0.2452 -0.3952
 6348SOL    HW229974   7.132   6.914   3.853 -0.4305 -0.8214 -0.2547
 6349SOL     OW29975   1.140   8.318   3.862  0.5999  0.1788 -0.3518
 6349SOL    HW129976   1.181   8.333   3.952  0.5119  1.2034 -0.4759
 6349SOL    HW229977   1.190   8.246   3.814  0.9851  0.0078  0.3055
 6350SOL     OW29978   9.350   4.654   2.856  0.3644  0.3681  0.4486
 6350SOL    HW129979   9.269   4.687   2.808 -0.7011  0.7573  2.4723
 6350SOL    HW229980   9.424   4.720   2.844  0.0529  0.5578 -0.4886
 6351SOL     OW29981   3.182   1.391   1.490 -0.6095  0.0200 -0.2052
 6351SOL    HW129982   3.130   1.449   1.428 -0.2208 -0.2100 -0.7500
 6351SOL    HW229983   3.246   1.447   1.543 -1.6319  0.3458  0.6970
 6352SOL     OW29984   0.662   7.905   0.222  0.2522  0.0260  0.3127
 6352SOL    HW129985   0.673   7.831   0.289  0.6678  1.0243  1.3775
 6352SOL    HW229986   0.709   7.881   0.137 -0.2654 -1.2543  0.3886
 6353SOL     OW29987   0.816   5.503   4.295  0.0738  0.2731 -0.3167
 6353SOL    HW129988   0.907   5.475   4.327  0.9913  0.5679 -2.5587
 6353SOL    HW229989   0.752   5.501   4.371  1.5663 -1.6673  0.9430
 6354SOL     OW29990   8.940   1.957   5.435  0.4425  0.1261 -0.5852
 6354SOL    HW129991   8.922   1.904   5.518 -4.0046  0.2003 -1.3242
 6354SOL    HW229992   8.989   2.041   5.457 -0.1309 -0.1702  1.8805
 6355SOL     OW29993   7.969   1.306   4.987  0.0627  0.0424 -0.8245
 6355SOL    HW129994   7.963   1.233   4.918  0.3594  0.4898 -1.3298
 6355SOL    HW229995   8.056   1.354   4.977  0.7039 -0.7612  0.7455
 6356SOL     OW29996   2.052   9.222   1.586  0.4199  0.0022 -0.5584
 6356SOL    HW129997   2.140   9.178   1.571  0.5321  0.4431 -1.1860
 6356SOL    HW229998   2.061   9.321   1.575  0.1993  0.2126  0.9744
 6357SOL     OW29999   7.892   2.714   4.636 -0.1260  0.1207  0.3148
 6357SOL    HW130000   7.860   2.634   4.687 -1.6054 -0.0547 -0.8748
 6357SOL    HW230001   7.952   2.684   4.562  0.7923  0.2624  0.9927
 6358SOL     OW30002   9.898   0.050   0.430 -0.9657 -0.2128  0.2382
 6358SOL    HW130003   9.856   0.061   0.339  0.1453 -0.0025 -0.2601
 6358SOL    HW230004   9.996   0.035   0.419 -0.9563 -1.0516  1.3783
 6359SOL     OW30005   3.400   3.895   1.050 -0.1532 -1.0644 -0.0449
 6359SOL    HW130006   3.370   3.871   0.958 -0.3375 -1.2521  0.0614
 6359SOL    HW230007   3.446   3.983   1.049 -1.2711 -0.4684 -0.1185
 6360SOL     OW30008   8.158   1.473   4.322 -0.1975  0.4519 -0.1115
 6360SOL    HW130009   8.220   1.519   4.259 -1.5614  0.5871 -1.3828
 6360SOL    HW230010   8.111   1.541   4.378  0.4665  0.3741  0.5506
 6361SOL     OW30011   9.813   6.461   2.555  0.3597  0.2002  0.1535
 6361SOL    HW130012   9.862   6.445   2.641  0.4004 -1.6966 -0.2098
 6361SOL    HW230013   9.807   6.376   2.503 -2.3280  0.6411 -0.3467
 6362SOL     OW30014   1.006   8.685   1.274  0.6320  0.1977 -0.0352
 6362SOL    HW130015   0.925   8.634   1.305 -1.2454  2.1738 -1.5624
 6362SOL    HW230016   1.027   8.757   1.339  0.2764  0.6072 -0.3739
 6363SOL     OW30017   9.372   7.324   3.449  0.0191 -0.0742 -0.2820
 6363SOL    HW130018   9.341   7.419   3.455 -1.5378 -0.4688 -1.6722
 6363SOL    HW230019   9.319   7.268   3.512 -2.2262 -0.7578 -2.6877
 6364SOL     OW30020   2.507   8.305   0.688 -0.0415 -0.1677 -0.4962
 6364SOL    HW130021   2.543   8.213   0.673 -0.6179 -0.5084  0.1554
 6364SOL    HW230022   2.480   8.344   0.601 -1.5789 -1.3808 -0.5991
 6365SOL     OW30023   4.616   1.127   1.568 -0.3843  0.0148 -0.0610
 6365SOL    HW130024   4.554   1.206   1.567 -0.6681 -0.1700  1.1878
 6365SOL    HW230025   4.576   1.055   1.625 -0.7027 -1.5083 -2.1750
 6366SOL     OW30026   3.846   7.427   2.334 -0.4133  0.2440  0.0661
 6366SOL    HW130027   3.779   7.408   2.263 -0.8797  1.0869  0.2721
 6366SOL    HW230028   3.895   7.343   2.357 -1.5380 -0.4240  0.0577
 6367SOL     OW30029   0.390   7.161   3.724  0.0812  0.2619 -0.1162
 6367SOL    HW130030   0.337   7.239   3.691 -0.4610 -0.1711 -0.2574
 6367SOL    HW230031   0.476   7.156   3.673  0.0653  0.6984 -0.1871
 6368SOL     OW30032   0.164   2.893   4.003 -0.2419  0.1370  0.5850
 6368SOL    HW130033   0.157   2.985   3.963  1.1189 -0.1874 -0.4721
 6368SOL    HW230034   0.082   2.872   4.054 -0.9942  1.5639 -0.0107
 6369SOL     OW30035   7.893   9.236   0.277  0.0370  0.0320 -0.0206
 6369SOL    HW130036   7.968   9.299   0.299  1.4810 -1.8797  0.6407
 6369SOL    HW230037   7.925   9.169   0.210 -1.3563 -0.2760 -0.3909
 6370SOL     OW30038   9.359   2.876   2.761 -0.2665  0.4478 -0.5457
 6370SOL    HW130039   9.409   2.844   2.841 -2.6008  0.0831  0.8422
 6370SOL    HW230040   9.422   2.895   2.687  1.8603 -0.2112  1.0490
 6371SOL     OW30041   7.040   3.058   0.092 -0.0992 -0.5151 -0.0587
 6371SOL    HW130042   7.058   2.960   0.080 -1.2695 -0.6064 -1.1747
 6371SOL    HW230043   7.079   3.108   0.015 -2.3895 -0.4589 -1.2099
 6372SOL     OW30044   1.088   0.651   1.460 -0.2236 -0.2636  0.7386
 6372SOL    HW130045   1.121   0.745   1.460 -0.5515 -0.1387 -0.5846
 6372SOL    HW230046   1.151   0.594   1.512  0.1301  0.6359  1.3084
 6373SOL     OW30047   2.476   2.881   2.718 -0.4740  0.2477  0.2255
 6373SOL    HW130048   2.480   2.884   2.817  2.5350 -1.8495  0.2310
 6373SOL    HW230049   2.485   2.974   2.681  0.6320  0.8030  1.8631
 6374SOL     OW30050   1.019   1.248   2.793  0.2812  0.2282 -0.4531
 6374SOL    HW130051   1.093   1.314   2.804  1.0930 -0.8641  0.8374
 6374SOL    HW230052   1.028   1.177   2.863 -1.7301 -0.1590 -0.5706
 6375SOL     OW30053   8.375   1.706   5.580  0.0134  0.0425 -0.6061
 6375SOL    HW130054   8.358   1.650   5.661  0.0379 -1.2826 -1.5117
 6375SOL    HW230055   8.373   1.803   5.606 -0.3424 -0.3548  0.9041
 6376SOL     OW30056   3.999   3.191   1.200 -0.2467 -0.1965  0.2007
 6376SOL    HW130057   4.047   3.143   1.127 -0.6649 -0.9467  0.4202
 6376SOL    HW230058   4.063   3.253   1.246 -0.5025  1.9010 -2.1726
 6377SOL     OW30059   2.922   8.323   2.033 -0.4754 -0.3051 -0.2010
 6377SOL    HW130060   2.924   8.361   2.126 -4.5135  3.5564 -1.5421
 6377SOL    HW230061   2.999   8.359   1.981 -1.1056  1.7451  0.2112
 6378SOL     OW30062   8.927   0.587   5.244  0.3893  1.0586 -0.0477
 6378SOL    HW130063   8.935   0.552   5.338 -2.2030  1.2191  0.2580
 6378SOL    HW230064   8.875   0.672   5.245 -0.8621  0.3386 -1.7769
 6379SOL     OW30065   8.461   7.920   4.042  0.1920  0.5425 -0.2560
 6379SOL    HW130066   8.420   7.993   3.987 -1.6697 -1.0035 -0.9860
 6379SOL    HW230067   8.456   7.834   3.991  0.4489 -0.4912  1.4497
 6380SOL     OW30068   4.350   2.827   3.219 -0.4270  0.2268 -0.2119
 6380SOL    HW130069   4.310   2.871   3.300  0.4333  0.4273  0.1025
 6380SOL    HW230070   4.406   2.749   3.247  0.1164  0.4778 -0.5957
 6381SOL     OW30071   9.024   4.591   2.953  0.3622  0.5989 -0.1405
 6381SOL    HW130072   8.939   4.618   2.999  1.6092  0.8653  2.0747
 6381SOL    HW230073   9.019   4.615   2.857 -2.1848  0.3788 -0.0937
 6382SOL     OW30074   1.374   0.961   0.881 -0.4573  0.0134  0.1384
 6382SOL    HW130075   1.428   0.878   0.871  0.3700  0.5081  0.4140
 6382SOL    HW230076   1.430   1.040   0.856 -1.4488  0.4316 -0.8198
 6383SOL     OW30077   7.648   0.389   4.651 -0.2436 -0.0193  0.1115
 6383SOL    HW130078   7.589   0.334   4.592  0.6861 -0.7039 -0.2001
 6383SOL    HW230079   7.611   0.393   4.743 -1.6153  0.8982 -0.4703
 6384SOL     OW30080   4.492   1.386   0.486  0.0422 -0.0400  0.3944
 6384SOL    HW130081   4.432   1.460   0.516 -0.3486 -0.1380 -0.1423
 6384SOL    HW230082   4.494   1.383   0.386  1.1734  0.1480  0.4053
 6385SOL     OW30083   1.417   7.174   2.484 -0.6710  0.0546  0.0058
 6385SOL    HW130084   1.417   7.181   2.584  0.4244  0.0321  0.0138
 6385SOL    HW230085   1.467   7.092   2.456 -1.2449 -0.1046 -0.5496
 6386SOL     OW30086   4.320   8.108   2.470  0.3282  0.0200 -0.1764
 6386SOL    HW130087   4.329   8.016   2.508  1.1446  0.5680  0.9689
 6386SOL    HW230088   4.390   8.122   2.400  1.2599  0.3427  0.8107
 6387SOL     OW30089   4.711   8.685   3.446  0.1039 -0.4539 -0.2701
 6387SOL    HW130090   4.800   8.643   3.424  0.5286 -0.0585  0.6877
 6387SOL    HW230091   4.665   8.630   3.516  0.2469  0.1657  0.3091
 6388SOL     OW30092   0.502   3.815   1.447 -0.1858  0.4256 -0.1937
 6388SOL    HW130093   0.532   3.730   1.405 -1.0613 -0.2895  0.6150
 6388SOL    HW230094   0.521   3.892   1.385  0.3838 -0.3821 -1.0213
 6389SOL     OW30095   6.136   9.409   4.698 -0.1746  0.0965 -0.3353
 6389SOL    HW130096   6.074   9.360   4.758  0.2253  1.1405  0.9431
 6389SOL    HW230097   6.085   9.448   4.621 -1.1174  1.0406  0.7678
 6390SOL     OW30098   8.530   0.036   1.121  0.0503  0.5258  0.1689
 6390SOL    HW130099   8.569  -0.025   1.053 -1.1577  0.7913 -0.7718
 6390SOL    HW230100   8.555   0.003   1.213  2.0708  0.4433 -0.3854
 6391SOL     OW30101   3.075   5.796   3.284 -0.1819  0.2260  0.5495
 6391SOL    HW130102   3.169   5.830   3.289 -0.0679  0.2689 -1.5763
 6391SOL    HW230103   3.025   5.847   3.214 -0.5260 -2.7602 -1.4179
 6392SOL     OW30104   8.729   6.852   4.093  0.7561 -0.1406 -0.0958
 6392SOL    HW130105   8.797   6.889   4.030  2.0314  0.0961  1.3851
 6392SOL    HW230106   8.746   6.888   4.185 -0.8194 -0.8023  0.4653
 6393SOL     OW30107   0.755   7.163   1.272  0.2492 -0.2007 -0.3447
 6393SOL    HW130108   0.786   7.219   1.349 -0.9292  0.4082 -0.3123
 6393SOL    HW230109   0.824   7.165   1.200  0.7574  0.2996  0.1493
 6394SOL     OW30110   6.240   7.045   2.977  0.1748  0.3839  0.1358
 6394SOL    HW130111   6.164   7.055   2.913 -0.1599  2.8603  0.8471
 6394SOL    HW230112   6.319   7.098   2.943 -0.1616  2.1030  1.9305
 6395SOL     OW30113   8.976   1.304   3.450 -0.0184 -0.0976 -0.1272
 6395SOL    HW130114   9.039   1.339   3.520 -0.2079 -1.0100  0.4955
 6395SOL    HW230115   8.886   1.289   3.491 -0.2809 -0.0951 -0.7061
 6396SOL     OW30116   0.513   1.852   2.142 -0.3377 -0.2563  0.5344
 6396SOL    HW130117   0.514   1.757   2.175  2.5953 -0.3389  0.3735
 6396SOL    HW230118   0.494   1.913   2.218 -1.9326 -0.9609  0.7089
 6397SOL     OW30119   8.122   8.439   3.232 -0.5401  0.7573 -0.3288
 6397SOL    HW130120   8.178   8.365   3.194 -1.3843  0.9003 -1.9157
 6397SOL    HW230121   8.161   8.527   3.208 -0.9082  0.8469 -0.6106
 6398SOL     OW30122   3.207   7.716   1.101 -0.1422  0.5627  0.0261
 6398SOL    HW130123   3.242   7.763   1.183  2.1204 -0.7672 -0.1286
 6398SOL    HW230124   3.239   7.764   1.019 -2.7751  2.1532 -0.1398
 6399SOL     OW30125   5.368   0.334   1.968  0.0429 -0.3202  0.2069
 6399SOL    HW130126   5.454   0.330   2.020  0.1549  3.5837  0.4607
 6399SOL    HW230127   5.357   0.250   1.916  2.1939 -2.4561  3.0245
 6400SOL     OW30128   1.309   9.974   0.311 -0.1671  0.1234 -0.1450
 6400SOL    HW130129   1.368  10.054   0.323 -1.7496  1.0651  1.5316
 6400SOL    HW230130   1.366   9.892   0.305  1.4638  1.3572 -1.8972
 6401SOL     OW30131   9.422   2.094   2.860  0.3582  0.0440 -0.0409
 6401SOL    HW130132   9.327   2.120   2.876  0.0601 -0.7982 -0.4195
 6401SOL    HW230133   9.474   2.173   2.827  0.0858  0.8248  1.3531
 6402SOL     OW30134   5.217   4.022   5.546  0.5078 -0.4611  0.2228
 6402SOL    HW130135   5.284   4.033   5.619 -1.0627 -0.9508  1.7855
 6402SOL    HW230136   5.233   4.091   5.476  2.2400 -0.1719  0.8746
 6403SOL     OW30137   9.163   3.206   1.117 -0.4661 -0.4204  0.0875
 6403SOL    HW130138   9.124   3.131   1.064  0.7607 -1.7093  0.9690
 6403SOL    HW230139   9.260   3.188   1.135 -0.5052  0.6795  1.5309
 6404SOL     OW30140   0.591   6.512   4.221  0.1048  0.3275 -0.0021
 6404SOL    HW130141   0.627   6.423   4.196  2.3197  0.8972  0.9958
 6404SOL    HW230142   0.515   6.536   4.161  0.2131 -1.7296 -0.9871
 6405SOL     OW30143   2.948   7.122   3.817  0.1648 -0.0223 -0.2751
 6405SOL    HW130144   2.890   7.103   3.897 -0.1840  0.7084 -0.3532
 6405SOL    HW230145   3.019   7.051   3.811 -1.2583 -1.4528 -0.7110
 6406SOL     OW30146   2.225   4.015   5.095  0.7803 -0.5805  0.0385
 6406SOL    HW130147   2.280   4.096   5.114 -0.5707  0.7266 -1.4618
 6406SOL    HW230148   2.226   3.955   5.175  0.8234  1.4725  1.6382
 6407SOL     OW30149   4.839   1.294   2.084  0.3428 -0.2158  0.0699
 6407SOL    HW130150   4.888   1.218   2.040 -0.5334 -1.3238  0.9687
 6407SOL    HW230151   4.901   1.372   2.093  1.4577 -1.0342 -0.3066
 6408SOL     OW30152   4.552   7.153   3.166  0.3060 -0.0114  0.0502
 6408SOL    HW130153   4.520   7.246   3.178  1.0191  0.1892  0.4554
 6408SOL    HW230154   4.535   7.123   3.072 -2.2156 -0.3719  0.5959
 6409SOL     OW30155   2.770   4.726   4.961 -0.3758 -0.4240 -0.2312
 6409SOL    HW130156   2.735   4.639   4.926 -0.7594 -0.0081 -0.8952
 6409SOL    HW230157   2.756   4.797   4.892 -1.6780  0.5224  0.9738
 6410SOL     OW30158   3.284   1.698   4.334  0.3115  0.1960 -0.0634
 6410SOL    HW130159   3.248   1.606   4.349  1.8195 -0.2478  0.9545
 6410SOL    HW230160   3.313   1.738   4.421  0.8422  1.1343 -0.6527
 6411SOL     OW30161   0.295   8.738   1.136  0.4640 -0.3655 -0.5584
 6411SOL    HW130162   0.202   8.769   1.154  0.4887 -1.9482  2.5785
 6411SOL    HW230163   0.354   8.818   1.120 -0.1223  1.1259  4.0529
 6412SOL     OW30164   9.836   8.825   2.994  0.3229  0.1696  0.7954
 6412SOL    HW130165   9.797   8.746   3.040  1.4624 -0.6813  0.3264
 6412SOL    HW230166   9.763   8.881   2.955 -0.4732 -0.7567  0.9524
 6413SOL     OW30167   1.620   1.445   2.325 -0.1924 -0.6237  0.3925
 6413SOL    HW130168   1.564   1.508   2.378 -1.6888 -2.4980  1.0996
 6413SOL    HW230169   1.710   1.437   2.367  0.0353  1.0390  0.2664
 6414SOL     OW30170   3.492   9.038   1.360  0.0360 -0.0871  0.4088
 6414SOL    HW130171   3.451   9.091   1.286  1.3854  0.3907 -0.0158
 6414SOL    HW230172   3.590   9.058   1.365 -0.2375  0.8200  3.1205
 6415SOL     OW30173   1.668   5.263   5.503 -0.3447  0.4752 -0.4383
 6415SOL    HW130174   1.618   5.282   5.587  0.1471 -1.4840  0.3289
 6415SOL    HW230175   1.766   5.267   5.521 -0.2066  1.8545 -1.3680
 6416SOL     OW30176   5.050   3.499   5.434 -0.8277 -0.1206 -0.1506
 6416SOL    HW130177   5.088   3.534   5.520 -1.5009  0.5643 -0.1312
 6416SOL    HW230178   5.039   3.400   5.441 -0.0666 -0.1810  0.2372
 6417SOL     OW30179   0.126   9.570   4.599 -0.5298 -0.4212  0.7976
 6417SOL    HW130180   0.094   9.481   4.632  2.1277 -1.5938  0.4030
 6417SOL    HW230181   0.218   9.560   4.561 -0.5303  2.3528 -0.0548
 6418SOL     OW30182   8.929   5.688   4.087 -0.4956 -0.0707 -0.2924
 6418SOL    HW130183   8.959   5.728   4.173 -0.6958 -0.2358 -0.1454
 6418SOL    HW230184   8.830   5.678   4.087 -0.3246 -1.9725  0.2874
 6419SOL     OW30185   4.076   5.673   1.610 -0.9916  0.1469 -0.1044
 6419SOL    HW130186   4.043   5.608   1.542 -2.2636 -0.6015  1.2243
 6419SOL    HW230187   4.072   5.766   1.571  0.9526 -0.5201 -2.0437
 6420SOL     OW30188   0.506   4.193   5.338 -0.4023 -0.1691  0.1834
 6420SOL    HW130189   0.598   4.193   5.298 -0.1466  1.1205  0.7413
 6420SOL    HW230190   0.512   4.176   5.436 -0.8079 -0.5959  0.1368
 6421SOL     OW30191   8.274   7.742   2.573 -0.2518  0.3353 -0.0408
 6421SOL    HW130192   8.288   7.654   2.528  0.9230  0.4927 -0.0099
 6421SOL    HW230193   8.176   7.761   2.581 -0.5931 -1.9962  1.9815
 6422SOL     OW30194   3.865   8.262   1.593  0.5425 -0.1735 -0.3829
 6422SOL    HW130195   3.951   8.220   1.622  0.9338  0.4218 -0.6696
 6422SOL    HW230196   3.813   8.292   1.673  0.3920 -0.9513 -0.1924
 6423SOL     OW30197   4.402   3.038   2.127 -0.0000 -0.2496 -0.5622
 6423SOL    HW130198   4.414   2.980   2.207  1.8345  0.8129 -0.0303
 6423SOL    HW230199   4.485   3.035   2.071 -0.1635  1.2690 -0.8998
 6424SOL     OW30200   1.024   1.777   2.304  0.1504 -0.0455 -0.0377
 6424SOL    HW130201   1.099   1.727   2.347 -1.6957 -1.4475  1.6187
 6424SOL    HW230202   1.018   1.752   2.207  2.0901  0.4273 -0.2945
 6425SOL     OW30203   3.206   0.023   3.065  0.1603  0.0468 -0.5022
 6425SOL    HW130204   3.254   0.062   3.144  0.7114 -1.4056 -0.1094
 6425SOL    HW230205   3.249   0.056   2.980 -0.3274  1.4743 -0.1944
 6426SOL     OW30206   2.958   8.713   0.941  0.0268 -0.7255  0.3696
 6426SOL    HW130207   2.981   8.626   0.986 -0.7404 -1.4474 -0.6017
 6426SOL    HW230208   2.911   8.772   1.006  0.0493 -1.2614  0.8834
 6427SOL     OW30209   6.176   1.232   4.020 -0.7694 -0.3804  0.0646
 6427SOL    HW130210   6.187   1.282   4.106  0.1447  0.0434 -0.2952
 6427SOL    HW230211   6.250   1.257   3.957 -1.2682 -0.9100 -0.7363
 6428SOL     OW30212   4.817   8.954   3.591 -0.3828 -0.3628  0.1367
 6428SOL    HW130213   4.917   8.946   3.599 -0.5126 -0.8223  1.3871
 6428SOL    HW230214   4.786   8.901   3.511  0.2638 -1.0672  0.3442
 6429SOL     OW30215   5.937   4.738   0.683  0.0731 -0.1252  0.2798
 6429SOL    HW130216   5.901   4.659   0.732 -0.1578 -0.5908 -0.6132
 6429SOL    HW230217   6.036   4.730   0.676  0.1050 -0.0551  0.6815
 6430SOL     OW30218   2.021   0.280   1.579  0.0464  0.5026  0.2642
 6430SOL    HW130219   2.016   0.211   1.651  0.3263  1.0270  0.7867
 6430SOL    HW230220   2.042   0.235   1.492 -1.1703 -0.2254  0.3405
 6431SOL     OW30221   8.598   7.241   2.739  0.5787  0.4884  0.2684
 6431SOL    HW130222   8.580   7.145   2.718  0.2548  0.4221  0.8413
 6431SOL    HW230223   8.650   7.282   2.664  2.6214 -0.6936  1.0000
 6432SOL     OW30224   3.435   7.520   3.798 -0.4709 -0.1997  0.4565
 6432SOL    HW130225   3.377   7.585   3.748  1.0481  0.1912 -0.8286
 6432SOL    HW230226   3.474   7.454   3.734 -0.6316 -1.3505  1.5217
 6433SOL     OW30227   4.921   0.425   1.401  0.4132 -0.3784 -0.3482
 6433SOL    HW130228   4.963   0.336   1.382 -2.0277 -1.3880 -1.2474
 6433SOL    HW230229   4.861   0.418   1.480 -0.9687  0.0815 -1.3426
 6434SOL     OW30230   5.938   8.243   2.048  0.2088  0.1387  0.2400
 6434SOL    HW130231   5.899   8.335   2.043  1.9198  0.7933 -1.7305
 6434SOL    HW230232   5.884   8.181   1.991  0.6261  0.5117 -0.5631
 6435SOL     OW30233   2.516   5.053   2.078 -0.0513  0.0348 -0.1811
 6435SOL    HW130234   2.571   4.973   2.102  0.9763  0.9282  0.4189
 6435SOL    HW230235   2.574   5.134   2.073 -1.4775  1.2063  1.5875
 6436SOL     OW30236   8.485   2.224   2.936 -0.1324  0.3891  0.1993
 6436SOL    HW130237   8.492   2.128   2.964  1.1740  1.1557  2.5964
 6436SOL    HW230238   8.398   2.262   2.969  0.5857  0.7799  1.6773
 6437SOL     OW30239   0.441   1.631   5.186  0.7531 -0.2244 -0.1657
 6437SOL    HW130240   0.541   1.624   5.193  0.6885  0.9212  2.0752
 6437SOL    HW230241   0.415   1.724   5.162  0.2578 -0.8478 -2.1544
 6438SOL     OW30242   1.170   9.419   5.113 -0.2609  0.0041  0.4937
 6438SOL    HW130243   1.135   9.467   5.194 -2.1660 -0.7957  0.1822
 6438SOL    HW230244   1.148   9.472   5.031 -2.2547 -1.2618  0.1602
 6439SOL     OW30245   0.826   5.684   5.628 -0.6583 -0.0949  0.0185
 6439SOL    HW130246   0.884   5.608   5.659 -1.3184 -1.5269 -2.1045
 6439SOL    HW230247   0.750   5.696   5.691  0.0701 -0.4568  0.9827
 6440SOL     OW30248   3.814   4.253   5.308  0.1522  0.6488 -0.1081
 6440SOL    HW130249   3.908   4.246   5.276  0.5180  1.9647  0.6235
 6440SOL    HW230250   3.756   4.288   5.235  0.4105  0.6875 -0.2951
 6441SOL     OW30251   9.226   6.227   4.887  0.4680  0.1297  0.2141
 6441SOL    HW130252   9.193   6.207   4.794  1.2119 -3.6228  0.6494
 6441SOL    HW230253   9.148   6.231   4.950 -0.0762  3.1324 -0.6090
 6442SOL     OW30254   4.872   9.344   2.018 -0.0641  0.4460 -0.0603
 6442SOL    HW130255   4.921   9.295   1.946  0.5932 -0.4962  1.0070
 6442SOL    HW230256   4.895   9.441   2.014  1.7953  0.0442  0.3125
 6443SOL     OW30257   0.174   1.462   2.311 -0.0015  0.4288  0.1237
 6443SOL    HW130258   0.081   1.464   2.346 -0.5636  1.0826 -1.3747
 6443SOL    HW230259   0.195   1.370   2.276 -0.9469  0.8879 -1.7477
 6444SOL     OW30260   3.441   4.833   5.207  0.2346 -0.1447 -0.6323
 6444SOL    HW130261   3.349   4.796   5.192  0.0962 -0.6991  1.3842
 6444SOL    HW230262   3.462   4.900   5.137 -2.0722  0.6617 -0.5943
 6445SOL     OW30263   8.352   8.675   4.005  0.2076 -0.3157  0.3169
 6445SOL    HW130264   8.433   8.733   4.000 -1.2191  1.6647 -0.2027
 6445SOL    HW230265   8.345   8.618   3.923  1.4316 -1.0174  0.6893
 6446SOL     OW30266   4.703   2.917   1.426  0.3109 -0.0745 -0.2389
 6446SOL    HW130267   4.693   3.017   1.433  0.2206 -0.0798 -0.2967
 6446SOL    HW230268   4.613   2.875   1.419  0.3631 -0.1345 -0.5745
 6447SOL     OW30269   4.533   6.922   1.849  0.2873 -0.2416  0.2603
 6447SOL    HW130270   4.446   6.970   1.863  0.5940  0.3731  0.0965
 6447SOL    HW230271   4.524   6.827   1.877  0.3205  0.4515  2.7912
 6448SOL     OW30272   1.240   3.266   5.277  0.1283  0.1043 -0.2228
 6448SOL    HW130273   1.334   3.236   5.263  0.4029  0.9531 -0.2756
 6448SOL    HW230274   1.232   3.362   5.250 -1.0343 -0.3047 -1.3534
 6449SOL     OW30275   1.547   1.424   2.897  0.1467 -0.2285 -0.1057
 6449SOL    HW130276   1.573   1.334   2.933  0.0763 -0.8138 -1.4919
 6449SOL    HW230277   1.503   1.477   2.969  0.8409 -1.0332  0.9310
 6450SOL     OW30278   1.762   8.968   4.758  0.4680 -0.1411 -0.1553
 6450SOL    HW130279   1.736   8.944   4.852 -2.4824 -0.3997 -0.9697
 6450SOL    HW230280   1.711   9.048   4.728  0.9029 -0.4280 -1.7417
 6451SOL     OW30281   1.060   2.583   3.936  0.1830  0.3229 -0.6096
 6451SOL    HW130282   1.158   2.594   3.918  0.3646 -2.0708 -1.1861
 6451SOL    HW230283   1.012   2.567   3.849 -0.3308 -1.2104 -0.0623
 6452SOL     OW30284   1.230   6.410   2.038 -0.1192 -0.2547  0.3370
 6452SOL    HW130285   1.151   6.470   2.050 -0.4264 -0.1749 -1.9390
 6452SOL    HW230286   1.302   6.459   1.988 -0.0133 -1.4840 -0.7251
 6453SOL     OW30287   0.499   0.469   0.074  0.0721  0.1968 -0.1170
 6453SOL    HW130288   0.530   0.519  -0.008  1.1041 -0.6312 -0.2364
 6453SOL    HW230289   0.578   0.448   0.131 -0.5305 -0.1549  0.5779
 6454SOL     OW30290   0.475   3.427   3.631  0.0843 -0.3427 -0.3643
 6454SOL    HW130291   0.511   3.483   3.556  0.8012 -1.0050 -0.5176
 6454SOL    HW230292   0.550   3.376   3.674 -0.7639 -2.3497 -1.1982
 6455SOL     OW30293   4.226   1.688   0.173 -0.5581 -0.6124 -0.2010
 6455SOL    HW130294   4.177   1.731   0.098 -0.7996 -0.8813 -0.1999
 6455SOL    HW230295   4.323   1.710   0.168 -0.7971  0.5707  0.2417
 6456SOL     OW30296   7.928   0.618   3.448 -0.1801  0.5392  0.2725
 6456SOL    HW130297   7.837   0.577   3.439 -0.1212  0.5081 -0.1736
 6456SOL    HW230298   7.996   0.545   3.457  0.1783  0.4544 -2.7180
 6457SOL     OW30299   8.863   5.286   5.152 -0.2320 -0.1375  0.4893
 6457SOL    HW130300   8.831   5.192   5.165 -1.2875  0.2895  1.0176
 6457SOL    HW230301   8.945   5.285   5.094 -1.0199 -1.2760 -0.6542
 6458SOL     OW30302   3.956   9.820   5.494 -0.1263  0.4476 -0.0287
 6458SOL    HW130303   3.969   9.786   5.401 -0.9200 -0.4254  0.1763
 6458SOL    HW230304   3.997   9.757   5.559  1.0946  1.4334  0.1885
 6459SOL     OW30305   1.227   6.581   2.933 -0.0881 -0.1885  0.1807
 6459SOL    HW130306   1.130   6.554   2.940 -0.1047 -0.2786 -0.3714
 6459SOL    HW230307   1.240   6.638   2.852  0.2027  0.3760  0.6142
 6460SOL     OW30308   1.096   1.941   4.274 -0.4425 -0.2844 -0.1845
 6460SOL    HW130309   1.005   1.984   4.268 -0.6183 -0.4571  1.1503
 6460SOL    HW230310   1.097   1.859   4.217 -0.8490  0.1896 -0.8901
 6461SOL     OW30311   7.915   3.511   0.797 -0.2271  0.5959  0.0390
 6461SOL    HW130312   7.912   3.526   0.896 -1.3940  0.0188  0.1037
 6461SOL    HW230313   7.952   3.592   0.752  2.4607  0.0111  1.1277
 6462SOL     OW30314   0.461   8.731   2.472  0.1848  0.4255  0.7539
 6462SOL    HW130315   0.409   8.657   2.515 -1.0055 -0.5537 -2.2610
 6462SOL    HW230316   0.423   8.819   2.501 -1.5157 -0.2423  0.6280
 6463SOL     OW30317   2.432   0.701   2.182  0.2716 -0.0921 -0.0694
 6463SOL    HW130318   2.441   0.658   2.272 -1.8546 -0.1661  0.1214
 6463SOL    HW230319   2.451   0.799   2.191  1.3971 -0.3143  0.1822
 6464SOL     OW30320   1.431   7.669   2.854 -0.3424 -0.4234 -0.1664
 6464SOL    HW130321   1.484   7.716   2.925  1.3326 -1.2877 -0.8122
 6464SOL    HW230322   1.484   7.592   2.818 -1.8943 -1.0723 -1.1187
 6465SOL     OW30323   0.229   5.661   4.063 -0.3693  0.1328 -0.6710
 6465SOL    HW130324   0.171   5.739   4.087 -1.2820 -0.1950 -1.7318
 6465SOL    HW230325   0.239   5.601   4.142  0.8382  1.6152  0.3353
 6466SOL     OW30326   7.911   8.335   4.111 -0.3819 -0.0228 -0.1971
 6466SOL    HW130327   7.931   8.302   4.018  1.6725  0.8540 -0.0883
 6466SOL    HW230328   7.913   8.258   4.174 -0.5135 -0.4270 -0.6755
 6467SOL     OW30329   2.426   8.759   2.259  0.0842  0.1099  0.1012
 6467SOL    HW130330   2.371   8.835   2.295  0.6851  1.9522 -2.6793
 6467SOL    HW230331   2.511   8.753   2.310 -0.4045  0.6633  1.0049
 6468SOL     OW30332   7.877   7.015   2.805  0.1521  0.1356  0.7850
 6468SOL    HW130333   7.880   6.915   2.812  3.0951  0.0181 -1.6303
 6468SOL    HW230334   7.815   7.041   2.730  0.7699  0.0578  0.2452
 6469SOL     OW30335   4.170   8.047   3.946  0.2791 -0.8445  0.6040
 6469SOL    HW130336   4.136   8.030   3.854  0.8805 -0.6103  0.3366
 6469SOL    HW230337   4.135   7.977   4.008  1.5660 -2.2340 -0.1996
 6470SOL     OW30338   9.693   6.004   1.033  0.2670  0.3017  0.2555
 6470SOL    HW130339   9.785   5.971   1.010  0.5126 -3.0742  5.1921
 6470SOL    HW230340   9.699   6.072   1.105 -1.0858  0.2122  0.4648
 6471SOL     OW30341   9.387   6.446   4.622 -0.4842 -0.0145 -0.4627
 6471SOL    HW130342   9.389   6.362   4.568  1.7990  0.0410 -0.5129
 6471SOL    HW230343   9.325   6.435   4.699  0.1350 -1.9014 -0.2156
 6472SOL     OW30344   0.560   3.397   1.382  0.2506  0.0196 -0.2560
 6472SOL    HW130345   0.469   3.359   1.395  0.3850 -0.9147 -1.9067
 6472SOL    HW230346   0.625   3.351   1.443  0.3304 -2.1597 -1.9078
 6473SOL     OW30347   2.946   0.972   4.625 -0.3430  0.1634 -0.0968
 6473SOL    HW130348   2.974   0.946   4.533  0.3082  2.6420 -0.6454
 6473SOL    HW230349   3.024   0.962   4.688 -0.5277 -0.6398  0.0109
 6474SOL     OW30350   0.902   0.795   3.760  0.3036 -0.1478 -0.2645
 6474SOL    HW130351   0.907   0.846   3.674  2.1646  0.1404 -0.0120
 6474SOL    HW230352   0.995   0.779   3.794 -0.4014 -0.7520  1.4008
 6475SOL     OW30353   7.136   0.420   4.460  0.0453 -0.0932 -0.1662
 6475SOL    HW130354   7.217   0.464   4.498  0.7856 -0.4669 -1.2930
 6475SOL    HW230355   7.164   0.344   4.401 -1.1859 -2.2367  1.8904
 6476SOL     OW30356   8.923   6.230   1.924 -0.4077  0.6436 -0.1085
 6476SOL    HW130357   8.929   6.234   1.824  0.4021  1.1579 -0.0475
 6476SOL    HW230358   9.011   6.199   1.961 -1.1341 -0.9132  0.3803
 6477SOL     OW30359   1.055   2.618   2.842  0.8799  0.3434  0.1234
 6477SOL    HW130360   1.084   2.568   2.924  0.3683 -0.2647 -0.0658
 6477SOL    HW230361   0.962   2.591   2.817  0.0509  2.4636  0.8563
 6478SOL     OW30362   0.207   4.334   4.208  0.2804 -0.4537 -0.4709
 6478SOL    HW130363   0.138   4.272   4.169 -2.8006  3.6365 -1.8151
 6478SOL    HW230364   0.184   4.352   4.303  1.1055 -1.2068 -0.1199
 6479SOL     OW30365   2.404   3.535   3.921  0.4021  0.5108 -0.8980
 6479SOL    HW130366   2.327   3.596   3.940  0.0187  0.8374 -3.3475
 6479SOL    HW230367   2.393   3.450   3.973 -1.2500  0.8403 -0.6851
 6480SOL     OW30368   3.004   7.235   2.144  0.4855  0.0889 -0.3302
 6480SOL    HW130369   2.906   7.255   2.150  0.3317 -0.5814 -0.5645
 6480SOL    HW230370   3.044   7.232   2.236  0.2509  0.1928 -0.2257
 6481SOL     OW30371   0.396   7.531   1.725 -0.1950 -0.1154 -0.3844
 6481SOL    HW130372   0.418   7.628   1.731 -1.1292  0.1834 -1.5905
 6481SOL    HW230373   0.451   7.489   1.653  0.8984 -0.6922  0.7736
 6482SOL     OW30374   2.701   1.533   3.545 -0.9124  0.1733 -0.2626
 6482SOL    HW130375   2.694   1.521   3.446 -0.9531 -0.0440 -0.2345
 6482SOL    HW230376   2.691   1.630   3.568  2.0110  0.6354 -0.7136
 6483SOL     OW30377   1.977   7.690   1.847 -0.0182  0.5443  0.0560
 6483SOL    HW130378   1.900   7.697   1.910 -0.4929 -2.3155 -0.1302
 6483SOL    HW230379   2.054   7.647   1.894  0.5493  0.9327 -0.5232
 6484SOL     OW30380   2.562   7.550   2.954 -0.6107  0.3263  0.0164
 6484SOL    HW130381   2.570   7.646   2.925  0.3110  0.2875  0.1184
 6484SOL    HW230382   2.568   7.491   2.874 -0.8529  0.3411 -0.0121
 6485SOL     OW30383   2.131   5.221   1.723 -0.0670  0.0501  0.4934
 6485SOL    HW130384   2.143   5.318   1.743  1.4007  0.1488 -0.7413
 6485SOL    HW230385   2.054   5.185   1.774 -0.6181  1.8767  0.9584
 6486SOL     OW30386   9.185   9.924   1.835  0.6061 -0.3765 -0.3871
 6486SOL    HW130387   9.143  10.009   1.802  0.9506 -0.7529 -1.8478
 6486SOL    HW230388   9.281   9.942   1.857 -0.1438  0.3560  2.4284
 6487SOL     OW30389   7.113   9.555   2.581 -0.7052 -0.3112  0.4646
 6487SOL    HW130390   7.046   9.619   2.543 -0.3434  0.6200  1.3793
 6487SOL    HW230391   7.165   9.600   2.654  0.4749 -1.2324  0.2037
 6488SOL     OW30392   8.480   1.873   4.077 -0.1976  0.0436 -0.5387
 6488SOL    HW130393   8.495   1.934   3.999 -1.5176  1.5338  0.3391
 6488SOL    HW230394   8.434   1.923   4.150  0.7938 -1.4182  1.1099
 6489SOL     OW30395   7.937   7.873   3.599 -0.0291 -0.3813  0.4556
 6489SOL    HW130396   8.037   7.872   3.597  0.0054  0.5877  1.1343
 6489SOL    HW230397   7.903   7.939   3.532 -0.1989 -0.3796  0.5443
 6490SOL     OW30398   2.843   0.262   0.288  0.3161 -0.1541 -0.0977
 6490SOL    HW130399   2.821   0.352   0.251 -1.9289  0.0903  1.7682
 6490SOL    HW230400   2.907   0.272   0.365 -1.7632  0.0761  1.6330
 6491SOL     OW30401   3.088   8.096   0.586 -0.1791 -0.9547 -0.1514
 6491SOL    HW130402   3.024   8.118   0.512  0.0594 -1.9666 -0.6621
 6491SOL    HW230403   3.096   8.175   0.647 -0.6141 -0.2116 -1.0350
 6492SOL     OW30404   5.374   8.268   3.536  0.2658 -0.1686 -0.3952
 6492SOL    HW130405   5.332   8.359   3.540  2.0771  0.7178 -0.6455
 6492SOL    HW230406   5.403   8.241   3.628  0.7209  0.0023 -0.4868
 6493SOL     OW30407   2.533   0.064   1.326 -0.3534 -0.4413 -0.2179
 6493SOL    HW130408   2.512   0.097   1.418 -1.4746  0.7948 -0.8892
 6493SOL    HW230409   2.632   0.059   1.314 -0.1952 -0.0405  0.8615
 6494SOL     OW30410   5.935   9.710   1.880  0.1543 -0.8512  0.2119
 6494SOL    HW130411   6.032   9.706   1.855  0.5558 -0.5178  1.6887
 6494SOL    HW230412   5.913   9.632   1.938 -0.2721 -0.4673  0.5653
 6495SOL     OW30413   6.790   8.490   3.791 -0.7874 -0.3510 -0.4224
 6495SOL    HW130414   6.806   8.533   3.702 -0.6183 -0.1988 -0.3193
 6495SOL    HW230415   6.870   8.434   3.815 -1.4614 -1.6191 -1.0665
 6496SOL     OW30416   1.649   6.556   5.362  0.7397 -0.1037 -0.0409
 6496SOL    HW130417   1.745   6.536   5.384  1.0352 -0.1862 -1.3755
 6496SOL    HW230418   1.626   6.516   5.274 -0.4558  0.1454  0.1535
 6497SOL     OW30419   1.466   3.069   0.729  0.2012  0.0089 -0.2172
 6497SOL    HW130420   1.491   3.028   0.816  0.6518  0.8972  0.0793
 6497SOL    HW230421   1.368   3.057   0.712  0.1149 -0.1522  0.4071
 6498SOL     OW30422   0.411   1.147   5.525 -0.3694  0.1127 -0.3939
 6498SOL    HW130423   0.488   1.092   5.557  1.0580  1.6073 -1.1624
 6498SOL    HW230424   0.333   1.136   5.587  1.3618  0.7053  1.9582
 6499SOL     OW30425   0.647   6.573   3.755  0.4376 -0.9967 -0.4395
 6499SOL    HW130426   0.677   6.614   3.669  2.1112  0.0522  0.6152
 6499SOL    HW230427   0.547   6.579   3.762  0.4200  0.2467 -1.6408
 6500SOL     OW30428   8.264   5.230   5.382 -0.4362  0.0360 -0.4005
 6500SOL    HW130429   8.223   5.142   5.408  0.9517  0.1896  2.4825
 6500SOL    HW230430   8.315   5.218   5.297 -0.0241 -2.0607  0.1013
 6501SOL     OW30431   6.981   7.072   3.832 -0.2343  0.0900 -0.4719
 6501SOL    HW130432   6.908   7.135   3.857 -0.5427 -0.9654  1.4590
 6501SOL    HW230433   6.942   6.983   3.807  0.2992  0.0384 -1.1452
 6502SOL     OW30434   3.243   5.191   2.851  1.1456  0.4362 -0.6173
 6502SOL    HW130435   3.204   5.281   2.831 -0.0411  0.0805  0.0186
 6502SOL    HW230436   3.342   5.198   2.859  0.9877  1.8220  0.1617
 6503SOL     OW30437   9.207   2.898   3.070  0.2210 -0.2051  0.1637
 6503SOL    HW130438   9.265   2.914   2.990 -1.6215  1.1087 -0.9249
 6503SOL    HW230439   9.179   2.985   3.110 -1.0971 -0.8212  0.6099
 6504SOL     OW30440   9.063   9.734   3.063  0.1049  0.0209 -0.3795
 6504SOL    HW130441   9.010   9.819   3.064 -0.2666 -0.2071  1.5403
 6504SOL    HW230442   9.155   9.752   3.098 -0.3805 -0.5924  1.2718
 6505SOL     OW30443   1.597   8.884   0.600 -0.0007 -0.1720  0.2941
 6505SOL    HW130444   1.660   8.943   0.551  0.7314 -2.6117 -1.8534
 6505SOL    HW230445   1.529   8.939   0.649  1.1500  2.3935 -0.9523
 6506SOL     OW30446   5.029   5.582   2.023 -0.5212 -0.3101 -0.4752
 6506SOL    HW130447   4.976   5.645   2.080  0.1169 -0.0688 -0.1380
 6506SOL    HW230448   4.999   5.488   2.040 -0.8664 -0.1710 -0.3136
 6507SOL     OW30449   1.387   8.528   1.970 -0.0929  0.0263  0.8092
 6507SOL    HW130450   1.330   8.446   1.973 -1.0694  0.6397 -0.4259
 6507SOL    HW230451   1.412   8.547   1.875 -0.6714  1.6975  0.9874
 6508SOL     OW30452   1.982   5.516   4.217 -0.1871 -0.2781 -0.3197
 6508SOL    HW130453   1.994   5.606   4.260 -2.2178  0.5472 -1.4078
 6508SOL    HW230454   2.038   5.510   4.135 -0.6373  0.2972 -0.6710
 6509SOL     OW30455   2.025   0.696   4.985 -0.4873  0.4701  0.2368
 6509SOL    HW130456   1.927   0.675   4.984 -0.3735 -0.0331 -0.3582
 6509SOL    HW230457   2.050   0.728   5.077 -1.0213 -0.3049  0.6670
 6510SOL     OW30458   1.284   5.943   3.877  0.2273  0.2394  0.1128
 6510SOL    HW130459   1.304   5.898   3.964 -2.1369 -0.3911  0.3794
 6510SOL    HW230460   1.185   5.944   3.862  0.5588  0.7653 -2.3579
 6511SOL     OW30461   1.829   4.459   2.374 -0.5139  0.7086 -0.5206
 6511SOL    HW130462   1.755   4.395   2.355  0.3701 -0.8821  1.2398
 6511SOL    HW230463   1.798   4.528   2.440  0.2140 -1.3417  2.0443
 6512SOL     OW30464   1.589   0.105   2.704  0.0394 -0.8005 -0.2671
 6512SOL    HW130465   1.554   0.177   2.763  0.3418 -2.6578  2.2576
 6512SOL    HW230466   1.546   0.018   2.729  0.2247 -1.6694 -2.7609
 6513SOL     OW30467   8.500   2.696   3.036  0.1041  0.6971 -0.3906
 6513SOL    HW130468   8.548   2.678   2.950  1.1621 -0.3638  0.4031
 6513SOL    HW230469   8.565   2.692   3.112 -1.2791 -0.9792  0.7428
 6514SOL     OW30470   8.132   9.345   1.890 -0.9958 -0.3304 -0.2737
 6514SOL    HW130471   8.100   9.310   1.978 -1.2866  1.2202  0.2597
 6514SOL    HW230472   8.209   9.407   1.905 -0.6836 -0.4936 -1.1596
 6515SOL     OW30473   1.798   3.819   2.299  0.2951  0.2637 -0.2236
 6515SOL    HW130474   1.700   3.828   2.315  0.2034  1.2516 -1.3212
 6515SOL    HW230475   1.846   3.820   2.387 -0.4904  1.9350  0.2035
 6516SOL     OW30476   0.526   3.951   1.782 -0.5999  0.2832  0.2105
 6516SOL    HW130477   0.446   3.899   1.754 -0.0993 -0.0320 -0.6642
 6516SOL    HW230478   0.526   3.962   1.881 -1.6124  0.1051  0.2290
 6517SOL     OW30479   2.278   3.548   5.275  0.2424 -0.7395 -0.3077
 6517SOL    HW130480   2.325   3.515   5.358 -1.2608 -1.8052  0.1343
 6517SOL    HW230481   2.252   3.643   5.288  1.4475 -0.4214 -0.1838
 6518SOL     OW30482   9.906   8.112   4.602 -0.2788  0.3737 -0.0189
 6518SOL    HW130483  10.003   8.103   4.576  0.1444 -2.1919  2.1546
 6518SOL    HW230484   9.900   8.132   4.700 -1.9705  1.4643 -0.3221
 6519SOL     OW30485   3.276   6.757   5.519 -0.2040  0.0001 -0.0822
 6519SOL    HW130486   3.285   6.814   5.437 -2.0222  0.9237  0.3354
 6519SOL    HW230487   3.299   6.811   5.600  2.2807 -1.1174 -0.0321
 6520SOL     OW30488   8.573   4.950   1.600  0.6896 -0.1127 -0.0029
 6520SOL    HW130489   8.613   4.887   1.534  1.1273 -1.1471  1.2480
 6520SOL    HW230490   8.474   4.936   1.603  0.7573 -0.5625  0.0980
 6521SOL     OW30491   7.185   0.357   2.809 -0.4108  0.7833 -0.8626
 6521SOL    HW130492   7.087   0.344   2.824 -0.0661 -0.0710  0.7631
 6521SOL    HW230493   7.210   0.451   2.830 -0.3410  0.1808  1.9097
 6522SOL     OW30494   2.923   0.867   4.109  0.1901 -0.0889 -0.7268
 6522SOL    HW130495   2.887   0.774   4.100  0.4446 -0.2007 -0.5965
 6522SOL    HW230496   3.023   0.865   4.097  0.5474 -0.2335  1.9015
 6523SOL     OW30497   4.162   6.661   1.635 -0.2776 -0.5594  0.0840
 6523SOL    HW130498   4.141   6.606   1.554  0.2546  0.8710 -1.0614
 6523SOL    HW230499   4.116   6.622   1.715 -2.0899 -1.1094 -1.1855
 6524SOL     OW30500   4.235   5.562   1.800  0.2660 -0.2739  0.3654
 6524SOL    HW130501   4.154   5.605   1.761 -0.0317 -1.7327 -0.6593
 6524SOL    HW230502   4.207   5.489   1.862  0.7952 -0.8150 -0.0298
 6525SOL     OW30503   2.760   3.685   3.344 -0.6460 -0.0202  0.1608
 6525SOL    HW130504   2.703   3.735   3.409  0.6714 -0.4581  1.6898
 6525SOL    HW230505   2.795   3.747   3.274 -1.8581  0.5009  0.0068
 6526SOL     OW30506   7.467   2.635   5.173  0.1152 -0.0786  0.2430
 6526SOL    HW130507   7.555   2.642   5.219  0.3365  0.5059 -0.2643
 6526SOL    HW230508   7.464   2.552   5.117  0.1086 -0.4192  0.7426
 6527SOL     OW30509   5.532   3.705   0.619 -0.0912  0.3079  0.1123
 6527SOL    HW130510   5.469   3.779   0.595  0.6803  0.6511 -0.8557
 6527SOL    HW230511   5.617   3.715   0.568  1.0292  0.2394  1.9557
 6528SOL     OW30512   8.387   5.007   0.059 -0.2184  0.3182  0.1450
 6528SOL    HW130513   8.289   4.993   0.048 -0.5178  3.2213 -1.4478
 6528SOL    HW230514   8.434   4.973  -0.022 -0.1244  0.6163  0.0714
 6529SOL     OW30515   2.393   0.332   2.020  0.8928 -0.4632  0.2526
 6529SOL    HW130516   2.427   0.381   1.941  1.2142 -1.5684 -0.3050
 6529SOL    HW230517   2.382   0.395   2.097 -0.0363  0.7424 -0.8448
 6530SOL     OW30518   2.720   0.007   4.461  0.0736 -0.5484 -0.2881
 6530SOL    HW130519   2.686   0.089   4.415  0.9924 -0.9035 -1.6357
 6530SOL    HW230520   2.814   0.022   4.490 -1.3477  0.7024  4.1059
 6531SOL     OW30521   6.477   0.425   4.152 -0.4389  0.0386  0.4432
 6531SOL    HW130522   6.480   0.340   4.205 -2.5594 -0.1597  0.2869
 6531SOL    HW230523   6.534   0.416   4.070 -1.0700 -1.4215  0.1581
 6532SOL     OW30524   4.312   8.404   1.889  0.3889 -0.2815 -0.4112
 6532SOL    HW130525   4.346   8.498   1.884 -1.3307  0.2947 -1.7177
 6532SOL    HW230526   4.213   8.404   1.901  0.3724 -1.9356 -0.3643
 6533SOL     OW30527   3.337   6.515   5.527  0.1192  0.0789 -0.0190
 6533SOL    HW130528   3.314   6.611   5.512 -1.9090 -0.1941  1.2032
 6533SOL    HW230529   3.432   6.508   5.558  0.0529  1.7406  0.6098
 6534SOL     OW30530   5.654   4.849   0.643  0.7891 -0.6985 -0.1880
 6534SOL    HW130531   5.604   4.763   0.630  0.2488 -0.2214 -1.3245
 6534SOL    HW230532   5.747   4.829   0.672  0.6153 -1.6687 -0.2785
 6535SOL     OW30533   3.912   2.336   4.291 -0.7819 -0.5531 -0.7146
 6535SOL    HW130534   3.860   2.263   4.334  0.6503 -2.5300 -2.2055
 6535SOL    HW230535   3.857   2.419   4.287 -3.4136 -2.2736 -1.3160
 6536SOL     OW30536   0.587   8.937   0.786 -0.2598  0.2347  0.5915
 6536SOL    HW130537   0.598   8.870   0.714 -0.1870  0.9450 -0.0637
 6536SOL    HW230538   0.677   8.969   0.816 -0.3195  0.7679  0.2105
 6537SOL     OW30539   8.905   2.558   3.854  0.3235 -0.2994 -0.2581
 6537SOL    HW130540   8.826   2.504   3.883 -2.8730  3.9791 -0.6026
 6537SOL    HW230541   8.905   2.567   3.755 -0.2638  1.7662 -0.1057
 6538SOL     OW30542   1.924   6.175   5.498 -0.3162 -0.3410 -0.0498
 6538SOL    HW130543   1.947   6.079   5.517 -1.6279 -1.2818 -2.9352
 6538SOL    HW230544   1.830   6.180   5.464  0.1754  1.8164 -1.1760
 6539SOL     OW30545   7.582   1.214   2.996  0.0871  0.0113 -0.6612
 6539SOL    HW130546   7.662   1.169   3.035 -0.6684  0.2910  1.2649
 6539SOL    HW230547   7.500   1.160   3.017 -0.3741  0.3001 -1.6649
 6540SOL     OW30548   0.502   1.957   1.089 -0.2168  0.1194 -0.1331
 6540SOL    HW130549   0.402   1.963   1.082 -0.1633 -0.0710 -1.2216
 6540SOL    HW230550   0.531   1.864   1.066  0.3821  0.7893 -2.2625
 6541SOL     OW30551   3.033   6.326   4.109  0.1382  0.0436  0.5742
 6541SOL    HW130552   3.062   6.416   4.078  0.1042  0.0179  0.4680
 6541SOL    HW230553   3.097   6.293   4.178  0.7040 -0.2790 -0.1094
 6542SOL     OW30554   8.735   4.672   2.190  0.6071 -0.5280  0.0697
 6542SOL    HW130555   8.780   4.596   2.142  0.0723 -0.6276 -0.2702
 6542SOL    HW230556   8.640   4.679   2.161  0.4468 -0.1965  0.6584
 6543SOL     OW30557   1.196   5.337   3.494  0.1461 -0.1149 -0.1488
 6543SOL    HW130558   1.200   5.319   3.395  1.1034  0.5015 -0.2331
 6543SOL    HW230559   1.268   5.285   3.540  0.0115 -0.0254  0.1647
 6544SOL     OW30560   4.064   9.128   4.406  0.6258  0.0037 -0.1801
 6544SOL    HW130561   4.017   9.059   4.351  3.8170 -1.6627 -0.9472
 6544SOL    HW230562   4.097   9.086   4.490  1.3054  0.9916  0.0513
 6545SOL     OW30563   7.779   4.616   5.518 -0.6317  0.0593  0.0147
 6545SOL    HW130564   7.869   4.591   5.555  0.6218  0.5090 -2.6104
 6545SOL    HW230565   7.726   4.533   5.500 -1.2275 -0.1746  2.6080
 6546SOL     OW30566   4.147   0.598   1.121 -0.1300 -0.7217  0.0827
 6546SOL    HW130567   4.109   0.690   1.121  1.7741  0.0940 -0.5465
 6546SOL    HW230568   4.074   0.532   1.139 -1.5363  0.8834  0.4450
 6547SOL     OW30569   9.958   9.938   3.249 -0.2011  0.0972  0.3518
 6547SOL    HW130570   9.920  10.025   3.218  0.0253 -0.1226 -0.5496
 6547SOL    HW230571   9.980   9.945   3.346  0.1408  1.1639  0.2079
 6548SOL     OW30572   3.886   0.300   1.864  1.3854  0.0776  0.3052
 6548SOL    HW130573   3.959   0.299   1.795  0.7938 -0.8419 -0.3140
 6548SOL    HW230574   3.888   0.214   1.916 -0.2524 -0.6243 -0.7649
 6549SOL     OW30575   1.343   4.273   2.359  0.0419  0.4122  1.2274
 6549SOL    HW130576   1.307   4.323   2.438 -0.5863  0.2100  1.0751
 6549SOL    HW230577   1.437   4.301   2.341 -0.1392  1.1679  1.4598
 6550SOL     OW30578   8.368   9.940   4.427  0.0156  0.4581  0.0479
 6550SOL    HW130579   8.437   9.972   4.492  1.7462 -0.4389 -1.3167
 6550SOL    HW230580   8.349   9.843   4.444  1.7635 -0.2470 -1.8712
 6551SOL     OW30581   1.965   7.797   2.545  0.9577  0.4633 -0.3458
 6551SOL    HW130582   2.040   7.864   2.551  1.8824 -0.4851 -0.9972
 6551SOL    HW230583   1.914   7.812   2.460  1.2721  0.2452 -0.5768
 6552SOL     OW30584   9.504   8.290   2.441  0.1517  0.8852  1.4119
 6552SOL    HW130585   9.515   8.359   2.512 -0.4233  0.9709  1.4230
 6552SOL    HW230586   9.492   8.334   2.352 -2.9761  0.9084  1.7808
 6553SOL     OW30587   8.926   6.874   3.873 -0.2496  0.1468  0.3825
 6553SOL    HW130588   8.845   6.914   3.831  0.2782  0.8028 -0.0237
 6553SOL    HW230589   8.993   6.946   3.892  1.5307 -0.7701 -2.2132
 6554SOL     OW30590   8.296   2.168   1.564  0.5130 -0.0131 -0.7941
 6554SOL    HW130591   8.255   2.132   1.481  1.4687  0.1559 -1.3495
 6554SOL    HW230592   8.381   2.118   1.584 -0.5396 -1.1313  0.9736
 6555SOL     OW30593   1.732   1.965   1.210 -0.1333 -0.0805  0.1249
 6555SOL    HW130594   1.665   2.039   1.218 -1.0380 -0.7864 -0.8141
 6555SOL    HW230595   1.794   1.983   1.134 -0.2081 -0.1817  0.0407
 6556SOL     OW30596   8.519   9.956   2.290 -0.3581  1.0053  0.2674
 6556SOL    HW130597   8.467   9.979   2.373  0.4039  0.9795  0.7623
 6556SOL    HW230598   8.462   9.972   2.210 -0.3456  3.2570  0.6730
 6557SOL     OW30599   0.268   8.331   0.043  0.4415  0.5632  0.0774
 6557SOL    HW130600   0.234   8.307  -0.048 -1.1440  2.2362  0.1827
 6557SOL    HW230601   0.349   8.277   0.064 -0.2760 -1.2188 -1.5441
 6558SOL     OW30602   1.936   2.505   0.336  0.1248 -0.2442 -0.3651
 6558SOL    HW130603   1.941   2.417   0.383 -0.2096 -0.0143  0.1112
 6558SOL    HW230604   1.888   2.571   0.395  0.5198  0.2963 -0.6506
 6559SOL     OW30605   6.346   0.142   4.010 -0.2578 -0.0127 -0.2779
 6559SOL    HW130606   6.441   0.115   3.996 -0.2560 -0.2442  0.1914
 6559SOL    HW230607   6.287   0.090   3.948 -0.2747 -1.2358  0.7417
 6560SOL     OW30608   8.173   1.709   0.990  0.1770  0.4862 -0.2306
 6560SOL    HW130609   8.265   1.691   0.956  1.2568  1.0857  2.2380
 6560SOL    HW230610   8.126   1.623   1.008  1.0184  0.1533  0.4110
 6561SOL     OW30611   2.469   4.468   3.032 -0.0642 -0.0177  0.5864
 6561SOL    HW130612   2.488   4.384   3.082 -0.0912 -0.3325  0.0680
 6561SOL    HW230613   2.502   4.459   2.938  0.2729  0.6890  0.6350
 6562SOL     OW30614   9.437   2.322   4.934 -0.1242  0.2096  1.0020
 6562SOL    HW130615   9.503   2.395   4.951  0.5027  0.0426 -0.6581
 6562SOL    HW230616   9.357   2.359   4.886  0.9702 -0.4857 -1.4271
 6563SOL     OW30617   4.000   2.508   0.126 -0.1949  0.0617  0.3563
 6563SOL    HW130618   4.016   2.539   0.220  3.5476 -0.2036 -0.1017
 6563SOL    HW230619   3.955   2.419   0.127  1.5487 -0.8278  1.9545
 6564SOL     OW30620   8.990   4.097   4.686 -0.2540  1.0698 -0.1491
 6564SOL    HW130621   8.948   4.139   4.766 -0.6599 -0.1993  0.3095
 6564SOL    HW230622   8.923   4.091   4.612  0.1033  2.1870 -0.5716
 6565SOL     OW30623   3.902   4.609   4.751 -0.0063 -0.2437 -0.6115
 6565SOL    HW130624   3.809   4.646   4.757  0.2503  0.4579 -0.8502
 6565SOL    HW230625   3.938   4.594   4.843  0.2012  0.9336 -0.4863
 6566SOL     OW30626   2.590   7.397   4.996  0.1476 -0.4277  0.0786
 6566SOL    HW130627   2.601   7.472   4.931 -0.1392 -2.3321 -2.2120
 6566SOL    HW230628   2.584   7.435   5.089  1.9277  2.2470 -0.8235
 6567SOL     OW30629   4.389   8.510   3.448 -0.1406  0.1435  0.6340
 6567SOL    HW130630   4.429   8.517   3.357 -1.9124  2.0603 -0.0356
 6567SOL    HW230631   4.459   8.529   3.517  0.6281  1.2002 -0.4112
 6568SOL     OW30632   1.791   5.532   4.522  0.5497 -0.1587 -0.2655
 6568SOL    HW130633   1.779   5.441   4.482 -0.2755 -0.8051  1.4039
 6568SOL    HW230634   1.716   5.592   4.495  0.6384 -0.2308 -0.6677
 6569SOL     OW30635   3.037   6.197   2.846 -0.1296  0.2070  0.5304
 6569SOL    HW130636   3.056   6.296   2.840  1.1338 -0.1147 -1.3356
 6569SOL    HW230637   2.969   6.172   2.778  0.3373 -0.3852  0.2796
 6570SOL     OW30638   0.665   1.188   1.761 -0.2025  0.3780  0.1138
 6570SOL    HW130639   0.611   1.203   1.843  0.2091 -0.3332  0.5167
 6570SOL    HW230640   0.666   1.090   1.739  0.1917  0.4931 -0.3924
 6571SOL     OW30641   3.275   2.515   4.107 -0.0941 -0.6508  0.5712
 6571SOL    HW130642   3.288   2.417   4.090 -0.9351 -0.4505 -1.3095
 6571SOL    HW230643   3.196   2.547   4.055  0.5692  1.1796  0.6748
 6572SOL     OW30644   6.509   9.108   4.714  0.0563  0.4016  0.4830
 6572SOL    HW130645   6.564   9.183   4.751 -0.4342  1.9621 -1.8199
 6572SOL    HW230646   6.539   9.022   4.753  1.5883  1.6428  2.1247
 6573SOL     OW30647   1.976   8.355   3.969  0.6603 -0.0015  0.7635
 6573SOL    HW130648   2.070   8.376   3.944  0.2916 -0.5674 -1.1924
 6573SOL    HW230649   1.975   8.304   4.055  2.1487 -0.1851  0.6836
 6574SOL     OW30650   4.339   2.182   4.930  0.4364 -0.6142  0.6483
 6574SOL    HW130651   4.244   2.182   4.961  0.5576 -0.4756  1.0254
 6574SOL    HW230652   4.398   2.209   5.006  0.6745  0.5175  0.0722
 6575SOL     OW30653   3.654   5.402   0.662  0.4190 -0.2004 -0.2794
 6575SOL    HW130654   3.647   5.309   0.627 -0.8380 -0.3856  0.4113
 6575SOL    HW230655   3.632   5.402   0.760  1.2513  0.6957 -0.0885
 6576SOL     OW30656   6.958   2.332   3.206 -0.1447  0.0595  0.9731
 6576SOL    HW130657   6.881   2.371   3.155 -1.2169 -2.3804  0.6433
 6576SOL    HW230658   6.986   2.396   3.278 -2.0369  1.2971  0.6588
 6577SOL     OW30659   4.276   4.062   0.056  0.0242  0.6832  0.2504
 6577SOL    HW130660   4.326   3.985   0.095 -2.5392 -1.0713  0.1149
 6577SOL    HW230661   4.247   4.123   0.129 -2.4249 -1.1944  0.8853
 6578SOL     OW30662   1.662   0.093   4.588 -0.2787 -0.3494  0.6380
 6578SOL    HW130663   1.635   0.093   4.491  1.1750 -1.0529  0.2183
 6578SOL    HW230664   1.588   0.132   4.643 -1.4885 -0.7579 -0.6509
 6579SOL     OW30665   6.642   6.997   3.743 -0.3113 -0.1638  0.6951
 6579SOL    HW130666   6.666   7.083   3.787  1.7701 -1.2456  1.7313
 6579SOL    HW230667   6.725   6.948   3.716 -1.4604 -1.8733  0.1733
 6580SOL     OW30668   1.208   6.552   2.470 -0.2126 -0.3306 -0.4928
 6580SOL    HW130669   1.227   6.581   2.376  1.3257 -1.2997 -0.5000
 6580SOL    HW230670   1.208   6.452   2.475  1.7777 -0.2833  0.9318
 6581SOL     OW30671   9.735   5.260   5.004 -0.0567  0.0855 -0.6870
 6581SOL    HW130672   9.750   5.251   4.905 -0.6285  0.1603 -0.7813
 6581SOL    HW230673   9.803   5.206   5.053 -0.3848 -0.7511 -1.1434
 6582SOL     OW30674   2.326   3.260   3.242 -0.5844  0.6299  0.1065
 6582SOL    HW130675   2.391   3.214   3.181 -0.3740  0.7601  0.2343
 6582SOL    HW230676   2.232   3.235   3.215 -0.4973  0.7905 -0.3515
 6583SOL     OW30677   2.133   8.681   1.204  0.3357 -0.2019 -0.0426
 6583SOL    HW130678   2.068   8.662   1.130  0.9136 -1.6005 -0.2140
 6583SOL    HW230679   2.168   8.594   1.241  1.5150  0.5132  0.5626
 6584SOL     OW30680   8.982   8.636   3.759  0.1496 -0.3696  0.5815
 6584SOL    HW130681   8.926   8.702   3.810 -0.1947  0.2745 -0.6102
 6584SOL    HW230682   9.078   8.644   3.788  0.1949  1.0341  0.0544
 6585SOL     OW30683   1.627   2.154   3.530  0.7203  0.4441  0.3226
 6585SOL    HW130684   1.707   2.213   3.518  2.1442 -1.6868 -0.9551
 6585SOL    HW230685   1.653   2.071   3.577 -0.5525 -0.6595 -0.8674
 6586SOL     OW30686   8.905   1.319   1.670  0.2377  0.5731 -0.1002
 6586SOL    HW130687   8.996   1.289   1.699 -0.3247 -0.8326  0.2353
 6586SOL    HW230688   8.910   1.351   1.575  1.0557  0.3843 -0.1300
 6587SOL     OW30689   9.261   2.372   1.225  0.4435  0.0590 -0.2901
 6587SOL    HW130690   9.292   2.350   1.317  2.3640 -0.3200 -0.9961
 6587SOL    HW230691   9.281   2.469   1.206 -1.5097  0.5866  0.2900
 6588SOL     OW30692   1.365   6.524   0.975  0.2295 -0.3808 -0.1101
 6588SOL    HW130693   1.431   6.590   0.938  0.5944 -0.8678 -0.3292
 6588SOL    HW230694   1.364   6.442   0.918  0.3574 -0.8914  0.6160
 6589SOL     OW30695   3.877   4.609   5.516 -0.0465  0.7733 -0.3231
 6589SOL    HW130696   3.857   4.645   5.425 -0.3916  0.0194 -0.5442
 6589SOL    HW230697   3.847   4.676   5.585 -0.6864  0.9173 -0.7326
 6590SOL     OW30698   1.978   4.731   2.335  0.1945 -0.4168 -0.2151
 6590SOL    HW130699   1.883   4.761   2.333  0.8139  1.5653 -1.4954
 6590SOL    HW230700   1.982   4.632   2.320 -1.5150 -0.1293 -2.9242
 6591SOL     OW30701   8.008   5.353   4.365  0.4090 -0.3286  0.1613
 6591SOL    HW130702   8.012   5.446   4.329 -1.6707  0.4805  1.9347
 6591SOL    HW230703   8.040   5.353   4.460 -2.2600 -0.8731  1.0996
 6592SOL     OW30704   0.987   0.894   2.342  0.1139  0.2262  0.0814
 6592SOL    HW130705   1.077   0.886   2.299  0.5107 -1.2765  1.1523
 6592SOL    HW230706   0.967   0.991   2.359  2.2356  0.4977  1.2695
 6593SOL     OW30707   8.071   5.029   1.391 -0.0126  0.1873  0.1467
 6593SOL    HW130708   8.074   5.076   1.479  0.1094  1.0905 -0.3338
 6593SOL    HW230709   8.160   4.987   1.374 -0.5618 -1.4778  1.2432
 6594SOL     OW30710   1.165   7.575   1.953  0.3978 -0.1760  0.2524
 6594SOL    HW130711   1.156   7.480   1.984  2.2194 -0.2545  0.5943
 6594SOL    HW230712   1.093   7.631   1.994 -1.2866 -1.5864 -0.7048
 6595SOL     OW30713   7.568   1.081   1.780  0.5004 -0.0868 -0.4433
 6595SOL    HW130714   7.496   1.043   1.721  1.4537 -2.6825 -0.0149
 6595SOL    HW230715   7.599   1.168   1.743 -0.4936 -0.5797 -2.5178
 6596SOL     OW30716   8.864   8.307   2.271  0.2434  0.4161  0.1202
 6596SOL    HW130717   8.843   8.336   2.364 -1.4733 -0.3757  0.0050
 6596SOL    HW230718   8.946   8.354   2.239  0.9152  0.6045  2.0628
 6597SOL     OW30719   4.644   1.386   4.357 -0.1627  0.2468 -0.0250
 6597SOL    HW130720   4.647   1.296   4.402 -0.4849  1.1737  1.9166
 6597SOL    HW230721   4.554   1.427   4.370 -0.3549  0.4026 -1.8274
 6598SOL     OW30722   3.198   4.752   3.782 -0.6365 -0.0671  0.0908
 6598SOL    HW130723   3.210   4.810   3.702  2.4640  0.6812  1.0267
 6598SOL    HW230724   3.257   4.672   3.774 -0.7440 -0.2858  1.3615
 6599SOL     OW30725   0.523   7.841   0.840 -0.5789  0.3282 -0.1695
 6599SOL    HW130726   0.534   7.851   0.741 -0.3162  0.5128 -0.1243
 6599SOL    HW230727   0.551   7.750   0.868  0.4572  0.6515 -0.1169
 6600SOL     OW30728   1.411   4.613   4.540 -0.5508  0.4599  0.1098
 6600SOL    HW130729   1.495   4.613   4.594  0.0608  0.2765 -0.8213
 6600SOL    HW230730   1.356   4.693   4.562 -0.7046 -0.0475  1.6037
 6601SOL     OW30731   0.067   0.891   4.120  0.4074  0.2316  0.1441
 6601SOL    HW130732  -0.009   0.828   4.104  0.3761  0.4065 -0.4120
 6601SOL    HW230733   0.033   0.984   4.128  0.5803  0.3316 -0.2786
 6602SOL     OW30734   9.783   8.840   5.221  0.0180 -0.0633  0.1269
 6602SOL    HW130735   9.757   8.897   5.142 -2.1285  1.5184  1.9080
 6602SOL    HW230736   9.878   8.859   5.246  0.1941  0.6527 -1.0384
 6603SOL     OW30737   8.730   2.878   1.093 -0.5659 -0.2791 -0.0842
 6603SOL    HW130738   8.793   2.873   1.171 -0.7924  0.8017  0.1704
 6603SOL    HW230739   8.765   2.821   1.019  0.1501 -0.5559  0.4559
 6604SOL     OW30740   9.906   6.787   0.628 -0.0348 -0.0768  0.3473
 6604SOL    HW130741   9.943   6.709   0.578 -2.5293 -0.5304 -0.8582
 6604SOL    HW230742   9.807   6.775   0.640 -0.1242  1.9491  1.9096
 6605SOL     OW30743   3.494   8.492   3.451 -0.3824  0.3691 -0.2518
 6605SOL    HW130744   3.435   8.558   3.404  0.6084  1.4285 -0.0474
 6605SOL    HW230745   3.590   8.510   3.427 -0.0359 -0.4531  0.4870
 6606SOL     OW30746   4.563   9.776   3.416 -0.3964  0.2430 -0.8057
 6606SOL    HW130747   4.515   9.738   3.337 -1.5299  1.3403 -0.6628
 6606SOL    HW230748   4.560   9.711   3.492 -3.0181  0.8925 -0.2921
 6607SOL     OW30749   0.828   8.930   3.016  0.0113  0.8433  0.1806
 6607SOL    HW130750   0.892   8.892   3.083  0.6980 -0.0621 -0.9543
 6607SOL    HW230751   0.863   8.913   2.924 -1.7033  0.6583 -0.4533
 6608SOL     OW30752   7.404   5.151   4.441 -0.0396  0.0761  0.7601
 6608SOL    HW130753   7.365   5.242   4.451 -0.1910  0.0029  0.8475
 6608SOL    HW230754   7.386   5.098   4.524 -0.4708 -0.2271  0.4728
 6609SOL     OW30755   8.837   4.048   0.829  0.2105  0.6381  0.0667
 6609SOL    HW130756   8.895   3.985   0.882 -0.2164  0.0851 -0.1145
 6609SOL    HW230757   8.885   4.135   0.817  1.1795  0.0490 -0.4228
 6610SOL     OW30758   9.395   5.338   1.406  0.0189  0.3887 -0.1242
 6610SOL    HW130759   9.469   5.381   1.354 -0.2980  0.6845 -0.3327
 6610SOL    HW230760   9.413   5.347   1.504  0.5456 -0.0408 -0.1834
 6611SOL     OW30761   0.999   4.076   4.598 -0.3072  0.1233 -0.2052
 6611SOL    HW130762   1.099   4.087   4.601 -0.0603 -1.1969 -2.6168
 6611SOL    HW230763   0.956   4.162   4.570 -0.0922  1.5051  3.4118
 6612SOL     OW30764   1.224   7.412   3.703 -0.0263 -0.1370 -0.6442
 6612SOL    HW130765   1.155   7.474   3.740 -0.6186 -1.2997  0.2161
 6612SOL    HW230766   1.190   7.317   3.709  1.9310 -0.7861  0.4426
 6613SOL     OW30767   6.669   0.520   1.798 -0.1907 -0.2888  0.0822
 6613SOL    HW130768   6.753   0.502   1.849  0.2485 -1.6168 -1.0813
 6613SOL    HW230769   6.623   0.599   1.838  1.9259  0.8499  0.3684
 6614SOL     OW30770   2.105   7.381   4.620  0.0603  0.1474 -0.6032
 6614SOL    HW130771   2.132   7.286   4.604 -0.7720 -0.4468  1.2818
 6614SOL    HW230772   2.131   7.437   4.542  0.6894 -1.6065 -1.6874
 6615SOL     OW30773   1.279   8.075   3.771  0.1867  0.0448  0.1904
 6615SOL    HW130774   1.375   8.102   3.762  0.6318 -1.5821 -0.0604
 6615SOL    HW230775   1.248   8.033   3.686 -0.5378 -0.1067  0.5290
 6616SOL     OW30776   8.331   4.093   3.224 -0.0242  0.0895  1.1468
 6616SOL    HW130777   8.281   4.024   3.276  1.0072 -2.6024 -1.2636
 6616SOL    HW230778   8.308   4.084   3.127  2.0886  1.4445  0.4875
 6617SOL     OW30779   2.326   6.369   3.137  0.3761 -0.4123  0.3035
 6617SOL    HW130780   2.381   6.442   3.178 -0.3596 -0.3772  1.2396
 6617SOL    HW230781   2.386   6.308   3.085  1.2448 -0.1102  0.9329
 6618SOL     OW30782   0.181   4.806   3.382 -0.1153 -0.5873  0.1099
 6618SOL    HW130783   0.097   4.794   3.329  0.3133 -2.7513 -0.1482
 6618SOL    HW230784   0.165   4.774   3.476  0.2830 -0.5554  0.1888
 6619SOL     OW30785   0.222   1.748   0.140  0.4868 -0.0546 -0.4383
 6619SOL    HW130786   0.128   1.746   0.107  1.1392 -1.6320 -2.2900
 6619SOL    HW230787   0.275   1.676   0.095  2.8038  1.3524 -0.0666
 6620SOL     OW30788   2.077   2.687   3.801  0.0990 -0.0330 -0.7491
 6620SOL    HW130789   2.082   2.685   3.701 -0.9153 -1.5775 -0.7888
 6620SOL    HW230790   2.038   2.774   3.830 -1.5519 -0.3821 -1.8101
 6621SOL     OW30791   2.125   7.567   1.377  0.1491 -0.3611  0.1124
 6621SOL    HW130792   2.173   7.635   1.320  0.8701 -0.1094  1.0024
 6621SOL    HW230793   2.092   7.611   1.461 -1.5530 -0.5628 -0.4287
 6622SOL     OW30794   9.490   6.182   4.475  0.0091  0.1786 -0.2337
 6622SOL    HW130795   9.469   6.153   4.382 -0.1116 -0.4610 -0.0079
 6622SOL    HW230796   9.584   6.216   4.480  0.6503 -1.5488 -0.1884
 6623SOL     OW30797   0.399   4.957   5.489 -0.1463  0.2150 -0.1466
 6623SOL    HW130798   0.332   4.978   5.561  0.6597  0.8013  0.4342
 6623SOL    HW230799   0.478   4.912   5.529 -0.3055 -0.7373 -0.8810
 6624SOL     OW30800   0.206   2.034   0.121  0.3974 -0.2299  0.2432
 6624SOL    HW130801   0.252   1.959   0.169  0.7570  0.4659  0.9890
 6624SOL    HW230802   0.245   2.044   0.030  1.9080  0.5251  0.9600
 6625SOL     OW30803   2.146   4.587   3.481  0.1191 -0.3639 -0.3609
 6625SOL    HW130804   2.157   4.663   3.544 -0.8335  1.3871 -2.2248
 6625SOL    HW230805   2.049   4.563   3.474  0.0040  0.5450 -2.3373
 6626SOL     OW30806   0.356   6.571   4.934 -0.2175 -0.4223  0.7486
 6626SOL    HW130807   0.435   6.596   4.989  0.3240  0.8634 -0.5804
 6626SOL    HW230808   0.332   6.647   4.873 -1.4316 -1.4239 -0.0590
 6627SOL     OW30809   4.325   9.963   1.205 -0.1419 -0.5872 -0.7145
 6627SOL    HW130810   4.237   9.932   1.240  0.2812 -1.1558 -0.1277
 6627SOL    HW230811   4.313  10.005   1.115 -1.0260 -0.5251 -0.5704
 6628SOL     OW30812   3.151   6.613   1.819 -0.4130 -0.2204  0.0448
 6628SOL    HW130813   3.235   6.559   1.811 -0.3899 -0.0968 -0.5513
 6628SOL    HW230814   3.084   6.563   1.873  0.1710 -0.1671  0.8270
 6629SOL     OW30815   8.443   3.703   4.932  0.2420  0.1499  0.3761
 6629SOL    HW130816   8.399   3.687   4.844  0.9839  0.6487 -0.0883
 6629SOL    HW230817   8.534   3.662   4.933  0.6259  0.9930  0.5485
 6630SOL     OW30818   3.185   0.056   4.313  0.4281 -0.2823  0.1062
 6630SOL    HW130819   3.125  -0.008   4.266 -0.2957 -0.1344  0.8171
 6630SOL    HW230820   3.280   0.028   4.301  0.2036 -0.6766 -0.7874
 6631SOL     OW30821   3.152   9.009   0.965 -0.5452  0.1419  0.1625
 6631SOL    HW130822   3.210   8.957   1.027  0.9165  1.8612  0.2530
 6631SOL    HW230823   3.074   8.952   0.937  0.0428 -1.4448  1.6897
 6632SOL     OW30824   0.930   0.848   5.255  0.5013 -0.4657  0.2499
 6632SOL    HW130825   0.922   0.877   5.350  0.8198 -1.0015  0.4405
 6632SOL    HW230826   0.971   0.922   5.201 -0.5982  0.2130  0.3278
 6633SOL     OW30827   3.530   6.903   1.410  0.2366  0.1850  0.6361
 6633SOL    HW130828   3.545   6.936   1.503  1.2461  0.1382  0.4970
 6633SOL    HW230829   3.601   6.939   1.350 -0.4637  0.2855 -0.1349
 6634SOL     OW30830   3.926   3.255   2.380 -0.5482  0.1243 -0.0986
 6634SOL    HW130831   3.955   3.314   2.456  0.7378  0.5203 -0.8764
 6634SOL    HW230832   3.886   3.311   2.308  0.1120 -0.0230 -0.5794
 6635SOL     OW30833   4.312   3.470   0.260  0.8667 -0.1544  0.3201
 6635SOL    HW130834   4.315   3.428   0.351  1.1373  0.5554  0.6463
 6635SOL    HW230835   4.400   3.514   0.241  0.9500 -0.6427 -0.4566
 6636SOL     OW30836   4.550   6.833   2.688  1.2366 -1.0636  0.0708
 6636SOL    HW130837   4.488   6.758   2.666  0.3963 -0.9226  1.9161
 6636SOL    HW230838   4.566   6.889   2.606 -1.9795 -0.4119 -0.1463
 6637SOL     OW30839   2.234   3.418   4.587  0.4921 -0.7525 -0.2862
 6637SOL    HW130840   2.245   3.472   4.670  0.2021 -1.8301  0.4784
 6637SOL    HW230841   2.322   3.378   4.561  0.5317 -0.6256 -0.3454
 6638SOL     OW30842   6.737   0.753   0.934 -0.0853  0.3966  0.3879
 6638SOL    HW130843   6.677   0.674   0.921  1.0332 -0.3023 -0.6629
 6638SOL    HW230844   6.823   0.723   0.975  0.4982  0.9858 -0.3756
 6639SOL     OW30845   1.637   5.391   1.886 -0.0797 -0.6561 -0.3234
 6639SOL    HW130846   1.706   5.448   1.930 -0.8177  0.0538 -0.0943
 6639SOL    HW230847   1.677   5.301   1.865 -0.5804 -2.1760  4.6038
 6640SOL     OW30848   2.719   0.857   0.115 -0.2179 -0.2943  0.0284
 6640SOL    HW130849   2.747   0.885   0.207  0.3928 -0.1989 -0.1863
 6640SOL    HW230850   2.763   0.916   0.048  1.9395 -2.4261 -0.4981
 6641SOL     OW30851   8.049   6.528   3.080  0.2798 -0.2301  0.0604
 6641SOL    HW130852   7.959   6.497   3.110  0.6754 -0.1947  1.3339
 6641SOL    HW230853   8.096   6.573   3.157  0.5170  1.7187 -1.1766
 6642SOL     OW30854   3.960   3.816   0.743 -0.0493  0.0534 -0.9703
 6642SOL    HW130855   3.880   3.855   0.697 -1.9995 -0.3587  1.9520
 6642SOL    HW230856   3.949   3.716   0.748  0.5273  0.0195 -0.3355
 6643SOL     OW30857   1.281   5.154   2.569  0.3570 -0.5722 -0.5699
 6643SOL    HW130858   1.190   5.111   2.574  1.3082 -2.3616  2.8746
 6643SOL    HW230859   1.302   5.197   2.656  2.7822 -0.0675 -1.3797
 6644SOL     OW30860   0.226   5.502   5.578  0.1325  0.1304  0.4847
 6644SOL    HW130861   0.155   5.570   5.594  0.6154  0.9547 -0.8223
 6644SOL    HW230862   0.276   5.524   5.494  0.6481 -1.5303  0.3298
 6645SOL     OW30863   8.323   0.230   0.446 -0.1744 -0.0573  0.2218
 6645SOL    HW130864   8.314   0.135   0.475 -2.0913 -0.7279 -2.3819
 6645SOL    HW230865   8.245   0.283   0.480  0.2281  0.3275  0.5674
 6646SOL     OW30866   2.249   0.923   2.512  0.0508 -0.4356 -0.5258
 6646SOL    HW130867   2.313   0.999   2.498  0.0213 -0.3797 -0.3639
 6646SOL    HW230868   2.230   0.914   2.610  1.8939 -2.1777 -0.3091
 6647SOL     OW30869   0.513   8.195   0.711 -0.1526 -0.1011  0.5763
 6647SOL    HW130870   0.438   8.164   0.769 -1.4029 -0.7425 -1.3503
 6647SOL    HW230871   0.498   8.291   0.686 -1.1049 -0.6437 -0.9844
 6648SOL     OW30872   1.313   5.097   3.793 -0.6231  0.0573  0.5104
 6648SOL    HW130873   1.316   5.039   3.874  0.3263 -1.8443 -0.8341
 6648SOL    HW230874   1.225   5.086   3.746  0.0611 -1.3525 -0.4698
 6649SOL     OW30875   8.967   9.099   1.295 -0.3605  0.0164 -0.3825
 6649SOL    HW130876   8.889   9.097   1.358  0.5829  0.6942  0.8367
 6649SOL    HW230877   8.935   9.116   1.202 -1.7681 -0.8610 -0.0647
 6650SOL     OW30878   3.481   4.995   5.010 -0.1108 -0.3714  0.2249
 6650SOL    HW130879   3.471   4.960   4.917 -0.2432 -0.4457  0.2670
 6650SOL    HW230880   3.559   5.058   5.014  0.4981 -1.1180  0.2825
 6651SOL     OW30881   9.867   2.888   4.953  0.2495 -0.8206  0.0326
 6651SOL    HW130882   9.826   2.859   4.866 -0.9078  0.1686  0.2288
 6651SOL    HW230883   9.949   2.942   4.934 -0.3867 -0.0233 -0.4635
 6652SOL     OW30884   2.987   2.610   3.169  0.7229  0.3171  0.2301
 6652SOL    HW130885   3.068   2.669   3.166 -0.2102  1.6760  0.8343
 6652SOL    HW230886   2.958   2.587   3.077  2.4657 -1.1487  0.0184
 6653SOL     OW30887   9.789   4.590   3.478  0.4343  0.4898  0.3600
 6653SOL    HW130888   9.782   4.678   3.431  0.0990 -0.7759 -2.0351
 6653SOL    HW230889   9.885   4.562   3.482  0.2759 -0.4511 -1.6531
 6654SOL     OW30890   6.980   4.822   0.322  0.4059 -1.0276  0.4899
 6654SOL    HW130891   6.969   4.767   0.404  0.7941  1.1584  2.0480
 6654SOL    HW230892   7.077   4.835   0.303  0.3150 -0.0317  0.7116
 6655SOL     OW30893   0.432   3.104   0.346 -0.3119  0.0609 -0.0653
 6655SOL    HW130894   0.435   3.143   0.254 -1.2733  1.0709  0.3159
 6655SOL    HW230895   0.339   3.074   0.366  0.3288 -2.0854 -0.1925
 6656SOL     OW30896   8.112   8.141   5.357 -0.7361 -0.5273  0.1335
 6656SOL    HW130897   8.171   8.213   5.320 -2.4339  2.0724  2.3241
 6656SOL    HW230898   8.159   8.094   5.432 -1.0404  0.9010  1.2422
 6657SOL     OW30899   9.037   6.974   3.055 -0.1751  0.5883  0.0709
 6657SOL    HW130900   9.060   6.945   2.962 -1.3702  1.0682 -0.3800
 6657SOL    HW230901   8.989   6.900   3.102  0.8034  0.1901  0.4565
 6658SOL     OW30902   7.007   0.039   4.085 -0.3858 -0.4143  0.2716
 6658SOL    HW130903   6.963  -0.048   4.062 -0.8208 -0.7127  2.1217
 6658SOL    HW230904   6.941   0.098   4.132 -0.1358  0.9738 -1.1069
 6659SOL     OW30905   9.036   4.113   2.128 -0.2454 -0.1924 -0.2593
 6659SOL    HW130906   8.942   4.079   2.122 -0.9536  1.7045 -0.3603
 6659SOL    HW230907   9.060   4.160   2.043  0.2651  0.6164  0.3222
 6660SOL     OW30908   3.549   2.909   4.494  0.5136  0.1578 -0.7147
 6660SOL    HW130909   3.479   2.980   4.493  0.8657  0.4995 -0.9262
 6660SOL    HW230910   3.525   2.840   4.563 -0.8521 -0.5615 -1.8859
 6661SOL     OW30911   3.858   0.248   2.726 -0.1185  0.0492  0.1911
 6661SOL    HW130912   3.785   0.244   2.657 -0.2317 -1.5674  0.3645
 6661SOL    HW230913   3.885   0.154   2.751  2.4863  0.6178 -0.3486
 6662SOL     OW30914   7.179   4.451   0.749  0.3671 -0.4137 -0.2622
 6662SOL    HW130915   7.213   4.372   0.698  2.2476  1.0901 -1.4020
 6662SOL    HW230916   7.105   4.494   0.697  0.3851 -0.5236 -0.3811
 6663SOL     OW30917   0.915   3.448   4.987 -0.4629  0.0440 -0.7410
 6663SOL    HW130918   0.824   3.481   4.963 -0.1384  1.9034  0.5051
 6663SOL    HW230919   0.914   3.349   4.995 -2.5222  0.0996 -0.1397
 6664SOL     OW30920   2.222   7.262   4.078 -0.2942  0.4639  0.0979
 6664SOL    HW130921   2.182   7.313   4.003 -1.3789  0.2789  0.5281
 6664SOL    HW230922   2.165   7.274   4.160  0.8405  0.6261  0.8685
 6665SOL     OW30923   2.943   6.100   3.944  0.0566  0.0689 -0.7426
 6665SOL    HW130924   2.968   6.184   3.992  1.1634  0.5847 -2.1876
 6665SOL    HW230925   2.903   6.123   3.855  0.4581 -0.9283 -1.1871
 6666SOL     OW30926   1.549   4.209   4.547 -1.0397  0.0866  0.3945
 6666SOL    HW130927   1.593   4.122   4.524 -0.0609  1.1737 -1.9567
 6666SOL    HW230928   1.564   4.274   4.473 -1.0917  2.5087  2.4660
 6667SOL     OW30929   8.487   0.148   5.588  0.4584  0.0851  0.1051
 6667SOL    HW130930   8.548   0.160   5.666  0.0874 -2.4682  0.8481
 6667SOL    HW230931   8.396   0.183   5.610  0.2456 -0.9990  0.9960
 6668SOL     OW30932   7.916   9.287   4.203  0.6351  0.2624 -1.5173
 6668SOL    HW130933   7.835   9.235   4.176  0.3877 -0.1701 -0.0163
 6668SOL    HW230934   7.890   9.381   4.224  0.3718 -0.0697 -0.2985
 6669SOL     OW30935   2.194   7.384   3.370  0.5892 -0.1972 -0.1110
 6669SOL    HW130936   2.253   7.376   3.290  2.2843 -3.6855  1.3759
 6669SOL    HW230937   2.099   7.365   3.344  1.1268 -1.2874 -1.3038
 6670SOL     OW30938   5.354   0.283   2.956 -0.4473  0.0572 -0.8206
 6670SOL    HW130939   5.339   0.258   2.861  0.9503  1.0189 -1.2938
 6670SOL    HW230940   5.342   0.381   2.967 -0.9438 -0.0936  0.0724
 6671SOL     OW30941   8.190   9.618   3.740  0.2997 -0.1058  0.5041
 6671SOL    HW130942   8.176   9.672   3.823 -2.1217 -1.3667  0.9765
 6671SOL    HW230943   8.271   9.560   3.751  0.3600  0.2068  1.7292
 6672SOL     OW30944   7.792   1.431   0.778  0.3098 -0.0388 -0.1215
 6672SOL    HW130945   7.814   1.514   0.727 -0.8263 -0.2301 -0.9256
 6672SOL    HW230946   7.708   1.444   0.830 -0.2270 -0.9090 -0.7646
 6673SOL     OW30947   7.182   0.229   0.220 -0.3726 -0.1226 -0.2723
 6673SOL    HW130948   7.259   0.268   0.168 -1.1954  1.2913 -0.4757
 6673SOL    HW230949   7.115   0.301   0.239 -0.5975 -0.8453  1.8465
 6674SOL     OW30950   0.437   4.877   5.043  0.3928  0.4599 -0.0862
 6674SOL    HW130951   0.525   4.921   5.025 -0.6017  1.5282 -2.5985
 6674SOL    HW230952   0.436   4.786   5.001 -0.2671  1.0971 -1.4703
 6675SOL     OW30953   9.243   9.739   5.579  0.3975  0.5678 -0.0755
 6675SOL    HW130954   9.159   9.784   5.549  0.3337  0.1957 -0.4633
 6675SOL    HW230955   9.239   9.723   5.678 -0.4588 -0.4262 -0.2657
 6676SOL     OW30956   5.895   0.580   4.390 -0.4554 -0.2065  0.6021
 6676SOL    HW130957   5.972   0.556   4.330 -1.3439  0.5552 -0.8632
 6676SOL    HW230958   5.908   0.535   4.479  1.2243 -0.8108  0.0896
 6677SOL     OW30959   4.547   1.022   0.188 -0.2840 -0.2885  0.3292
 6677SOL    HW130960   4.611   0.957   0.230  0.0725 -0.5357 -0.5914
 6677SOL    HW230961   4.528   0.995   0.094  0.1886  1.1849 -0.2012
 6678SOL     OW30962   8.141   2.152   3.874  0.6871 -0.2172  0.1009
 6678SOL    HW130963   8.147   2.239   3.825  1.4500 -0.9258 -1.0727
 6678SOL    HW230964   8.170   2.165   3.969  0.0362  0.9734  0.1480
 6679SOL     OW30965   2.771   5.214   3.895 -0.3038  0.0494 -0.4188
 6679SOL    HW130966   2.755   5.294   3.953 -2.0831  0.0617 -0.8803
 6679SOL    HW230967   2.857   5.171   3.919  0.2156  1.5665  0.4768
 6680SOL     OW30968   3.470   4.308   0.064 -0.2914 -0.0557 -0.0998
 6680SOL    HW130969   3.554   4.346   0.025 -0.4053  0.1129 -0.1822
 6680SOL    HW230970   3.412   4.382   0.097  0.6546 -0.2650  2.1604
 6681SOL     OW30971   2.412   4.434   4.634 -0.1966  0.6032  0.1299
 6681SOL    HW130972   2.491   4.375   4.647 -0.2427  0.4227 -0.3656
 6681SOL    HW230973   2.348   4.390   4.570 -1.5341 -0.0508  1.8738
 6682SOL     OW30974   8.549   4.226   1.522 -0.1573 -0.2039  0.0060
 6682SOL    HW130975   8.613   4.251   1.594 -2.0197  0.5771  1.4312
 6682SOL    HW230976   8.561   4.129   1.500  2.0776  0.1329 -0.3674
 6683SOL     OW30977   8.789   6.723   5.350  0.0143  0.2246  0.1916
 6683SOL    HW130978   8.788   6.640   5.405 -0.7059 -0.8257 -1.3911
 6683SOL    HW230979   8.883   6.758   5.344  0.2833 -0.3430  1.0342
 6684SOL     OW30980   6.337   1.936   3.432 -0.4558  0.0415 -0.2541
 6684SOL    HW130981   6.298   1.846   3.416  0.8001 -0.4557 -0.6000
 6684SOL    HW230982   6.310   1.969   3.523  0.5605 -1.4889  0.6342
 6685SOL     OW30983   3.227   6.715   2.977 -0.1515  0.3115  0.2317
 6685SOL    HW130984   3.164   6.712   3.055 -1.9676  0.5148 -1.1813
 6685SOL    HW230985   3.186   6.770   2.904  0.9559 -0.9351 -1.3487
 6686SOL     OW30986   1.685   1.013   4.285 -0.5481  0.4836  0.0527
 6686SOL    HW130987   1.690   0.924   4.238 -0.2934  0.2336  0.5497
 6686SOL    HW230988   1.777   1.052   4.291 -0.7695  1.1651 -0.8912
 6687SOL     OW30989   5.055   3.434   2.115 -0.0886  0.1164  0.4070
 6687SOL    HW130990   5.030   3.459   2.021 -0.3884 -0.1573  0.4136
 6687SOL    HW230991   4.974   3.405   2.165 -0.1848  1.7397  1.2266
 6688SOL     OW30992   7.948   3.541   1.097  0.2415  0.1316 -0.1700
 6688SOL    HW130993   7.962   3.536   1.196  0.5812 -1.3301 -0.2785
 6688SOL    HW230994   7.884   3.470   1.068  2.0666 -1.1000 -1.3141
 6689SOL     OW30995   1.789   4.518   0.502 -0.1622 -0.2014  0.1620
 6689SOL    HW130996   1.860   4.572   0.456 -1.2119  0.3568 -0.8186
 6689SOL    HW230997   1.783   4.546   0.598  0.8226 -0.1380  0.2144
 6690SOL     OW30998   2.117   9.281   2.208  0.6281 -0.5208 -0.2496
 6690SOL    HW130999   2.142   9.195   2.252  1.7665  0.3950  0.9163
 6690SOL    HW231000   2.064   9.337   2.272  0.0895 -0.2452 -0.9262
 6691SOL     OW31001   3.464   2.101   3.157 -0.0500 -0.2033 -0.0874
 6691SOL    HW131002   3.516   2.187   3.153 -1.1731  0.4310 -1.4458
 6691SOL    HW231003   3.513   2.030   3.106  0.6528 -0.2467  0.6437
 6692SOL     OW31004   8.971   8.850   5.470 -0.0130 -0.7921  0.5030
 6692SOL    HW131005   8.994   8.933   5.521 -0.8694 -0.3972  0.2490
 6692SOL    HW231006   8.873   8.834   5.475 -0.3275  0.0235 -2.1685
 6693SOL     OW31007   3.386   1.544   5.237  0.0324 -0.3542  0.1499
 6693SOL    HW131008   3.445   1.594   5.173 -0.4843  1.3433  0.9730
 6693SOL    HW231009   3.302   1.597   5.254  0.1156 -0.8091  2.1392
 6694SOL     OW31010   1.999   3.553   5.092 -0.0795  0.3549 -0.2778
 6694SOL    HW131011   1.915   3.578   5.139 -0.7367 -0.7915 -0.8128
 6694SOL    HW231012   2.013   3.454   5.100 -0.8525 -0.0574 -3.5025
 6695SOL     OW31013   5.609   8.660   3.243 -0.3884 -0.3007  0.6486
 6695SOL    HW131014   5.668   8.648   3.163  1.5028  0.2894  1.9044
 6695SOL    HW231015   5.589   8.571   3.284  0.4596 -0.4471  0.7607
 6696SOL     OW31016   0.084   9.189   2.558 -0.1991 -0.2068  1.1707
 6696SOL    HW131017   0.095   9.174   2.656  0.2621 -0.9377  1.0069
 6696SOL    HW231018   0.158   9.143   2.508 -0.9705 -0.6456  0.4208
 6697SOL     OW31019   5.172   0.056   2.034 -0.3662 -0.2321 -0.3878
 6697SOL    HW131020   5.082   0.016   2.052  0.7840 -2.3047  1.1070
 6697SOL    HW231021   5.182   0.141   2.085 -1.9215  0.6565 -1.5514
 6698SOL     OW31022   1.968   7.302   0.110 -0.5483  0.1223 -0.1839
 6698SOL    HW131023   1.961   7.348   0.021 -0.1799  1.3895  0.4249
 6698SOL    HW231024   2.008   7.212   0.098  0.3328  0.6350 -1.1957
 6699SOL     OW31025   6.365   0.217   3.294  0.1877 -0.4159  0.6514
 6699SOL    HW131026   6.450   0.165   3.297 -0.0735 -0.8699  0.2603
 6699SOL    HW231027   6.312   0.200   3.377 -0.1058 -1.1403  0.3230
 6700SOL     OW31028   2.719   8.149   3.840  0.1988 -0.2550  0.1090
 6700SOL    HW131029   2.726   8.172   3.937  2.1569 -0.5893  0.0713
 6700SOL    HW231030   2.707   8.050   3.831 -1.0492 -0.0977  0.0433
 6701SOL     OW31031   5.486   1.156   2.719 -0.0967  0.9689  0.0836
 6701SOL    HW131032   5.551   1.146   2.794 -1.5303  1.3712  1.4025
 6701SOL    HW231033   5.395   1.129   2.750 -0.6247  0.6892 -1.6560
 6702SOL     OW31034   2.138   7.072   2.102  0.1902  0.2820  0.1667
 6702SOL    HW131035   2.057   7.022   2.075 -0.5878  2.1347 -1.0301
 6702SOL    HW231036   2.173   7.035   2.188 -2.0708 -0.3545  0.8401
 6703SOL     OW31037   9.111   5.057   1.138  0.3959 -0.0192 -0.1934
 6703SOL    HW131038   9.082   5.142   1.183  1.5521  0.2122  0.1111
 6703SOL    HW231039   9.204   5.035   1.166  0.2849 -1.1079 -0.6933
 6704SOL     OW31040   4.122   5.323   4.660 -0.7248 -0.2834  0.4763
 6704SOL    HW131041   4.197   5.261   4.683 -0.8496 -0.8135 -0.4940
 6704SOL    HW231042   4.059   5.330   4.737  0.4928  0.4263  1.4205
 6705SOL     OW31043   4.076   3.168   3.135  0.8715 -0.3331 -0.0893
 6705SOL    HW131044   4.087   3.245   3.198  1.9007  1.1417 -2.0211
 6705SOL    HW231045   4.150   3.169   3.069  0.4815 -2.5886 -0.5805
 6706SOL     OW31046   6.738   0.820   3.658 -0.1725 -0.0934 -0.2788
 6706SOL    HW131047   6.790   0.836   3.574  0.4646  0.4731  0.2226
 6706SOL    HW231048   6.695   0.905   3.687  0.9127  0.0710  0.8483
 6707SOL     OW31049   5.804   8.582   2.834 -0.6242 -0.2106 -0.1951
 6707SOL    HW131050   5.805   8.517   2.910  0.6352 -0.4828 -0.4300
 6707SOL    HW231051   5.837   8.536   2.751  1.3505  1.0009 -0.1155
 6708SOL     OW31052   9.210   1.150   4.904 -0.3728  0.5831  0.2194
 6708SOL    HW131053   9.303   1.183   4.923 -0.1621  0.0352  0.1414
 6708SOL    HW231054   9.199   1.137   4.805  0.1191 -1.2765  0.3997
 6709SOL     OW31055   4.414   2.197   1.537  0.2660  0.4277 -0.0967
 6709SOL    HW131056   4.512   2.181   1.526  0.3067 -0.2273  1.1670
 6709SOL    HW231057   4.394   2.220   1.632 -0.9878 -0.8267 -0.0394
 6710SOL     OW31058   2.750   0.025   4.056  0.0562 -0.5257 -0.1394
 6710SOL    HW131059   2.657   0.003   4.027 -0.4343 -1.6274  2.1531
 6710SOL    HW231060   2.755   0.120   4.086  0.0432 -0.0369 -1.6411
 6711SOL     OW31061   3.739   3.001   2.871 -0.1983 -0.0353 -0.0999
 6711SOL    HW131062   3.738   3.092   2.830 -0.4325  0.0894  0.1835
 6711SOL    HW231063   3.720   2.932   2.800 -0.6780  0.1840 -0.1848
 6712SOL     OW31064   3.604   9.215   0.122  0.3821  0.2939  0.0041
 6712SOL    HW131065   3.565   9.246   0.208 -0.9438 -0.3671 -0.3426
 6712SOL    HW231066   3.697   9.182   0.137  0.6315  1.4067  0.9375
 6713SOL     OW31067   6.208   1.393   2.234 -0.5831  0.0250  0.4181
 6713SOL    HW131068   6.220   1.487   2.202 -0.1352  0.8058  2.8197
 6713SOL    HW231069   6.296   1.346   2.234 -0.4941  0.1886  0.9818
 6714SOL     OW31070   7.163   1.795   3.025 -0.0887  0.8058  1.0743
 6714SOL    HW131071   7.128   1.801   3.119 -0.5642  1.9490  0.8318
 6714SOL    HW231072   7.105   1.850   2.965  0.9838  1.1391  0.3343
 6715SOL     OW31073   4.445   3.882   1.087 -0.1330 -0.1210  0.1913
 6715SOL    HW131074   4.352   3.850   1.066 -0.4933  1.2541 -0.3983
 6715SOL    HW231075   4.477   3.839   1.171 -0.4876 -2.1991 -0.7016
 6716SOL     OW31076   3.619   4.381   0.851  0.1883 -0.4450  0.2770
 6716SOL    HW131077   3.556   4.312   0.816  0.7851 -0.5740 -0.5691
 6716SOL    HW231078   3.570   4.444   0.911 -0.7802 -0.4373 -0.5086
 6717SOL     OW31079   8.344   9.093   5.394 -0.3803 -0.5509 -0.0991
 6717SOL    HW131080   8.416   9.071   5.460  0.8095  0.1759 -1.1443
 6717SOL    HW231081   8.320   9.011   5.342  1.0565 -0.3763 -1.0669
 6718SOL     OW31082   9.668   0.995   3.858  0.1347 -0.2419 -0.1871
 6718SOL    HW131083   9.647   1.050   3.938 -0.8357  0.6165 -1.0224
 6718SOL    HW231084   9.612   0.912   3.859  1.1458 -0.9300  0.7429
 6719SOL     OW31085   4.699   0.641   0.966 -0.5405 -0.3995  0.7279
 6719SOL    HW131086   4.758   0.676   0.893 -1.2287 -0.0157  0.3495
 6719SOL    HW231087   4.647   0.717   1.005 -0.7010 -0.7197  1.1375
 6720SOL     OW31088   7.278   8.418   2.093 -0.2412 -0.0467 -0.1094
 6720SOL    HW131089   7.233   8.329   2.089  1.2121 -0.9486  2.4456
 6720SOL    HW231090   7.365   8.409   2.142  0.6656  2.4875 -1.1756
 6721SOL     OW31091   3.195   2.020   1.592 -0.0735  0.3460  0.3549
 6721SOL    HW131092   3.182   2.031   1.493 -1.0532 -0.8322  0.3469
 6721SOL    HW231093   3.149   2.095   1.640 -0.3461  0.4309 -0.0386
 6722SOL     OW31094   7.683   5.749   4.981 -0.6221  0.1158  0.2543
 6722SOL    HW131095   7.626   5.685   5.032 -1.4680  1.0858  0.5389
 6722SOL    HW231096   7.683   5.837   5.027 -1.1985  0.9345 -1.3047
 6723SOL     OW31097   9.669   7.415   2.597 -0.7025  0.5221 -0.1676
 6723SOL    HW131098   9.583   7.414   2.649 -0.2659 -1.3022  0.5533
 6723SOL    HW231099   9.733   7.351   2.638  0.5459  0.9047 -1.4935
 6724SOL     OW31100   4.335   6.893   2.478  0.0648  0.1873  0.2971
 6724SOL    HW131101   4.352   6.890   2.379 -1.0941 -0.3528  0.0973
 6724SOL    HW231102   4.319   6.800   2.512  1.5080  0.2538  1.2001
 6725SOL     OW31103   7.495   1.079   2.435  0.1649  0.2067 -0.3001
 6725SOL    HW131104   7.457   1.096   2.526 -0.0504  0.7760 -0.4929
 6725SOL    HW231105   7.524   1.166   2.395 -2.1307  0.2774 -1.8451
 6726SOL     OW31106   5.062   1.185   4.212  0.0366  0.0174  0.3500
 6726SOL    HW131107   5.122   1.243   4.157  0.1994 -0.7811 -0.3198
 6726SOL    HW231108   4.972   1.181   4.169 -0.7074  1.6972  1.6644
 6727SOL     OW31109   3.089   9.666   2.483  0.6194 -0.0776 -0.0391
 6727SOL    HW131110   2.998   9.653   2.523  0.1655  1.7090 -0.4263
 6727SOL    HW231111   3.085   9.645   2.385  1.4127 -3.1336  0.5318
 6728SOL     OW31112   2.850   9.127   2.719 -0.9520 -0.4603  0.1027
 6728SOL    HW131113   2.905   9.150   2.639 -1.7255  2.6628  0.4325
 6728SOL    HW231114   2.911   9.100   2.794  0.1357  2.1625  0.2082
 6729SOL     OW31115   2.730   4.287   0.031 -0.4621 -0.6233 -0.8311
 6729SOL    HW131116   2.759   4.311  -0.062  2.4424  1.2119  0.4856
 6729SOL    HW231117   2.792   4.219   0.069 -3.2363 -3.4393 -1.1533
 6730SOL     OW31118   4.383   9.687   4.759 -0.1102  0.3901  0.8526
 6730SOL    HW131119   4.449   9.621   4.794  0.2056  1.0000  1.4114
 6730SOL    HW231120   4.291   9.646   4.762  0.2043 -0.3606  0.3081
 6731SOL     OW31121   3.471   0.619   1.867  0.0703  0.6465  0.1274
 6731SOL    HW131122   3.413   0.583   1.794  1.5780  0.4784 -1.0058
 6731SOL    HW231123   3.490   0.715   1.850 -2.4797  1.5790  2.2074
 6732SOL     OW31124   9.882   0.730   2.862 -0.5802  0.6182  0.0675
 6732SOL    HW131125   9.925   0.674   2.791 -0.7017 -0.7192  1.0557
 6732SOL    HW231126   9.892   0.827   2.837  2.9503  0.3703  0.2235
 6733SOL     OW31127   1.195   7.786   1.573 -0.3043 -0.7140  0.3397
 6733SOL    HW131128   1.112   7.767   1.521 -1.0354  0.6886  0.9724
 6733SOL    HW231129   1.237   7.870   1.538 -0.4441 -0.1253  1.5869
 6734SOL     OW31130   0.074   4.978   4.853  0.5162 -0.7396 -0.3965
 6734SOL    HW131131   0.078   5.037   4.773  2.2363 -1.1474 -0.6201
 6734SOL    HW231132   0.159   4.985   4.905 -0.3149 -1.0011  1.0197
 6735SOL     OW31133   4.692   3.351   0.646 -0.0021  0.0047  0.0462
 6735SOL    HW131134   4.771   3.297   0.674  0.7593  1.2597  0.3772
 6735SOL    HW231135   4.673   3.335   0.549  0.2997 -0.7389  0.1071
 6736SOL     OW31136   8.148   3.380   1.365 -0.6155  0.2750 -0.5547
 6736SOL    HW131137   8.088   3.438   1.419 -0.3610  1.8757 -1.9676
 6736SOL    HW231138   8.221   3.343   1.423 -2.3019 -0.7914  0.9204
 6737SOL     OW31139   8.002   6.182   5.174  0.1084 -0.5262  0.0676
 6737SOL    HW131140   7.925   6.233   5.212 -0.4161 -0.5350 -0.9682
 6737SOL    HW231141   7.971   6.126   5.098  0.6298 -2.6821  1.4135
 6738SOL     OW31142   8.179   7.428   2.229  0.0018  0.5046 -0.8902
 6738SOL    HW131143   8.210   7.333   2.224  0.4054  0.5354  0.8114
 6738SOL    HW231144   8.144   7.456   2.140  0.4592 -1.0413 -1.5743
 6739SOL     OW31145   2.188   7.003   3.939  0.0955  0.4326 -0.3960
 6739SOL    HW131146   2.183   7.084   3.999  0.2067 -0.2424  0.5400
 6739SOL    HW231147   2.265   7.013   3.877  2.0791 -0.3437  1.8454
 6740SOL     OW31148   2.876   3.557   0.979  0.0701  0.2388 -0.0182
 6740SOL    HW131149   2.966   3.587   0.948 -0.1784  1.4298  0.3847
 6740SOL    HW231150   2.806   3.595   0.918 -0.2634  0.6999  0.6425
 6741SOL     OW31151   9.006   0.073   1.418  0.2496  0.3147 -0.1163
 6741SOL    HW131152   9.092   0.024   1.407  0.3355  0.5535 -0.5396
 6741SOL    HW231153   8.963   0.085   1.328 -0.0500  0.5069  0.0523
 6742SOL     OW31154   8.803   7.640   1.932 -0.6058  0.1560 -0.7680
 6742SOL    HW131155   8.732   7.614   1.866  1.1316  0.1359 -2.6861
 6742SOL    HW231156   8.785   7.733   1.964 -3.4468 -1.0968  1.5062
 6743SOL     OW31157   9.364   3.478   1.060 -0.1386 -0.2077 -0.6970
 6743SOL    HW131158   9.319   3.568   1.053 -2.2733 -1.1339  0.5638
 6743SOL    HW231159   9.331   3.419   0.986 -0.0726 -0.5078 -0.4861
 6744SOL     OW31160   0.195   7.180   4.646 -0.1797 -0.3154 -0.3025
 6744SOL    HW131161   0.251   7.264   4.646 -0.6285 -0.0203  0.5739
 6744SOL    HW231162   0.238   7.113   4.586  0.2038  0.5287 -0.9923
 6745SOL     OW31163   9.679   9.027   2.880 -0.3192 -0.1210  0.1404
 6745SOL    HW131164   9.641   9.043   2.971 -0.4894  2.0360 -0.2822
 6745SOL    HW231165   9.738   9.104   2.854 -0.5591 -0.5389 -1.7111
 6746SOL     OW31166   9.770   2.496   2.758  0.0875  0.3690  0.0874
 6746SOL    HW131167   9.792   2.493   2.855  0.6098  2.7331  0.0532
 6746SOL    HW231168   9.670   2.494   2.746 -0.0039  1.3272  0.7118
 6747SOL     OW31169   1.188   8.594   3.403  0.1081  0.1874 -0.2192
 6747SOL    HW131170   1.285   8.583   3.382  0.0814  2.9665 -2.0574
 6747SOL    HW231171   1.134   8.578   3.320 -0.7073  1.9899 -0.0742
 6748SOL     OW31172   2.491   5.531   4.482  0.0425  0.3125 -0.1126
 6748SOL    HW131173   2.421   5.544   4.552 -0.2154  0.8534 -0.4647
 6748SOL    HW231174   2.504   5.617   4.432  0.7494  0.1330 -0.2413
 6749SOL     OW31175   8.881   5.395   4.238 -0.7010 -1.0385  0.0745
 6749SOL    HW131176   8.814   5.335   4.194 -0.6758 -0.2663 -1.0382
 6749SOL    HW231177   8.834   5.465   4.291 -0.8423  0.4380 -1.9396
 6750SOL     OW31178   0.037   6.052   2.326  0.1421 -0.7397  0.0942
 6750SOL    HW131179   0.049   6.067   2.228 -1.0973  1.5616  0.2460
 6750SOL    HW231180   0.089   5.972   2.354  2.7674  0.1584 -1.9337
 6751SOL     OW31181   8.187   7.682   5.145 -0.0613  0.7016 -0.0640
 6751SOL    HW131182   8.173   7.781   5.152 -2.8501  0.3745 -0.4190
 6751SOL    HW231183   8.136   7.646   5.067 -0.8588 -1.3092  1.3185
 6752SOL     OW31184   5.207   1.956   3.224  0.1895  0.2541 -0.0642
 6752SOL    HW131185   5.153   2.015   3.162  0.3058 -0.3185 -0.7093
 6752SOL    HW231186   5.301   1.988   3.226  0.2147  0.1958 -0.2826
 6753SOL     OW31187   9.993   1.512   4.561 -0.2988 -0.1617  0.5059
 6753SOL    HW131188  10.060   1.565   4.509 -0.8103  0.4543  0.4693
 6753SOL    HW231189   9.916   1.487   4.501  0.7459 -2.4409  0.0607
 6754SOL     OW31190   0.529   6.902   3.933 -0.2341 -0.1600 -0.0772
 6754SOL    HW131191   0.598   6.881   4.002 -1.3702 -0.7723  0.8995
 6754SOL    HW231192   0.456   6.956   3.974 -0.9821 -0.6261 -0.7667
 6755SOL     OW31193   9.796   4.541   0.748  0.3582 -0.0171 -0.5432
 6755SOL    HW131194   9.863   4.616   0.745  1.6422 -1.1170 -0.1560
 6755SOL    HW231195   9.750   4.541   0.837 -0.1991  0.7677 -0.8241
 6756SOL     OW31196   3.632   3.116   1.024 -0.2511 -0.2462  0.6670
 6756SOL    HW131197   3.696   3.186   0.993 -0.9300  0.0902  0.0022
 6756SOL    HW231198   3.581   3.081   0.945 -1.2834 -0.1092  1.2721
 6757SOL     OW31199   9.580   1.608   0.309 -0.5173 -0.1737  0.0818
 6757SOL    HW131200   9.531   1.598   0.396  0.5753 -0.9321  0.6164
 6757SOL    HW231201   9.608   1.704   0.298  0.2156 -0.2664  1.0443
 6758SOL     OW31202   0.793   6.985   2.018 -0.0501 -0.0310  0.0415
 6758SOL    HW131203   0.850   7.031   1.950  0.3319  0.3148  0.5964
 6758SOL    HW231204   0.846   6.914   2.064  0.4902  1.4801  1.8192
 6759SOL     OW31205   2.388   1.148   2.443  0.4595  0.3992  0.1819
 6759SOL    HW131206   2.469   1.164   2.498  0.4556 -0.5573  0.4668
 6759SOL    HW231207   2.325   1.225   2.453  1.4521  1.2860 -0.2737
 6760SOL     OW31208   7.458   0.759   0.697  0.2013  0.5947 -0.1730
 6760SOL    HW131209   7.454   0.779   0.599  0.1347  2.2992  0.1462
 6760SOL    HW231210   7.465   0.845   0.748 -0.7168 -0.2100  1.3700
 6761SOL     OW31211   2.032   3.949   2.166  0.3748  0.3088 -0.3144
 6761SOL    HW131212   1.977   3.879   2.212  0.2001  0.9437  0.4546
 6761SOL    HW231213   2.009   3.952   2.069 -0.8089  0.4416 -0.0305
 6762SOL     OW31214   4.193   0.974   4.632 -0.6311 -0.0487 -0.0092
 6762SOL    HW131215   4.171   1.020   4.718 -0.7825  0.7667 -0.4747
 6762SOL    HW231216   4.292   0.958   4.627 -0.6084  0.0025  0.2637
 6763SOL     OW31217   9.646   1.784   3.822  0.2970 -0.3693 -0.2793
 6763SOL    HW131218   9.672   1.722   3.896  0.0738  0.7142  0.7298
 6763SOL    HW231219   9.679   1.876   3.844 -1.1079  0.2579 -0.8049
 6764SOL     OW31220   3.204   9.690   2.819 -0.0262 -0.3918 -0.3637
 6764SOL    HW131221   3.205   9.667   2.721 -0.1200  0.9118 -0.6842
 6764SOL    HW231222   3.133   9.759   2.836  1.0349  0.5522  0.3380
 6765SOL     OW31223   8.275   3.272   0.071 -0.2115 -0.1830 -0.7195
 6765SOL    HW131224   8.346   3.201   0.074 -0.3796 -0.2944  0.7335
 6765SOL    HW231225   8.284   3.332   0.150 -1.6648 -0.1264 -0.5851
 6766SOL     OW31226   2.618   2.611   4.379 -0.3710  0.0292  0.4471
 6766SOL    HW131227   2.605   2.694   4.325 -0.9546  0.2348  0.8941
 6766SOL    HW231228   2.624   2.532   4.318 -1.9505  0.1491  0.1144
 6767SOL     OW31229   9.154   4.908   4.549 -0.3488  0.3212  0.6068
 6767SOL    HW131230   9.068   4.909   4.600 -1.3905 -1.0367 -1.0637
 6767SOL    HW231231   9.140   4.861   4.461  1.7147  1.4757 -0.3678
 6768SOL     OW31232   8.395   3.745   3.548  0.1389  0.0197  0.3390
 6768SOL    HW131233   8.418   3.743   3.451  0.2755  0.2770  0.3639
 6768SOL    HW231234   8.312   3.692   3.564  0.5120 -0.6190  0.1917
 6769SOL     OW31235   2.853   5.206   0.586 -0.1197  0.0599 -0.1252
 6769SOL    HW131236   2.893   5.291   0.619 -1.7349  1.0818 -0.7601
 6769SOL    HW231237   2.842   5.142   0.662 -1.0549  1.2797  0.7820
 6770SOL     OW31238   1.729   6.432   3.427  0.0141 -0.3160  0.3017
 6770SOL    HW131239   1.697   6.519   3.389  0.6700  1.2174  3.1044
 6770SOL    HW231240   1.650   6.376   3.453 -0.4120 -0.3875 -1.1053
 6771SOL     OW31241   2.028   7.702   1.597 -0.4945  0.5430  0.7520
 6771SOL    HW131242   2.007   7.724   1.693 -0.3885  1.4199  0.5824
 6771SOL    HW231243   1.983   7.768   1.537 -1.8407 -0.9345  0.1143
 6772SOL     OW31244   1.628   9.931   0.057 -0.5858 -0.1265 -0.4228
 6772SOL    HW131245   1.698   9.920  -0.013 -0.2031 -1.5151  0.1576
 6772SOL    HW231246   1.650  10.010   0.114  0.8552 -0.8915  0.1213
 6773SOL     OW31247   3.825   6.304   1.502  0.1902  0.9591  0.6035
 6773SOL    HW131248   3.825   6.275   1.598  2.8414  0.0354  0.3509
 6773SOL    HW231249   3.904   6.362   1.485  0.0610  0.6307 -1.1948
 6774SOL     OW31250   1.806   4.390   5.473 -0.0526  0.0816  0.2771
 6774SOL    HW131251   1.812   4.389   5.573  3.2917 -1.9398  0.1305
 6774SOL    HW231252   1.880   4.447   5.436  0.3113 -1.2555 -1.0831
 6775SOL     OW31253   2.312   2.313   2.628  0.3047  0.3713 -0.0786
 6775SOL    HW131254   2.223   2.358   2.621 -0.5531 -1.0165  1.6201
 6775SOL    HW231255   2.368   2.361   2.696  1.0879  1.5567 -1.5129
 6776SOL     OW31256   8.793   4.262   2.810  0.1626 -0.3759 -0.0762
 6776SOL    HW131257   8.741   4.345   2.788 -1.7925 -1.6622 -0.4766
 6776SOL    HW231258   8.760   4.224   2.896  2.1633  0.1224  0.9394
 6777SOL     OW31259   7.812   6.371   3.249  0.2988 -0.1936 -0.5115
 6777SOL    HW131260   7.730   6.359   3.194  0.3404 -1.6920 -0.2614
 6777SOL    HW231261   7.799   6.327   3.338  2.0157 -1.9724 -1.1077
 6778SOL     OW31262   4.905   2.748   0.998 -0.0137 -0.5189  0.1916
 6778SOL    HW131263   5.003   2.733   1.009 -0.0277 -1.9392 -1.4550
 6778SOL    HW231264   4.858   2.727   1.084  0.9931 -0.8863  0.6635
 6779SOL     OW31265   0.056   9.708   5.593  0.5085  0.1859  0.1916
 6779SOL    HW131266   0.018   9.768   5.664  2.0015  0.8970  0.3961
 6779SOL    HW231267   0.027   9.741   5.503  0.9732  0.9590  0.3261
 6780SOL     OW31268   7.435   0.720   2.970  0.3536 -0.1516 -0.5318
 6780SOL    HW131269   7.481   0.742   3.056  0.2461 -0.0752 -0.4931
 6780SOL    HW231270   7.474   0.776   2.897 -1.2918  1.6188 -0.0661
 6781SOL     OW31271   9.437   0.744   5.296  0.2684 -0.6325  0.4084
 6781SOL    HW131272   9.484   0.802   5.363 -0.3265 -1.2395  1.3725
 6781SOL    HW231273   9.353   0.790   5.267  0.9437  0.0120 -0.5788
 6782SOL     OW31274   9.382   7.505   3.201  0.0641 -0.5806  0.4172
 6782SOL    HW131275   9.345   7.535   3.290  2.9752  0.9088  1.1854
 6782SOL    HW231276   9.434   7.421   3.214 -0.4279 -0.9656 -0.0975
 6783SOL     OW31277   1.250   2.082   0.503 -0.2377  0.0852  0.2142
 6783SOL    HW131278   1.200   2.060   0.419 -0.1781 -0.0647  0.2164
 6783SOL    HW231279   1.347   2.063   0.490 -0.1289  0.7363  0.0897
 6784SOL     OW31280   0.696   5.511   2.817 -0.3345 -0.1603  0.2406
 6784SOL    HW131281   0.649   5.541   2.734 -0.6824 -0.7912  0.2122
 6784SOL    HW231282   0.629   5.495   2.890  0.0660  1.6208  1.0369
 6785SOL     OW31283   0.355   6.295   4.316  0.3373  0.3595 -0.3459
 6785SOL    HW131284   0.452   6.273   4.313  0.6734  1.6444  0.7767
 6785SOL    HW231285   0.324   6.321   4.224  1.4846  1.7026 -0.3712
 6786SOL     OW31286   3.372   9.109   4.240  0.5427  0.2343 -0.0467
 6786SOL    HW131287   3.290   9.091   4.187 -0.2041  0.9107  0.8662
 6786SOL    HW231288   3.349   9.166   4.319  1.9332  0.6927  0.0414
 6787SOL     OW31289   7.086   0.157   2.219 -0.4289  0.0479 -0.1932
 6787SOL    HW131290   7.015   0.088   2.204 -0.8335  0.4314 -0.0758
 6787SOL    HW231291   7.045   0.248   2.216  0.1078  0.2883 -0.3889
 6788SOL     OW31292   4.605   5.636   1.565 -0.1841  0.5403 -0.9942
 6788SOL    HW131293   4.543   5.597   1.498 -1.8527  0.9341  0.2889
 6788SOL    HW231294   4.578   5.607   1.657 -0.0214  2.7392 -0.2054
 6789SOL     OW31295   8.062   2.234   1.025 -0.2141 -0.6759  0.3904
 6789SOL    HW131296   8.111   2.321   1.022 -0.1586 -0.7103  0.2998
 6789SOL    HW231297   8.118   2.163   0.984 -0.4088 -0.6818  0.1372
 6790SOL     OW31298   7.069   0.105   3.076  0.6181  0.6742  0.4994
 6790SOL    HW131299   7.034   0.063   2.993 -0.3302  2.0015  0.2243
 6790SOL    HW231300   6.998   0.105   3.146  1.4290 -0.4919  1.3416
 6791SOL     OW31301   8.153   9.140   4.838  0.4003 -0.2507 -0.1908
 6791SOL    HW131302   8.167   9.057   4.784 -1.8048 -1.2224  0.6644
 6791SOL    HW231303   8.095   9.119   4.916  0.3976  1.9672  0.4335
 6792SOL     OW31304   3.595   6.237   2.494 -0.3875  0.3039  0.8158
 6792SOL    HW131305   3.580   6.244   2.593  0.5060  2.1572  0.8366
 6792SOL    HW231306   3.582   6.327   2.452  0.9821 -0.1102 -0.5215
 6793SOL     OW31307   0.832   6.578   0.406 -0.2005  0.0278  0.0834
 6793SOL    HW131308   0.867   6.505   0.348 -0.2760  0.0775 -0.0254
 6793SOL    HW231309   0.871   6.666   0.377  0.0838 -0.0014  0.3726
 6794SOL     OW31310   6.424   8.919   3.383  0.3422 -0.0553  0.6186
 6794SOL    HW131311   6.436   9.017   3.369 -0.4590  0.1424  1.2736
 6794SOL    HW231312   6.344   8.903   3.441  1.1673 -1.0344  1.5189
 6795SOL     OW31313   2.595   5.368   0.939  0.2627 -0.3953  0.0851
 6795SOL    HW131314   2.553   5.292   0.889  1.0595 -0.0550 -1.1310
 6795SOL    HW231315   2.548   5.453   0.917  1.3812 -0.0559 -1.0653
 6796SOL     OW31316   0.338   9.105   4.288 -0.0779  0.0761  0.3901
 6796SOL    HW131317   0.327   9.179   4.221 -1.1890 -0.4982 -0.0967
 6796SOL    HW231318   0.259   9.044   4.282  1.9920 -2.5843 -1.0017
 6797SOL     OW31319   8.851   3.497   3.098 -0.5204 -0.4627 -0.0772
 6797SOL    HW131320   8.810   3.541   3.178 -1.2821  0.7596 -1.1380
 6797SOL    HW231321   8.910   3.562   3.051 -1.5847 -0.5979 -1.6153
 6798SOL     OW31322   2.635   9.022   2.316 -0.0009 -0.3309 -0.0475
 6798SOL    HW131323   2.679   9.112   2.316 -1.1361  0.2564 -0.9362
 6798SOL    HW231324   2.539   9.033   2.289 -0.0304 -1.8666 -0.6255
 6799SOL     OW31325   0.611   7.615   5.101  0.4803  0.1749 -0.2829
 6799SOL    HW131326   0.597   7.667   5.186 -0.4324 -1.0041  0.2976
 6799SOL    HW231327   0.707   7.588   5.095  0.2963 -0.8045  1.0006
 6800SOL     OW31328   8.745   6.119   1.087 -0.2250 -0.0751 -0.0259
 6800SOL    HW131329   8.741   6.199   1.146  0.5845 -0.1480  0.1305
 6800SOL    HW231330   8.840   6.096   1.068 -0.4677 -0.4891 -0.7642
 6801SOL     OW31331   9.416   3.470   4.564 -0.0680 -0.3603 -0.0601
 6801SOL    HW131332   9.471   3.490   4.483 -1.3460 -0.8768 -1.0785
 6801SOL    HW231333   9.344   3.404   4.539 -0.1489 -0.9177  1.6131
 6802SOL     OW31334   2.058   2.688   3.112  0.6109 -0.1458 -0.1516
 6802SOL    HW131335   2.056   2.598   3.067  3.1646 -1.3334  1.9800
 6802SOL    HW231336   1.976   2.698   3.168 -0.7151 -0.2513 -2.0325
 6803SOL     OW31337   0.651   8.417   4.418  0.1962 -0.1082  0.1776
 6803SOL    HW131338   0.618   8.510   4.431  0.0485 -0.2608  0.9170
 6803SOL    HW231339   0.590   8.353   4.465 -0.3194 -0.6682 -1.2371
 6804SOL     OW31340   8.242   2.028   2.793  0.0829  0.0275 -0.1349
 6804SOL    HW131341   8.246   1.997   2.698  0.4805  2.1033 -0.8242
 6804SOL    HW231342   8.160   2.084   2.806  0.9743  1.2786  0.2344
 6805SOL     OW31343   1.695   7.611   3.264 -0.0267  0.4844 -0.2566
 6805SOL    HW131344   1.792   7.604   3.239 -0.1121  0.7192 -0.6537
 6805SOL    HW231345   1.684   7.585   3.360  0.6001  1.6138  0.1246
 6806SOL     OW31346   4.145   1.724   0.908 -0.0503  0.2189  0.0979
 6806SOL    HW131347   4.123   1.634   0.945  0.9992 -1.1495 -2.4840
 6806SOL    HW231348   4.240   1.747   0.930  0.1153  0.0789 -0.4921
 6807SOL     OW31349   5.131   3.725   1.337 -0.1497 -0.0563 -0.6112
 6807SOL    HW131350   5.163   3.712   1.243  0.5697 -0.1972 -0.3516
 6807SOL    HW231351   5.063   3.656   1.360  1.2293 -1.3513 -0.3292
 6808SOL     OW31352   4.076   4.827   1.080 -0.0395  0.6150 -0.5835
 6808SOL    HW131353   4.099   4.909   1.028 -0.8792  0.9759 -0.3860
 6808SOL    HW231354   4.021   4.765   1.023  1.0509 -0.0683 -0.9191
 6809SOL     OW31355   2.462   9.298   5.266 -0.6853 -0.1381  0.1357
 6809SOL    HW131356   2.526   9.240   5.217 -1.3904  0.0908 -1.0828
 6809SOL    HW231357   2.439   9.257   5.354  1.5169  0.0404  0.8042
 6810SOL     OW31358   0.067   7.953   2.671 -0.2487  0.0534  0.1733
 6810SOL    HW131359   0.052   7.975   2.767  1.5775  0.6365  0.3502
 6810SOL    HW231360   0.131   7.876   2.664  0.1480  0.4407 -0.5605
 6811SOL     OW31361   2.063   4.197   3.467  0.3816 -0.2939 -0.4077
 6811SOL    HW131362   2.116   4.217   3.550  0.0022  1.7006 -0.6206
 6811SOL    HW231363   2.068   4.099   3.448  1.7492 -0.5566  1.1028
 6812SOL     OW31364   9.730   3.789   4.979 -0.2469 -0.3366  0.1013
 6812SOL    HW131365   9.637   3.815   4.955 -0.5156 -0.3159  1.1482
 6812SOL    HW231366   9.768   3.855   5.043  1.1916  0.7222 -1.8002
 6813SOL     OW31367   8.509   8.390   3.899  0.2143  0.5692  0.3364
 6813SOL    HW131368   8.433   8.416   3.840 -0.7116 -1.0116  0.8206
 6813SOL    HW231369   8.558   8.472   3.928 -0.3590  1.4849 -1.2286
 6814SOL     OW31370   3.922   2.658   2.182  0.1847 -0.1010  0.0299
 6814SOL    HW131371   3.986   2.675   2.108  0.8759 -1.6864  0.2348
 6814SOL    HW231372   3.918   2.738   2.242  0.8992  0.5376 -0.7613
 6815SOL     OW31373   3.395   8.273   5.437  0.4726  0.1758  0.1228
 6815SOL    HW131374   3.310   8.256   5.388  1.0560  0.7085 -1.1151
 6815SOL    HW231375   3.458   8.322   5.376  1.6395 -0.1821  1.0355
 6816SOL     OW31376   8.203   1.435   0.122  0.1184 -0.3725 -0.3651
 6816SOL    HW131377   8.282   1.474   0.170 -1.5103  1.5068  0.8724
 6816SOL    HW231378   8.234   1.364   0.059  2.6584 -0.5718  1.0401
 6817SOL     OW31379   9.553   9.886   3.545 -0.1524 -0.6912  0.5040
 6817SOL    HW131380   9.601   9.866   3.460 -0.6278 -2.7626  0.7139
 6817SOL    HW231381   9.460   9.917   3.524 -0.2896 -1.2603  0.2724
 6818SOL     OW31382   7.247   0.708   1.975 -0.0348 -0.2073  0.4528
 6818SOL    HW131383   7.274   0.758   2.056 -0.6399 -0.9161  1.1036
 6818SOL    HW231384   7.201   0.623   2.002  1.5536 -1.4416 -0.6197
 6819SOL     OW31385   8.063   1.697   3.602  0.2716 -0.3880 -0.2315
 6819SOL    HW131386   8.135   1.642   3.559 -1.1854 -0.9330 -1.9799
 6819SOL    HW231387   8.057   1.786   3.556 -1.1583 -0.9010 -1.0536
 6820SOL     OW31388   0.278   2.501   4.736  0.0378  0.4306 -0.6216
 6820SOL    HW131389   0.231   2.453   4.811  1.0312 -0.2414 -0.4276
 6820SOL    HW231390   0.367   2.460   4.721 -0.5677 -0.0931 -2.8814
 6821SOL     OW31391   4.177   1.471   2.458  0.2649 -0.1038  0.0339
 6821SOL    HW131392   4.103   1.532   2.485 -1.5114 -1.6931 -1.0879
 6821SOL    HW231393   4.185   1.397   2.524 -0.9988 -1.4345 -1.2645
 6822SOL     OW31394   4.154   2.678   1.219  0.2400  0.1883  0.5190
 6822SOL    HW131395   4.178   2.646   1.311  0.1044 -1.6387 -0.0711
 6822SOL    HW231396   4.057   2.664   1.203 -0.4483  3.5481  1.2781
 6823SOL     OW31397   1.671   1.028   0.257  0.2666  0.1083 -0.0707
 6823SOL    HW131398   1.613   1.091   0.204  0.5998  1.3243  0.9980
 6823SOL    HW231399   1.614   0.976   0.321 -0.2647 -1.9795 -2.1524
 6824SOL     OW31400   5.181   1.183   3.546  0.0946  0.3913 -0.2240
 6824SOL    HW131401   5.122   1.119   3.595  0.2287  0.1090 -0.4286
 6824SOL    HW231402   5.154   1.188   3.450  1.3095 -0.8497 -0.6560
 6825SOL     OW31403   3.449   7.750   0.294  0.5110 -0.1329  0.2222
 6825SOL    HW131404   3.485   7.695   0.369 -1.5345 -0.2426  1.1785
 6825SOL    HW231405   3.450   7.847   0.320 -0.1751 -0.1687  0.3955
 6826SOL     OW31406   8.208   9.387   2.783  0.0442  0.2667 -0.3607
 6826SOL    HW131407   8.220   9.477   2.741  1.5926 -0.5646 -1.7583
 6826SOL    HW231408   8.282   9.371   2.848  0.1534 -0.2656 -0.6155
 6827SOL     OW31409   0.686   4.950   1.517 -0.0550 -0.5305 -0.2970
 6827SOL    HW131410   0.694   5.028   1.579  3.1452 -0.3477 -0.8766
 6827SOL    HW231411   0.714   4.866   1.564 -0.4187 -0.8484 -0.6356
 6828SOL     OW31412   0.423   8.019   5.305 -0.8117 -0.5569 -0.1347
 6828SOL    HW131413   0.450   8.045   5.212 -0.3042  0.5504  0.3097
 6828SOL    HW231414   0.335   7.971   5.302 -2.6576  2.6787 -0.8586
 6829SOL     OW31415   1.616   6.835   5.400 -0.4397 -0.6119 -0.0918
 6829SOL    HW131416   1.608   6.849   5.498  0.0497 -2.2278  0.2002
 6829SOL    HW231417   1.633   6.738   5.381  1.3442 -0.0494 -1.6355
 6830SOL     OW31418   3.754   4.801   1.970 -0.1892 -0.3758  0.0467
 6830SOL    HW131419   3.693   4.878   1.950 -0.1451 -0.3034  0.1893
 6830SOL    HW231420   3.835   4.807   1.912  0.6215  0.6477  1.2431
 6831SOL     OW31421   2.978   4.344   1.385 -0.2320  0.5088 -0.1233
 6831SOL    HW131422   3.043   4.269   1.377  2.6846  2.7253  1.8077
 6831SOL    HW231423   2.952   4.375   1.293  0.3531 -1.2719 -0.9242
 6832SOL     OW31424   0.516   8.197   0.076 -0.0078  0.1333 -0.2155
 6832SOL    HW131425   0.545   8.121   0.017  1.1521 -0.7321  1.4315
 6832SOL    HW231426   0.587   8.268   0.075  0.5566 -0.4065  1.0418
 6833SOL     OW31427   8.816   8.839   3.846 -0.0691  0.0892  0.0270
 6833SOL    HW131428   8.830   8.933   3.876  1.2369  0.0017 -0.2463
 6833SOL    HW231429   8.803   8.780   3.926  0.3714  0.3153  0.2680
 6834SOL     OW31430   8.597   3.261   4.741  0.5009 -0.9960 -0.2233
 6834SOL    HW131431   8.570   3.212   4.658  1.9835 -1.5834 -0.3833
 6834SOL    HW231432   8.673   3.322   4.720 -0.4239  0.3466  0.2898
 6835SOL     OW31433   9.955   9.487   3.476 -0.0517 -0.8656 -0.1400
 6835SOL    HW131434   9.989   9.436   3.555  0.4042  1.4732  1.2271
 6835SOL    HW231435  10.019   9.476   3.400  0.8685 -1.0301  0.6467
 6836SOL     OW31436   1.551   5.476   0.255 -0.0257 -0.0532  0.8172
 6836SOL    HW131437   1.540   5.417   0.174 -0.9137  0.2698  0.6974
 6836SOL    HW231438   1.625   5.541   0.239 -0.1562 -0.0324  0.2825
 6837SOL     OW31439   0.597   1.670   1.061  0.4287 -0.0942 -0.1582
 6837SOL    HW131440   0.583   1.713   0.972 -0.1913  0.5374  0.2355
 6837SOL    HW231441   0.531   1.596   1.073  0.7547 -0.4184 -0.3771
 6838SOL     OW31442   8.311   5.017   0.343 -0.0402  0.2198  0.0834
 6838SOL    HW131443   8.327   5.006   0.245  0.6449  0.5367  0.1563
 6838SOL    HW231444   8.292   5.114   0.362  2.7300  0.6686  0.6677
 6839SOL     OW31445   9.330   7.308   5.506  0.4201  0.0124 -0.3203
 6839SOL    HW131446   9.344   7.310   5.605 -1.7045 -0.7363  0.0175
 6839SOL    HW231447   9.390   7.376   5.463  1.7164  0.0039  1.4195
 6840SOL     OW31448   9.078   1.159   5.173  0.0630  0.1977  0.0780
 6840SOL    HW131449   9.102   1.126   5.082 -1.0534  0.5711 -0.3534
 6840SOL    HW231450   9.144   1.230   5.201  0.4331  0.0491 -0.4162
 6841SOL     OW31451   2.257   5.205   3.924 -0.2844 -0.3381  0.4601
 6841SOL    HW131452   2.288   5.206   3.829  0.8973  1.2036  0.8486
 6841SOL    HW231453   2.328   5.164   3.981 -0.4938 -0.1648  0.8442
 6842SOL     OW31454   6.215   1.137   4.350 -0.3965  0.0814 -0.2230
 6842SOL    HW131455   6.252   1.059   4.400  0.4774 -0.2774 -1.4034
 6842SOL    HW231456   6.288   1.201   4.329 -0.8196  0.4093 -0.7137
 6843SOL     OW31457   1.483   9.118   1.296 -0.4082  0.2552 -0.1235
 6843SOL    HW131458   1.445   9.079   1.379  2.0531  1.1781  1.5018
 6843SOL    HW231459   1.528   9.046   1.243 -1.0375 -0.1367 -0.1349
 6844SOL     OW31460   3.190   7.856   0.644 -0.0509 -0.3558  0.0255
 6844SOL    HW131461   3.176   7.954   0.628 -0.4554 -0.4864 -0.4732
 6844SOL    HW231462   3.103   7.814   0.669  0.3386 -0.3953  1.3143
 6845SOL     OW31463   3.628   9.224   0.818 -0.2930 -0.3522 -0.5933
 6845SOL    HW131464   3.530   9.203   0.824 -0.1806 -0.1746  2.7603
 6845SOL    HW231465   3.675   9.184   0.896  1.5996  3.2732  0.2088
 6846SOL     OW31466   7.770   8.969   3.723  0.1179 -0.4219  0.0865
 6846SOL    HW131467   7.710   8.916   3.664  0.9531 -0.8440 -0.3948
 6846SOL    HW231468   7.728   9.058   3.742 -0.0756 -0.2127 -1.2834
 6847SOL     OW31469   3.136   2.753   3.765  0.6638  0.1373 -0.2153
 6847SOL    HW131470   3.202   2.720   3.697  0.5268 -0.8759  0.1302
 6847SOL    HW231471   3.183   2.769   3.852  0.5876  0.1113 -0.1691
 6848SOL     OW31472   4.980   2.550   2.455  0.2845  0.1403  0.2910
 6848SOL    HW131473   4.905   2.615   2.438  1.3766  1.2819 -0.3055
 6848SOL    HW231474   5.030   2.577   2.537  0.6190 -0.0670  0.1572
 6849SOL     OW31475   3.235   4.924   2.532  0.5574 -0.5351  0.1210
 6849SOL    HW131476   3.146   4.922   2.485  0.2179  0.7814  0.6895
 6849SOL    HW231477   3.254   4.833   2.570 -0.3580 -0.9348 -0.3514
 6850SOL     OW31478   5.776   1.945   2.988  0.3358  0.1175  0.8281
 6850SOL    HW131479   5.841   2.012   2.953  0.8462 -0.2082  1.1571
 6850SOL    HW231480   5.717   1.914   2.913 -0.0091  1.0484  0.7084
 6851SOL     OW31481   8.835   7.317   0.633  0.7420  0.2921 -0.2185
 6851SOL    HW131482   8.775   7.255   0.683  0.2732 -0.0432 -1.1676
 6851SOL    HW231483   8.928   7.280   0.634  0.7408  0.2970  0.4111
 6852SOL     OW31484   3.572   2.690   4.926  0.0905 -0.6388  0.2139
 6852SOL    HW131485   3.554   2.745   4.845  1.0137 -1.4431 -0.5499
 6852SOL    HW231486   3.499   2.623   4.938 -0.5022  0.0632  0.5596
 6853SOL     OW31487   4.370   4.415   3.446 -0.3654  0.0465 -0.7418
 6853SOL    HW131488   4.374   4.343   3.376  0.4260 -0.6356 -0.0150
 6853SOL    HW231489   4.463   4.437   3.477 -0.7201  0.1708  0.2557
 6854SOL     OW31490   0.168   9.909   1.105 -0.2568  0.0831  0.3172
 6854SOL    HW131491   0.186   9.894   1.007  0.8019  1.9559  0.1898
 6854SOL    HW231492   0.069   9.918   1.119 -0.2941  2.1174 -0.9742
 6855SOL     OW31493   4.250   4.536   1.307 -0.0901  0.2020  0.7364
 6855SOL    HW131494   4.289   4.606   1.247 -0.6076  0.3864  0.6068
 6855SOL    HW231495   4.264   4.446   1.266 -0.6904  0.3523  0.1972
 6856SOL     OW31496   5.108   8.984   4.839 -0.0185 -0.2367  0.5929
 6856SOL    HW131497   5.180   8.926   4.800 -0.0175 -0.5393  1.0384
 6856SOL    HW231498   5.121   8.990   4.938 -0.8300 -0.6033  0.7240
 6857SOL     OW31499   9.266   1.558   4.346  0.2119  0.0250 -0.3669
 6857SOL    HW131500   9.285   1.600   4.257  0.1272 -1.2612 -1.0063
 6857SOL    HW231501   9.167   1.549   4.357  0.1508  1.8173  0.6366
 6858SOL     OW31502   9.755   8.137   0.487  0.4215  0.2399  0.8824
 6858SOL    HW131503   9.780   8.135   0.390 -2.9728 -1.9057 -0.0307
 6858SOL    HW231504   9.711   8.224   0.508 -0.6391 -0.0523 -0.0401
 6859SOL     OW31505   3.193   6.157   3.436 -0.0031  0.2502 -0.2507
 6859SOL    HW131506   3.128   6.149   3.361 -1.6594 -0.2165  1.1825
 6859SOL    HW231507   3.200   6.253   3.465 -0.4172  0.2361 -0.1031
 6860SOL     OW31508   8.926   6.066   4.456 -0.2352 -0.4413 -0.1362
 6860SOL    HW131509   8.955   6.068   4.361  0.9039 -0.8691  0.1893
 6860SOL    HW231510   8.883   6.153   4.480  3.0745  1.2342  0.0250
 6861SOL     OW31511   8.622   8.448   1.778  0.2404 -0.1893  0.2946
 6861SOL    HW131512   8.631   8.404   1.688 -1.3419  0.2423 -0.0852
 6861SOL    HW231513   8.665   8.538   1.776  1.4924 -0.7762  0.4067
 6862SOL     OW31514   8.295   6.803   3.801 -0.4693 -0.1713  0.2410
 6862SOL    HW131515   8.357   6.858   3.859 -1.7326 -0.5785  2.0202
 6862SOL    HW231516   8.227   6.758   3.859 -1.8835 -0.4590 -1.6098
 6863SOL     OW31517   5.434   6.765   1.777  0.3150  0.0681  0.2422
 6863SOL    HW131518   5.395   6.768   1.868  0.0300  1.2128  0.0873
 6863SOL    HW231519   5.375   6.814   1.713  1.2127  0.4752 -0.2915
 6864SOL     OW31520   1.758   4.170   1.111 -0.1846 -0.0643 -0.3898
 6864SOL    HW131521   1.714   4.159   1.200  1.6929  0.2899  0.6167
 6864SOL    HW231522   1.692   4.152   1.038 -1.7700 -0.2692  1.0694
 6865SOL     OW31523   0.996   9.093   0.024  0.2875  0.0388  0.7169
 6865SOL    HW131524   1.004   9.193   0.021  1.9323 -0.1177 -1.0135
 6865SOL    HW231525   0.902   9.068   0.047 -0.2288  1.9750  0.8247
 6866SOL     OW31526   3.389   4.244   5.265 -0.1100 -0.3501  0.0798
 6866SOL    HW131527   3.394   4.344   5.261 -0.3599 -0.3549 -0.3283
 6866SOL    HW231528   3.311   4.217   5.320 -0.1950 -0.3251 -0.0296
 6867SOL     OW31529   6.060   2.221   2.733 -0.5258  0.2744  0.0617
 6867SOL    HW131530   6.071   2.160   2.811 -0.3584  0.2980  0.0552
 6867SOL    HW231531   6.041   2.313   2.765  1.2432  0.6350  0.0959
 6868SOL     OW31532   9.697   9.879   3.903 -0.0997  0.0784  0.1490
 6868SOL    HW131533   9.778   9.820   3.904 -0.5783 -0.5579  2.1042
 6868SOL    HW231534   9.623   9.833   3.853  0.3954  0.2219 -0.7323
 6869SOL     OW31535   9.632   3.105   2.901 -0.4844 -0.2096  0.2072
 6869SOL    HW131536   9.655   3.028   2.961  0.8506  0.2699  0.3257
 6869SOL    HW231537   9.642   3.077   2.806 -3.5003 -1.2537  0.1372
 6870SOL     OW31538   6.555   0.273   1.902 -0.2158 -0.2983 -0.1895
 6870SOL    HW131539   6.491   0.304   1.973  0.4599 -0.0080  0.3007
 6870SOL    HW231540   6.566   0.346   1.834  1.3912  0.5857  0.9757
 6871SOL     OW31541   1.879   2.719   0.490 -0.1568  0.3577 -0.0460
 6871SOL    HW131542   1.978   2.735   0.488 -0.0403 -0.3679 -0.3809
 6871SOL    HW231543   1.844   2.734   0.583  0.0144  2.0579 -0.2488
 6872SOL     OW31544   9.839   6.646   4.976  0.1144 -0.6335  0.1752
 6872SOL    HW131545   9.788   6.633   5.061  0.2270  0.2561  0.3815
 6872SOL    HW231546   9.910   6.577   4.969 -0.0200 -0.8304  0.7176
 6873SOL     OW31547   1.502   8.683   2.526  0.6612 -0.4927  0.1523
 6873SOL    HW131548   1.531   8.644   2.613 -0.1216 -1.8923 -0.2010
 6873SOL    HW231549   1.415   8.643   2.498  0.1282  1.0907 -0.5133
 6874SOL     OW31550   1.776   0.444   3.645 -0.4092 -0.7110 -0.1504
 6874SOL    HW131551   1.871   0.417   3.658 -0.5085 -0.8210  0.3603
 6874SOL    HW231552   1.762   0.536   3.683 -0.0802  0.0684 -1.8480
 6875SOL     OW31553   0.626   7.289   1.922  0.4988  0.0817  0.1733
 6875SOL    HW131554   0.609   7.349   2.000  0.4006  0.9958 -0.5398
 6875SOL    HW231555   0.545   7.236   1.902 -0.5262  2.1029 -1.2283
 6876SOL     OW31556   3.750   3.261   2.730 -0.8999 -0.0059  0.3017
 6876SOL    HW131557   3.784   3.231   2.641 -3.2746 -1.7230 -0.0830
 6876SOL    HW231558   3.826   3.275   2.793  0.5185 -3.2286 -0.6491
 6877SOL     OW31559   7.783   9.967   1.398  0.3026 -0.1285  0.3749
 6877SOL    HW131560   7.695  10.012   1.383  0.0856 -0.3404  1.0231
 6877SOL    HW231561   7.789   9.936   1.493  0.9498 -0.3878  0.2491
 6878SOL     OW31562   6.482   8.427   2.757  0.3207 -0.2123 -0.5416
 6878SOL    HW131563   6.496   8.449   2.854 -1.6995 -0.1700 -0.2427
 6878SOL    HW231564   6.571   8.426   2.710  1.2782  0.1764  1.2129
 6879SOL     OW31565   3.350   3.638   4.772  0.5212 -0.1835  0.6800
 6879SOL    HW131566   3.256   3.659   4.745  1.3975  1.1266 -1.5253
 6879SOL    HW231567   3.352   3.609   4.868 -2.1196 -0.2912  0.7355
 6880SOL     OW31568   2.188   3.251   1.325 -0.5847 -0.0787  0.1699
 6880SOL    HW131569   2.114   3.227   1.262 -1.5168  0.4982  1.0418
 6880SOL    HW231570   2.254   3.310   1.278 -1.7642  1.1333 -0.0063
 6881SOL     OW31571   4.891   2.219   3.755  0.3221  0.4478  0.4254
 6881SOL    HW131572   4.926   2.240   3.846  0.1304  0.7236  0.4362
 6881SOL    HW231573   4.791   2.230   3.754  0.5358  2.4970 -0.3713
 6882SOL     OW31574   1.789   2.601   1.751 -0.3036  0.0420  0.2225
 6882SOL    HW131575   1.883   2.575   1.774 -0.5398 -2.6349 -1.5913
 6882SOL    HW231576   1.770   2.693   1.785  3.3739  1.1196 -0.4682
 6883SOL     OW31577   4.158   6.886   1.482  0.3479 -0.2184  0.6873
 6883SOL    HW131578   4.145   6.803   1.537  0.5012 -0.7524 -0.0867
 6883SOL    HW231579   4.070   6.916   1.445  0.4689 -0.6478  0.0677
 6884SOL     OW31580   8.886   1.495   1.945 -0.0833 -0.3111 -0.2019
 6884SOL    HW131581   8.905   1.436   1.866  0.6788  0.5732 -0.6718
 6884SOL    HW231582   8.851   1.583   1.913 -3.5646 -1.3415  0.5744
 6885SOL     OW31583   3.899   3.661   2.406 -0.5807 -0.2925  0.2886
 6885SOL    HW131584   3.947   3.692   2.489 -1.0596  1.4306 -0.0493
 6885SOL    HW231585   3.812   3.619   2.432  0.5490 -2.3949  0.8242
 6886SOL     OW31586   4.289   8.791   0.057 -0.4873  0.2062 -0.0650
 6886SOL    HW131587   4.305   8.750   0.147  0.9875 -1.2273 -0.9491
 6886SOL    HW231588   4.375   8.827   0.021 -0.8737 -0.0352 -1.2748
 6887SOL     OW31589   3.816   7.989   3.316  0.5840  0.2763 -0.1176
 6887SOL    HW131590   3.762   8.073   3.316  0.2646  0.0751  0.3366
 6887SOL    HW231591   3.857   7.975   3.226  0.4480  0.7959 -0.2588
 6888SOL     OW31592   9.593   1.253   4.514 -0.7420  0.1709 -0.2021
 6888SOL    HW131593   9.582   1.271   4.612 -1.1802 -0.1796 -0.1871
 6888SOL    HW231594   9.542   1.170   4.489 -0.7577  0.3459 -0.7576
 6889SOL     OW31595   0.522   5.630   1.774 -0.0699 -0.0143 -0.1271
 6889SOL    HW131596   0.617   5.631   1.804  0.1759  0.9618 -0.9292
 6889SOL    HW231597   0.506   5.551   1.715  0.2283 -0.1930  0.0310
 6890SOL     OW31598   9.059   5.321   5.373  0.0910 -0.4532 -0.0612
 6890SOL    HW131599   9.000   5.255   5.327  2.0378 -1.7916 -0.7219
 6890SOL    HW231600   9.071   5.401   5.314 -1.4190  0.0406  0.2827
 6891SOL     OW31601   0.305   0.682   3.858 -0.5714 -0.1517 -0.1466
 6891SOL    HW131602   0.338   0.592   3.827  1.6601  0.6708 -0.2686
 6891SOL    HW231603   0.208   0.676   3.879 -1.0643 -1.9729 -2.6257
 6892SOL     OW31604   9.512   2.124   0.922 -0.2867  0.1281 -0.0624
 6892SOL    HW131605   9.444   2.067   0.969 -0.1174 -0.0773 -0.0665
 6892SOL    HW231606   9.498   2.220   0.947  0.5031 -0.0944  1.2746
 6893SOL     OW31607   7.788   3.820   1.046  0.6409  0.2337 -0.5622
 6893SOL    HW131608   7.778   3.816   0.947  1.5121 -0.4981 -0.6166
 6893SOL    HW231609   7.883   3.808   1.071  0.3485 -0.0986  0.4014
 6894SOL     OW31610   1.081   5.549   3.923  0.3604  0.3752  0.3471
 6894SOL    HW131611   1.015   5.616   3.890  0.6859  0.5307  0.0043
 6894SOL    HW231612   1.066   5.462   3.876 -0.1421  0.1753  0.8829
 6895SOL     OW31613   3.981   7.956   1.840 -0.2831 -0.1043  0.3022
 6895SOL    HW131614   3.996   8.053   1.859  1.1148 -0.3060  0.2493
 6895SOL    HW231615   4.062   7.904   1.865 -0.6279 -1.1330 -0.6766
 6896SOL     OW31616   7.995   4.143   5.468  0.1241  0.0813 -0.2813
 6896SOL    HW131617   8.033   4.055   5.441 -0.6892 -0.3911  0.1202
 6896SOL    HW231618   8.069   4.203   5.499  0.4157 -1.2356  1.6405
 6897SOL     OW31619   5.789   0.353   1.791 -0.0648  0.8383 -0.5162
 6897SOL    HW131620   5.814   0.292   1.866 -1.2945  1.7394  0.6406
 6897SOL    HW231621   5.728   0.304   1.728  0.0536  0.4423 -0.3266
 6898SOL     OW31622   2.977   2.499   4.095 -0.2803  0.1038  0.6014
 6898SOL    HW131623   2.936   2.410   4.113 -0.6115  0.0822 -0.2505
 6898SOL    HW231624   2.979   2.516   3.997  0.1071  0.8836  0.7368
 6899SOL     OW31625   2.831   8.858   2.420 -0.9290  0.0842  0.2265
 6899SOL    HW131626   2.897   8.836   2.349  0.3875  3.6071  0.2651
 6899SOL    HW231627   2.753   8.905   2.379 -0.5242  1.4341  0.9697
 6900SOL     OW31628   3.003   2.075   3.990  0.3328  0.3183 -0.5551
 6900SOL    HW131629   2.973   2.010   4.059 -0.1032 -0.7606 -1.7332
 6900SOL    HW231630   3.080   2.037   3.939  0.8419  1.2211 -0.4600
 6901SOL     OW31631   4.732   0.842   0.311 -0.6428 -0.2493  0.3259
 6901SOL    HW131632   4.702   0.756   0.353  1.2280 -1.1527 -0.1528
 6901SOL    HW231633   4.725   0.835   0.212 -1.0347  0.3810  0.3018
 6902SOL     OW31634   4.407   0.662   4.133  0.1321  0.1852  0.1915
 6902SOL    HW131635   4.392   0.581   4.076 -0.1407  0.1877  0.2568
 6902SOL    HW231636   4.416   0.634   4.229  1.7098  0.0736  0.0178
 6903SOL     OW31637   2.688   1.376   4.210 -0.2694 -0.3072 -0.1878
 6903SOL    HW131638   2.667   1.355   4.114 -1.5847  2.3606 -0.5255
 6903SOL    HW231639   2.608   1.360   4.267  0.8747 -3.1265  0.7468
 6904SOL     OW31640   2.630   9.786   4.864 -0.0699 -0.9332 -0.8981
 6904SOL    HW131641   2.587   9.856   4.806 -1.8800 -2.1227 -1.0312
 6904SOL    HW231642   2.722   9.815   4.888 -1.2851  2.1564  0.2267
 6905SOL     OW31643   4.523   5.938   2.546 -0.7644  1.0415 -0.3787
 6905SOL    HW131644   4.510   5.958   2.449  0.2568  1.8355 -0.3559
 6905SOL    HW231645   4.550   5.842   2.556  2.5400  1.8302 -1.1883
 6906SOL     OW31646   2.316   7.734   3.216  0.4509 -0.6354 -0.1690
 6906SOL    HW131647   2.354   7.808   3.160  1.8202 -0.6230  0.7624
 6906SOL    HW231648   2.217   7.748   3.227  0.3481 -0.0445 -1.6617
 6907SOL     OW31649   6.488   0.287   3.714 -0.3442 -0.2989 -0.4477
 6907SOL    HW131650   6.528   0.330   3.795 -1.1064 -0.1595 -0.1435
 6907SOL    HW231651   6.534   0.199   3.697  1.1727  0.5848 -1.0432
 6908SOL     OW31652   9.318   6.671   0.041  0.0985  0.0228  0.2142
 6908SOL    HW131653   9.311   6.742   0.111 -0.5183 -0.8063  1.0152
 6908SOL    HW231654   9.407   6.677  -0.004 -0.4703  2.1224 -0.6405
 6909SOL     OW31655   2.263   7.761   1.243 -0.1846 -0.0721 -0.6271
 6909SOL    HW131656   2.340   7.778   1.304 -0.3723 -0.3286 -0.3134
 6909SOL    HW231657   2.296   7.746   1.150  0.2226 -1.0843 -0.3278
 6910SOL     OW31658   9.167   1.296   3.661 -0.1115 -0.2036 -0.1513
 6910SOL    HW131659   9.253   1.276   3.709  0.0216  2.3732  0.7906
 6910SOL    HW231660   9.160   1.395   3.646 -3.7182 -0.1491  1.3526
 6911SOL     OW31661   9.743   4.435   1.571 -0.5227  0.1209 -0.0545
 6911SOL    HW131662   9.647   4.408   1.581  0.0492 -1.6251  0.8429
 6911SOL    HW231663   9.797   4.395   1.645  0.7582  1.8606 -0.0070
 6912SOL     OW31664   3.587   8.645   5.292  0.1710  0.4078 -0.3572
 6912SOL    HW131665   3.540   8.721   5.245 -0.8314  0.9034  1.4090
 6912SOL    HW231666   3.550   8.558   5.258  0.6883  0.7104 -1.7403
 6913SOL     OW31667   5.555   2.743   2.360 -0.2201  0.0893 -0.4088
 6913SOL    HW131668   5.518   2.654   2.333 -0.1191 -0.2682  0.6131
 6913SOL    HW231669   5.543   2.756   2.459 -2.9855  2.5155 -1.0151
 6914SOL     OW31670   9.345   0.815   1.358 -0.7846 -0.1467  0.1439
 6914SOL    HW131671   9.270   0.768   1.310 -1.1801  0.9379 -0.3087
 6914SOL    HW231672   9.346   0.785   1.454 -1.0197 -1.0935 -0.1354
 6915SOL     OW31673   9.530   5.250   2.336 -0.8427  0.2921 -0.6875
 6915SOL    HW131674   9.550   5.158   2.304 -1.5609 -0.5294  1.1394
 6915SOL    HW231675   9.489   5.303   2.262  0.2992 -0.5949 -1.9842
 6916SOL     OW31676   1.957   0.079   2.449 -0.1290  0.6137 -0.1534
 6916SOL    HW131677   1.869   0.047   2.415  0.4589 -0.1076 -0.9959
 6916SOL    HW231678   1.943   0.127   2.536 -1.2458 -0.2539  0.1618
 6917SOL     OW31679   3.415   1.157   2.924 -0.5904 -0.2656  0.1140
 6917SOL    HW131680   3.395   1.154   2.827  2.6221 -2.3341 -0.5878
 6917SOL    HW231681   3.382   1.073   2.968  0.6812 -0.7652  0.1575
 6918SOL     OW31682   1.369   8.009   3.169 -0.2559  0.2565  0.3340
 6918SOL    HW131683   1.270   8.000   3.182 -0.2815 -0.3534 -0.2368
 6918SOL    HW231684   1.388   8.021   3.072  0.2785 -0.3265  0.3655
 6919SOL     OW31685   9.038   6.690   5.613  0.2873 -0.2487 -0.1030
 6919SOL    HW131686   9.133   6.675   5.642  0.9123  1.3108 -1.3094
 6919SOL    HW231687   9.027   6.659   5.519 -0.0220  0.9315 -0.4563
 6920SOL     OW31688   3.559   3.023   4.786 -0.0545 -0.8711 -0.4774
 6920SOL    HW131689   3.548   3.064   4.695  0.6536  0.1222 -0.1240
 6920SOL    HW231690   3.509   2.937   4.790 -0.8691 -0.4587 -1.5127
 6921SOL     OW31691   7.637   2.793   2.769  0.4343  0.0610 -0.4475
 6921SOL    HW131692   7.710   2.786   2.836  0.6587 -0.1312 -0.7117
 6921SOL    HW231693   7.559   2.736   2.797  0.7304 -0.4265 -0.6148
 6922SOL     OW31694   1.592   4.934   1.266  0.2388 -0.5464 -0.1028
 6922SOL    HW131695   1.584   4.893   1.357  1.8300  0.6945  0.6254
 6922SOL    HW231696   1.596   5.034   1.276 -2.5920 -0.2128 -1.7510
 6923SOL     OW31697   1.824   8.869   0.758  0.0601  0.0137 -0.1380
 6923SOL    HW131698   1.744   8.862   0.699 -2.1189 -0.6636  2.7639
 6923SOL    HW231699   1.870   8.781   0.764  0.9401  0.3599 -1.6756
 6924SOL     OW31700   3.434   9.984   1.943  0.0820 -0.4140 -0.6919
 6924SOL    HW131701   3.354   9.941   1.901 -1.5730  1.8011  0.0849
 6924SOL    HW231702   3.489  10.028   1.872 -0.8624  0.3702 -0.9517
 6925SOL     OW31703   7.495   3.266   0.074  0.2751  0.1241 -0.0335
 6925SOL    HW131704   7.558   3.295   0.146  1.7648 -2.6090 -0.1677
 6925SOL    HW231705   7.425   3.207   0.113 -0.7961  1.1915 -0.3117
 6926SOL     OW31706   4.112   9.328   3.164 -0.0861 -0.7252 -0.3344
 6926SOL    HW131707   4.148   9.422   3.163 -1.4700 -0.1845 -1.5239
 6926SOL    HW231708   4.067   9.310   3.251 -1.5526  0.4069 -0.8429
 6927SOL     OW31709   9.630   1.348   5.359 -0.0523  0.6565 -0.5480
 6927SOL    HW131710   9.579   1.432   5.342  0.3619  1.0764  0.2737
 6927SOL    HW231711   9.566   1.274   5.381 -0.4563  0.6164 -1.8087
 6928SOL     OW31712   0.465   8.281   4.570 -0.3999 -0.1629  0.5618
 6928SOL    HW131713   0.375   8.238   4.575 -0.2068 -0.4965  1.2021
 6928SOL    HW231714   0.472   8.353   4.639  0.4168 -1.2635  1.6334
 6929SOL     OW31715   6.026   8.104   3.305 -0.2492 -0.5685 -0.0366
 6929SOL    HW131716   6.012   8.076   3.400 -3.3496 -0.4383 -0.4269
 6929SOL    HW231717   6.019   8.025   3.245 -0.8717 -0.2473 -0.3928
 6930SOL     OW31718   2.170   5.739   0.257 -0.0261  0.4418  0.2654
 6930SOL    HW131719   2.233   5.791   0.198 -0.5858  0.5016 -0.2838
 6930SOL    HW231720   2.221   5.669   0.306  0.1001 -1.1221 -2.0025
 6931SOL     OW31721   7.877   6.462   5.349  0.1666  0.5235 -0.3099
 6931SOL    HW131722   7.811   6.501   5.413  0.0670  0.2398 -0.2388
 6931SOL    HW231723   7.942   6.404   5.399  0.5603  0.9177 -0.3568
 6932SOL     OW31724   2.172   2.044   5.466  0.0765  0.0237 -0.0567
 6932SOL    HW131725   2.126   2.116   5.517  0.7610  0.5755 -0.2009
 6932SOL    HW231726   2.123   2.027   5.381 -0.6535 -0.3846  0.4443
 6933SOL     OW31727   3.829   0.152   0.506 -0.1345 -0.2337  0.3262
 6933SOL    HW131728   3.841   0.186   0.599 -0.6384  0.9514 -0.0288
 6933SOL    HW231729   3.910   0.172   0.452 -0.6887  1.0289 -0.0597
 6934SOL     OW31730   8.946   1.948   4.257  0.1685 -0.1009  0.1466
 6934SOL    HW131731   8.967   2.021   4.192 -0.9317  0.2204  0.1425
 6934SOL    HW231732   9.031   1.905   4.288  0.8756  1.7353  0.7995
 6935SOL     OW31733   3.443   6.296   2.968 -0.5265  0.2411 -0.0615
 6935SOL    HW131734   3.403   6.293   2.876 -0.4355 -0.4043 -0.0820
 6935SOL    HW231735   3.541   6.310   2.962 -0.0365 -2.8702 -0.1949
 6936SOL     OW31736   6.408   7.896   1.905  0.3060 -0.6212  1.0319
 6936SOL    HW131737   6.485   7.940   1.859  0.6335 -2.8201 -0.6247
 6936SOL    HW231738   6.406   7.799   1.880 -4.0351 -0.2416 -0.3730
 6937SOL     OW31739   8.610   5.136   0.224  0.5316 -0.8359 -0.0773
 6937SOL    HW131740   8.685   5.087   0.269  0.2411 -0.2577  1.0655
 6937SOL    HW231741   8.547   5.071   0.183 -0.3648 -1.4704  2.2510
 6938SOL     OW31742   2.851   0.487   1.574 -0.6343  0.4351 -0.1775
 6938SOL    HW131743   2.829   0.576   1.614 -0.0549  0.7441 -0.5425
 6938SOL    HW231744   2.867   0.421   1.647 -1.1020  0.6228  0.0938
 6939SOL     OW31745   7.921   1.966   1.984  0.1023 -0.6839 -0.2559
 6939SOL    HW131746   7.869   1.926   1.908  0.0438  2.9390 -2.2189
 6939SOL    HW231747   8.017   1.942   1.974 -0.1843 -1.8702 -0.3196
 6940SOL     OW31748   4.179   4.897   0.725 -0.3369 -0.0035  0.5704
 6940SOL    HW131749   4.161   4.924   0.630  0.6233  0.8562  0.6257
 6940SOL    HW231750   4.231   4.812   0.726 -0.5812 -0.1554  0.3238
 6941SOL     OW31751   4.253   1.721   4.156  0.1681  0.0023 -0.4855
 6941SOL    HW131752   4.245   1.727   4.256  1.8709  1.0981 -0.3915
 6941SOL    HW231753   4.326   1.783   4.125 -0.1577 -0.5418 -2.3823
 6942SOL     OW31754   2.279   1.269   3.153 -0.0383 -0.3093  0.2489
 6942SOL    HW131755   2.327   1.302   3.072 -0.3357 -1.0969 -0.2539
 6942SOL    HW231756   2.345   1.253   3.226  0.5675 -1.9010 -0.6100
 6943SOL     OW31757   5.711   9.986   1.150  0.2422 -0.2508 -0.6046
 6943SOL    HW131758   5.654  10.066   1.132 -1.2144 -1.2030 -0.3215
 6943SOL    HW231759   5.807  10.014   1.152 -0.3330  1.7935  1.1057
 6944SOL     OW31760   1.172   7.239   5.431 -0.4049  0.0708 -0.0567
 6944SOL    HW131761   1.117   7.269   5.509 -0.8476 -0.7470 -0.0399
 6944SOL    HW231762   1.223   7.157   5.457 -0.6984 -0.3129 -0.6782
 6945SOL     OW31763   0.316   1.908   0.567  0.2011 -0.5855 -0.9965
 6945SOL    HW131764   0.260   1.975   0.517 -0.8652 -0.9871 -0.3544
 6945SOL    HW231765   0.274   1.890   0.656  0.8626 -1.5884 -0.8903
 6946SOL     OW31766   2.610   7.251   2.802  0.4486 -0.4548 -0.0732
 6946SOL    HW131767   2.629   7.209   2.713 -1.6873  1.6893 -1.5970
 6946SOL    HW231768   2.634   7.348   2.798 -1.4843  0.0901  1.0502
 6947SOL     OW31769   9.383   4.259   0.160  0.0701 -0.0573  0.8465
 6947SOL    HW131770   9.448   4.324   0.119  0.8648 -0.6470  1.1632
 6947SOL    HW231771   9.418   4.230   0.249 -0.1318 -1.1609  0.5620
 6948SOL     OW31772   0.518   3.626   2.847  0.9536 -0.0877 -0.1846
 6948SOL    HW131773   0.611   3.592   2.835  1.4398  1.9255 -2.3341
 6948SOL    HW231774   0.520   3.713   2.896  0.2067  0.0995 -0.4726
 6949SOL     OW31775   8.452   0.660   1.290 -0.3493  0.2343 -0.3339
 6949SOL    HW131776   8.361   0.629   1.317 -0.1320 -1.0226 -1.0135
 6949SOL    HW231777   8.507   0.679   1.372 -0.4072 -1.4252  0.1039
 6950SOL     OW31778   8.100   9.275   4.010  0.4942  0.5736  0.1748
 6950SOL    HW131779   8.029   9.290   4.078 -0.6887 -0.2479 -0.8613
 6950SOL    HW231780   8.071   9.204   3.945  3.1502 -1.3951  1.0203
 6951SOL     OW31781   2.878   0.580   1.876  0.5561  0.2031 -0.2619
 6951SOL    HW131782   2.854   0.641   1.801  0.7024  0.2694 -0.2541
 6951SOL    HW231783   2.817   0.596   1.953  1.2402  1.0354  0.1059
 6952SOL     OW31784   3.088   2.367   3.702  0.5698  0.7924 -0.5574
 6952SOL    HW131785   3.146   2.420   3.641  0.5412  0.2355 -1.0745
 6952SOL    HW231786   3.141   2.292   3.742  0.2798  0.4224 -0.8525
 6953SOL     OW31787   0.264   2.606   4.432  0.8310 -0.4090 -0.3520
 6953SOL    HW131788   0.223   2.560   4.511 -3.4033  2.2367 -0.8629
 6953SOL    HW231789   0.318   2.685   4.464 -0.4329  0.3385 -0.0232
 6954SOL     OW31790   2.949   7.105   2.621 -0.4869  0.0943  0.0684
 6954SOL    HW131791   2.855   7.135   2.607 -0.4010  1.5102  2.2334
 6954SOL    HW231792   2.987   7.152   2.701  1.4124 -1.9368  0.4076
 6955SOL     OW31793   0.587   6.589   1.323  0.3003  0.2943  0.0175
 6955SOL    HW131794   0.590   6.490   1.335  0.4490  0.2495 -0.3811
 6955SOL    HW231795   0.680   6.623   1.312  0.2117  0.4170 -0.3486
 6956SOL     OW31796   0.467   9.227   4.968  0.3442  0.9233  0.5221
 6956SOL    HW131797   0.510   9.259   5.052  3.7163  0.0517 -0.7618
 6956SOL    HW231798   0.442   9.131   4.978  0.2465  0.9690  0.7195
 6957SOL     OW31799   2.850   9.721   1.385  0.1185  0.0324 -0.6266
 6957SOL    HW131800   2.769   9.756   1.338  0.5636  1.0848 -0.6183
 6957SOL    HW231801   2.921   9.700   1.317 -0.1085 -0.7739 -0.6237
 6958SOL     OW31802   3.408   1.327   0.156 -0.5277  0.6003  0.0445
 6958SOL    HW131803   3.500   1.361   0.138  0.7352 -3.1138 -0.9075
 6958SOL    HW231804   3.360   1.313   0.070  0.0035 -2.5194  0.1857
 6959SOL     OW31805   1.057   2.595   1.620 -0.1035 -0.2225 -0.2211
 6959SOL    HW131806   1.067   2.576   1.522  1.0638 -0.3381 -0.0820
 6959SOL    HW231807   1.058   2.509   1.671  0.8792 -0.0641  0.0314
 6960SOL     OW31808   0.209   1.425   3.301  0.2219 -0.1823  0.0849
 6960SOL    HW131809   0.167   1.503   3.256 -2.8575 -1.5801  0.4493
 6960SOL    HW231810   0.203   1.436   3.400 -1.0887 -1.3081  0.1401
 6961SOL     OW31811   3.392   1.049   3.977 -0.5870 -0.5308 -0.6843
 6961SOL    HW131812   3.435   1.095   4.055  1.1977  1.7427 -2.9040
 6961SOL    HW231813   3.340   1.115   3.923 -0.0234 -1.5989 -2.6007
 6962SOL     OW31814   5.139   0.158   4.184 -0.4959  1.0440 -0.4898
 6962SOL    HW131815   5.125   0.059   4.191 -0.4944  1.1657  1.5727
 6962SOL    HW231816   5.222   0.177   4.132  0.8195 -0.1268  1.1193
 6963SOL     OW31817   0.242   2.337   1.087 -0.8181 -0.3754 -0.1926
 6963SOL    HW131818   0.183   2.295   1.017 -0.8491 -0.3576 -0.1769
 6963SOL    HW231819   0.224   2.435   1.091 -1.3247 -0.4874  0.3373
 6964SOL     OW31820   9.212   9.773   3.804  0.3770  0.1027  0.4365
 6964SOL    HW131821   9.170   9.771   3.895 -1.7013  2.4820 -0.4291
 6964SOL    HW231822   9.252   9.863   3.788  1.1441 -0.4636 -0.8326
 6965SOL     OW31823   9.512   5.052   4.918  0.2449 -0.1892  0.6846
 6965SOL    HW131824   9.602   5.083   4.888  0.3599 -2.0824 -1.0664
 6965SOL    HW231825   9.448   5.058   4.841 -0.4866 -1.2749  1.1944
 6966SOL     OW31826   9.473   4.136   0.442  0.2075 -0.0089  0.4459
 6966SOL    HW131827   9.374   4.125   0.456 -0.1573  2.1463 -0.2846
 6966SOL    HW231828   9.501   4.086   0.361 -0.8470  1.8443 -1.0908
 6967SOL     OW31829   4.660   9.818   5.012 -0.8358  0.5665  0.3371
 6967SOL    HW131830   4.712   9.864   5.084 -1.1729  0.8538  0.4029
 6967SOL    HW231831   4.712   9.741   4.977 -1.4258 -0.6883  2.1305
 6968SOL     OW31832   1.169   6.305   4.106 -0.5931 -0.1029  0.1202
 6968SOL    HW131833   1.073   6.305   4.136 -1.2517 -0.9238 -1.9298
 6968SOL    HW231834   1.206   6.397   4.117 -1.3068  0.0207  1.8214
 6969SOL     OW31835   0.986   7.864   3.661  0.0095 -0.1702 -0.9455
 6969SOL    HW131836   0.944   7.786   3.615 -0.0182 -0.9861  0.4406
 6969SOL    HW231837   0.915   7.930   3.686 -0.3302 -1.0360  0.4131
 6970SOL     OW31838   3.529   3.139   1.330 -0.4586 -0.0896 -0.1232
 6970SOL    HW131839   3.574   3.137   1.240 -1.8936  0.4714 -0.8686
 6970SOL    HW231840   3.437   3.101   1.322 -1.1879  1.4597  0.7734
 6971SOL     OW31841   3.497   7.934   2.091 -0.3757 -0.5449 -0.3820
 6971SOL    HW131842   3.532   7.855   2.140  0.1534  0.1470  0.3544
 6971SOL    HW231843   3.571   7.998   2.072 -0.9296  0.1249 -0.3170
 6972SOL     OW31844   0.903   7.241   1.880 -0.6470  0.2543  0.2160
 6972SOL    HW131845   0.974   7.306   1.906  0.4170 -0.0397 -1.8224
 6972SOL    HW231846   0.813   7.282   1.894  0.0166  2.2805 -1.2606
 6973SOL     OW31847   3.895   5.687   0.388  0.4821 -0.3768  0.1000
 6973SOL    HW131848   3.877   5.597   0.347  0.0305 -0.4479  0.4655
 6973SOL    HW231849   3.981   5.684   0.438 -0.8440 -1.3501  2.3574
 6974SOL     OW31850   6.927   0.915   0.372  0.1227 -0.1009  0.2565
 6974SOL    HW131851   6.882   1.003   0.361  0.1166 -0.0697  0.5300
 6974SOL    HW231852   6.901   0.875   0.460  1.3801  0.3590  0.8531
 6975SOL     OW31853   0.328   0.523   2.385  0.2133  0.0467 -0.2001
 6975SOL    HW131854   0.301   0.605   2.436 -1.3417 -0.1164 -0.7111
 6975SOL    HW231855   0.331   0.545   2.287  2.7900  0.2605 -0.0945
 6976SOL     OW31856   5.524   9.750   3.554 -0.5313 -0.2295  0.0016
 6976SOL    HW131857   5.452   9.741   3.485 -0.5059 -2.0842  0.1958
 6976SOL    HW231858   5.572   9.663   3.565  2.6308  1.2934 -1.0594
 6977SOL     OW31859   3.525   6.229   1.013  0.2277  0.1677 -0.0964
 6977SOL    HW131860   3.575   6.236   1.099 -0.4134 -2.5931  0.5584
 6977SOL    HW231861   3.442   6.285   1.018 -0.4878 -1.0061  1.6072
 6978SOL     OW31862   6.573   1.528   2.654  0.0775  0.2389  0.0813
 6978SOL    HW131863   6.552   1.452   2.717 -1.0731  1.1707  0.8342
 6978SOL    HW231864   6.575   1.494   2.560  1.1201 -1.0328  0.5428
 6979SOL     OW31865   8.474   2.195   5.440 -0.0610  0.1130 -0.0219
 6979SOL    HW131866   8.383   2.159   5.416  0.7027 -1.9045 -0.0571
 6979SOL    HW231867   8.479   2.292   5.418 -1.8948  0.0166 -0.9447
 6980SOL     OW31868   9.203   6.408   0.138 -0.1349 -0.0670  0.2552
 6980SOL    HW131869   9.274   6.475   0.119  2.1902 -2.6466 -0.6000
 6980SOL    HW231870   9.167   6.373   0.051 -0.5813 -0.6619  0.6755
 6981SOL     OW31871   9.057   7.004   5.269 -0.1863  0.4289 -0.0382
 6981SOL    HW131872   8.998   6.971   5.195  1.5776  0.1775 -1.3592
 6981SOL    HW231873   9.077   6.928   5.331  0.9427 -0.1443 -1.0887
 6982SOL     OW31874   9.612   6.676   1.750  0.0167 -0.2154  0.2408
 6982SOL    HW131875   9.625   6.638   1.841  2.7463 -1.0132 -0.4160
 6982SOL    HW231876   9.662   6.762   1.742 -2.2851  1.1429  0.2661
 6983SOL     OW31877   3.956   2.492   1.124  0.6618 -0.2083  0.4580
 6983SOL    HW131878   3.899   2.410   1.120 -0.5698  0.6639 -0.0637
 6983SOL    HW231879   3.910   2.563   1.177  1.6565  0.2192  0.7748
 6984SOL     OW31880   5.655   0.024   4.721  0.3733 -0.2335 -0.1273
 6984SOL    HW131881   5.645   0.076   4.806  0.6730  0.1039 -0.2929
 6984SOL    HW231882   5.697   0.083   4.652  2.3048 -1.1988  0.1729
 6985SOL     OW31883   8.922   2.906   3.041 -0.3016 -0.1279  0.4834
 6985SOL    HW131884   9.014   2.872   3.056  0.0885  0.5691 -0.2948
 6985SOL    HW231885   8.923   2.975   2.968 -1.5911 -0.8749 -0.2566
 6986SOL     OW31886   9.527   0.055   2.700 -0.5175  0.2006 -0.1624
 6986SOL    HW131887   9.586  -0.011   2.746 -0.7939 -0.1599 -0.3281
 6986SOL    HW231888   9.526   0.035   2.602 -0.5181  0.5162 -0.2282
 6987SOL     OW31889   1.785   3.917   5.602  0.0328  0.1843 -1.0306
 6987SOL    HW131890   1.870   3.956   5.638 -1.3334  1.7168  0.6151
 6987SOL    HW231891   1.760   3.964   5.518  0.8498 -0.3406 -1.5763
 6988SOL     OW31892   7.248   9.240   4.365  0.2811 -0.0834  0.0006
 6988SOL    HW131893   7.220   9.320   4.312 -0.2997  0.0230  0.4677
 6988SOL    HW231894   7.192   9.161   4.338  0.1958 -0.1028  0.2384
 6989SOL     OW31895   3.408   6.047   5.348 -0.0323  0.4987  0.3436
 6989SOL    HW131896   3.448   5.966   5.306  0.4148  1.3962 -0.9737
 6989SOL    HW231897   3.395   6.118   5.279 -0.1756  1.6507  1.5394
 6990SOL     OW31898   8.903   5.804   2.758  0.6550 -0.1374  0.2055
 6990SOL    HW131899   8.882   5.767   2.849 -0.4248  0.5746  0.2594
 6990SOL    HW231900   8.984   5.863   2.765  1.3450 -1.0922  0.4472
 6991SOL     OW31901   0.152   6.677   2.059  0.0547 -0.3827  0.2847
 6991SOL    HW131902   0.178   6.597   2.004  0.8913 -1.0681  1.6705
 6991SOL    HW231903   0.194   6.759   2.019  0.1225 -0.7825 -0.4829
 6992SOL     OW31904   8.072   2.208   3.023 -0.7429  0.0828 -0.0518
 6992SOL    HW131905   8.150   2.241   3.075 -0.4414  1.4790 -1.3512
 6992SOL    HW231906   7.995   2.190   3.084  0.4212 -0.8294  1.1744
 6993SOL     OW31907   8.218   9.646   2.688 -0.3492 -0.1062 -0.2350
 6993SOL    HW131908   8.146   9.695   2.638  0.2330  0.5678 -0.4239
 6993SOL    HW231909   8.218   9.675   2.783 -0.6317 -0.4559 -0.1260
 6994SOL     OW31910   9.238   9.534   4.145 -0.7123  0.3731 -0.2217
 6994SOL    HW131911   9.225   9.450   4.093 -0.6808  0.3617 -0.2115
 6994SOL    HW231912   9.312   9.588   4.105 -0.4068  0.1667  0.0619
 6995SOL     OW31913   3.092   3.786   2.766 -0.2049  0.2352 -0.3330
 6995SOL    HW131914   3.044   3.865   2.805 -0.8621  0.0278 -0.6955
 6995SOL    HW231915   3.190   3.804   2.763 -0.3497  1.0435 -0.4169
 6996SOL     OW31916   0.932   0.309   1.047 -0.1078  0.2267  0.1207
 6996SOL    HW131917   0.838   0.275   1.045 -0.1221  0.2785 -0.1511
 6996SOL    HW231918   0.956   0.336   1.140 -0.2294 -0.1561  0.2604
 6997SOL     OW31919   3.048   9.468   1.850 -0.5198  0.4660  0.6308
 6997SOL    HW131920   3.139   9.453   1.810 -0.7538  1.1633 -0.1975
 6997SOL    HW231921   3.024   9.392   1.910  0.2061 -0.1890  0.0937
 6998SOL     OW31922   0.856   5.051   0.553  0.3931  0.2542  0.9239
 6998SOL    HW131923   0.820   5.036   0.645  0.6709 -2.2636  0.6555
 6998SOL    HW231924   0.955   5.038   0.554  0.3530 -0.1090  0.1818
 6999SOL     OW31925   7.440   1.904   2.464 -0.1766 -0.4490 -0.4650
 6999SOL    HW131926   7.475   1.951   2.545 -0.7621  0.5613 -0.7903
 6999SOL    HW231927   7.353   1.944   2.437  0.3361 -0.3347 -1.9977
 7000SOL     OW31928   4.921   0.312   3.096 -0.0984  0.1999  0.5068
 7000SOL    HW131929   4.993   0.248   3.068 -0.4274  0.5299 -1.1320
 7000SOL    HW231930   4.835   0.262   3.105 -0.0539  0.1505  0.6728
 7001SOL     OW31931   3.717   1.548   1.265 -0.1375 -0.3870  0.4579
 7001SOL    HW131932   3.785   1.573   1.334  0.1396 -1.9610  0.7883
 7001SOL    HW231933   3.741   1.590   1.178  0.5768  0.0674  0.8675
 7002SOL     OW31934   1.548   0.649   0.279 -0.5493  0.1513  0.2531
 7002SOL    HW131935   1.484   0.722   0.254 -1.1044 -0.3530  0.2106
 7002SOL    HW231936   1.627   0.652   0.217  0.2737  1.8398  1.3654
 7003SOL     OW31937   8.233   6.989   0.808 -0.0311  0.1091 -0.0362
 7003SOL    HW131938   8.185   7.058   0.862  1.2610 -0.2137  1.5658
 7003SOL    HW231939   8.189   6.900   0.821  0.9409 -0.1757  1.3829
 7004SOL     OW31940   9.891   9.230   1.655  0.1740 -0.2372 -0.0304
 7004SOL    HW131941   9.836   9.298   1.705  1.9011 -0.9447  2.9746
 7004SOL    HW231942   9.830   9.165   1.610 -1.4841 -0.0763  1.8934
 7005SOL     OW31943   0.128   9.356   1.699 -0.3213  0.2529 -0.9724
 7005SOL    HW131944   0.164   9.360   1.605  0.1392 -1.2107 -0.8792
 7005SOL    HW231945   0.058   9.285   1.704  0.5195 -0.5160  0.0740
 7006SOL     OW31946   0.741   4.178   5.190  0.1508  0.9788 -0.1641
 7006SOL    HW131947   0.834   4.196   5.158  0.1311  1.8274  0.2318
 7006SOL    HW231948   0.676   4.207   5.120  0.2014 -0.2884 -0.7401
 7007SOL     OW31949   8.731   4.308   4.103  0.1405 -0.2231  0.0593
 7007SOL    HW131950   8.777   4.267   4.024 -0.0398 -0.8150  0.2588
 7007SOL    HW231951   8.731   4.243   4.179 -2.0274 -0.6766 -0.2963
 7008SOL     OW31952   0.150   5.528   0.961 -0.6321  0.8834  0.2746
 7008SOL    HW131953   0.157   5.442   1.013  0.6387 -0.5816 -2.2488
 7008SOL    HW231954   0.209   5.597   1.003 -1.5684  0.5333  2.2561
 7009SOL     OW31955   6.041   8.247   2.955 -0.0843 -0.1210  0.0262
 7009SOL    HW131956   6.106   8.259   3.029 -1.1060  1.0987  0.7397
 7009SOL    HW231957   6.074   8.295   2.874 -0.6118  1.4099  0.7101
 7010SOL     OW31958   3.992   4.436   2.972 -0.2099 -0.4180 -0.4415
 7010SOL    HW131959   3.957   4.371   3.039  1.5921 -0.8787  0.0841
 7010SOL    HW231960   4.070   4.486   3.011 -0.7046  1.0931 -1.3207
 7011SOL     OW31961   2.547   9.881   3.569  0.4669  0.3920  0.0752
 7011SOL    HW131962   2.576   9.806   3.628  0.1730  0.7038  0.6129
 7011SOL    HW231963   2.586   9.867   3.477  0.2246 -0.5351  0.1025
 7012SOL     OW31964   9.772   1.673   5.217 -0.3917 -0.0045  0.1707
 7012SOL    HW131965   9.688   1.632   5.253  0.1215 -1.8462 -0.6926
 7012SOL    HW231966   9.782   1.649   5.121  1.3369 -0.1550  0.3715
 7013SOL     OW31967   2.859   3.067   1.207  0.3132 -0.0731 -0.3205
 7013SOL    HW131968   2.935   3.007   1.232 -0.0731 -0.4498 -0.0486
 7013SOL    HW231969   2.815   3.033   1.125 -1.2439 -1.3820  1.0176
 7014SOL     OW31970   9.231   1.086   2.422 -0.5478  0.7411  0.2456
 7014SOL    HW131971   9.266   1.084   2.329  0.2111 -1.3936  0.5398
 7014SOL    HW231972   9.172   1.007   2.438 -0.9169  1.2426  1.4761
 7015SOL     OW31973   7.476   9.927   1.922  0.2138 -0.6374 -0.4623
 7015SOL    HW131974   7.382   9.933   1.889  0.0975  0.6040  0.0621
 7015SOL    HW231975   7.484   9.975   2.010  1.0682 -1.7727  0.1057
 7016SOL     OW31976   0.747   4.672   0.127  0.7516  0.6096 -0.1431
 7016SOL    HW131977   0.736   4.586   0.177  1.6909  0.3545 -0.3642
 7016SOL    HW231978   0.756   4.748   0.191  0.4798  0.4747  0.0564
 7017SOL     OW31979   1.511   2.714   0.050  0.8743 -0.2093 -0.4054
 7017SOL    HW131980   1.444   2.746   0.118  1.3111  1.8893 -0.9292
 7017SOL    HW231981   1.603   2.736   0.081  1.2178 -1.2552 -0.6545
 7018SOL     OW31982   2.668   7.141   4.236  0.4885  0.3848 -0.2488
 7018SOL    HW131983   2.655   7.189   4.323  2.6185  1.9745 -0.7736
 7018SOL    HW231984   2.595   7.168   4.173  0.0992  0.7985  0.3650
 7019SOL     OW31985   1.776   3.349   0.789 -0.5368 -0.1841  0.3384
 7019SOL    HW131986   1.690   3.400   0.782 -0.3573  0.0669 -0.0518
 7019SOL    HW231987   1.765   3.259   0.748 -0.1703  0.4153 -1.0916
 7020SOL     OW31988   1.457   5.325   4.545  0.6699  0.2102 -0.4558
 7020SOL    HW131989   1.440   5.288   4.454  1.1717 -0.5502 -0.2409
 7020SOL    HW231990   1.392   5.285   4.610  2.1188 -1.3978  0.0433
 7021SOL     OW31991   4.805   9.593   4.949  0.5236 -0.2622  0.1246
 7021SOL    HW131992   4.856   9.645   4.881  0.7007  0.2356  0.6329
 7021SOL    HW231993   4.845   9.501   4.957 -0.2129 -0.7141 -1.2507
 7022SOL     OW31994   9.658   3.666   1.815  0.7912 -0.8411 -0.6638
 7022SOL    HW131995   9.738   3.677   1.874  1.0087 -1.1625 -0.8974
 7022SOL    HW231996   9.582   3.632   1.869 -0.1860  2.6750  0.2930
 7023SOL     OW31997   0.612   0.664   0.627 -0.3416  0.0501  0.0796
 7023SOL    HW131998   0.553   0.630   0.701 -3.1694  0.4652 -1.9164
 7023SOL    HW231999   0.619   0.763   0.633  0.2766 -0.0110  0.3929
 7024SOL     OW32000   0.176   2.971   3.615  0.3687  0.0848 -0.0769
 7024SOL    HW132001   0.175   2.925   3.526  0.2059 -0.2596  0.1061
 7024SOL    HW232002   0.270   2.997   3.637  0.2619  1.1695 -0.8680
 7025SOL     OW32003   4.713   0.459   2.673  0.5756 -0.2041 -0.0046
 7025SOL    HW132004   4.786   0.452   2.741  1.0686 -1.8276 -0.6839
 7025SOL    HW232005   4.743   0.417   2.588 -1.3190 -1.2840 -0.1576
 7026SOL     OW32006   3.690   8.500   0.395  0.5608  0.6185  0.6112
 7026SOL    HW132007   3.636   8.526   0.315 -0.0390  1.7272  1.3433
 7026SOL    HW232008   3.643   8.532   0.478  2.2038  1.3711  1.2856
 7027SOL     OW32009   9.330   0.299   4.740  0.7165 -0.0143 -0.2318
 7027SOL    HW132010   9.390   0.379   4.747  0.3271  0.2187  0.5235
 7027SOL    HW232011   9.234   0.328   4.746  0.5789 -0.5590  0.2443
 7028SOL     OW32012   1.736   5.965   2.673  0.3299  0.1672 -0.5895
 7028SOL    HW132013   1.685   5.934   2.592  0.4509  0.5166 -0.7993
 7028SOL    HW232014   1.689   6.044   2.713 -0.1963 -0.5201  0.1748
 7029SOL     OW32015   1.250   0.506   3.364 -0.2602  0.1665 -0.3570
 7029SOL    HW132016   1.291   0.497   3.455 -1.9186  0.7389  0.4591
 7029SOL    HW232017   1.157   0.468   3.366 -1.1335  2.2241 -1.2243
 7030SOL     OW32018   9.194   7.685   5.130 -0.0028  0.3959 -0.6788
 7030SOL    HW132019   9.173   7.780   5.151  0.7419  0.3332  0.3877
 7030SOL    HW232020   9.246   7.644   5.206  0.5905 -0.5560 -1.5754
 7031SOL     OW32021   3.933   4.150   0.464 -0.5683  0.7103  0.1348
 7031SOL    HW132022   4.005   4.117   0.402 -1.4753 -1.5338  0.2410
 7031SOL    HW232023   3.903   4.241   0.435  0.9029  0.8124 -1.1099
 7032SOL     OW32024   4.328   3.202   3.497  0.0427  0.3382 -1.0613
 7032SOL    HW132025   4.422   3.232   3.480  0.3535 -0.3651 -0.6025
 7032SOL    HW232026   4.326   3.103   3.513 -0.7453  0.3768 -0.8645
 7033SOL     OW32027   5.985   9.688   3.080 -0.2982  0.3455 -0.4492
 7033SOL    HW132028   5.987   9.754   3.154  0.3620  1.0622 -1.1008
 7033SOL    HW232029   6.036   9.724   3.001 -0.9990 -0.3949 -1.2552
 7034SOL     OW32030   8.774   8.151   4.149  0.1553 -0.4655  0.2032
 7034SOL    HW132031   8.796   8.147   4.052  0.1797 -0.4249  0.2068
 7034SOL    HW232032   8.683   8.189   4.162  0.8403  1.2070  0.2801
 7035SOL     OW32033   8.564   0.149   4.064  0.2949 -0.5683 -0.7816
 7035SOL    HW132034   8.595   0.102   3.981  0.4981 -2.1686  0.1759
 7035SOL    HW232035   8.464   0.145   4.068  0.3859 -2.5118  0.1778
 7036SOL     OW32036   9.760   8.087   3.026  0.0300 -0.1490 -0.3296
 7036SOL    HW132037   9.788   8.165   2.970 -1.2664 -0.5405 -1.5676
 7036SOL    HW232038   9.784   8.002   2.980 -0.5050 -0.4771 -0.0116
 7037SOL     OW32039   8.133   8.731   5.299 -0.2251 -0.0808  0.2426
 7037SOL    HW132040   8.183   8.644   5.304 -1.8965 -1.1019 -0.0954
 7037SOL    HW232041   8.175   8.790   5.231 -0.3372 -1.5105 -1.1078
 7038SOL     OW32042   4.935   0.204   4.424 -0.0447  0.1451  0.1524
 7038SOL    HW132043   4.978   0.213   4.334 -0.4898 -2.9540 -0.4163
 7038SOL    HW232044   4.993   0.149   4.483  0.4561  2.5453  1.9510
 7039SOL     OW32045   6.035   4.416   5.445  0.4979 -0.0350 -0.0103
 7039SOL    HW132046   6.111   4.480   5.439  0.3895  0.0361 -0.6229
 7039SOL    HW232047   5.952   4.465   5.471  0.5051 -0.0023 -0.0504
 7040SOL     OW32048   8.147   5.920   4.632 -0.0935 -0.2464 -0.9724
 7040SOL    HW132049   8.099   5.989   4.686  0.5600 -0.2384 -0.3921
 7040SOL    HW232050   8.185   5.962   4.550  0.6250  0.1727 -0.4350
 7041SOL     OW32051   2.698   1.187   1.813  0.0512  0.0734 -0.1257
 7041SOL    HW132052   2.712   1.158   1.908  0.2165  1.2295  0.2069
 7041SOL    HW232053   2.780   1.232   1.779 -0.5204  0.9686 -0.3388
 7042SOL     OW32054   9.834   1.479   0.642 -0.3503  0.4323  0.0615
 7042SOL    HW132055   9.901   1.553   0.639  0.4910 -0.2982  0.5111
 7042SOL    HW232056   9.778   1.487   0.724 -1.9899  2.0464 -1.1909
 7043SOL     OW32057   2.305   2.876   0.256 -0.4555 -0.3277 -0.5466
 7043SOL    HW132058   2.299   2.911   0.163 -2.3624 -2.0471 -1.1086
 7043SOL    HW232059   2.335   2.781   0.255 -1.5536 -0.7050  0.4887
 7044SOL     OW32060   0.356   8.571   0.144 -0.4030 -0.1021 -0.3813
 7044SOL    HW132061   0.333   8.480   0.110 -0.6918  0.3289 -1.3518
 7044SOL    HW232062   0.423   8.614   0.084  1.8085 -0.7400  1.5839
 7045SOL     OW32063   7.424   0.589   4.847 -0.0342 -0.4054  0.2091
 7045SOL    HW132064   7.383   0.572   4.758  1.7874  0.7173 -0.8753
 7045SOL    HW232065   7.407   0.684   4.875  1.4017 -0.0459 -0.0664
 7046SOL     OW32066   3.436   3.456   1.008 -0.1146 -0.5714 -0.0414
 7046SOL    HW132067   3.525   3.482   1.044 -0.7373  1.6854 -0.0824
 7046SOL    HW232068   3.367   3.523   1.036 -1.1791 -0.4056 -2.8353
 7047SOL     OW32069   1.005   6.431   0.180  0.1353 -0.1558 -0.1645
 7047SOL    HW132070   0.956   6.379   0.110  0.0237  0.6632 -0.7101
 7047SOL    HW232071   1.085   6.475   0.139  1.1832 -1.2471  0.6584
 7048SOL     OW32072   0.034   0.615   3.946 -0.2875 -0.3199 -0.2296
 7048SOL    HW132073   0.089   0.557   4.006 -2.7841 -1.4781  1.0476
 7048SOL    HW232074  -0.009   0.558   3.876 -1.4499  0.2170  0.0319
 7049SOL     OW32075   9.812   4.554   2.801  0.7240  0.0604 -0.1073
 7049SOL    HW132076   9.797   4.478   2.864 -0.8030 -1.3493 -2.0740
 7049SOL    HW232077   9.750   4.629   2.822  1.1330  0.1217  0.8699
 7050SOL     OW32078   9.877   0.193   3.164  0.6132 -0.7213 -0.2579
 7050SOL    HW132079   9.845   0.241   3.082 -0.5318  0.3556  0.7834
 7050SOL    HW232080   9.968   0.227   3.189  0.6345 -0.4910 -0.6405
 7051SOL     OW32081   4.517   2.477   5.204  0.2287 -0.2643  0.0778
 7051SOL    HW132082   4.500   2.383   5.175 -1.5993  0.0993 -0.1299
 7051SOL    HW232083   4.613   2.488   5.231  0.8763 -1.7280 -1.5750
 7052SOL     OW32084   0.400   9.792   5.486  0.1167  0.0107 -0.8292
 7052SOL    HW132085   0.336   9.867   5.470 -0.5285 -0.4093 -0.2542
 7052SOL    HW232086   0.438   9.800   5.579 -0.1786 -0.5302 -0.6574
 7053SOL     OW32087   1.864   7.020   4.996 -0.4479  0.4317 -0.3559
 7053SOL    HW132088   1.957   7.052   5.014 -0.5749  0.1235  0.8979
 7053SOL    HW232089   1.799   7.087   5.032 -0.7267  1.2082 -2.2544
 7054SOL     OW32090   9.976   6.216   4.725 -0.4185  0.5225  1.3398
 7054SOL    HW132091  10.013   6.308   4.731 -0.9045  0.8053  0.1487
 7054SOL    HW232092   9.880   6.220   4.696  0.3687 -0.4553 -1.5741
 7055SOL     OW32093   4.774   4.921   1.932  0.0483  0.0638  0.5967
 7055SOL    HW132094   4.799   4.827   1.907 -0.8521 -0.1075  0.3183
 7055SOL    HW232095   4.731   4.966   1.853 -2.3791 -0.3156  1.6390
 7056SOL     OW32096   9.643   1.266   2.612  0.5612  0.1216  0.8224
 7056SOL    HW132097   9.689   1.184   2.575 -1.6489 -0.6084 -0.3761
 7056SOL    HW232098   9.712   1.331   2.643  2.4163 -1.1061 -0.6083
 7057SOL     OW32099   7.761   9.882   2.812  0.1226 -0.0888  0.0131
 7057SOL    HW132100   7.782   9.788   2.839  0.4462 -0.5702 -1.8633
 7057SOL    HW232101   7.662   9.892   2.798  0.1412 -0.2823 -0.2598
 7058SOL     OW32102   5.631   0.766   3.720  0.5394 -0.4595  0.6080
 7058SOL    HW132103   5.603   0.689   3.663 -1.8007  0.2126  0.7809
 7058SOL    HW232104   5.611   0.851   3.673 -0.6448  0.0891  2.0458
 7059SOL     OW32105   9.590   5.551   1.351  0.5108 -0.1823 -0.0249
 7059SOL    HW132106   9.548   5.623   1.408  2.7682 -0.2272  1.7360
 7059SOL    HW232107   9.689   5.564   1.349  0.6136 -1.2198 -2.5734
 7060SOL     OW32108   5.653   2.158   2.805 -0.5055  0.1543 -0.5035
 7060SOL    HW132109   5.578   2.109   2.761 -0.1876  1.4280 -2.5121
 7060SOL    HW232110   5.619   2.205   2.887 -1.5991 -0.3836 -0.6476
 7061SOL     OW32111   3.212   3.696   3.745  0.6501 -0.1935  0.1175
 7061SOL    HW132112   3.218   3.615   3.687  2.3126  0.3092 -0.4453
 7061SOL    HW232113   3.291   3.700   3.806  0.0718  0.4828  0.8302
 7062SOL     OW32114   4.942   0.973   0.830 -0.5195  0.3438 -0.6532
 7062SOL    HW132115   4.995   1.009   0.753 -2.0946  0.7465 -1.5896
 7062SOL    HW232116   4.899   1.048   0.879 -0.0887  0.0343  0.1976
 7063SOL     OW32117   8.771   8.399   5.353 -0.3877 -0.1693  0.2444
 7063SOL    HW132118   8.792   8.470   5.287  0.9999 -1.4602 -0.7450
 7063SOL    HW232119   8.742   8.440   5.440 -2.2170  1.5343 -1.1370
 7064SOL     OW32120   1.033   5.720   4.967  0.5992 -0.4280 -0.0501
 7064SOL    HW132121   1.024   5.817   4.990  0.9704 -0.4876  0.3572
 7064SOL    HW232122   1.020   5.665   5.049  0.4165 -0.7261 -0.2762
 7065SOL     OW32123   7.994   5.850   0.791  0.2813  0.8746  0.0409
 7065SOL    HW132124   8.060   5.926   0.790 -0.0028  1.1200 -0.0468
 7065SOL    HW232125   8.041   5.765   0.767  0.7939  0.8695  1.0325
 7066SOL     OW32126   1.995   7.801   0.992  0.0153 -0.2643 -0.7619
 7066SOL    HW132127   1.984   7.861   1.071  0.2347 -1.7718  0.4128
 7066SOL    HW232128   1.905   7.769   0.962 -0.0157 -0.2406 -0.6944
 7067SOL     OW32129   1.240   4.419   3.781 -0.3243  0.3010  0.0357
 7067SOL    HW132130   1.261   4.503   3.732 -1.3061  0.5378 -0.0008
 7067SOL    HW232131   1.229   4.344   3.715  2.0543 -0.1935  0.1803
 7068SOL     OW32132   0.470   4.472   3.601 -0.0602  0.2929 -0.1034
 7068SOL    HW132133   0.406   4.538   3.562 -1.0832 -0.4826  0.2377
 7068SOL    HW232134   0.436   4.380   3.586  1.2160 -0.1541 -0.3114
 7069SOL     OW32135   6.864   6.675   4.078  0.0421 -0.1355 -0.1901
 7069SOL    HW132136   6.852   6.632   3.989  1.0222 -0.8084 -0.0107
 7069SOL    HW232137   6.836   6.771   4.073 -0.1684 -0.2402 -1.1416
 7070SOL     OW32138   8.651   1.112   5.584  0.1725 -0.5297  0.1857
 7070SOL    HW132139   8.643   1.023   5.539  1.4272 -2.0616  2.8766
 7070SOL    HW232140   8.663   1.099   5.683  2.0979  2.5546  0.4337
 7071SOL     OW32141   9.809   6.465   1.890  0.5583 -0.4385  0.0764
 7071SOL    HW132142   9.799   6.550   1.943  3.1002  0.0616 -0.2055
 7071SOL    HW232143   9.866   6.401   1.940 -2.7667 -2.7433  1.0927
 7072SOL     OW32144   9.894   3.575   4.879  0.4701  0.0536 -0.4349
 7072SOL    HW132145   9.935   3.606   4.793 -0.8594 -0.8317 -1.4044
 7072SOL    HW232146   9.841   3.650   4.920  1.9500  0.7899  0.1461
 7073SOL     OW32147   1.334   9.332   0.042 -0.4421  0.5877 -0.0765
 7073SOL    HW132148   1.365   9.262  -0.022  0.0065  0.3468  0.4068
 7073SOL    HW232149   1.280   9.401  -0.008 -0.5569  0.1101 -0.6134
 7074SOL     OW32150   8.838   0.402   4.352 -0.1841  0.0413 -0.3116
 7074SOL    HW132151   8.853   0.446   4.263  1.0580  0.4270  0.0764
 7074SOL    HW232152   8.757   0.344   4.347  0.5753 -0.9339 -2.0855
 7075SOL     OW32153   1.355   0.584   3.638  0.3816  0.1591 -0.1303
 7075SOL    HW132154   1.452   0.559   3.629 -0.1673 -1.2529 -2.9105
 7075SOL    HW232155   1.347   0.682   3.656  2.3407  0.1478  0.9494
 7076SOL     OW32156   4.063   7.266   3.618  0.1161 -0.5265  0.2578
 7076SOL    HW132157   4.019   7.228   3.699 -0.2452 -0.3764  0.1338
 7076SOL    HW232158   4.154   7.299   3.642  0.1080 -0.7155  0.5479
 7077SOL     OW32159   3.261   3.632   3.401  0.0505  0.7314  0.1955
 7077SOL    HW132160   3.161   3.633   3.415 -0.2270 -2.4077 -1.2738
 7077SOL    HW232161   3.301   3.559   3.456  1.2496  0.4623 -1.0350
 7078SOL     OW32162   8.618   9.596   5.016  0.0788 -0.5052 -0.1803
 7078SOL    HW132163   8.595   9.520   4.956 -0.2282  1.2091 -2.3110
 7078SOL    HW232164   8.535   9.648   5.037  0.2658 -0.7754  1.3335
 7079SOL     OW32165   0.903   3.669   1.550 -0.3480 -0.4736  0.5047
 7079SOL    HW132166   0.852   3.750   1.579 -2.3085 -0.7995 -1.9456
 7079SOL    HW232167   0.876   3.591   1.606  0.2144  0.1291  1.6534
 7080SOL     OW32168   1.700   5.116   5.268 -0.6102 -0.5940  0.3338
 7080SOL    HW132169   1.730   5.166   5.187  2.2696 -1.0172  1.0780
 7080SOL    HW232170   1.667   5.181   5.337 -0.8092 -0.0540 -0.2677
 7081SOL     OW32171   4.171   4.642   2.095  0.2700 -0.2483 -0.3452
 7081SOL    HW132172   4.071   4.636   2.090  0.1851  0.0422  0.8264
 7081SOL    HW232173   4.196   4.716   2.158  1.2252  0.0200 -1.0386
 7082SOL     OW32174   8.606   0.041   4.529  0.9691 -0.2073  0.3326
 7082SOL    HW132175   8.617   0.104   4.452  1.2767 -0.6841 -0.0217
 7082SOL    HW232176   8.681  -0.025   4.528 -0.3823 -1.7576 -0.4219
 7083SOL     OW32177   6.245   9.710   3.460  0.3702 -0.4152  0.1447
 7083SOL    HW132178   6.250   9.679   3.555 -0.6373  0.3044  0.4372
 7083SOL    HW232179   6.210   9.637   3.402 -3.2394  0.5504  1.0363
 7084SOL     OW32180   4.989   9.651   4.270 -0.3533  0.4459  0.0622
 7084SOL    HW132181   4.956   9.593   4.196  0.4508  0.0427  0.0142
 7084SOL    HW232182   4.926   9.646   4.347 -1.5223  1.3579 -0.8259
 7085SOL     OW32183   1.539   2.169   1.167  0.3697  0.1028 -0.0527
 7085SOL    HW132184   1.549   2.235   1.092  1.6043  0.5536  0.4842
 7085SOL    HW232185   1.486   2.211   1.241  1.2835  0.5747  0.3524
 7086SOL     OW32186   3.014   0.228   3.123 -0.0275  0.0380  0.2111
 7086SOL    HW132187   3.085   0.293   3.151  0.5743 -0.0168 -1.1462
 7086SOL    HW232188   3.057   0.144   3.089 -0.7695 -0.3381  0.1883
 7087SOL     OW32189   1.571   9.852   5.031 -0.2669  0.4076  0.2048
 7087SOL    HW132190   1.651   9.897   4.992 -0.8084  0.8910 -0.3614
 7087SOL    HW232191   1.490   9.908   5.014 -0.8768 -0.5660 -0.1000
 7088SOL     OW32192   0.759   8.165   0.632  0.1346  0.0718  0.1047
 7088SOL    HW132193   0.659   8.166   0.643  0.1637 -0.4344  0.4426
 7088SOL    HW232194   0.786   8.235   0.566 -0.5691 -0.7283 -1.0457
 7089SOL     OW32195   7.771   9.856   0.610 -0.1998  0.3767  0.1188
 7089SOL    HW132196   7.769   9.948   0.571 -1.8143  0.7796  1.1046
 7089SOL    HW232197   7.860   9.840   0.653  0.8313  0.7057 -1.8260
 7090SOL     OW32198   5.780   0.423   3.226 -0.4782  0.0651 -0.0387
 7090SOL    HW132199   5.759   0.392   3.319 -2.4171  1.5326  0.0446
 7090SOL    HW232200   5.852   0.492   3.229 -0.1055 -0.3319  0.2969
 7091SOL     OW32201   3.462   8.175   3.393 -0.2741  0.4456  0.8305
 7091SOL    HW132202   3.458   8.267   3.431  1.9445  0.4290  1.1320
 7091SOL    HW232203   3.378   8.157   3.340 -1.7562  1.7833  2.6514
 7092SOL     OW32204   4.036   0.239   5.388  0.4960 -0.6997  0.0548
 7092SOL    HW132205   4.110   0.272   5.446 -0.0462 -2.1186  1.5915
 7092SOL    HW232206   3.967   0.193   5.444  0.1856 -2.5382 -1.7548
 7093SOL     OW32207   2.407   3.213   2.267  0.1085 -0.4951  0.2527
 7093SOL    HW132208   2.472   3.212   2.191 -1.1471 -0.7340 -0.8322
 7093SOL    HW232209   2.445   3.266   2.343  1.8120 -1.1030 -0.1415
 7094SOL     OW32210   0.935   5.066   1.458 -0.3162 -0.0318 -0.0260
 7094SOL    HW132211   0.893   5.107   1.377 -0.1182  1.1071  0.4420
 7094SOL    HW232212   0.880   4.987   1.488 -1.0770  0.3082 -0.5290
 7095SOL     OW32213   8.566   3.305   1.249  0.9407 -0.1404 -0.4374
 7095SOL    HW132214   8.619   3.306   1.333  0.9565 -2.5071 -0.3968
 7095SOL    HW232215   8.626   3.325   1.171  1.0817  1.2256  0.0089
 7096SOL     OW32216   2.600   5.024   0.622 -0.1979  0.0691 -0.0815
 7096SOL    HW132217   2.662   4.961   0.574 -1.2524 -1.5532  0.6976
 7096SOL    HW232218   2.513   5.029   0.573 -0.1142  0.9827 -0.1612
 7097SOL     OW32219   1.922   5.772   2.781  0.2084 -0.4628 -0.0566
 7097SOL    HW132220   1.863   5.845   2.749  0.9467  0.9919  1.8250
 7097SOL    HW232221   1.996   5.757   2.716  0.2693  0.7303 -0.2570
 7098SOL     OW32222   1.610   5.923   3.061  0.1837 -0.6146  0.3275
 7098SOL    HW132223   1.547   5.912   2.984  0.5714 -2.3206  0.2366
 7098SOL    HW232224   1.683   5.855   3.054  1.4750  0.6777  0.9846
 7099SOL     OW32225   0.572   6.981   2.756 -0.1255 -0.1986 -0.2464
 7099SOL    HW132226   0.560   7.040   2.836  0.4848  1.3518 -1.2625
 7099SOL    HW232227   0.497   6.997   2.692  0.6250  0.2877 -1.0123
 7100SOL     OW32228   3.666   1.917   1.751  0.2562 -0.1583 -0.0412
 7100SOL    HW132229   3.727   1.988   1.715  0.0309  0.7393  1.3084
 7100SOL    HW232230   3.717   1.859   1.814 -0.0899  0.1010  0.4748
 7101SOL     OW32231   4.444   1.773   1.638 -0.3353  0.2822 -0.2594
 7101SOL    HW132232   4.391   1.695   1.672  0.4261 -0.6771 -1.2774
 7101SOL    HW232233   4.410   1.856   1.682 -2.1100 -0.4263 -0.2326
 7102SOL     OW32234   8.656   8.808   4.561  0.4492  0.1229 -0.1786
 7102SOL    HW132235   8.571   8.804   4.507  1.0062  0.1736 -1.0678
 7102SOL    HW232236   8.670   8.720   4.607  0.0242  0.0378 -0.2078
 7103SOL     OW32237   4.563   3.987   5.267 -0.6279  0.9371  0.2124
 7103SOL    HW132238   4.527   3.896   5.288  0.9508  0.2193 -0.1030
 7103SOL    HW232239   4.563   4.043   5.350  1.2674 -0.3829  1.1371
 7104SOL     OW32240   1.356   3.944   0.044 -0.2953 -0.2659  0.1520
 7104SOL    HW132241   1.443   3.903   0.073 -0.0626  0.6416  0.7567
 7104SOL    HW232242   1.347   3.936  -0.055  0.3899 -0.5485  0.1107
 7105SOL     OW32243   2.642   6.676   2.885 -0.0354 -0.8429  0.3148
 7105SOL    HW132244   2.580   6.700   2.960  0.9698 -3.2287  1.9752
 7105SOL    HW232245   2.730   6.720   2.900  0.0290 -0.9765  0.3356
 7106SOL     OW32246   0.021   9.215   4.478 -0.0849 -0.1645 -0.5192
 7106SOL    HW132247  -0.015   9.184   4.390 -0.8953 -0.0662 -0.2288
 7106SOL    HW232248   0.100   9.275   4.463  0.1226 -0.5953 -1.1537
 7107SOL     OW32249   2.405   7.490   3.170 -0.3339 -0.2225  0.3385
 7107SOL    HW132250   2.465   7.510   3.092 -0.4346  1.9053  0.8030
 7107SOL    HW232251   2.354   7.572   3.195 -2.2396 -1.5871  1.0039
 7108SOL     OW32252   8.329   1.266   4.609 -0.4289  0.4357  0.0575
 7108SOL    HW132253   8.310   1.355   4.650 -0.5331  0.0763  0.7893
 7108SOL    HW232254   8.395   1.216   4.665  0.7443  0.6276 -1.1195
 7109SOL     OW32255   8.119   8.667   3.787  0.0937  0.2499 -0.2745
 7109SOL    HW132256   8.066   8.657   3.871  0.8564 -0.3042  0.1448
 7109SOL    HW232257   8.163   8.579   3.765  2.2276  1.1249  0.3282
 7110SOL     OW32258   4.161   7.516   2.567 -0.4032  0.4473 -0.2768
 7110SOL    HW132259   4.125   7.545   2.478 -1.6065 -0.1780  0.0039
 7110SOL    HW232260   4.155   7.593   2.631  1.8971  1.3920 -1.1273
 7111SOL     OW32261   9.929   2.533   2.193  0.2946 -0.5345 -0.1785
 7111SOL    HW132262   9.844   2.501   2.236 -0.0620 -2.2820 -2.0786
 7111SOL    HW232263   9.995   2.557   2.263 -1.7248  0.8051  1.3527
 7112SOL     OW32264   1.603   4.126   1.960  0.1839  0.1089 -0.1032
 7112SOL    HW132265   1.661   4.154   1.883  1.1455 -0.7902  0.2759
 7112SOL    HW232266   1.507   4.144   1.938  0.5179  0.6511 -1.1621
 7113SOL     OW32267   2.788   1.080   3.042 -0.5541 -0.2396 -0.1321
 7113SOL    HW132268   2.809   1.117   3.132  0.7174 -0.8144 -0.1875
 7113SOL    HW232269   2.760   0.984   3.051 -3.4405  0.5668 -0.0329
 7114SOL     OW32270   4.695   6.558   2.061 -0.1186 -0.5796  0.1343
 7114SOL    HW132271   4.696   6.520   2.154 -0.7285 -1.1307 -0.0866
 7114SOL    HW232272   4.754   6.504   2.002 -0.2047 -0.5855  0.0549
 7115SOL     OW32273   0.075   4.569   1.020 -0.2060 -0.3871 -0.0809
 7115SOL    HW132274   0.136   4.519   1.082 -1.1171 -0.4491  0.7801
 7115SOL    HW232275   0.129   4.630   0.962  0.7900 -1.4148 -0.2386
 7116SOL     OW32276   0.707   3.010   3.773 -0.3836 -0.1784 -0.2340
 7116SOL    HW132277   0.678   2.929   3.723  0.2191 -0.1750 -0.5948
 7116SOL    HW232278   0.643   3.028   3.848 -2.7420  1.3148 -2.5340
 7117SOL     OW32279   0.478   5.452   4.148 -0.3773  0.6306 -0.1444
 7117SOL    HW132280   0.457   5.370   4.095 -0.5387  1.9946 -2.2002
 7117SOL    HW232281   0.519   5.424   4.235 -1.1663 -1.6581 -0.4580
 7118SOL     OW32282   6.535   0.856   4.922 -0.0967  0.6221 -0.3877
 7118SOL    HW132283   6.630   0.875   4.948 -0.2963  0.5496  0.4339
 7118SOL    HW232284   6.479   0.936   4.941 -0.0481  0.9902 -1.7401
 7119SOL     OW32285   4.185   0.331   2.237 -0.2489 -0.1780 -0.0990
 7119SOL    HW132286   4.098   0.302   2.276 -1.3508  0.9158 -1.7015
 7119SOL    HW232287   4.181   0.328   2.138  1.2077  0.8220 -0.2179
 7120SOL     OW32288   8.857   7.876   3.045  0.6235 -0.2071  0.1221
 7120SOL    HW132289   8.949   7.911   3.024 -0.2800  2.9459  1.1672
 7120SOL    HW232290   8.803   7.875   2.962  0.4625  1.6287  0.1769
 7121SOL     OW32291   8.565   4.519   4.596 -0.0108 -0.5285  0.5714
 7121SOL    HW132292   8.512   4.434   4.601  1.6489 -1.6296  0.1112
 7121SOL    HW232293   8.562   4.555   4.503 -1.7265  0.6002  1.0530
 7122SOL     OW32294   4.123   1.306   4.046 -0.1750  0.0871 -0.3676
 7122SOL    HW132295   4.079   1.395   4.034  1.8731  1.6204  2.9597
 7122SOL    HW232296   4.197   1.297   3.979 -0.2547  0.9747 -0.5825
 7123SOL     OW32297   0.253   8.484   4.318  0.2788  0.2317 -0.4174
 7123SOL    HW132298   0.340   8.534   4.314 -0.5527  1.6924 -0.6922
 7123SOL    HW232299   0.264   8.394   4.277  1.3374  0.9144 -1.6693
 7124SOL     OW32300   2.266   0.322   5.237 -0.1418  0.1335  0.2490
 7124SOL    HW132301   2.188   0.276   5.194  0.3063 -0.5404  0.1591
 7124SOL    HW232302   2.242   0.418   5.254 -0.3132  0.4207 -1.5212
 7125SOL     OW32303   9.651   3.057   2.634  0.3550 -0.4200  0.8380
 7125SOL    HW132304   9.608   2.971   2.606  1.5248 -1.2839  1.6452
 7125SOL    HW232305   9.743   3.063   2.595 -0.3854  1.3350 -0.7398
 7126SOL     OW32306   9.719   8.028   1.430 -0.6922 -0.7318 -0.0279
 7126SOL    HW132307   9.734   8.102   1.496  0.3172  0.2246 -1.2988
 7126SOL    HW232308   9.757   8.055   1.341  1.6786 -3.6272  0.0336
 7127SOL     OW32309   3.870   0.142   4.866 -0.4650  0.1100  0.2272
 7127SOL    HW132310   3.863   0.067   4.932  1.5887  0.4631  0.8982
 7127SOL    HW232311   3.879   0.229   4.915  2.1193  0.2761 -0.4556
 7128SOL     OW32312   9.241   3.644   5.584  0.5871 -0.6109  0.1545
 7128SOL    HW132313   9.298   3.569   5.618  0.5516  0.4542  2.6905
 7128SOL    HW232314   9.148   3.634   5.619  0.5053  0.4247  0.2581
 7129SOL     OW32315   3.481   5.047   2.239 -0.0808  0.4035 -0.3666
 7129SOL    HW132316   3.478   5.139   2.202 -1.1066  0.2342 -0.7411
 7129SOL    HW232317   3.572   5.008   2.226  0.0782  1.0088 -1.0764
 7130SOL     OW32318   0.770   7.406   2.739 -0.4955  0.7860  0.0569
 7130SOL    HW132319   0.760   7.483   2.676  1.0846  1.3782  0.5037
 7130SOL    HW232320   0.852   7.420   2.795 -1.0118 -0.5109  1.1398
 7131SOL     OW32321   9.458   7.994   0.024 -0.3026  0.0219  0.0549
 7131SOL    HW132322   9.404   8.006  -0.060 -2.4869  1.5250  1.6156
 7131SOL    HW232323   9.547   8.037   0.013 -0.7821  0.6937 -1.3103
 7132SOL     OW32324   9.460   4.333   3.987  0.3237  0.1602  0.2408
 7132SOL    HW132325   9.377   4.332   3.931 -0.7651  1.1161  1.8176
 7132SOL    HW232326   9.536   4.366   3.932 -0.8530  1.6980 -0.5055
 7133SOL     OW32327   1.908   8.411   2.885  0.1735 -0.0728  0.3529
 7133SOL    HW132328   1.962   8.493   2.907  2.1481 -0.5932 -2.3379
 7133SOL    HW232329   1.957   8.330   2.915 -0.8014 -0.4041  1.0868
 7134SOL     OW32330   3.763   4.959   1.680  0.2334 -0.2459 -0.2210
 7134SOL    HW132331   3.685   4.937   1.738  0.8281 -0.7952  0.3698
 7134SOL    HW232332   3.803   4.875   1.644 -0.6684  0.1149 -2.1655
 7135SOL     OW32333   9.418   5.389   2.110 -0.3591  0.4772  0.1374
 7135SOL    HW132334   9.403   5.324   2.036  0.6380  1.1445 -0.6611
 7135SOL    HW232335   9.353   5.464   2.103 -1.3583 -0.3010  0.9234
 7136SOL     OW32336   7.140   0.583   5.375  0.1148 -0.3438  0.3742
 7136SOL    HW132337   7.166   0.501   5.426 -0.7258 -0.2771  0.9231
 7136SOL    HW232338   7.183   0.663   5.417  2.2815 -0.6691 -1.1569
 7137SOL     OW32339   9.229   7.092   0.847 -0.3289  0.9149  0.1617
 7137SOL    HW132340   9.287   7.018   0.813 -1.0767 -0.0681  0.9961
 7137SOL    HW232341   9.287   7.163   0.888  0.4466  1.2384 -1.4496
 7138SOL     OW32342   1.823   4.879   1.609  0.0042 -0.2420 -0.2856
 7138SOL    HW132343   1.920   4.895   1.593  0.1812 -0.7842  0.2261
 7138SOL    HW232344   1.812   4.809   1.680 -0.7583  2.2451  2.0949
 7139SOL     OW32345   6.223   8.499   2.698 -0.0388 -0.3813  0.1439
 7139SOL    HW132346   6.317   8.469   2.715 -1.0251 -3.2986  0.6829
 7139SOL    HW232347   6.186   8.542   2.781  0.4011 -0.3674  0.3354
 7140SOL     OW32348   8.505   9.885   0.128 -0.1771 -0.5911 -0.0510
 7140SOL    HW132349   8.434   9.835   0.078  0.7218 -1.0496 -0.8877
 7140SOL    HW232350   8.594   9.868   0.085  0.1329  1.8044 -0.4263
 7141SOL     OW32351   2.992   3.820   3.640 -0.3388  0.4039  0.3787
 7141SOL    HW132352   3.083   3.789   3.668 -0.2497 -0.2229 -0.5696
 7141SOL    HW232353   2.996   3.916   3.613 -0.0412  0.4850  0.7137
 7142SOL     OW32354   3.174   3.558   4.052 -0.2915  0.4027  0.0351
 7142SOL    HW132355   3.112   3.506   3.993  0.9468  0.1862 -1.1038
 7142SOL    HW232356   3.161   3.656   4.035 -0.6159  0.3712  0.1005
 7143SOL     OW32357   4.063   0.849   1.193  0.5058  0.3029  0.1522
 7143SOL    HW132358   4.145   0.905   1.190  0.7263  0.0725  1.5518
 7143SOL    HW232359   4.016   0.862   1.281 -0.7514  0.1497 -0.4808
 7144SOL     OW32360   9.461   7.358   0.661 -0.4683 -0.0842 -0.0644
 7144SOL    HW132361   9.555   7.377   0.688  0.4872  0.0536 -3.3559
 7144SOL    HW232362   9.410   7.444   0.655 -0.9189 -0.1709  1.8715
 7145SOL     OW32363   5.574   1.388   3.471 -0.2184  0.2755  0.0688
 7145SOL    HW132364   5.588   1.303   3.421  0.5383 -0.6512  1.8339
 7145SOL    HW232365   5.591   1.466   3.409  2.0123 -0.8374 -0.7852
 7146SOL     OW32366   9.554   5.605   1.796 -0.2468 -0.3032  0.5688
 7146SOL    HW132367   9.505   5.650   1.871 -0.8610  2.3665 -1.3486
 7146SOL    HW232368   9.648   5.588   1.823 -0.1398  1.7159  1.5610
 7147SOL     OW32369   8.479   0.623   5.068 -0.2071  0.4397  0.7157
 7147SOL    HW132370   8.476   0.551   4.998 -1.3189 -0.7003  1.8986
 7147SOL    HW232371   8.400   0.683   5.056 -0.5839  0.0428  1.1899
 7148SOL     OW32372   8.194   8.652   4.219  0.0793  0.0504 -0.0102
 7148SOL    HW132373   8.252   8.664   4.138 -0.2830  1.9221 -0.0186
 7148SOL    HW232374   8.099   8.641   4.189  0.1857 -1.1779  0.0850
 7149SOL     OW32375   2.445   2.264   1.701 -0.1524 -0.7513 -0.2797
 7149SOL    HW132376   2.523   2.216   1.661  0.1641 -1.1529  0.8138
 7149SOL    HW232377   2.460   2.362   1.697 -0.2344 -0.7779 -1.3709
 7150SOL     OW32378   9.389   6.573   4.359 -0.3418  0.3041  0.0731
 7150SOL    HW132379   9.463   6.639   4.351  0.1901 -0.2932  0.0752
 7150SOL    HW232380   9.366   6.558   4.455  1.1590 -1.3134  0.1981
 7151SOL     OW32381   3.403   2.222   4.403 -0.0494 -0.2238  0.1490
 7151SOL    HW132382   3.455   2.215   4.488  0.7788 -1.9304 -0.4765
 7151SOL    HW232383   3.458   2.268   4.333  0.0272 -0.6122 -0.0480
 7152SOL     OW32384   3.162   5.553   0.673  0.3263 -0.8044  0.2755
 7152SOL    HW132385   3.164   5.481   0.604  0.5573  0.3249 -0.9190
 7152SOL    HW232386   3.163   5.643   0.628  0.3497 -0.0471  1.7415
 7153SOL     OW32387   7.779   1.030   3.847  0.5600  0.0106 -0.0723
 7153SOL    HW132388   7.757   0.934   3.833  1.3268 -0.2313  0.3184
 7153SOL    HW232389   7.742   1.085   3.772 -0.6114 -0.4829  0.1458
 7154SOL     OW32390   3.489   3.705   1.642  0.1943 -0.6831  0.9685
 7154SOL    HW132391   3.432   3.689   1.722 -0.8062  2.4966  0.9350
 7154SOL    HW232392   3.565   3.765   1.666  0.5115 -0.5990 -0.2163
 7155SOL     OW32393   2.912   9.035   1.632  0.0312  0.2536  0.9141
 7155SOL    HW132394   2.988   9.096   1.655 -0.6089  1.0803  0.8343
 7155SOL    HW232395   2.825   9.081   1.650 -0.4749 -1.8138  4.0031
 7156SOL     OW32396   1.783   1.540   1.469  0.1540  0.1917 -0.1984
 7156SOL    HW132397   1.685   1.546   1.488 -0.3033 -1.3625 -1.9190
 7156SOL    HW232398   1.826   1.476   1.532 -0.4264 -1.1071 -1.1095
 7157SOL     OW32399   5.115   0.377   3.741  0.0334  0.0505  0.2435
 7157SOL    HW132400   5.079   0.462   3.702  0.5956 -0.3426 -1.1535
 7157SOL    HW232401   5.044   0.331   3.794 -0.2202  1.4961  1.1845
 7158SOL     OW32402   9.179   6.246   5.298  0.2076  0.3590  0.4981
 7158SOL    HW132403   9.092   6.216   5.258  0.1929 -0.2016  0.9435
 7158SOL    HW232404   9.249   6.249   5.227  0.3020 -1.1098  0.5243
 7159SOL     OW32405   2.849   6.216   1.642  0.0899 -0.4339 -0.2613
 7159SOL    HW132406   2.904   6.293   1.610 -0.9661  0.3486 -0.2552
 7159SOL    HW232407   2.887   6.130   1.608  1.5871  0.0499  0.1637
 7160SOL     OW32408   2.378   0.733   2.735 -0.0251 -0.4158  0.2838
 7160SOL    HW132409   2.455   0.689   2.782  0.6088  0.3267 -0.0455
 7160SOL    HW232410   2.296   0.677   2.746  0.6475 -1.4093  0.3226
 7161SOL     OW32411   9.094   4.465   3.527  0.5682 -0.3589 -0.1599
 7161SOL    HW132412   9.095   4.485   3.429  0.1586  0.2029 -0.0523
 7161SOL    HW232413   9.040   4.383   3.544 -0.1604  0.0913 -0.3052
 7162SOL     OW32414   6.329   0.254   2.144  0.0756 -0.1983 -0.3140
 7162SOL    HW132415   6.343   0.258   2.243 -0.1895  0.9634 -0.3218
 7162SOL    HW232416   6.351   0.162   2.111  1.5155 -0.1975  0.6143
 7163SOL     OW32417   0.508   2.048   5.615 -0.0483 -0.4983 -0.0979
 7163SOL    HW132418   0.534   2.144   5.612  1.1571 -0.8253 -0.4662
 7163SOL    HW232419   0.564   2.000   5.682  1.0226 -1.4168 -1.6157
 7164SOL     OW32420   9.909   7.906   5.178  0.1341  0.0014  0.1703
 7164SOL    HW132421   9.823   7.864   5.148  0.0848  0.0160  0.2936
 7164SOL    HW232422   9.974   7.906   5.101 -0.1665  0.5053 -0.0873
 7165SOL     OW32423   0.534   4.288   3.099 -0.7706  0.4436  0.5412
 7165SOL    HW132424   0.552   4.332   3.187  0.9696 -1.6068  1.2789
 7165SOL    HW232425   0.563   4.347   3.024  1.6782  0.5046  1.5059
 7166SOL     OW32426   4.316   0.192   1.367  0.3899 -0.1336  0.4494
 7166SOL    HW132427   4.298   0.117   1.304 -0.7900  2.4837 -2.4598
 7166SOL    HW232428   4.229   0.235   1.393  1.1518  1.3944  0.5416
 7167SOL     OW32429   8.874   6.246   4.016  0.2278 -0.2872  0.0616
 7167SOL    HW132430   8.815   6.214   4.091 -0.1823 -0.0284 -0.1526
 7167SOL    HW232431   8.903   6.168   3.961 -4.3691  0.1070 -3.1257
 7168SOL     OW32432   8.804   4.188   1.112 -0.4006 -0.7569  0.5187
 7168SOL    HW132433   8.828   4.094   1.087 -0.9909  0.0620 -3.5712
 7168SOL    HW232434   8.706   4.195   1.127 -0.4811 -0.6506 -0.0343
 7169SOL     OW32435   8.621   3.605   3.679 -0.2041  0.4985 -0.6712
 7169SOL    HW132436   8.704   3.613   3.623 -0.4308 -1.0011 -1.2274
 7169SOL    HW232437   8.552   3.669   3.645  0.7392  1.8268 -0.1475
 7170SOL     OW32438   5.684   9.560   4.190 -0.0526  0.1819 -0.7095
 7170SOL    HW132439   5.720   9.484   4.244 -1.2500 -0.1973 -0.4186
 7170SOL    HW232440   5.667   9.530   4.096  1.7611  0.7640 -1.2268
 7171SOL     OW32441   3.580   2.639   2.889 -0.8715  0.1729 -0.0328
 7171SOL    HW132442   3.515   2.715   2.896 -1.1824 -0.0894 -0.0528
 7171SOL    HW232443   3.530   2.552   2.892 -0.4502 -0.0539  0.8892
 7172SOL     OW32444   1.022   8.196   2.457  0.1923 -0.3822  0.4564
 7172SOL    HW132445   1.041   8.216   2.360 -0.1839 -0.2963  0.3968
 7172SOL    HW232446   1.079   8.254   2.515  1.7447 -1.7224  0.2974
 7173SOL     OW32447   1.095   5.020   2.999 -0.2490 -0.2467 -0.6608
 7173SOL    HW132448   1.156   4.942   3.013 -2.0778 -1.6322 -0.2457
 7173SOL    HW232449   1.096   5.079   3.079  0.9168  0.0167 -0.8600
 7174SOL     OW32450   2.789   6.142   1.025 -0.0428  0.1047 -0.2003
 7174SOL    HW132451   2.745   6.058   0.994  1.9813 -0.8700 -0.4998
 7174SOL    HW232452   2.886   6.125   1.041  0.1029  2.0412  1.1162
 7175SOL     OW32453   8.164   2.584   1.363  0.3619  0.5217 -0.2819
 7175SOL    HW132454   8.226   2.574   1.285  0.4199  0.3194 -0.2094
 7175SOL    HW232455   8.186   2.516   1.433 -0.2305  0.1618 -0.4436
 7176SOL     OW32456   1.809   0.926   2.033  0.4206 -0.9017 -0.1866
 7176SOL    HW132457   1.829   0.829   2.042  0.7475 -0.9076 -0.9365
 7176SOL    HW232458   1.801   0.967   2.124 -1.3724 -1.9608  0.1509
 7177SOL     OW32459   4.321   1.351   3.332 -0.4517  0.1773  0.5946
 7177SOL    HW132460   4.236   1.382   3.290  0.0525  1.8535  0.7545
 7177SOL    HW232461   4.369   1.430   3.372  1.7560 -0.5599 -0.5251
 7178SOL     OW32462   9.096   6.679   5.331 -0.1590  0.0470 -0.4486
 7178SOL    HW132463   9.192   6.654   5.324  0.0088  0.1427  1.3441
 7178SOL    HW232464   9.041   6.617   5.275  1.1049  1.2203 -3.0992
 7179SOL     OW32465   7.674   7.416   3.371 -0.3273  0.6522  0.3547
 7179SOL    HW132466   7.764   7.375   3.351 -0.6576  1.1730 -2.4325
 7179SOL    HW232467   7.631   7.367   3.446  1.1751 -1.3329 -0.0383
 7180SOL     OW32468   7.269   9.159   2.726 -0.3721  0.3657  0.2272
 7180SOL    HW132469   7.332   9.237   2.721 -1.0581  1.0773  2.0616
 7180SOL    HW232470   7.268   9.124   2.820 -1.5274 -0.6372 -0.1470
 7181SOL     OW32471   2.518   0.465   0.391  0.1688  0.3747 -0.4663
 7181SOL    HW132472   2.533   0.538   0.458 -1.4751  1.0091 -0.7792
 7181SOL    HW232473   2.591   0.468   0.323 -0.0460  1.9301 -0.6515
 7182SOL     OW32474   2.362   2.994   4.832  0.2864  0.2622  0.7116
 7182SOL    HW132475   2.350   2.937   4.914  0.0857  0.7976  1.0579
 7182SOL    HW232476   2.406   2.940   4.760  1.4454  0.0872  1.5303
 7183SOL     OW32477   9.651   2.525   2.265 -0.7676  0.1209 -0.1461
 7183SOL    HW132478   9.608   2.592   2.204 -0.8532 -0.5699 -0.8504
 7183SOL    HW232479   9.580   2.465   2.302 -0.2965 -1.7836 -2.2478
 7184SOL     OW32480   3.535   5.326   4.760  0.4168 -0.1567 -0.3801
 7184SOL    HW132481   3.575   5.314   4.852 -1.2307 -2.9864  0.0071
 7184SOL    HW232482   3.606   5.310   4.691  1.0340 -0.6306  0.3512
 7185SOL     OW32483   7.069   7.850   1.893 -0.0074 -0.4233  0.0994
 7185SOL    HW132484   7.094   7.753   1.893 -0.2871 -0.5015 -0.6281
 7185SOL    HW232485   7.127   7.900   1.957  0.6454 -0.9403 -0.0852
 7186SOL     OW32486   8.767   5.270   3.549  0.0400  1.0837 -0.3218
 7186SOL    HW132487   8.692   5.289   3.485 -0.8288 -1.3668 -0.0675
 7186SOL    HW232488   8.737   5.288   3.642 -1.1429 -2.3485  0.0210
 7187SOL     OW32489   7.351   8.367   3.693 -0.2734  0.1040 -0.2294
 7187SOL    HW132490   7.419   8.314   3.642 -0.8601  0.4805 -1.4292
 7187SOL    HW232491   7.381   8.379   3.787  1.7430  1.0219 -0.9777
 7188SOL     OW32492   0.118   4.055   4.379  0.2085 -0.3304 -0.0587
 7188SOL    HW132493   0.210   4.079   4.411 -0.1612  0.9410  0.0761
 7188SOL    HW232494   0.125   3.983   4.310  1.1397 -1.8457  1.5872
 7189SOL     OW32495   2.541   2.409   5.472 -0.0911  0.0162  0.8602
 7189SOL    HW132496   2.446   2.379   5.465 -0.1336  0.0645  1.2114
 7189SOL    HW232497   2.598   2.330   5.497 -0.0414 -0.0080  0.6704
 7190SOL     OW32498   2.158   0.971   4.137  0.4389 -0.0935 -0.7435
 7190SOL    HW132499   2.081   1.014   4.185  0.8838 -0.0909 -0.0312
 7190SOL    HW232500   2.207   0.910   4.200  0.0197 -1.3934 -1.6451
 7191SOL     OW32501   8.640   0.544   2.195 -0.4380  0.5213 -0.5877
 7191SOL    HW132502   8.712   0.588   2.141 -0.0701  1.5912  0.7323
 7191SOL    HW232503   8.682   0.484   2.264 -0.8629  0.0266 -0.7553
 7192SOL     OW32504   1.080   5.118   4.158 -0.0051  0.0905  0.1486
 7192SOL    HW132505   1.102   5.214   4.144  0.5322  0.2193  1.7654
 7192SOL    HW232506   0.982   5.108   4.171  0.2126  0.7422  2.4024
 7193SOL     OW32507   0.690   2.621   2.148  0.2174 -0.3939  0.2886
 7193SOL    HW132508   0.646   2.674   2.221 -0.4770 -1.7657  0.8876
 7193SOL    HW232509   0.628   2.613   2.070 -0.1383 -1.3079  0.6597
 7194SOL     OW32510   9.222   9.556   4.881 -0.3524  0.6529  0.5383
 7194SOL    HW132511   9.280   9.487   4.838  0.7633  1.6607  0.3970
 7194SOL    HW232512   9.223   9.543   4.980 -0.7614 -0.0084  0.4549
 7195SOL     OW32513   0.449   0.497   3.670 -0.1060 -0.0208 -0.0192
 7195SOL    HW132514   0.397   0.565   3.619 -2.1528 -0.4464  1.4662
 7195SOL    HW232515   0.459   0.414   3.615  0.4165  0.6291 -0.9241
 7196SOL     OW32516   4.815   0.136   1.805 -0.4630 -0.2321  0.1798
 7196SOL    HW132517   4.722   0.167   1.785 -1.1870 -2.7596 -0.6014
 7196SOL    HW232518   4.816   0.089   1.893 -0.0161 -0.5423  0.0113
 7197SOL     OW32519   3.652   6.031   0.642 -0.5333  0.1264  0.2065
 7197SOL    HW132520   3.647   5.962   0.570 -0.9272 -0.3951  0.7274
 7197SOL    HW232521   3.633   6.121   0.604  0.2380 -0.0115 -0.5305
 7198SOL     OW32522   8.455   6.872   3.998  0.2269  0.0635  0.2149
 7198SOL    HW132523   8.407   6.906   4.079 -0.2307  0.6136 -0.2772
 7198SOL    HW232524   8.539   6.825   4.026 -0.5951 -0.9107  1.0913
 7199SOL     OW32525   7.645   3.062   5.589 -0.1170  0.3461  0.6211
 7199SOL    HW132526   7.659   3.068   5.490 -0.5108  1.6751  0.6332
 7199SOL    HW232527   7.585   3.137   5.618 -0.3564 -0.3026  1.8008
 7200SOL     OW32528   3.660   3.996   2.185 -0.2288  0.9392 -0.6589
 7200SOL    HW132529   3.722   3.918   2.184  0.1050  1.1667  0.9967
 7200SOL    HW232530   3.712   4.080   2.194 -0.7108  1.2114 -0.3718
 7201SOL     OW32531   0.436   3.067   3.630  0.2597 -0.2776 -0.5856
 7201SOL    HW132532   0.451   3.114   3.542  1.3198  0.3497 -0.0759
 7201SOL    HW232533   0.516   3.081   3.689 -0.8738  0.1567  0.8681
 7202SOL     OW32534   0.657   1.140   0.077  0.2847  0.0658  0.3087
 7202SOL    HW132535   0.618   1.207   0.140  0.3873  0.5949 -0.1926
 7202SOL    HW232536   0.737   1.179   0.033  0.3877 -0.4153  0.0744
 7203SOL     OW32537   3.651   4.225   3.847  0.0971 -0.1401 -0.5862
 7203SOL    HW132538   3.728   4.260   3.900  0.6282 -1.0257 -0.7741
 7203SOL    HW232539   3.642   4.278   3.763 -0.6624  1.1841  0.3065
 7204SOL     OW32540   5.294   0.580   1.463  0.2037  0.6420  0.1322
 7204SOL    HW132541   5.289   0.606   1.559 -2.3279  0.0143  0.1969
 7204SOL    HW232542   5.263   0.655   1.405 -0.5420  0.1971 -0.0561
 7205SOL     OW32543   4.608   9.547   4.042  0.2950 -0.5706 -0.3086
 7205SOL    HW132544   4.597   9.449   4.059  0.7600 -0.8284 -1.4264
 7205SOL    HW232545   4.553   9.573   3.963  0.9816 -0.1366 -0.6449
 7206SOL     OW32546   8.847   9.247   1.880 -0.0320  0.5313 -0.3497
 7206SOL    HW132547   8.825   9.177   1.948  0.7092 -0.5890 -1.2399
 7206SOL    HW232548   8.770   9.257   1.817  0.8247 -1.3115 -1.7293
 7207SOL     OW32549   3.884   6.249   1.785  0.3953  0.1367 -0.2072
 7207SOL    HW132550   3.848   6.157   1.766 -2.3033  0.2788  3.6433
 7207SOL    HW232551   3.969   6.242   1.837  0.2702 -0.2141 -0.0482
 7208SOL     OW32552   0.059   8.972   3.025 -0.0089 -0.1036  0.0392
 7208SOL    HW132553  -0.024   8.916   3.014  0.9310 -1.2563 -1.4021
 7208SOL    HW232554   0.055   9.021   3.112 -2.1515 -0.2311  0.0478
 7209SOL     OW32555   4.939   1.406   1.627 -0.2619 -0.1722 -0.3648
 7209SOL    HW132556   4.989   1.489   1.652  1.2682 -0.6358 -1.7571
 7209SOL    HW232557   4.871   1.428   1.557 -0.4007  0.0558 -0.1577
 7210SOL     OW32558   1.525   0.492   2.334 -0.2068 -0.1108  0.5282
 7210SOL    HW132559   1.454   0.559   2.313  0.1631 -0.7347 -2.9026
 7210SOL    HW232560   1.502   0.405   2.291 -0.0889 -1.9522  3.9616
 7211SOL     OW32561   3.193   1.643   2.763 -0.5925 -0.3112  0.4149
 7211SOL    HW132562   3.180   1.733   2.722  1.8371 -1.7684 -3.9166
 7211SOL    HW232563   3.280   1.640   2.812  0.3276 -0.7822 -1.1802
 7212SOL     OW32564   7.346   7.793   4.291  0.2963  0.5003  0.0167
 7212SOL    HW132565   7.415   7.750   4.351  0.2223 -0.7367 -0.7548
 7212SOL    HW232566   7.255   7.769   4.324  0.2515  0.3413 -0.2259
 7213SOL     OW32567   1.636   8.032   1.003 -0.6242 -0.0979 -0.1865
 7213SOL    HW132568   1.599   8.122   1.024 -0.5935 -0.1294  0.0059
 7213SOL    HW232569   1.565   7.963   1.019  0.1035 -0.3650  2.1123
 7214SOL     OW32570   3.762   2.550   4.220 -0.1451  0.1456 -0.2115
 7214SOL    HW132571   3.711   2.631   4.249 -0.5948 -0.6403  1.2329
 7214SOL    HW232572   3.789   2.561   4.124 -0.1990  1.9904 -0.0359
 7215SOL     OW32573   8.921   6.016   3.895  0.0285 -0.4374  0.6331
 7215SOL    HW132574   8.836   5.966   3.880 -0.3880 -0.1944  2.1791
 7215SOL    HW232575   8.989   5.955   3.936 -0.0778 -0.0825  1.3490
 7216SOL     OW32576   1.915   8.104   1.030  0.3447 -0.6410  0.1660
 7216SOL    HW132577   1.968   8.047   1.093  1.5992 -0.2993 -0.5506
 7216SOL    HW232578   1.824   8.066   1.018  1.1576 -2.4946 -0.2731
 7217SOL     OW32579   3.412   9.777   4.704  0.1474  0.0488 -0.3375
 7217SOL    HW132580   3.428   9.678   4.713  1.9320  0.2860 -0.7235
 7217SOL    HW232581   3.474   9.826   4.765  0.8368  1.0167 -1.7967
 7218SOL     OW32582   4.698   9.496   3.008  0.4431  0.7948  0.0885
 7218SOL    HW132583   4.789   9.457   3.021  0.7932  1.3488 -0.6641
 7218SOL    HW232584   4.629   9.433   3.044  1.2139  1.1469  2.2940
 7219SOL     OW32585   2.834   2.676   1.084  0.1426 -0.5064 -0.3157
 7219SOL    HW132586   2.829   2.584   1.045 -1.3359 -1.2683  1.6346
 7219SOL    HW232587   2.794   2.677   1.175 -0.9419  2.3290 -0.7509
 7220SOL     OW32588   8.290   9.874   0.946  0.5771 -0.1542 -0.2888
 7220SOL    HW132589   8.338   9.950   0.901  0.2054 -0.6199 -1.5095
 7220SOL    HW232590   8.322   9.788   0.906 -2.1464 -0.4301 -2.0263
 7221SOL     OW32591   3.816   4.170   5.576  0.2557 -0.2504 -0.0714
 7221SOL    HW132592   3.915   4.166   5.566  0.2443 -0.0474 -0.2723
 7221SOL    HW232593   3.776   4.218   5.498 -0.3178 -3.3407 -1.7657
 7222SOL     OW32594   6.124   7.558   3.066 -0.5420  0.1118  0.3295
 7222SOL    HW132595   6.186   7.615   3.121 -0.2776  1.3142 -1.1664
 7222SOL    HW232596   6.044   7.535   3.120  2.2345 -3.5168  3.1654
 7223SOL     OW32597   9.218   9.683   1.249 -0.0505 -0.0708 -0.2005
 7223SOL    HW132598   9.140   9.707   1.191 -0.1645 -0.1022 -0.0608
 7223SOL    HW232599   9.201   9.596   1.294 -1.1831  1.3003  2.0847
 7224SOL     OW32600   2.900   8.720   3.383  0.2989  0.7315 -0.2698
 7224SOL    HW132601   2.865   8.705   3.291 -0.1189 -1.0627  0.1616
 7224SOL    HW232602   2.914   8.631   3.428  2.8707  1.5028  0.5114
 7225SOL     OW32603   1.742   6.701   2.722 -0.2217 -0.0618  0.1584
 7225SOL    HW132604   1.660   6.739   2.680  0.5248  2.9965  1.2913
 7225SOL    HW232605   1.724   6.681   2.818  0.0537 -0.3448  0.1507
 7226SOL     OW32606   7.618   5.285   5.429  0.4084  0.0423 -0.2864
 7226SOL    HW132607   7.594   5.382   5.436  2.5311  0.4977  1.2208
 7226SOL    HW232608   7.681   5.271   5.353 -1.5185 -0.5209 -1.8123
 7227SOL     OW32609   9.271   7.147   5.278 -0.6829  1.0725 -0.3652
 7227SOL    HW132610   9.304   7.197   5.358 -0.2082  0.7447 -0.3588
 7227SOL    HW232611   9.181   7.107   5.299 -0.6015  1.0683 -0.0315
 7228SOL     OW32612   3.295   4.285   4.448 -0.0242  0.4706  0.0112
 7228SOL    HW132613   3.340   4.372   4.426 -0.1171  0.5733  0.2290
 7228SOL    HW232614   3.297   4.270   4.547 -0.1284  0.2910 -0.0135
 7229SOL     OW32615   7.199   8.803   2.398  0.2589 -0.3818  0.0220
 7229SOL    HW132616   7.285   8.766   2.431  1.1808  0.5262 -1.2845
 7229SOL    HW232617   7.199   8.903   2.409 -1.2376 -0.5061  1.3796
 7230SOL     OW32618   6.918   0.307   2.827 -0.3477 -0.4366  0.1623
 7230SOL    HW132619   6.847   0.269   2.768 -0.3662  1.1045 -0.7988
 7230SOL    HW232620   6.875   0.359   2.901 -0.2002  1.8853 -1.3550
 7231SOL     OW32621   9.698   1.048   4.744 -0.0074 -0.0842  0.1894
 7231SOL    HW132622   9.707   1.147   4.752 -0.3430  0.1999 -2.3670
 7231SOL    HW232623   9.755   1.003   4.813 -0.2484  1.8720  1.7108
 7232SOL     OW32624   0.687   2.892   4.771  0.0565 -0.4744  0.1884
 7232SOL    HW132625   0.737   2.955   4.712 -0.5628  1.5677  1.7664
 7232SOL    HW232626   0.716   2.904   4.866 -0.1707 -2.5024  0.5424
 7233SOL     OW32627   2.148   7.966   0.711  0.3591 -0.4634 -0.5668
 7233SOL    HW132628   2.241   7.979   0.746 -0.1817  0.1469  0.6506
 7233SOL    HW232629   2.095   8.050   0.726 -0.2533 -0.6394 -1.6886
 7234SOL     OW32630   9.785   3.712   3.285  0.0571  0.2421  0.1787
 7234SOL    HW132631   9.817   3.789   3.230  0.3568  0.8324  1.1735
 7234SOL    HW232632   9.764   3.743   3.377 -0.5384 -0.7280  0.3814
 7235SOL     OW32633   9.508   1.775   1.914  0.5508 -0.4560 -0.3630
 7235SOL    HW132634   9.513   1.776   2.014  1.3282 -1.2011 -0.3867
 7235SOL    HW232635   9.575   1.840   1.877 -0.5546  0.6792 -0.3787
 7236SOL     OW32636   8.212   1.460   4.826 -0.0430  0.0546 -0.5298
 7236SOL    HW132637   8.256   1.539   4.870  0.5277 -0.0048 -0.9779
 7236SOL    HW232638   8.119   1.485   4.799  0.2502  0.6901 -0.9792
 7237SOL     OW32639   8.039   5.817   1.132 -0.5256 -0.4738 -0.1404
 7237SOL    HW132640   7.946   5.807   1.095 -1.4138 -1.7329  2.3075
 7237SOL    HW232641   8.087   5.730   1.126  0.6422  0.2499 -1.6836
 7238SOL     OW32642   3.884   7.722   2.593 -0.0400  0.2424  0.3655
 7238SOL    HW132643   3.881   7.629   2.557 -0.7852  0.1404  0.6778
 7238SOL    HW232644   3.898   7.719   2.692  2.5657  0.5354  0.0217
 7239SOL     OW32645   8.845   0.707   2.066  0.3836 -0.0023  0.1646
 7239SOL    HW132646   8.810   0.780   2.124 -0.1866  0.2441 -0.4847
 7239SOL    HW232647   8.816   0.722   1.971  1.2412 -0.4355 -0.1774
 7240SOL     OW32648   9.406   2.354   0.248  0.5779  0.0546  0.3230
 7240SOL    HW132649   9.415   2.353   0.148  1.8414 -0.2536  0.4309
 7240SOL    HW232650   9.454   2.434   0.285  0.4320 -0.0362  0.7106
 7241SOL     OW32651   9.453   2.972   4.195  0.1164 -0.0409  0.2781
 7241SOL    HW132652   9.478   2.932   4.107 -1.9667 -0.5752 -0.1057
 7241SOL    HW232653   9.373   3.030   4.184 -1.3715 -1.6311  2.1179
 7242SOL     OW32654   3.616   6.174   3.899 -0.4089  0.8830  0.5535
 7242SOL    HW132655   3.573   6.095   3.944 -0.3999  1.6328  1.9058
 7242SOL    HW232656   3.579   6.184   3.807 -0.4083 -0.7086  0.3576
 7243SOL     OW32657   9.324   5.051   0.240 -0.2980 -0.2288  0.3144
 7243SOL    HW132658   9.284   4.960   0.252 -1.2548  0.2610  0.8721
 7243SOL    HW232659   9.414   5.042   0.198 -0.0162 -1.5007  1.1556
 7244SOL     OW32660   1.676   5.828   1.931 -0.4792  0.2322  0.7324
 7244SOL    HW132661   1.614   5.769   1.982  1.1849 -0.9696  1.4163
 7244SOL    HW232662   1.759   5.844   1.985  0.8239 -0.1029 -1.1101
 7245SOL     OW32663   7.419   9.143   1.502 -0.2291 -0.3563 -0.3376
 7245SOL    HW132664   7.373   9.164   1.588 -1.8016 -2.3639 -0.6337
 7245SOL    HW232665   7.404   9.217   1.436 -0.5794  0.3417  0.5268
 7246SOL     OW32666   0.051   8.467   0.471 -0.3716 -0.0616 -0.5613
 7246SOL    HW132667   0.002   8.535   0.416 -3.9276 -2.0644 -0.0463
 7246SOL    HW232668   0.071   8.505   0.561 -0.8351  0.8670 -0.8461
 7247SOL     OW32669   3.062   7.608   3.761 -0.2465  0.3678 -0.2975
 7247SOL    HW132670   3.076   7.512   3.783 -0.3069  0.3482 -0.3434
 7247SOL    HW232671   3.150   7.655   3.758 -0.2003  0.2689 -0.4791
 7248SOL     OW32672   2.174   0.920   2.783 -0.0760  0.4875  0.2536
 7248SOL    HW132673   2.102   0.856   2.757 -0.7684  0.4873  2.0341
 7248SOL    HW232674   2.260   0.872   2.796 -1.0316 -0.5118  3.5544
 7249SOL     OW32675   3.364   5.689   1.204  0.0162  0.2467  0.1166
 7249SOL    HW132676   3.333   5.613   1.146  2.3218 -1.0536  0.5427
 7249SOL    HW232677   3.428   5.746   1.154 -0.2589  0.8178  0.4145
 7250SOL     OW32678   3.364   7.625   2.558 -0.2597  0.2366  0.4087
 7250SOL    HW132679   3.394   7.718   2.538  3.8973 -1.1307 -0.0131
 7250SOL    HW232680   3.328   7.583   2.475  0.4992  0.5000 -0.0514
 7251SOL     OW32681   8.416   7.836   2.086 -0.5240  0.0241 -0.3007
 7251SOL    HW132682   8.430   7.737   2.090  2.8523  0.5217  1.7086
 7251SOL    HW232683   8.374   7.868   2.170 -0.0538  0.5058 -0.2432
 7252SOL     OW32684   0.150   4.583   5.243 -0.1627  0.0264  0.1008
 7252SOL    HW132685   0.153   4.534   5.330 -0.3309  0.6229  0.4468
 7252SOL    HW232686   0.087   4.537   5.181 -0.3926 -0.1466  0.4611
 7253SOL     OW32687   9.261   4.905   1.483 -0.6794  0.1166 -0.1237
 7253SOL    HW132688   9.211   4.988   1.460 -0.9251 -0.0066 -0.0460
 7253SOL    HW232689   9.196   4.830   1.494 -0.2321 -0.7973 -3.2332
 7254SOL     OW32690   4.079   1.730   1.637 -0.1557  0.3094  0.0178
 7254SOL    HW132691   4.133   1.754   1.556 -1.1642  0.3777 -0.6424
 7254SOL    HW232692   4.040   1.813   1.676 -1.4054  0.0529 -0.6682
 7255SOL     OW32693   2.141   2.156   2.047  0.6788  0.0629  0.2297
 7255SOL    HW132694   2.228   2.107   2.050 -0.1791 -1.5005 -0.0588
 7255SOL    HW232695   2.088   2.126   1.967 -1.1734 -0.8147  1.7538
 7256SOL     OW32696   8.485   3.232   3.606 -0.6885  0.8664  0.1081
 7256SOL    HW132697   8.559   3.267   3.663 -0.6693 -2.4671  2.2372
 7256SOL    HW232698   8.514   3.234   3.510  2.1286 -0.2667  0.8952
 7257SOL     OW32699   3.137   2.355   4.662 -0.3933  0.0454  0.0820
 7257SOL    HW132700   3.079   2.365   4.582 -1.0175 -1.1653  0.3704
 7257SOL    HW232701   3.225   2.399   4.645 -0.4428 -0.3830 -1.3446
 7258SOL     OW32702   4.476   0.910   4.576 -0.1041  0.7164  0.0590
 7258SOL    HW132703   4.533   0.883   4.498 -0.1204 -1.1362  0.6500
 7258SOL    HW232704   4.531   0.909   4.659 -0.1840  2.2978  0.1388
 7259SOL     OW32705   6.657   0.409   3.948 -0.7785 -0.0388  0.2711
 7259SOL    HW132706   6.653   0.488   3.887  1.0528 -0.8132 -0.9190
 7259SOL    HW232707   6.743   0.410   3.999 -0.3910 -1.5971 -0.2899
 7260SOL     OW32708   4.090   8.436   0.193 -0.0415  0.4157 -0.1928
 7260SOL    HW132709   4.134   8.390   0.116  0.6554 -0.3574  0.6567
 7260SOL    HW232710   4.072   8.531   0.170  4.2137  1.4039  0.2587
 7261SOL     OW32711   7.320   9.508   3.471 -0.0788  0.2785  0.7718
 7261SOL    HW132712   7.292   9.427   3.419 -0.7589  0.1439  1.3510
 7261SOL    HW232713   7.285   9.590   3.426 -0.8361  0.1509  1.1214
 7262SOL     OW32714   0.164   7.211   1.839  0.2979  0.2089 -0.3602
 7262SOL    HW132715   0.256   7.189   1.872 -0.0744  0.6892  1.0108
 7262SOL    HW232716   0.159   7.310   1.820 -0.4320  0.4633  1.1490
 7263SOL     OW32717   7.434   1.893   3.790  0.1334  0.3015 -0.5804
 7263SOL    HW132718   7.460   1.911   3.885  2.3323  0.8092 -1.2637
 7263SOL    HW232719   7.460   1.971   3.733 -0.1217 -0.4879 -1.7969
 7264SOL     OW32720   2.384   5.875   3.482 -0.0951  0.4864  0.3340
 7264SOL    HW132721   2.428   5.955   3.442 -0.6904  0.6502  0.0018
 7264SOL    HW232722   2.406   5.794   3.427 -0.3961  0.6053  0.0404
 7265SOL     OW32723   2.699   2.246   0.004  0.0003  0.3904  0.1717
 7265SOL    HW132724   2.793   2.229   0.034  0.1424  0.9178  0.0150
 7265SOL    HW232725   2.657   2.158  -0.020  1.0530  0.3251 -1.5390
 7266SOL     OW32726   3.425   4.250   3.168  0.1582  0.1776 -0.0535
 7266SOL    HW132727   3.429   4.319   3.095 -0.3802 -0.0671 -0.3157
 7266SOL    HW232728   3.331   4.241   3.200  0.4236  0.4362  0.8227
 7267SOL     OW32729   8.280   9.952   3.932 -0.3396 -0.0539  0.0041
 7267SOL    HW132730   8.293   9.860   3.970 -0.2676 -0.6862 -1.4909
 7267SOL    HW232731   8.324   9.957   3.842 -1.3854  1.0589 -0.4587
 7268SOL     OW32732   3.621   2.658   3.749  0.3714  0.4568 -0.2893
 7268SOL    HW132733   3.605   2.722   3.674  0.8937 -0.1224 -0.8984
 7268SOL    HW232734   3.557   2.678   3.823 -0.0117  1.1645 -0.7981
 7269SOL     OW32735   1.284   9.027   2.638 -0.3217 -0.2643 -0.0392
 7269SOL    HW132736   1.228   9.082   2.701  1.9703 -0.0857  1.9037
 7269SOL    HW232737   1.354   8.979   2.690  0.7685 -1.1976 -2.3305
 7270SOL     OW32738   2.982   3.346   1.401 -0.2434  1.0462 -0.2717
 7270SOL    HW132739   2.979   3.444   1.420  0.4386  1.0276 -0.0341
 7270SOL    HW232740   2.961   3.295   1.484 -1.2508  0.9940 -0.5554
 7271SOL     OW32741   3.278   4.147   4.191 -0.3853  0.1755  0.6419
 7271SOL    HW132742   3.259   4.185   4.281 -2.0745 -1.0204  0.8275
 7271SOL    HW232743   3.367   4.178   4.159 -0.2815  1.5397  2.2181
 7272SOL     OW32744   0.756   9.211   1.261  0.0701 -0.4097 -0.2255
 7272SOL    HW132745   0.812   9.241   1.339 -0.0261 -0.3738 -0.1698
 7272SOL    HW232746   0.805   9.141   1.210  0.6412  0.4275 -0.8318
 7273SOL     OW32747   9.498   6.034   3.581  0.1846  0.4259 -0.2061
 7273SOL    HW132748   9.413   6.052   3.532 -0.9242  1.3323  1.9868
 7273SOL    HW232749   9.499   6.086   3.666  1.1940 -2.5270  1.6890
 7274SOL     OW32750   0.014   1.662   3.654 -0.1940  0.2295  0.6503
 7274SOL    HW132751   0.106   1.639   3.687  0.2555  1.5702  0.3479
 7274SOL    HW232752  -0.021   1.586   3.600  1.7202  0.6516 -1.2437
 7275SOL     OW32753   2.652   1.080   4.683 -0.0310 -0.3752 -0.0161
 7275SOL    HW132754   2.597   1.009   4.639  1.2884 -0.6497 -1.2509
 7275SOL    HW232755   2.729   1.103   4.625  1.6717 -0.6288  2.0887
 7276SOL     OW32756   2.244   7.549   4.087  0.1180  0.4651  0.1048
 7276SOL    HW132757   2.207   7.509   4.004 -1.2291  1.1251  0.3797
 7276SOL    HW232758   2.214   7.495   4.167  0.6490  0.3735  0.2485
 7277SOL     OW32759   2.604   6.117   1.231  0.2917  0.1248  0.4352
 7277SOL    HW132760   2.649   6.135   1.143  1.4923 -1.9310  0.6106
 7277SOL    HW232761   2.551   6.033   1.226  0.2487  0.0632  1.6218
 7278SOL     OW32762   9.897   3.284   0.150 -0.1645 -0.1201 -0.0779
 7278SOL    HW132763   9.812   3.336   0.137  0.1917  0.3183 -0.6920
 7278SOL    HW232764   9.890   3.196   0.104 -0.3048 -0.1102 -0.0746
 7279SOL     OW32765   3.709   9.012   2.146  0.3755  0.7207  0.7974
 7279SOL    HW132766   3.647   9.042   2.073 -1.5141 -1.1019  1.6173
 7279SOL    HW232767   3.658   8.962   2.216  2.5582  0.3379  2.1849
 7280SOL     OW32768   8.090   3.972   4.613 -0.2065  0.4597  0.3266
 7280SOL    HW132769   8.093   4.052   4.672  2.3064  1.3324 -0.9214
 7280SOL    HW232770   8.109   3.890   4.667  2.2254  1.2694  0.7610
 7281SOL     OW32771   2.015   6.043   0.807 -0.0710 -0.2802  0.2053
 7281SOL    HW132772   2.112   6.036   0.786 -0.1950 -2.6777  0.3949
 7281SOL    HW232773   2.000   6.023   0.904 -0.5586  1.9997  0.6524
 7282SOL     OW32774   3.983   6.943   3.481  0.1397 -0.7958 -0.2850
 7282SOL    HW132775   3.912   7.012   3.496  0.2464 -0.3904 -1.5540
 7282SOL    HW232776   3.976   6.872   3.551  0.2048  0.6382  1.2167
 7283SOL     OW32777   8.211   6.864   3.562  0.5479 -0.1925 -0.2754
 7283SOL    HW132778   8.261   6.822   3.638  0.6662 -1.6921 -1.1575
 7283SOL    HW232779   8.269   6.933   3.518  1.0762 -0.4609 -0.0024
 7284SOL     OW32780   2.217   1.756   0.829 -0.2146 -0.3999  0.1868
 7284SOL    HW132781   2.165   1.691   0.884  0.9605 -0.2976  1.4514
 7284SOL    HW232782   2.303   1.714   0.801 -0.6442 -0.3132 -1.2608
 7285SOL     OW32783   6.714   7.691   3.143  0.4524  0.1178  0.2343
 7285SOL    HW132784   6.655   7.617   3.173  1.1208 -0.0288  1.2090
 7285SOL    HW232785   6.684   7.723   3.052 -1.8543  0.8393  1.2073
 7286SOL     OW32786   5.018   8.606   2.468 -0.1545  0.1773  0.1259
 7286SOL    HW132787   4.937   8.608   2.527 -1.7302 -0.6088 -1.9122
 7286SOL    HW232788   5.036   8.511   2.440  0.5086  0.5415 -0.7123
 7287SOL     OW32789   6.967   8.105   3.007  0.7263  0.3372 -0.0539
 7287SOL    HW132790   6.957   8.138   3.101  0.7070  0.0487  0.0459
 7287SOL    HW232791   7.007   8.014   3.008 -1.3670 -0.6219 -0.2003
 7288SOL     OW32792   3.598   3.062   0.766 -0.5013 -0.1388  0.2657
 7288SOL    HW132793   3.519   3.045   0.707  0.5393  1.2051 -1.5775
 7288SOL    HW232794   3.680   3.022   0.724  0.3411  1.2683  0.5344
 7289SOL     OW32795   8.602   6.850   1.503 -0.0907 -0.0002  0.3411
 7289SOL    HW132796   8.600   6.944   1.537  3.5418  0.1288  0.3925
 7289SOL    HW232797   8.574   6.787   1.576 -0.8233  0.8934  0.8383
 7290SOL     OW32798   2.372   8.390   3.138  0.3425  0.0827  0.3285
 7290SOL    HW132799   2.337   8.372   3.046 -1.3481  2.0270  0.5523
 7290SOL    HW232800   2.465   8.427   3.132  0.5836 -0.6603 -0.5397
 7291SOL     OW32801   8.885   6.533   1.981  0.5522 -0.2019  0.6985
 7291SOL    HW132802   8.889   6.447   1.930 -0.0141  0.8187 -1.1273
 7291SOL    HW232803   8.790   6.553   2.005  0.4614  0.7201 -0.3579
 7292SOL     OW32804   3.033   0.581   0.313  0.5198 -0.1512  0.4247
 7292SOL    HW132805   3.010   0.656   0.376 -0.1439 -0.9459  1.1448
 7292SOL    HW232806   3.123   0.545   0.337 -0.1846 -1.1569  1.6288
 7293SOL     OW32807   3.094   4.740   0.239 -0.4286 -0.0195 -0.6206
 7293SOL    HW132808   3.185   4.776   0.220 -0.0891 -1.0602 -1.0080
 7293SOL    HW232809   3.093   4.700   0.331 -0.7615  0.8409 -0.2495
 7294SOL     OW32810   9.530   4.410   4.262 -1.0346  0.0416 -0.8730
 7294SOL    HW132811   9.491   4.352   4.191 -0.8981  0.8096 -1.5824
 7294SOL    HW232812   9.621   4.440   4.235 -0.9150  0.2102 -0.3025
 7295SOL     OW32813   0.495   9.188   5.551  0.0724  0.0888 -0.5553
 7295SOL    HW132814   0.467   9.121   5.620 -0.4039  0.5327 -0.3144
 7295SOL    HW232815   0.446   9.274   5.566  0.4744  0.4064 -1.0311
 7296SOL     OW32816   9.531   0.863   1.717 -0.1052 -0.4060  0.2744
 7296SOL    HW132817   9.463   0.797   1.685  0.4270 -0.7762 -0.1039
 7296SOL    HW232818   9.615   0.853   1.663  0.2957 -0.0441  0.8256
 7297SOL     OW32819   0.855   7.884   3.045  0.1523  0.2803  0.0388
 7297SOL    HW132820   0.797   7.923   3.116 -0.0801 -0.0724  0.0473
 7297SOL    HW232821   0.851   7.940   2.963 -1.6995 -0.7531 -0.6107
 7298SOL     OW32822   3.774   4.961   2.217 -0.4938 -0.5787 -0.1094
 7298SOL    HW132823   3.782   4.907   2.133  0.0396  0.8263 -0.9728
 7298SOL    HW232824   3.850   4.938   2.278  1.0666  0.8233 -1.4404
 7299SOL     OW32825   1.419   0.174   4.723 -0.3670  0.5595  0.3414
 7299SOL    HW132826   1.391   0.109   4.794 -0.4625 -0.5714 -0.7178
 7299SOL    HW232827   1.338   0.202   4.671 -0.1766  0.7577  0.1540
 7300SOL     OW32828   2.023   5.190   4.137 -0.0637 -0.4819  0.0018
 7300SOL    HW132829   1.926   5.205   4.155 -0.8265 -1.2780 -3.0811
 7300SOL    HW232830   2.059   5.265   4.082  1.0630 -0.2665  0.9935
 7301SOL     OW32831   8.564   2.633   2.734  0.4252  0.1783 -0.2390
 7301SOL    HW132832   8.499   2.558   2.726 -0.7371  0.9204  1.9325
 7301SOL    HW232833   8.653   2.598   2.763  0.6008 -0.6293 -1.6680
 7302SOL     OW32834   4.652   6.105   1.691  0.0378  0.4068  0.0844
 7302SOL    HW132835   4.560   6.144   1.696  0.3065  0.9471  0.8988
 7302SOL    HW232836   4.650   6.011   1.726  0.0410  0.8708  1.3600
 7303SOL     OW32837   6.934   8.777   4.175 -0.0416 -0.1530  0.1595
 7303SOL    HW132838   7.030   8.754   4.192  0.0343  0.5581  0.7430
 7303SOL    HW232839   6.875   8.722   4.234  0.0466 -0.0813  0.3132
 7304SOL     OW32840   0.828   2.138   5.181  0.4657  0.7123  0.1107
 7304SOL    HW132841   0.799   2.068   5.246 -0.8373  0.5440 -0.6135
 7304SOL    HW232842   0.747   2.179   5.139  1.2757 -0.6661 -2.9673
 7305SOL     OW32843   4.814   4.508   4.327 -0.0687 -0.4211  0.4473
 7305SOL    HW132844   4.832   4.412   4.302  0.7767 -0.7633  2.3171
 7305SOL    HW232845   4.719   4.517   4.356 -0.0693 -0.7460  0.5483
 7306SOL     OW32846   9.269   3.748   1.648 -0.1096 -0.2553  0.3405
 7306SOL    HW132847   9.227   3.832   1.614  0.3952  0.0870  0.5458
 7306SOL    HW232848   9.368   3.753   1.634  0.1971  0.1750  2.4201
 7307SOL     OW32849   3.251   0.333   3.228 -0.0162 -0.6459  0.0357
 7307SOL    HW132850   3.281   0.265   3.296 -1.9840 -0.6066  0.9912
 7307SOL    HW232851   3.244   0.422   3.272 -1.6527 -0.6907 -0.1179
 7308SOL     OW32852   9.795   5.907   2.981 -0.1361 -0.5671 -0.5600
 7308SOL    HW132853   9.812   5.874   3.074 -0.7881  0.8272  0.0747
 7308SOL    HW232854   9.705   5.876   2.951  0.0932 -1.0563 -0.7391
 7309SOL     OW32855   8.666   3.979   4.668  0.7623  0.3535  0.5729
 7309SOL    HW132856   8.574   4.005   4.697  0.2205 -0.5787 -0.3128
 7309SOL    HW232857   8.718   4.062   4.648  0.4300  0.9250  1.9899
 7310SOL     OW32858   8.577   5.229   0.999 -0.1076 -0.3824  0.3112
 7310SOL    HW132859   8.564   5.283   0.916 -0.5016  0.5899  0.9888
 7310SOL    HW232860   8.674   5.216   1.016 -0.0301 -0.8638 -0.4682
 7311SOL     OW32861   7.267   0.537   0.974 -0.0261 -0.8207 -0.1465
 7311SOL    HW132862   7.283   0.453   0.922  0.8955 -0.4435 -0.4828
 7311SOL    HW232863   7.324   0.610   0.937 -0.0643 -0.3063  0.8031
 7312SOL     OW32864   7.961   0.878   0.469 -0.8221 -0.3793 -0.1517
 7312SOL    HW132865   8.025   0.882   0.546  1.4923 -0.0023 -2.0356
 7312SOL    HW232866   7.979   0.955   0.407 -2.2737 -0.9953 -1.3575
 7313SOL     OW32867   3.231   0.409   2.841 -0.1798 -0.1532  0.2309
 7313SOL    HW132868   3.246   0.490   2.784  0.0768  0.0784  0.6230
 7313SOL    HW232869   3.261   0.429   2.935  1.8065 -1.3654 -0.1087
 7314SOL     OW32870   0.011   1.921   3.595  0.0429  0.2397 -0.2575
 7314SOL    HW132871  -0.080   1.958   3.574 -0.2077  0.1521  0.6434
 7314SOL    HW232872   0.005   1.821   3.599  0.4451  0.1563 -1.4076
 7315SOL     OW32873   4.968   8.290   2.123  0.3395  0.0233  0.1394
 7315SOL    HW132874   5.067   8.299   2.122  0.3791 -0.2782  0.9624
 7315SOL    HW232875   4.943   8.195   2.138 -0.0827 -0.7094 -4.3177
 7316SOL     OW32876   5.248   9.900   4.383  0.1761 -0.2162 -0.2873
 7316SOL    HW132877   5.238   9.812   4.430 -0.5086  0.5141  0.9851
 7316SOL    HW232878   5.168   9.917   4.326 -0.3447  0.2060  0.5598
 7317SOL     OW32879   3.718   8.355   1.807  0.7123 -0.1115 -0.2656
 7317SOL    HW132880   3.681   8.370   1.899 -2.2091 -0.4198 -1.3337
 7317SOL    HW232881   3.730   8.444   1.761  0.8377 -0.0404 -0.0984
 7318SOL     OW32882   1.853   2.847   5.549  0.2597  0.5550 -0.0713
 7318SOL    HW132883   1.870   2.889   5.460  2.3264  0.8066  0.4208
 7318SOL    HW232884   1.854   2.747   5.538  5.3963  0.4013  0.3888
 7319SOL     OW32885   4.841   8.717   3.794  0.2601  0.1071 -0.1560
 7319SOL    HW132886   4.858   8.815   3.786 -1.1477  0.3920  0.2059
 7319SOL    HW232887   4.742   8.700   3.798  0.4373 -1.4107 -1.4500
 7320SOL     OW32888   5.641   0.364   2.527 -0.2531 -0.1271  0.2452
 7320SOL    HW132889   5.640   0.386   2.625  0.9346  2.0643 -0.1963
 7320SOL    HW232890   5.729   0.322   2.503 -1.0302 -1.8347  0.3448
 7321SOL     OW32891   0.881   8.106   4.118 -0.3244  0.5119 -0.0552
 7321SOL    HW132892   0.869   8.007   4.125 -3.0327  0.8389  0.4760
 7321SOL    HW232893   0.961   8.134   4.171  0.2108 -1.3442  0.1462
 7322SOL     OW32894   1.720   7.216   4.621 -0.2190  0.2906  0.1690
 7322SOL    HW132895   1.744   7.313   4.627 -2.2025  0.7256  1.6957
 7322SOL    HW232896   1.780   7.163   4.681  0.7954  0.5792 -0.5827
 7323SOL     OW32897   1.547   9.794   2.275 -0.0452  0.0627 -0.3297
 7323SOL    HW132898   1.472   9.745   2.321 -1.1727  1.2513 -0.8592
 7323SOL    HW232899   1.531   9.793   2.176 -0.3627  1.9413 -0.3032
 7324SOL     OW32900   2.944   6.608   0.126 -0.0918 -0.3543  0.6574
 7324SOL    HW132901   2.885   6.613   0.045  1.1870 -1.9908 -0.4304
 7324SOL    HW232902   2.917   6.677   0.192  0.5692  2.9556 -2.3460
 7325SOL     OW32903   2.232   7.320   1.722 -0.0665  0.0246  0.2573
 7325SOL    HW132904   2.206   7.339   1.817 -0.0245  2.7267 -0.2243
 7325SOL    HW232905   2.151   7.327   1.664 -0.2709 -2.5301  0.1622
 7326SOL     OW32906   3.747   6.596   3.998  0.0799  0.4843 -0.2553
 7326SOL    HW132907   3.812   6.609   3.923  0.6295 -0.7399 -0.0030
 7326SOL    HW232908   3.752   6.501   4.030 -0.3259  0.9336  1.1635
 7327SOL     OW32909   3.501   5.251   5.565 -0.2478  0.3428  0.3982
 7327SOL    HW132910   3.444   5.288   5.638  0.1916  1.2551  0.2825
 7327SOL    HW232911   3.597   5.274   5.582  0.0693 -0.9662  0.4612
 7328SOL     OW32912   9.597   8.392   4.827  0.3300 -0.4025 -0.2407
 7328SOL    HW132913   9.684   8.417   4.870  0.0749 -0.6838  0.4435
 7328SOL    HW232914   9.602   8.297   4.795  0.0775 -0.5975  0.3009
 7329SOL     OW32915   9.367   9.267   5.163  0.3481 -0.2744 -0.4760
 7329SOL    HW132916   9.310   9.186   5.176 -1.7233  1.6332  3.0519
 7329SOL    HW232917   9.445   9.263   5.226 -0.1219  0.7582  0.1804
 7330SOL     OW32918   9.863   7.603   2.594  0.3494 -0.6023  0.3224
 7330SOL    HW132919   9.773   7.561   2.596  0.7682 -1.4966  0.5046
 7330SOL    HW232920   9.927   7.545   2.544  0.1329  1.4404 -2.4417
 7331SOL     OW32921   9.990   1.328   5.231  0.3877 -0.4331  0.5806
 7331SOL    HW132922   9.892   1.338   5.214  0.4972  0.4028  0.3965
 7331SOL    HW232923  10.004   1.298   5.326 -0.0424 -0.5473  0.6109
 7332SOL     OW32924   9.751   2.009   2.834 -0.4635 -0.2465 -0.2239
 7332SOL    HW132925   9.751   2.056   2.746  0.7740 -0.0116 -0.0969
 7332SOL    HW232926   9.670   1.950   2.840 -0.3250 -0.5959 -1.6918
 7333SOL     OW32927   9.224   2.718   2.178 -0.3191  0.2650  0.7902
 7333SOL    HW132928   9.185   2.679   2.095  0.3853  1.6145 -0.1883
 7333SOL    HW232929   9.321   2.694   2.184 -0.6430 -0.8241  1.8374
 7334SOL     OW32930   2.547   0.662   0.597 -0.8401  0.5020  0.4474
 7334SOL    HW132931   2.502   0.673   0.686  0.6940  1.8775  1.0927
 7334SOL    HW232932   2.518   0.735   0.536 -1.3547 -0.0386  0.0383
 7335SOL     OW32933   2.874   4.965   5.299  0.0928 -0.4389 -0.2281
 7335SOL    HW132934   2.851   4.987   5.204  0.7075  1.0768 -0.0452
 7335SOL    HW232935   2.920   4.876   5.303 -1.1813 -1.1457 -1.1816
 7336SOL     OW32936   9.958   2.052   2.280  0.0607 -0.2908 -0.4462
 7336SOL    HW132937  10.010   1.969   2.301 -0.3935 -0.4736 -0.0410
 7336SOL    HW232938   9.997   2.096   2.199  1.0292 -0.2636  0.0303
 7337SOL     OW32939   0.602   4.975   0.179  0.1716  0.0928  0.2965
 7337SOL    HW132940   0.665   4.918   0.232 -0.7648  0.0114  1.3425
 7337SOL    HW232941   0.654   5.030   0.113  1.0446 -2.4803 -1.2402
 7338SOL     OW32942   1.532   5.349   0.710  0.4491 -0.0715  0.6541
 7338SOL    HW132943   1.485   5.403   0.641  0.7770 -1.1094 -0.4046
 7338SOL    HW232944   1.469   5.327   0.784 -0.7703 -1.4535 -0.7502
 7339SOL     OW32945   8.169   0.630   3.926 -0.2457 -0.3541  0.6270
 7339SOL    HW132946   8.200   0.584   4.009 -0.3009 -0.4341  0.6024
 7339SOL    HW232947   8.091   0.582   3.888  1.1003 -1.5685 -0.6711
 7340SOL     OW32948   8.143   3.202   3.420 -0.1500 -0.3076  0.1766
 7340SOL    HW132949   8.180   3.245   3.502 -1.1397  2.1564 -0.6173
 7340SOL    HW232950   8.086   3.268   3.370  0.4335 -1.7314 -2.4943
 7341SOL     OW32951   2.838   3.615   3.725 -0.4205  0.1051  0.2840
 7341SOL    HW132952   2.742   3.617   3.698 -0.9098 -0.8627  1.8187
 7341SOL    HW232953   2.886   3.694   3.687 -2.2621  1.6527  1.1012
 7342SOL     OW32954   1.979   3.626   1.869 -0.8031 -0.6379  0.5226
 7342SOL    HW132955   1.967   3.714   1.916  0.1905  0.3112 -0.9500
 7342SOL    HW232956   2.073   3.595   1.880 -1.6013 -2.5096  2.6323
 7343SOL     OW32957   2.042   1.192   5.053 -0.4355 -0.6022  0.0904
 7343SOL    HW132958   2.137   1.162   5.052  0.0815  0.7444 -3.9647
 7343SOL    HW232959   1.982   1.116   5.077  1.4526 -2.3600 -0.6718
 7344SOL     OW32960   0.223   2.616   1.146  0.2991  0.5984 -0.0050
 7344SOL    HW132961   0.133   2.660   1.138 -0.3273 -0.7647 -0.6384
 7344SOL    HW232962   0.280   2.668   1.210 -1.0832  1.2658  0.7119
 7345SOL     OW32963   2.210   3.941   3.779  0.6090 -0.0877 -0.1566
 7345SOL    HW132964   2.220   4.011   3.708 -0.2986  0.3625  0.1634
 7345SOL    HW232965   2.300   3.922   3.819  0.7135  1.6561  0.4789
 7346SOL     OW32966   5.791   5.099   1.177  0.3530  0.1805 -0.2196
 7346SOL    HW132967   5.721   5.145   1.230  0.7723  2.3912 -1.4855
 7346SOL    HW232968   5.760   5.089   1.082  0.8274 -0.9126 -0.2652
 7347SOL     OW32969   7.815   2.125   0.717  0.2105  0.2182  0.2799
 7347SOL    HW132970   7.911   2.101   0.708 -0.0468 -0.8210  0.2329
 7347SOL    HW232971   7.758   2.046   0.692 -0.6619  1.0723 -0.4859
 7348SOL     OW32972   9.064   0.056   4.672 -0.2581 -0.1893 -0.7125
 7348SOL    HW132973   9.100   0.041   4.580  0.4338 -0.8640 -0.3421
 7348SOL    HW232974   9.134   0.031   4.739 -0.3441  1.3826 -0.0160
 7349SOL     OW32975   6.989   6.518   4.267  0.4607 -0.6178 -0.1701
 7349SOL    HW132976   6.942   6.544   4.351  0.3246 -1.1327 -0.0839
 7349SOL    HW232977   6.946   6.563   4.189  1.1628  0.5901  0.1233
 7350SOL     OW32978   6.029   3.574   0.203 -0.0468  0.6139  0.0992
 7350SOL    HW132979   6.092   3.496   0.206  0.8209  1.3328  1.0756
 7350SOL    HW232980   6.082   3.659   0.204 -1.0593  1.2588  2.9698
 7351SOL     OW32981   0.605   8.696   1.343 -0.4218  0.1049 -0.4341
 7351SOL    HW132982   0.537   8.634   1.305 -0.7609 -0.5481  1.1591
 7351SOL    HW232983   0.559   8.765   1.399  0.2967 -1.6168  2.4156
 7352SOL     OW32984   8.798   1.400   2.374  0.0904 -0.1801  0.3923
 7352SOL    HW132985   8.822   1.475   2.436  1.7262 -1.3190  1.1856
 7352SOL    HW232986   8.882   1.354   2.344 -0.9337 -2.2669  0.6496
 7353SOL     OW32987   4.999   8.031   1.752  0.3316 -0.2595  0.0219
 7353SOL    HW132988   4.955   8.112   1.791  1.3171  0.6311 -0.6856
 7353SOL    HW232989   5.043   7.978   1.825  0.1212  0.1163  0.4229
 7354SOL     OW32990   0.756   8.448   2.570 -0.1704 -0.7657 -0.3473
 7354SOL    HW132991   0.852   8.461   2.591 -0.2782  1.6583 -1.2029
 7354SOL    HW232992   0.700   8.472   2.649 -0.2306  1.6139 -1.0706
 7355SOL     OW32993   8.729   7.807   3.932  0.1584 -0.1169 -0.0759
 7355SOL    HW132994   8.637   7.783   3.900 -0.0294 -0.9668  1.0521
 7355SOL    HW232995   8.752   7.899   3.903  0.0747 -0.9127 -2.7954
 7356SOL     OW32996   1.533   1.613   2.534  0.1294 -0.0279 -0.0504
 7356SOL    HW132997   1.493   1.524   2.557  2.0352 -1.0863 -0.7197
 7356SOL    HW232998   1.577   1.651   2.615 -0.7486  0.3495  0.2553
 7357SOL     OW32999   4.708   0.113   0.992 -0.0259  0.1479  0.2986
 7357SOL    HW133000   4.756   0.094   1.078  0.3146  1.6634  0.4621
 7357SOL    HW233001   4.651   0.194   1.003 -1.1942 -0.5507 -0.4629
 7358SOL     OW33002   9.446   1.585   3.777 -0.3657 -0.2603 -0.6882
 7358SOL    HW133003   9.505   1.666   3.780  1.3687 -1.5280  1.1471
 7358SOL    HW233004   9.496   1.507   3.815 -2.1329 -2.1175 -2.1206
 7359SOL     OW33005   0.388   0.106   4.358 -0.2433 -0.4156  0.1535
 7359SOL    HW133006   0.378   0.023   4.413 -0.2962 -0.6198 -0.1686
 7359SOL    HW233007   0.319   0.108   4.287  0.5263 -0.6907 -0.6080
 7360SOL     OW33008   2.768   2.140   2.357 -0.3125  0.3867 -0.2534
 7360SOL    HW133009   2.716   2.166   2.437 -1.9271 -0.3444 -1.0505
 7360SOL    HW233010   2.843   2.078   2.384 -0.7631  0.2488  0.6919
 7361SOL     OW33011   0.784   2.215   4.522 -0.3530 -0.2401 -0.2082
 7361SOL    HW133012   0.837   2.299   4.511 -0.0245 -0.1093  2.1670
 7361SOL    HW233013   0.839   2.146   4.568 -1.2502 -1.1087 -0.4157
 7362SOL     OW33014   4.049   9.386   2.715  0.0581  0.2950  0.2443
 7362SOL    HW133015   4.010   9.343   2.796  2.0830 -0.2539  0.9529
 7362SOL    HW233016   4.068   9.316   2.646 -1.7798  0.7737 -0.7848
 7363SOL     OW33017   4.490   2.948   2.588 -0.4721  0.5960 -0.8210
 7363SOL    HW133018   4.445   3.034   2.563 -2.0029  0.5984  1.7608
 7363SOL    HW233019   4.451   2.914   2.673  0.2033 -2.6146 -1.7259
 7364SOL     OW33020   1.972   1.312   0.861  0.7244 -0.3312  0.2818
 7364SOL    HW133021   1.946   1.396   0.909 -0.9402 -0.4721 -0.3780
 7364SOL    HW233022   2.002   1.244   0.929 -0.5379 -0.1431  1.0472
 7365SOL     OW33023   1.332   2.062   2.967 -0.9739 -0.4312  0.0613
 7365SOL    HW133024   1.359   1.977   2.922 -2.0311  0.3160 -2.0509
 7365SOL    HW233025   1.394   2.135   2.939 -0.8857 -0.2201  0.8072
 7366SOL     OW33026   0.590   8.652   1.839  0.2240 -0.0143 -0.0890
 7366SOL    HW133027   0.538   8.623   1.920  0.2414 -0.0078 -0.0756
 7366SOL    HW233028   0.636   8.739   1.858 -1.4575  1.0607 -0.8107
 7367SOL     OW33029   0.134   0.151   1.673  0.1649 -0.1665  0.1919
 7367SOL    HW133030   0.221   0.111   1.644 -0.3245 -1.8523  0.9595
 7367SOL    HW233031   0.059   0.098   1.634 -0.5450  1.9054 -1.3200
 7368SOL     OW33032   7.132   0.732   0.311 -0.1481 -0.1026 -0.4048
 7368SOL    HW133033   7.142   0.761   0.216 -0.2414 -1.2346 -0.7607
 7368SOL    HW233034   7.069   0.795   0.358  2.2313  2.2561 -0.2748
 7369SOL     OW33035   9.441   7.349   2.729 -0.7689  0.3534 -0.1485
 7369SOL    HW133036   9.460   7.276   2.662 -1.3138  1.4127 -1.4782
 7369SOL    HW233037   9.417   7.307   2.817 -1.7601 -1.1019 -1.0807
 7370SOL     OW33038   2.696   6.638   3.673  0.5074  0.0004  0.1123
 7370SOL    HW133039   2.758   6.689   3.733 -0.9203  0.1642  1.4982
 7370SOL    HW233040   2.614   6.693   3.656  0.3956 -0.5277 -1.0434
 7371SOL     OW33041   1.590   2.864   4.758  0.5276  0.6874  0.3043
 7371SOL    HW133042   1.516   2.899   4.700  0.6636  0.0367 -0.2608
 7371SOL    HW233043   1.566   2.880   4.854 -1.1111 -0.9489  0.2061
 7372SOL     OW33044   4.423   4.135   2.181 -0.1754 -0.3493  0.3544
 7372SOL    HW133045   4.460   4.212   2.232  0.9288 -0.0822 -0.8336
 7372SOL    HW233046   4.460   4.135   2.088 -0.9341 -1.7356  0.0359
 7373SOL     OW33047   0.117   6.086   2.030 -0.3777 -1.1127  0.7407
 7373SOL    HW133048   0.194   6.149   2.043  0.8922 -1.9478 -2.2274
 7373SOL    HW233049   0.033   6.139   2.024  0.3560  0.1080  0.8891
 7374SOL     OW33050   0.426   6.772   5.335 -0.0802 -0.3800 -0.4699
 7374SOL    HW133051   0.330   6.747   5.321  0.0436 -0.4613 -1.2111
 7374SOL    HW233052   0.482   6.689   5.335  0.0062 -0.3222 -0.1686
 7375SOL     OW33053   4.083   4.262   4.650 -0.1749  0.4868  0.2424
 7375SOL    HW133054   4.170   4.310   4.662  1.0763 -1.6258 -0.0976
 7375SOL    HW233055   4.025   4.278   4.730  0.6072  1.7473  0.5702
 7376SOL     OW33056   7.070   1.458   2.997  0.0178  0.2928  0.3145
 7376SOL    HW133057   7.101   1.534   2.941  0.7226 -0.1101  0.1572
 7376SOL    HW233058   7.129   1.379   2.982 -0.1617 -0.0055  1.1557
 7377SOL     OW33059   3.707   3.535   2.557 -0.0277  0.3149 -0.5476
 7377SOL    HW133060   3.680   3.439   2.561  0.6491  0.1136 -0.7453
 7377SOL    HW233061   3.681   3.580   2.642  1.9594 -0.6667  0.6203
 7378SOL     OW33062   8.815   3.283   4.378 -0.4949  0.1552  0.7536
 7378SOL    HW133063   8.838   3.217   4.307  1.1884 -0.3524  1.7437
 7378SOL    HW233064   8.827   3.376   4.342  1.8969 -0.0948  0.8246
 7379SOL     OW33065   3.964   0.879   0.272  0.5225  0.1790  0.0839
 7379SOL    HW133066   3.963   0.886   0.172 -2.0856  3.3576  0.2328
 7379SOL    HW233067   4.041   0.932   0.308  0.5401  0.3267 -0.1722
 7380SOL     OW33068   0.688   0.595   2.605 -0.1354  0.1029  0.5969
 7380SOL    HW133069   0.646   0.510   2.572 -0.5704 -0.6420  2.9936
 7380SOL    HW233070   0.702   0.657   2.528 -2.3061 -1.0740 -0.8001
 7381SOL     OW33071   1.089   2.383   4.142  0.7815  0.1012  0.5028
 7381SOL    HW133072   1.074   2.461   4.081  2.2666  0.4453  0.5579
 7381SOL    HW233073   1.039   2.303   4.108  1.4296  0.3491 -1.0603
 7382SOL     OW33074   8.002   9.160   2.982 -0.1774 -0.0452  0.3267
 7382SOL    HW133075   8.081   9.220   2.972 -0.3846  0.6093  2.4451
 7382SOL    HW233076   8.022   9.091   3.052 -0.4025 -1.7207 -1.2115
 7383SOL     OW33077   3.022   9.284   3.683 -0.1685 -0.3568 -0.1992
 7383SOL    HW133078   3.112   9.322   3.661  0.7079 -1.3587  1.5794
 7383SOL    HW233079   2.951   9.338   3.637  1.2972  0.8164 -1.1233
 7384SOL     OW33080   2.748   1.978   3.815 -0.0289 -0.3028 -0.1199
 7384SOL    HW133081   2.808   2.006   3.890  1.5582  0.4838 -1.6515
 7384SOL    HW233082   2.665   2.033   3.816  0.1700 -0.0223  0.8170
 7385SOL     OW33083   8.559   8.663   3.804 -0.2658 -0.0133  0.0190
 7385SOL    HW133084   8.630   8.601   3.771  0.3912 -0.7994  2.7973
 7385SOL    HW233085   8.589   8.757   3.793  1.6473 -0.3521  2.0178
 7386SOL     OW33086   1.064   5.868   5.265  0.4024  0.3650 -0.3347
 7386SOL    HW133087   0.987   5.929   5.248  1.1210  0.8250 -2.0470
 7386SOL    HW233088   1.149   5.917   5.247  1.0567 -0.5288  0.2935
 7387SOL     OW33089   0.326   8.886   5.298  0.0092 -0.2175  0.1056
 7387SOL    HW133090   0.366   8.840   5.377  0.8108  0.5234  0.1319
 7387SOL    HW233091   0.391   8.886   5.222 -0.7272 -0.8664 -0.5480
 7388SOL     OW33092   1.138   5.749   2.341  0.1286  0.2068  0.0795
 7388SOL    HW133093   1.138   5.660   2.386 -0.5117 -0.7108 -1.6926
 7388SOL    HW233094   1.133   5.736   2.242 -1.2111  2.2369 -0.1426
 7389SOL     OW33095   6.997   9.705   1.807  0.5050 -0.5122  0.4934
 7389SOL    HW133096   7.084   9.656   1.807  0.7225 -0.1823 -1.7196
 7389SOL    HW233097   6.991   9.762   1.725 -1.1841  0.5783  1.3463
 7390SOL     OW33098   0.257   9.993   5.388 -0.2963  0.2266 -0.6080
 7390SOL    HW133099   0.167  10.007   5.348 -1.2329  1.1763  1.7743
 7390SOL    HW233100   0.324  10.050   5.340 -1.5651  2.0431 -0.2746
 7391SOL     OW33101   0.928   2.016   1.934  0.1146 -0.9130  0.6401
 7391SOL    HW133102   0.852   1.952   1.926 -0.7925  0.1133  0.8802
 7391SOL    HW233103   0.931   2.054   2.026 -0.6206  0.9246 -0.0772
 7392SOL     OW33104   4.851   1.450   3.359  0.0713  0.0932 -0.8908
 7392SOL    HW133105   4.939   1.486   3.326 -0.1140  1.7273  0.3665
 7392SOL    HW233106   4.777   1.504   3.320 -0.2548  0.4538  0.2295
 7393SOL     OW33107   1.672   0.200   0.724  0.0740  0.4536  0.0519
 7393SOL    HW133108   1.641   0.218   0.817  0.2794  1.2131 -0.0269
 7393SOL    HW233109   1.613   0.130   0.683  1.1529 -1.2915  1.3955
 7394SOL     OW33110   1.581   1.171   3.495  0.2068 -0.3683 -0.3656
 7394SOL    HW133111   1.509   1.226   3.537 -0.8576 -0.0750 -2.5199
 7394SOL    HW233112   1.630   1.120   3.567 -1.1646  0.5602  1.2661
 7395SOL     OW33113   9.432   8.426   0.019 -0.9167 -0.7046  0.7130
 7395SOL    HW133114   9.480   8.402   0.103  0.8692  1.6926  0.4331
 7395SOL    HW233115   9.403   8.522   0.023 -0.3844 -0.4188 -1.5972
 7396SOL     OW33116   3.435   9.973   4.262  0.2629  0.1466  0.3079
 7396SOL    HW133117   3.419   9.880   4.296 -0.3081 -0.3823 -1.3735
 7396SOL    HW233118   3.533   9.988   4.250  0.3552 -0.2471  0.5512
 7397SOL     OW33119   1.160   9.946   1.486 -0.7161 -0.4192 -0.2355
 7397SOL    HW133120   1.061   9.948   1.497 -0.6779 -0.8774  0.2053
 7397SOL    HW233121   1.192   9.851   1.486 -0.3760 -0.3112 -1.2779
 7398SOL     OW33122   2.507   1.431   5.049  0.0836 -0.0490 -0.0149
 7398SOL    HW133123   2.494   1.367   4.974  2.0814 -0.6875  0.1745
 7398SOL    HW233124   2.505   1.382   5.136  1.0223  0.2295  0.1657
 7399SOL     OW33125   2.091   3.364   1.976  0.0944 -0.3514 -0.1198
 7399SOL    HW133126   2.165   3.347   1.910 -0.0319  0.9635 -0.6184
 7399SOL    HW233127   2.003   3.344   1.932  0.0981 -1.2286  0.2485
 7400SOL     OW33128   2.278   7.630   1.870  0.6900  0.2449  0.4118
 7400SOL    HW133129   2.362   7.593   1.831 -1.2425 -1.7660 -2.0133
 7400SOL    HW233130   2.232   7.559   1.925 -1.1092  0.1966 -1.0989
 7401SOL     OW33131   5.767   8.223   2.744 -0.4678  0.3115  0.7659
 7401SOL    HW133132   5.851   8.169   2.730 -0.4491  0.6319 -0.3409
 7401SOL    HW233133   5.695   8.163   2.777 -0.3508 -0.3397 -0.1439
 7402SOL     OW33134   8.949   7.687   1.459  0.0003 -1.1935  0.5901
 7402SOL    HW133135   8.851   7.688   1.442 -0.0929 -0.0463  1.1263
 7402SOL    HW233136   8.996   7.744   1.391  0.4933 -3.1799 -0.7636
 7403SOL     OW33137   7.312   5.165   5.028  0.2729  0.3605  0.2313
 7403SOL    HW133138   7.268   5.196   4.944  0.3758 -1.6896 -0.6266
 7403SOL    HW233139   7.406   5.138   5.008  0.8488  1.4806  1.3635
 7404SOL     OW33140   1.664   9.506   3.461  0.1722  0.3130  0.0752
 7404SOL    HW133141   1.761   9.493   3.479 -0.4623 -2.3196  1.7792
 7404SOL    HW233142   1.615   9.519   3.547 -1.2017  0.1416 -0.6547
 7405SOL     OW33143   2.671   8.295   4.944 -0.2784  0.2950 -0.6079
 7405SOL    HW133144   2.644   8.372   5.002 -1.0022  0.4895 -1.1963
 7405SOL    HW233145   2.589   8.251   4.908  0.0815 -1.4768  0.6710
 7406SOL     OW33146   8.864   9.988   4.133  0.5524 -0.1139 -0.9488
 7406SOL    HW133147   8.830   9.970   4.225  2.0222 -1.4950 -0.6587
 7406SOL    HW233148   8.891  10.084   4.126  2.1344 -0.4223  0.6394
 7407SOL     OW33149   4.918   2.258   4.014 -0.2880 -0.2332  0.0657
 7407SOL    HW133150   4.909   2.159   4.029  2.6372 -0.3729  1.3213
 7407SOL    HW233151   4.850   2.307   4.068 -0.6761 -1.4966  0.7258
 7408SOL     OW33152   3.863   7.261   1.816  0.4844  0.1350  0.3043
 7408SOL    HW133153   3.773   7.261   1.861  1.2142 -1.5016  1.8097
 7408SOL    HW233154   3.854   7.225   1.723 -0.4738  0.3994  0.2834
 7409SOL     OW33155   0.743   0.766   2.382 -0.0980 -0.2846  0.4673
 7409SOL    HW133156   0.733   0.698   2.310 -1.2107 -0.4410  0.7723
 7409SOL    HW233157   0.836   0.803   2.379 -0.0992 -0.3547 -0.9884
 7410SOL     OW33158   5.779   9.725   2.530  0.4562 -0.1825  0.5286
 7410SOL    HW133159   5.718   9.782   2.584 -0.1676 -0.6165  0.2807
 7410SOL    HW233160   5.754   9.629   2.540  0.6148 -0.3042 -0.1692
 7411SOL     OW33161   4.775   2.433   1.767 -0.1307  0.0062  0.0759
 7411SOL    HW133162   4.866   2.412   1.802  1.3299  1.1628 -2.8260
 7411SOL    HW233163   4.753   2.373   1.690 -0.8702  1.1611 -0.6496
 7412SOL     OW33164   3.546   5.145   0.608 -0.0071 -0.8462  0.7169
 7412SOL    HW133165   3.576   5.060   0.651  2.1480  0.3425  1.6719
 7412SOL    HW233166   3.478   5.190   0.665  0.5182 -0.8279  1.3344
 7413SOL     OW33167   1.284   1.504   0.796  0.5696 -0.3849  0.2091
 7413SOL    HW133168   1.208   1.566   0.779  0.4743 -0.3878  0.6130
 7413SOL    HW233169   1.281   1.473   0.892  0.1251 -1.6576 -0.1954
 7414SOL     OW33170   1.571   3.094   2.767 -0.7912  0.1156 -0.2610
 7414SOL    HW133171   1.663   3.062   2.792  0.1290  1.8473 -1.2583
 7414SOL    HW233172   1.502   3.032   2.803  0.6890 -0.1150  2.2597
 7415SOL     OW33173   1.311   1.308   4.557 -0.4270 -0.7656  0.0272
 7415SOL    HW133174   1.391   1.335   4.610  0.4739 -2.0209 -0.6852
 7415SOL    HW233175   1.262   1.235   4.606  0.5714 -2.1339 -0.9973
 7416SOL     OW33176   1.619   0.646   4.017  0.8669  0.3365 -0.0908
 7416SOL    HW133177   1.607   0.548   4.001  0.8381  0.3314 -0.0347
 7416SOL    HW233178   1.530   0.690   4.023  0.8803  0.4156 -0.4310
 7417SOL     OW33179   0.004   7.089   3.389  0.5163  0.0016 -0.0482
 7417SOL    HW133180   0.015   7.061   3.294 -0.5655  1.1719 -0.5324
 7417SOL    HW233181   0.062   7.033   3.447  0.2717 -1.5529 -1.2661
 7418SOL     OW33182   3.288   4.963   3.043  0.6517 -0.2359  0.0681
 7418SOL    HW133183   3.284   5.025   2.965  1.6090  0.0347  0.2266
 7418SOL    HW233184   3.289   5.016   3.128 -2.9290 -0.5659  0.4120
 7419SOL     OW33185   3.824   0.644   3.822  0.0062 -0.4103 -0.1572
 7419SOL    HW133186   3.835   0.706   3.744 -0.1133 -1.4830 -1.0367
 7419SOL    HW233187   3.882   0.675   3.897 -0.1541  0.8452 -0.5250
 7420SOL     OW33188   2.799   8.843   4.875  0.1224  0.3648 -0.2234
 7420SOL    HW133189   2.843   8.920   4.921 -0.5680  0.8371 -0.3406
 7420SOL    HW233190   2.860   8.806   4.805  1.2972 -0.5517  1.2713
 7421SOL     OW33191   2.266   6.265   1.961 -0.5702 -0.0182  0.2925
 7421SOL    HW133192   2.273   6.173   2.000  0.3443 -0.3034 -0.5392
 7421SOL    HW233193   2.186   6.311   2.000 -1.4979 -1.4467  0.1096
 7422SOL     OW33194   4.172   7.473   3.214 -0.1990 -0.0657  0.0895
 7422SOL    HW133195   4.143   7.382   3.243  2.1482 -1.5195 -1.9895
 7422SOL    HW233196   4.122   7.499   3.131 -0.6627  0.4492  0.5234
 7423SOL     OW33197   5.039   0.001   2.782  0.5849  0.1358  0.0429
 7423SOL    HW133198   5.038  -0.026   2.686  1.0522  0.1315  0.0381
 7423SOL    HW233199   5.069   0.097   2.789  1.6393 -0.2023  0.2626
 7424SOL     OW33200   1.746   5.357   2.484  0.3237 -0.1702  0.2146
 7424SOL    HW133201   1.824   5.329   2.427  0.9693 -2.4269  2.1471
 7424SOL    HW233202   1.662   5.320   2.445  0.7293 -1.4915  0.5729
 7425SOL     OW33203   8.323   8.273   0.103  0.0971  0.1320 -0.0936
 7425SOL    HW133204   8.314   8.373   0.102 -1.2385  0.0268 -0.2077
 7425SOL    HW233205   8.368   8.244   0.188  1.1066  0.8725 -0.3747
 7426SOL     OW33206   1.880   8.687   1.074  0.1167 -0.0811  0.4572
 7426SOL    HW133207   1.863   8.687   0.975  1.8210  1.5145  0.1270
 7426SOL    HW233208   1.890   8.781   1.106  0.7992 -0.6380  1.9171
 7427SOL     OW33209   1.358   3.008   1.802  0.3672 -0.3306 -0.2928
 7427SOL    HW133210   1.410   2.938   1.850  0.7201 -1.0487 -1.6788
 7427SOL    HW233211   1.342   3.086   1.862  1.1781 -1.0164  0.8207
 7428SOL     OW33212   1.228   7.246   0.704 -0.0825 -0.6413 -0.1711
 7428SOL    HW133213   1.228   7.259   0.803  0.4583 -1.7763 -0.0150
 7428SOL    HW233214   1.321   7.224   0.673 -0.8565 -3.7946 -0.4302
 7429SOL     OW33215   4.334   8.692   2.370 -0.1872  0.6105  0.9551
 7429SOL    HW133216   4.256   8.727   2.423 -0.0742  1.3934  0.6023
 7429SOL    HW233217   4.385   8.768   2.330  0.1574  0.0539  0.3177
 7430SOL     OW33218   8.521   5.266   5.505 -0.1199 -0.3983 -0.3839
 7430SOL    HW133219   8.467   5.349   5.494  0.4860  0.1065  0.3644
 7430SOL    HW233220   8.472   5.202   5.564  0.4853  0.4477  1.0940
 7431SOL     OW33221   6.134   8.331   3.195 -0.1080  0.0838  0.6064
 7431SOL    HW133222   6.110   8.421   3.230  1.5801  0.6896  0.2489
 7431SOL    HW233223   6.082   8.261   3.244  0.1153  1.1123  2.3238
 7432SOL     OW33224   8.982   5.962   1.049 -0.2931  0.4633 -0.3961
 7432SOL    HW133225   8.957   5.956   1.145 -0.0317 -0.4977 -0.3775
 7432SOL    HW233226   9.042   6.040   1.035  0.4563  0.0403  0.4034
 7433SOL     OW33227   8.311   1.223   5.585  0.0717 -0.3587  0.2740
 7433SOL    HW133228   8.388   1.199   5.644  0.7485  1.5904  0.2083
 7433SOL    HW233229   8.345   1.251   5.496 -0.6998  0.5541  0.2545
 7434SOL     OW33230   4.848   9.546   3.584 -0.1695  0.0449 -0.5183
 7434SOL    HW133231   4.873   9.483   3.658 -1.0410  1.9681  1.4902
 7434SOL    HW233232   4.926   9.606   3.563  0.1436 -0.6369 -1.3110
 7435SOL     OW33233   1.908   4.199   0.419 -0.0086  0.6094  0.0222
 7435SOL    HW133234   1.881   4.103   0.418  2.2903 -0.1064  2.8370
 7435SOL    HW233235   1.938   4.225   0.510  2.2756  3.1828 -1.3830
 7436SOL     OW33236   0.932   8.490   0.265  0.2563  0.0354  0.2524
 7436SOL    HW133237   1.007   8.507   0.329  1.0434 -0.8359 -0.4288
 7436SOL    HW233238   0.956   8.414   0.205 -1.6206 -0.9598  0.7421
 7437SOL     OW33239   1.459   1.802   0.629  0.0889  0.0724  0.3424
 7437SOL    HW133240   1.461   1.818   0.728 -1.2295  1.9287  0.0915
 7437SOL    HW233241   1.365   1.781   0.601  0.4186 -0.2339 -0.5415
 7438SOL     OW33242   1.770   4.125   4.312 -0.1097 -0.5158  0.0529
 7438SOL    HW133243   1.730   4.063   4.380  0.7361  1.9032  2.8327
 7438SOL    HW233244   1.701   4.189   4.279  0.6072  1.4296  2.2731
 7439SOL     OW33245   0.794   5.572   2.065  0.2046 -0.4017  0.0099
 7439SOL    HW133246   0.781   5.473   2.065 -1.2275 -0.2319 -1.0476
 7439SOL    HW233247   0.830   5.601   1.976 -0.6922  0.1788 -0.1714
 7440SOL     OW33248   1.012   9.560   0.375  0.4494 -0.9507  0.5710
 7440SOL    HW133249   1.015   9.649   0.420  0.7411 -0.4009 -0.5173
 7440SOL    HW233250   1.095   9.508   0.397  0.2485 -0.9851  1.2579
 7441SOL     OW33251   3.117   5.834   1.077 -0.5085  0.7289 -0.0709
 7441SOL    HW133252   3.044   5.766   1.074 -0.3002  0.5660 -2.0744
 7441SOL    HW233253   3.201   5.792   1.113 -0.8522  0.4034  0.3568
 7442SOL     OW33254   0.311   4.493   2.168 -0.0418  0.5566 -0.2599
 7442SOL    HW133255   0.251   4.539   2.102 -3.7237 -1.7551  1.2749
 7442SOL    HW233256   0.316   4.548   2.251  0.7113  1.1986 -0.7301
 7443SOL     OW33257   9.882   5.490   2.699 -0.5310  0.0339  0.4935
 7443SOL    HW133258   9.835   5.519   2.616  0.0060  1.1236  0.5594
 7443SOL    HW233259   9.823   5.506   2.778 -0.8473 -0.5338  0.3731
 7444SOL     OW33260   1.713   8.449   4.356  0.3776 -0.3769 -0.4278
 7444SOL    HW133261   1.670   8.418   4.442  1.1576  0.7261  0.3727
 7444SOL    HW233262   1.681   8.392   4.281 -0.2602 -1.4167  0.6128
 7445SOL     OW33263   4.301   0.182   5.281 -0.9495  0.6597 -0.5523
 7445SOL    HW133264   4.366   0.108   5.269 -0.4282  1.2419 -1.3780
 7445SOL    HW233265   4.232   0.155   5.348  0.9783  0.5895  1.4739
 7446SOL     OW33266   3.979   9.686   5.248  0.0003 -0.1554 -0.2845
 7446SOL    HW133267   3.922   9.605   5.240 -0.5472  0.3194 -1.2566
 7446SOL    HW233268   4.056   9.679   5.185  2.0095 -1.5806  2.2385
 7447SOL     OW33269   2.914   7.386   4.491  0.0730 -0.3060  0.0502
 7447SOL    HW133270   2.945   7.375   4.397  2.6222 -1.4318  0.9872
 7447SOL    HW233271   2.985   7.356   4.554 -2.6756 -2.3300  2.3241
 7448SOL     OW33272   1.731   0.662   1.323 -0.0386  0.4341 -0.3809
 7448SOL    HW133273   1.744   0.564   1.339  0.9439  0.5966 -0.1532
 7448SOL    HW233274   1.687   0.676   1.235 -1.4474 -0.2731  0.1849
 7449SOL     OW33275   8.345   1.420   1.131  0.1171  0.2341 -0.2935
 7449SOL    HW133276   8.259   1.445   1.088 -0.1776  0.6112  0.5095
 7449SOL    HW233277   8.349   1.458   1.224  0.0217 -1.9535  0.6446
 7450SOL     OW33278   2.060   9.309   1.055  0.1944  0.0321  0.2362
 7450SOL    HW133279   2.080   9.368   0.977  0.5399  0.1392  0.4075
 7450SOL    HW233280   1.993   9.354   1.114  0.9932  0.5615  0.7404
 7451SOL     OW33281   2.136   6.895   1.597 -0.4741 -0.2373  0.1957
 7451SOL    HW133282   2.105   6.985   1.627  0.1119 -0.4977  1.6233
 7451SOL    HW233283   2.180   6.848   1.673  0.8986 -0.9937 -1.0354
 7452SOL     OW33284   3.472   5.247   1.066  0.4715  0.1592  0.1425
 7452SOL    HW133285   3.413   5.196   1.128  1.4843 -0.0250  0.9573
 7452SOL    HW233286   3.493   5.337   1.104  0.6395  0.2625 -0.1826
 7453SOL     OW33287   3.925   8.803   2.073 -0.7540  0.0882 -0.5513
 7453SOL    HW133288   3.858   8.747   2.121 -1.2441 -0.4103 -1.8089
 7453SOL    HW233289   3.942   8.766   1.982 -0.7120  1.6888 -1.2210
 7454SOL     OW33290   3.026   2.229   0.113  0.2537 -0.3825  0.0947
 7454SOL    HW133291   2.985   2.280   0.189 -1.7719 -1.0675 -0.5177
 7454SOL    HW233292   3.055   2.294   0.042 -0.8996  0.0303 -0.0041
 7455SOL     OW33293   2.810   7.591   5.334 -0.0264 -0.2384 -0.2488
 7455SOL    HW133294   2.727   7.538   5.316  0.0352  0.4410 -2.7809
 7455SOL    HW233295   2.784   7.684   5.360 -0.0738 -0.2037 -0.4161
 7456SOL     OW33296   2.317   2.784   0.847  0.5661 -0.2909 -0.4580
 7456SOL    HW133297   2.230   2.750   0.882  0.5720 -0.3274 -0.4792
 7456SOL    HW233298   2.388   2.773   0.917  0.5923 -0.4247 -0.5051
 7457SOL     OW33299   1.482   9.359   1.153  0.1188 -0.2756 -0.0502
 7457SOL    HW133300   1.468   9.290   1.224 -0.3652  2.0493  2.1752
 7457SOL    HW233301   1.555   9.421   1.181 -0.0638  0.6637 -1.6051
 7458SOL     OW33302   9.229   2.346   1.800 -0.2770 -0.4475  0.2432
 7458SOL    HW133303   9.259   2.264   1.850  0.2196 -0.1642  0.4123
 7458SOL    HW233304   9.307   2.406   1.785 -0.8902  0.5862  1.2149
 7459SOL     OW33305   5.439   0.227   2.423  0.0748  0.3766 -0.0073
 7459SOL    HW133306   5.455   0.218   2.325  1.0699  1.3703  0.0407
 7459SOL    HW233307   5.503   0.295   2.460 -0.3953  0.1149  1.2969
 7460SOL     OW33308   0.363   8.126   2.286  0.1909 -0.1378  0.2766
 7460SOL    HW133309   0.303   8.050   2.310 -1.2278  0.6046 -0.8407
 7460SOL    HW233310   0.387   8.120   2.189 -1.3800  1.7933 -0.2720
 7461SOL     OW33311   4.015   1.544   1.102  0.3784 -0.0534  0.6453
 7461SOL    HW133312   3.933   1.597   1.079  0.8758  0.7803  0.7597
 7461SOL    HW233313   3.993   1.447   1.102 -1.1238  0.2597  2.7630
 7462SOL     OW33314   9.123   0.287   4.333  0.0795  0.5720 -0.6803
 7462SOL    HW133315   9.164   0.355   4.272 -0.9033 -1.1900 -3.3917
 7462SOL    HW233316   9.024   0.300   4.336 -0.3571 -1.8591 -2.7763
 7463SOL     OW33317   2.998   1.671   3.155  0.1589  0.5621  0.6874
 7463SOL    HW133318   2.934   1.615   3.102  1.2696  1.4698 -1.6853
 7463SOL    HW233319   3.092   1.642   3.135  0.6329  1.5490  1.4549
 7464SOL     OW33320   2.096   4.697   2.718  0.2087 -0.5789  0.7599
 7464SOL    HW133321   2.116   4.604   2.689  0.9573  0.1236 -1.0665
 7464SOL    HW233322   2.072   4.698   2.815 -1.6448 -2.8964  0.3401
 7465SOL     OW33323   0.308   9.837   4.821  0.5892  0.0338 -0.3591
 7465SOL    HW133324   0.257   9.919   4.796  0.2888 -0.0573 -0.0583
 7465SOL    HW233325   0.366   9.809   4.745 -0.1865 -0.1434 -0.8952
 7466SOL     OW33326   7.558   8.717   2.773 -0.4174  0.4034 -0.4186
 7466SOL    HW133327   7.610   8.702   2.857 -0.3935  0.5818 -0.4011
 7466SOL    HW233328   7.554   8.815   2.754 -2.4312  0.5669  0.6583
 7467SOL     OW33329   0.203   8.062   1.775  0.1014 -0.2649  0.2571
 7467SOL    HW133330   0.119   8.086   1.822 -0.6549 -1.3263 -0.5196
 7467SOL    HW233331   0.203   8.104   1.684  0.6261  0.1122  0.4282
 7468SOL     OW33332   0.654   0.273   0.845 -0.3943 -0.1441 -0.4235
 7468SOL    HW133333   0.589   0.297   0.773 -1.5337  0.0053  0.6385
 7468SOL    HW233334   0.681   0.177   0.836 -1.3814 -0.4237 -0.3803
 7469SOL     OW33335   2.581   6.916   0.559  0.2919 -0.0103 -0.2833
 7469SOL    HW133336   2.530   6.830   0.559  1.4676 -0.7124 -0.0186
 7469SOL    HW233337   2.678   6.897   0.573  0.7037  1.2697 -1.3382
 7470SOL     OW33338   2.648   1.670   4.224 -0.9160  0.3959  0.0106
 7470SOL    HW133339   2.556   1.672   4.185 -0.7899  0.9378 -0.2684
 7470SOL    HW233340   2.696   1.588   4.194 -1.4488 -0.0914  0.4866
 7471SOL     OW33341   4.439   8.609   3.145  0.0829  0.1173  0.5456
 7471SOL    HW133342   4.465   8.694   3.192  2.9039 -0.6259  0.4181
 7471SOL    HW233343   4.386   8.631   3.063 -0.0076  1.7138  1.0164
 7472SOL     OW33344   9.664   7.688   4.456  1.1138 -0.3091  0.5090
 7472SOL    HW133345   9.750   7.734   4.478  1.3500 -0.2537 -0.5290
 7472SOL    HW233346   9.619   7.735   4.380 -0.1573  0.0518  1.4707
 7473SOL     OW33347   3.378   5.442   4.504 -0.0857 -0.3081  0.4725
 7473SOL    HW133348   3.285   5.412   4.483 -1.1097  2.2741  1.1088
 7473SOL    HW233349   3.417   5.384   4.576 -1.1826 -1.3838  0.2146
 7474SOL     OW33350   9.966   5.743   2.549  0.6220 -0.0272  0.2328
 7474SOL    HW133351   9.920   5.655   2.562  1.9141 -0.8226 -0.3927
 7474SOL    HW233352   9.921   5.813   2.603 -0.8704 -0.9298  0.1854
 7475SOL     OW33353   8.038   1.002   4.585  0.3478  0.0121 -0.3342
 7475SOL    HW133354   7.961   0.939   4.590 -0.2806  0.8230  0.4706
 7475SOL    HW233355   8.093   0.982   4.504  1.4374 -3.0291  1.0804
 7476SOL     OW33356   9.733   9.591   0.503 -0.3468 -0.3500  0.6978
 7476SOL    HW133357   9.659   9.651   0.531  0.2178 -0.2830  2.1031
 7476SOL    HW233358   9.695   9.506   0.465 -1.1537  1.2872 -2.2872
 7477SOL     OW33359   8.147   3.286   1.091  0.3584 -0.3312  0.0334
 7477SOL    HW133360   8.163   3.188   1.104  0.5865 -0.4246 -0.8992
 7477SOL    HW233361   8.143   3.331   1.180  0.3460 -1.1732  0.4674
 7478SOL     OW33362   2.251   4.325   4.405 -0.4178  0.5774  0.4984
 7478SOL    HW133363   2.152   4.336   4.392  0.0369  2.7525 -1.5195
 7478SOL    HW233364   2.299   4.388   4.344  2.2352 -0.8422  1.0756
 7479SOL     OW33365   9.130   4.664   0.155 -0.1350 -0.4237 -0.0186
 7479SOL    HW133366   9.170   4.679   0.245 -1.5272  0.6423  0.4477
 7479SOL    HW233367   9.200   4.676   0.084  0.6411  0.1997  0.8440
 7480SOL     OW33368   9.387   4.353   1.063  0.1096  0.2266 -0.1482
 7480SOL    HW133369   9.418   4.295   1.138 -1.0551  1.9332  1.6720
 7480SOL    HW233370   9.289   4.340   1.050  0.1536  0.5709 -0.8553
 7481SOL     OW33371   7.465   0.316   3.406  0.2226  0.1178 -0.2791
 7481SOL    HW133372   7.480   0.260   3.324  0.6031  0.5389 -0.4992
 7481SOL    HW233373   7.538   0.383   3.414 -0.9470  1.4785 -0.7723
 7482SOL     OW33374   9.514   2.571   2.844 -0.0832 -0.2696  0.3225
 7482SOL    HW133375   9.536   2.642   2.912  0.9063  0.4058 -0.6864
 7482SOL    HW233376   9.439   2.514   2.878  1.4505 -0.9435  2.7064
 7483SOL     OW33377   4.690   5.731   0.691  0.0921 -0.1039 -0.3564
 7483SOL    HW133378   4.670   5.827   0.670 -2.2487 -0.9932 -2.4274
 7483SOL    HW233379   4.783   5.709   0.662  0.3028  1.3003 -0.7673
 7484SOL     OW33380   9.410   6.853   2.441 -0.1213 -0.2374 -0.2308
 7484SOL    HW133381   9.399   6.771   2.385 -0.3064  0.9789 -2.0005
 7484SOL    HW233382   9.506   6.861   2.470 -0.0843 -1.0311 -0.1276
 7485SOL     OW33383   4.664   0.943   3.522 -0.7566  0.3136 -0.2423
 7485SOL    HW133384   4.748   0.998   3.514  0.5474 -1.6315 -0.3135
 7485SOL    HW233385   4.652   0.914   3.616 -0.9226 -0.0466 -0.3738
 7486SOL     OW33386   8.153   1.980   2.394 -0.3535  0.0424  0.0066
 7486SOL    HW133387   8.166   1.958   2.491  0.1486  1.6086  0.3232
 7486SOL    HW233388   8.159   1.897   2.339 -1.2720 -0.9475  1.3763
 7487SOL     OW33389   0.139   2.987   4.872  0.0835 -0.3391 -0.3508
 7487SOL    HW133390   0.135   2.905   4.815  1.2822 -1.2520  0.8333
 7487SOL    HW233391   0.093   3.062   4.826 -0.0835 -1.3931 -1.9377
 7488SOL     OW33392   0.139   1.661   2.023  0.5276  0.6085 -0.4504
 7488SOL    HW133393   0.182   1.751   2.018  0.4413  0.6767  0.0674
 7488SOL    HW233394   0.111   1.642   2.117  1.2098 -0.2608 -0.4110
 7489SOL     OW33395   4.344   9.243   4.785 -0.2414  0.6846 -0.1361
 7489SOL    HW133396   4.245   9.242   4.770 -0.4324 -0.8747  1.0374
 7489SOL    HW233397   4.363   9.250   4.883  0.7271 -2.1418 -0.0717
 7490SOL     OW33398   2.767   1.063   1.144 -0.2078 -0.4216  0.0074
 7490SOL    HW133399   2.738   0.977   1.103  0.0729 -0.6127  0.2065
 7490SOL    HW233400   2.768   1.053   1.244  1.0242 -0.5759 -0.0154
 7491SOL     OW33401   8.309   8.931   2.744 -0.0186 -0.2913  0.7184
 7491SOL    HW133402   8.388   8.920   2.804 -0.3791  0.4804  1.3406
 7491SOL    HW233403   8.304   9.025   2.711  1.2389 -1.1164 -2.0327
 7492SOL     OW33404   5.457   9.271   1.697 -0.0900 -0.4005 -0.1598
 7492SOL    HW133405   5.501   9.224   1.774 -0.2751 -0.1107  0.1212
 7492SOL    HW233406   5.401   9.346   1.732  0.3619  0.1574 -0.6246
 7493SOL     OW33407   3.401   9.698   2.209 -0.0499  0.4358  0.0160
 7493SOL    HW133408   3.426   9.611   2.251 -0.1236  0.6985  0.6188
 7493SOL    HW233409   3.426   9.697   2.112  1.8952  0.5197  0.4859
 7494SOL     OW33410   5.343   7.128   2.061 -0.1458  0.0220  1.2002
 7494SOL    HW133411   5.302   7.214   2.093 -1.9686 -0.2894 -0.2305
 7494SOL    HW233412   5.272   7.058   2.054  0.6923 -0.6303 -1.0271
 7495SOL     OW33413   3.493   4.012   0.505  0.2217  0.4024  0.0075
 7495SOL    HW133414   3.504   4.038   0.409  0.9581 -1.5280 -0.4449
 7495SOL    HW233415   3.463   3.917   0.511 -1.2320  0.9370  1.6644
 7496SOL     OW33416   2.470   4.574   0.002  0.7524  0.6588  0.0577
 7496SOL    HW133417   2.388   4.628   0.020 -1.2436 -1.9320 -0.8732
 7496SOL    HW233418   2.478   4.502   0.070  1.4844  0.0348 -0.6820
 7497SOL     OW33419   4.537   0.454   3.789  0.4002  0.4668  0.0070
 7497SOL    HW133420   4.439   0.465   3.802  0.5002  0.6171  0.6300
 7497SOL    HW233421   4.561   0.476   3.694  0.0474  1.9403  0.2485
 7498SOL     OW33422   2.246   2.624   4.823  0.3348 -0.1466  0.4546
 7498SOL    HW133423   2.220   2.706   4.875 -1.2315  0.5831 -1.3957
 7498SOL    HW233424   2.318   2.648   4.758 -0.8832  0.0503 -0.8483
 7499SOL     OW33425   2.923   7.598   2.079  0.3322 -0.3353  0.0195
 7499SOL    HW133426   2.944   7.688   2.040  0.0420 -0.6357 -0.8365
 7499SOL    HW233427   3.008   7.550   2.099  0.4895  0.0915  0.4060
 7500SOL     OW33428   5.681   0.441   4.699  0.2529 -0.1037  0.2241
 7500SOL    HW133429   5.645   0.355   4.737  2.0435 -1.0367 -0.1170
 7500SOL    HW233430   5.670   0.441   4.600  1.6011 -0.6196  0.0618
 7501SOL     OW33431   1.512   1.867   0.918 -0.0997  0.0217  0.0317
 7501SOL    HW133432   1.451   1.947   0.914 -0.9950 -0.7139 -1.5067
 7501SOL    HW233433   1.495   1.816   1.002  0.4888  1.4416  1.0383
 7502SOL     OW33434   1.375   2.275   2.179 -0.1607 -0.6490 -0.2026
 7502SOL    HW133435   1.440   2.339   2.221  1.0116 -1.3024 -1.0009
 7502SOL    HW233436   1.285   2.288   2.220  0.2820  0.8429  0.3306
 7503SOL     OW33437   1.091   7.966   0.352 -0.5447  0.3754 -0.5113
 7503SOL    HW133438   1.181   8.009   0.352 -0.1396 -0.3377 -3.9023
 7503SOL    HW233439   1.020   8.036   0.353  0.0721  1.0017 -0.3738
 7504SOL     OW33440   2.125   2.504   0.114 -0.1855 -0.4876  0.3857
 7504SOL    HW133441   2.056   2.528   0.183 -0.2178 -0.2245  0.2628
 7504SOL    HW233442   2.135   2.405   0.109 -0.2667 -0.5101  0.6893
 7505SOL     OW33443   5.398   1.629   2.046 -0.1892  0.0430 -0.6129
 7505SOL    HW133444   5.399   1.572   2.128  1.1842 -1.0151 -1.3215
 7505SOL    HW233445   5.393   1.725   2.071  0.7445 -0.2469  0.7375
 7506SOL     OW33446   0.785   5.481   2.435 -0.4332  0.3037 -0.4957
 7506SOL    HW133447   0.832   5.568   2.423  2.1501 -0.8535  0.7320
 7506SOL    HW233448   0.693   5.496   2.470 -0.6008  2.5885 -1.8393
 7507SOL     OW33449   0.822   8.072   5.438  0.4021 -0.5464 -0.6131
 7507SOL    HW133450   0.734   8.055   5.482  1.0547  0.3514  1.1310
 7507SOL    HW233451   0.815   8.054   5.340 -1.8342 -0.0693 -0.5714
 7508SOL     OW33452   8.586   4.990   2.689 -0.1885  0.0874  0.0836
 7508SOL    HW133453   8.574   5.062   2.621 -0.8732  1.2814  1.4215
 7508SOL    HW233454   8.504   4.986   2.747 -0.0405 -1.5995  0.1810
 7509SOL     OW33455   7.831   6.386   0.516 -0.5457  0.0170  0.3187
 7509SOL    HW133456   7.800   6.355   0.426 -0.8666 -2.1470  1.1402
 7509SOL    HW233457   7.825   6.486   0.521 -1.8773  0.0572 -1.5543
 7510SOL     OW33458   1.732   9.419   3.057  0.2381  0.2173  0.6931
 7510SOL    HW133459   1.660   9.350   3.063  0.9841 -0.8446 -2.1010
 7510SOL    HW233460   1.820   9.378   3.078  0.6137  0.4519 -0.4229
 7511SOL     OW33461   8.766   7.090   5.398  0.4431 -0.7113  0.3839
 7511SOL    HW133462   8.814   7.010   5.361 -0.7644 -0.2808 -2.2203
 7511SOL    HW233463   8.703   7.126   5.329  0.7834  2.3499  1.5967
 7512SOL     OW33464   0.257   3.767   0.601  0.0553  0.2105  0.9807
 7512SOL    HW133465   0.346   3.744   0.640 -0.0410  0.6981  1.4960
 7512SOL    HW233466   0.184   3.737   0.662 -0.0896  1.1669  1.2962
 7513SOL     OW33467   4.249   8.544   1.354 -0.0099 -0.3482  0.3677
 7513SOL    HW133468   4.242   8.502   1.263 -1.4067 -1.9685  1.1850
 7513SOL    HW233469   4.299   8.483   1.415  1.7894  1.1750  0.4510
 7514SOL     OW33470   7.687   7.146   2.620  0.4548 -0.4180  0.2696
 7514SOL    HW133471   7.644   7.155   2.531  1.7877 -1.5589 -0.5073
 7514SOL    HW233472   7.670   7.228   2.674 -0.7214  0.0979 -0.8745
 7515SOL     OW33473   1.753   9.814   2.595  0.4872 -0.1019 -0.3415
 7515SOL    HW133474   1.793   9.840   2.508  1.7182  0.8818  0.5023
 7515SOL    HW233475   1.719   9.895   2.642 -0.6876 -0.6951 -0.1587
 7516SOL     OW33476   9.006   6.468   5.148  0.0910 -0.0022 -0.3760
 7516SOL    HW133477   8.967   6.377   5.160 -1.2636  0.4658 -1.1575
 7516SOL    HW233478   9.095   6.460   5.103 -0.9831 -0.8189 -2.4387
 7517SOL     OW33479   8.407   9.516   0.064 -0.4551  0.0402  0.0718
 7517SOL    HW133480   8.362   9.600   0.095  2.2287  0.7386  2.3272
 7517SOL    HW233481   8.488   9.540   0.010 -0.5539 -1.1171 -0.6064
 7518SOL     OW33482   9.262   1.667   1.569  0.0984  0.3113 -0.0566
 7518SOL    HW133483   9.277   1.642   1.665 -0.1125  3.4528  0.8353
 7518SOL    HW233484   9.164   1.678   1.553  0.0953 -0.7669 -0.7897
 7519SOL     OW33485   2.664   0.427   3.511  0.6086  0.5044 -0.4082
 7519SOL    HW133486   2.647   0.403   3.415  2.3143  0.0120 -0.6080
 7519SOL    HW233487   2.643   0.348   3.569  0.4784  0.4949 -0.4678
 7520SOL     OW33488   1.048   5.572   2.694  0.4689  0.1147 -0.3035
 7520SOL    HW133489   1.012   5.517   2.618 -0.1282 -0.3175  0.2841
 7520SOL    HW233490   0.981   5.642   2.719  1.9301  2.2751 -2.1904
 7521SOL     OW33491   3.137   1.932   2.188 -0.0690 -0.5188 -0.0751
 7521SOL    HW133492   3.040   1.907   2.179 -0.1192 -0.0209 -0.9514
 7521SOL    HW233493   3.185   1.909   2.103 -0.0376  1.9674 -0.7569
 7522SOL     OW33494   9.692   1.269   1.729  0.2375 -0.4343  0.7230
 7522SOL    HW133495   9.752   1.233   1.657  0.9605  0.3390  0.9362
 7522SOL    HW233496   9.675   1.197   1.796  0.8643 -0.6817  0.6245
 7523SOL     OW33497   2.944   9.665   0.826  0.2204 -0.0850  0.4541
 7523SOL    HW133498   2.917   9.638   0.918 -1.8132  2.8801  0.8072
 7523SOL    HW233499   2.969   9.762   0.826  0.4294 -0.1148 -2.0527
 7524SOL     OW33500   0.516   1.304   2.865  0.0706 -0.1568 -0.1670
 7524SOL    HW133501   0.588   1.330   2.929 -0.2751  0.4327 -0.0172
 7524SOL    HW233502   0.427   1.330   2.902 -0.1320  0.1901 -0.8804
 7525SOL     OW33503   9.529   7.827   1.654 -0.0575  0.0197 -0.5647
 7525SOL    HW133504   9.449   7.850   1.598 -0.5391 -1.9930 -0.7506
 7525SOL    HW233505   9.601   7.895   1.640 -2.1595  2.5844  0.5525
 7526SOL     OW33506   6.574   7.698   2.196  0.0817 -0.1689  0.6415
 7526SOL    HW133507   6.615   7.775   2.147 -1.1317  0.4795  0.6240
 7526SOL    HW233508   6.646   7.646   2.242  1.2076 -0.6213 -1.5687
 7527SOL     OW33509   0.959   4.390   0.902 -0.5907 -0.0354 -0.2263
 7527SOL    HW133510   0.928   4.300   0.932 -0.8491 -0.2278 -1.0569
 7527SOL    HW233511   1.052   4.406   0.934 -0.5279 -0.6088 -0.1168
 7528SOL     OW33512   1.054   1.761   0.768 -0.1289  0.3038 -0.3838
 7528SOL    HW133513   1.101   1.782   0.682  1.0058 -1.1326 -0.1443
 7528SOL    HW233514   0.961   1.798   0.765  0.1057  0.8178 -1.9748
 7529SOL     OW33515   2.879   8.682   0.176 -0.1567  0.2113 -0.2764
 7529SOL    HW133516   2.950   8.735   0.132 -1.2264  1.6554 -0.3022
 7529SOL    HW233517   2.866   8.595   0.128  2.2633 -0.5141  0.3467
 7530SOL     OW33518   2.763   2.558   2.489 -0.0613  0.3989 -0.1108
 7530SOL    HW133519   2.674   2.597   2.514  0.4524  2.3148 -1.2042
 7530SOL    HW233520   2.788   2.488   2.556 -2.0972  0.2771  0.5593
 7531SOL     OW33521   3.817   3.490   1.582  0.2791 -0.0592  0.4011
 7531SOL    HW133522   3.872   3.415   1.545 -1.0805 -0.2713 -1.2075
 7531SOL    HW233523   3.722   3.461   1.590  0.0147  1.0159  1.1737
 7532SOL     OW33524   9.572   6.327   0.001 -0.4453  0.2071  0.2274
 7532SOL    HW133525   9.515   6.265   0.055 -2.2227  0.8630 -0.8543
 7532SOL    HW233526   9.516   6.400  -0.037  0.6312 -0.5318 -2.9537
 7533SOL     OW33527   5.835   8.485   2.145 -0.2829  0.0111 -0.3634
 7533SOL    HW133528   5.871   8.575   2.121  1.3087 -0.6183 -0.4289
 7533SOL    HW233529   5.736   8.491   2.160 -0.5697  1.3138 -2.5417
 7534SOL     OW33530   4.759   9.983   2.831 -0.4075 -0.2636  0.5409
 7534SOL    HW133531   4.754  10.035   2.917 -0.9601  0.7154 -0.0757
 7534SOL    HW233532   4.855   9.965   2.810 -0.2795 -0.8192  1.5448
 7535SOL     OW33533   1.281   9.972   3.669  0.3983 -0.4111 -0.0464
 7535SOL    HW133534   1.282  10.038   3.744  0.4497  0.4435 -0.7989
 7535SOL    HW233535   1.322   9.887   3.700 -0.4015 -0.3684  1.1727
 7536SOL     OW33536   6.151   8.566   4.351  0.3563  0.1885 -0.2515
 7536SOL    HW133537   6.127   8.661   4.373  1.2322  0.3340  0.0843
 7536SOL    HW233538   6.247   8.550   4.374 -0.2045 -1.2233  1.1745
 7537SOL     OW33539   9.676   0.887   0.759 -0.4283  0.3376 -0.5194
 7537SOL    HW133540   9.739   0.816   0.789 -0.6347  0.5120  0.3493
 7537SOL    HW233541   9.638   0.934   0.839 -2.0188 -0.0858 -1.0021
 7538SOL     OW33542   2.821   2.858   4.950  0.0646  0.1068  0.5898
 7538SOL    HW133543   2.789   2.794   5.019  1.5097  0.1131  1.2859
 7538SOL    HW233544   2.820   2.813   4.860  2.7120 -1.5011  1.3209
 7539SOL     OW33545   8.799   8.376   4.576 -0.0329  0.4949 -0.5497
 7539SOL    HW133546   8.812   8.319   4.657 -0.4395 -0.0409 -0.8594
 7539SOL    HW233547   8.866   8.450   4.576 -0.1614  0.6108  0.3777
 7540SOL     OW33548   2.566   6.217   0.440  0.0296 -0.5257 -0.5340
 7540SOL    HW133549   2.666   6.217   0.434  0.0534 -1.4186 -0.3033
 7540SOL    HW233550   2.538   6.161   0.518 -0.6482 -0.2023 -0.5468
 7541SOL     OW33551   4.253   2.894   3.526 -0.0784 -0.3284 -0.2170
 7541SOL    HW133552   4.234   2.796   3.519 -0.6870 -0.2257 -0.1209
 7541SOL    HW233553   4.170   2.945   3.503  0.1978  0.1608 -0.1333
 7542SOL     OW33554   0.699   5.956   4.235  0.1064 -0.2365 -0.0698
 7542SOL    HW133555   0.691   5.875   4.177  1.6272  0.1891 -0.9222
 7542SOL    HW233556   0.665   5.935   4.327  0.5783 -1.8827 -0.2425
 7543SOL     OW33557   7.195   2.011   2.362 -0.7625  0.6668 -0.0980
 7543SOL    HW133558   7.104   1.984   2.394  0.5849 -2.1909  1.6149
 7543SOL    HW233559   7.224   1.949   2.289 -0.2905  1.7347 -0.8274
 7544SOL     OW33560   3.528   2.606   0.308  0.0183  0.1962  0.1443
 7544SOL    HW133561   3.602   2.568   0.363 -1.4538  0.0590  2.0974
 7544SOL    HW233562   3.443   2.559   0.331 -0.5896  0.0108 -2.4242
 7545SOL     OW33563   7.874   6.850   4.631  0.5274 -0.0663 -0.3985
 7545SOL    HW133564   7.856   6.787   4.707 -0.4841  0.3323 -0.3059
 7545SOL    HW233565   7.912   6.935   4.667 -1.8973  0.9282 -0.1150
 7546SOL     OW33566   3.819   3.923   3.366  0.3682  0.0200  0.5574
 7546SOL    HW133567   3.790   3.996   3.428 -0.9902  1.2322 -1.4449
 7546SOL    HW233568   3.758   3.921   3.286  2.2269 -1.3078 -0.8737
 7547SOL     OW33569   9.414   1.072   3.639 -0.0453  0.0576 -0.3063
 7547SOL    HW133570   9.438   1.124   3.721  1.5556  0.9055 -1.2913
 7547SOL    HW233571   9.404   1.134   3.562  0.3126 -0.9242 -1.1562
 7548SOL     OW33572   2.146   9.479   1.561 -0.1461  0.0542  0.0453
 7548SOL    HW133573   2.221   9.457   1.624 -0.0943 -0.1675 -0.0965
 7548SOL    HW233574   2.116   9.573   1.578  0.3101  0.2152 -0.0477
 7549SOL     OW33575   4.050   5.623   2.941 -0.3125  0.3806 -0.4382
 7549SOL    HW133576   4.112   5.694   2.908 -1.2982  1.2116 -0.5066
 7549SOL    HW233577   3.956   5.645   2.915 -0.4611 -1.7156 -1.7471
 7550SOL     OW33578   9.747   4.784   0.327  0.5170 -0.2104 -0.2960
 7550SOL    HW133579   9.776   4.748   0.238  0.3786  1.3075 -0.9609
 7550SOL    HW233580   9.826   4.786   0.389  0.7267 -0.7801 -0.5404
 7551SOL     OW33581   7.469   9.771   2.234 -0.6150  0.4622 -0.0875
 7551SOL    HW133582   7.414   9.854   2.237 -0.9315  0.2634 -0.4167
 7551SOL    HW233583   7.409   9.691   2.238 -0.2496  0.2375  1.5304
 7552SOL     OW33584   2.744   4.567   2.776 -0.4991  0.2180 -0.3048
 7552SOL    HW133585   2.702   4.645   2.730 -0.4003  0.4100 -0.0674
 7552SOL    HW233586   2.673   4.508   2.814 -0.5331  1.1690  1.1475
 7553SOL     OW33587   4.509   2.644   3.311 -0.0783  0.5965 -0.2511
 7553SOL    HW133588   4.592   2.621   3.261  0.4361  0.2324  0.7410
 7553SOL    HW233589   4.488   2.571   3.376 -0.6242  1.1439  0.1999
 7554SOL     OW33590   7.850   5.654   3.809  0.1948  0.2849  0.3067
 7554SOL    HW133591   7.910   5.590   3.762  2.1061  1.0443  1.6682
 7554SOL    HW233592   7.812   5.611   3.891 -0.1988  0.2072  0.0881
 7555SOL     OW33593   8.438   5.823   1.793 -0.2482  0.4651 -0.3485
 7555SOL    HW133594   8.346   5.860   1.800 -0.2926  0.9021 -2.6768
 7555SOL    HW233595   8.434   5.730   1.756  0.1954  0.1515  0.3767
 7556SOL     OW33596   8.518   2.047   3.861 -0.2383 -0.4376  0.1052
 7556SOL    HW133597   8.608   2.086   3.841 -0.3265 -0.1948  0.1789
 7556SOL    HW233598   8.492   1.984   3.787 -0.3517  0.0856 -0.3038
 7557SOL     OW33599   4.386   4.062   4.316  0.7733  0.1823 -0.1036
 7557SOL    HW133600   4.336   4.002   4.379  0.5010  1.2013  0.6840
 7557SOL    HW233601   4.321   4.108   4.256  1.1251 -1.6302 -1.9076
 7558SOL     OW33602   9.148   3.577   4.310  0.5350 -0.7420 -0.2740
 7558SOL    HW133603   9.069   3.582   4.249 -0.4423 -3.0867  0.7344
 7558SOL    HW233604   9.147   3.656   4.372 -0.1245  0.0690 -1.3057
 7559SOL     OW33605   3.755   6.942   1.195  0.8610  0.2438 -0.0494
 7559SOL    HW133606   3.765   7.039   1.173 -1.6518  0.5941  0.1837
 7559SOL    HW233607   3.805   6.922   1.280  0.4489  1.6020  0.5301
 7560SOL     OW33608   2.046   8.627   2.974 -0.1116 -0.9540  0.3017
 7560SOL    HW133609   2.068   8.609   3.069 -0.9782  0.5258  0.8090
 7560SOL    HW233610   2.130   8.628   2.919  0.6660  0.5463  1.4775
 7561SOL     OW33611   1.917   5.257   0.190  0.8230  0.4998  0.2886
 7561SOL    HW133612   1.865   5.295   0.266  0.9762  1.8227 -0.2543
 7561SOL    HW233613   1.903   5.158   0.186 -0.8063  0.6944  0.7879
 7562SOL     OW33614   1.873   2.339   3.847  0.4531  0.5674 -0.7760
 7562SOL    HW133615   1.815   2.369   3.772 -2.2299  0.3247  1.1075
 7562SOL    HW233616   1.888   2.415   3.910  1.6647  0.4586 -0.9249
 7563SOL     OW33617   4.686   1.195   3.694  0.6132  0.2915  0.4219
 7563SOL    HW133618   4.607   1.256   3.684  0.8527  0.6963  0.9646
 7563SOL    HW233619   4.711   1.157   3.605 -0.3347 -0.0129  0.2736
 7564SOL     OW33620   8.322   9.800   1.205 -0.1549 -0.3866 -0.4157
 7564SOL    HW133621   8.291   9.833   1.116  0.4868  0.4171 -0.3443
 7564SOL    HW233622   8.388   9.864   1.244 -1.9793  0.3780  1.5842
 7565SOL     OW33623   9.932   7.624   5.569 -0.2499 -0.2957  0.3115
 7565SOL    HW133624   9.925   7.579   5.480  0.6172  1.6580 -0.7741
 7565SOL    HW233625   9.846   7.671   5.590 -0.2916 -0.3560  0.2710
 7566SOL     OW33626   3.531   2.373   1.632  0.3770 -0.4926  0.2148
 7566SOL    HW133627   3.577   2.429   1.564 -1.0802  1.7260  1.0055
 7566SOL    HW233628   3.432   2.374   1.615  0.1883 -1.5721  1.1763
 7567SOL     OW33629   1.255   6.904   1.300  0.5191  0.6533 -0.2807
 7567SOL    HW133630   1.277   6.853   1.384  2.6014  1.9208  0.0088
 7567SOL    HW233631   1.224   6.841   1.229 -1.5343 -0.4151  1.5153
 7568SOL     OW33632   2.271   5.486   5.130 -0.0848 -0.1448 -0.2098
 7568SOL    HW133633   2.286   5.478   5.031  2.0343  0.0202  0.0779
 7568SOL    HW233634   2.177   5.515   5.147  0.6537  3.8433 -2.3476
 7569SOL     OW33635   9.926   4.069   3.326  0.2376 -0.6330 -0.6081
 7569SOL    HW133636   9.983   4.026   3.396 -1.9697 -0.0094  1.6570
 7569SOL    HW233637   9.878   4.147   3.365 -1.4204 -0.5573 -2.7035
 7570SOL     OW33638   1.994   6.795   5.468 -0.0586 -0.3363  0.3244
 7570SOL    HW133639   2.073   6.790   5.407 -0.3158 -1.5585  0.0643
 7570SOL    HW233640   1.949   6.884   5.458  0.4917 -0.1485 -0.5228
 7571SOL     OW33641   7.394   7.539   3.654  0.4857 -0.4333  0.1874
 7571SOL    HW133642   7.407   7.461   3.715 -0.1551  1.8041  3.2810
 7571SOL    HW233643   7.482   7.584   3.638  0.4736 -0.3541  0.3482
 7572SOL     OW33644   2.358   8.944   5.144  0.3812 -0.2032  0.2285
 7572SOL    HW133645   2.416   9.024   5.129  1.3911 -0.9221  0.2757
 7572SOL    HW233646   2.288   8.940   5.072 -0.0193  1.0150  0.5317
 7573SOL     OW33647   1.437   6.530   1.895 -0.0975 -0.2729  0.0798
 7573SOL    HW133648   1.434   6.491   1.803 -1.1983 -2.0927  0.8668
 7573SOL    HW233649   1.469   6.625   1.889  1.2509 -0.8119 -2.0101
 7574SOL     OW33650   2.483   5.123   4.063  0.4656  0.4482  0.1866
 7574SOL    HW133651   2.566   5.127   4.008  1.3450  2.3929  1.5822
 7574SOL    HW233652   2.467   5.212   4.106 -2.0260 -0.0552  0.4241
 7575SOL     OW33653   9.071   6.269   5.551 -0.0903 -0.0767 -0.0539
 7575SOL    HW133654   9.121   6.263   5.465  1.2347 -0.3115  0.7158
 7575SOL    HW233655   8.980   6.307   5.534 -0.3236 -1.3309 -1.7270
 7576SOL     OW33656   6.069   0.406   1.848 -0.6257  0.2627 -0.2162
 7576SOL    HW133657   6.124   0.464   1.909  0.1130 -1.3829  0.7226
 7576SOL    HW233658   5.972   0.422   1.865 -0.4318 -0.6997  1.9358
 7577SOL     OW33659   1.598   7.465   1.149 -0.1574  0.4407  0.0034
 7577SOL    HW133660   1.694   7.459   1.177  0.3731  1.0337 -1.6119
 7577SOL    HW233661   1.561   7.554   1.177 -0.4547 -0.0538  1.2272
 7578SOL     OW33662   9.341   6.548   3.182  0.0507  0.2322 -0.0446
 7578SOL    HW133663   9.432   6.519   3.151  0.6063  0.4442  1.3770
 7578SOL    HW233664   9.335   6.648   3.177 -0.7665  0.1098 -1.9184
 7579SOL     OW33665   8.759   8.064   4.629 -0.1467 -0.5925 -0.5022
 7579SOL    HW133666   8.771   7.966   4.643  0.2374 -0.4843 -0.0544
 7579SOL    HW233667   8.687   8.080   4.562 -1.7098 -1.1472  1.0085
 7580SOL     OW33668   7.109   9.199   3.531  0.6852  0.1113 -0.7746
 7580SOL    HW133669   7.051   9.127   3.493  1.2446 -1.2705  0.9260
 7580SOL    HW233670   7.066   9.235   3.614  1.0556  0.8277 -0.8956
 7581SOL     OW33671   2.656   8.795   0.311  0.2564  0.0999  0.1941
 7581SOL    HW133672   2.731   8.752   0.260 -0.8796  0.5333 -1.9023
 7581SOL    HW233673   2.666   8.895   0.307  0.9972  0.1256  2.1529
 7582SOL     OW33674   2.435   8.298   0.055  0.1925 -0.3428 -0.4184
 7582SOL    HW133675   2.443   8.219   0.117 -0.9427  0.9710  1.4551
 7582SOL    HW233676   2.395   8.268  -0.031 -0.2136 -1.8277  0.2607
 7583SOL     OW33677   3.363   4.048   3.935 -0.0318  0.7069  0.1064
 7583SOL    HW133678   3.325   4.123   3.989 -2.6011  0.8859 -1.8343
 7583SOL    HW233679   3.419   4.085   3.862  3.4960  0.4618  2.5683
 7584SOL     OW33680   0.348   5.958   4.043  0.1368  0.0623 -0.0767
 7584SOL    HW133681   0.256   5.943   4.079 -0.4470 -0.3211 -1.6864
 7584SOL    HW233682   0.382   6.047   4.074 -1.0227  0.4812  0.0290
 7585SOL     OW33683   5.952   9.750   3.993  0.7275 -0.0138 -0.5717
 7585SOL    HW133684   5.986   9.770   4.085  0.6496 -1.2589 -0.2607
 7585SOL    HW233685   6.000   9.670   3.957  0.9838  0.6623 -1.7449
 7586SOL     OW33686   8.754   9.681   4.541  0.1706 -0.2711 -0.0855
 7586SOL    HW133687   8.690   9.635   4.480 -0.0440 -0.9983  0.6815
 7586SOL    HW233688   8.706   9.716   4.621  0.4972  0.4155 -0.1848
 7587SOL     OW33689   7.140   0.503   0.062  0.1831 -0.0035 -0.5622
 7587SOL    HW133690   7.125   0.481   0.159 -0.2365 -0.4254 -0.7257
 7587SOL    HW233691   7.055   0.536   0.022  0.2484 -0.2592 -0.9072
 7588SOL     OW33692   1.253   2.047   5.193  0.0238  0.4474  0.4252
 7588SOL    HW133693   1.276   2.062   5.096  0.7417 -1.2650  0.3150
 7588SOL    HW233694   1.233   2.135   5.236 -2.8671  1.0306 -1.9160
 7589SOL     OW33695   7.657   3.122   2.543  0.0277  0.1247  0.0858
 7589SOL    HW133696   7.584   3.109   2.476  0.6748 -1.6663 -0.3046
 7589SOL    HW233697   7.718   3.195   2.513  0.5543 -0.9492 -1.5161
 7590SOL     OW33698   8.991   6.714   0.432 -0.4825 -0.4067 -0.1395
 7590SOL    HW133699   8.972   6.811   0.426 -1.2559 -0.4283  1.5702
 7590SOL    HW233700   9.060   6.698   0.502 -1.6449 -1.2302  0.8364
 7591SOL     OW33701   2.507   3.045   1.060 -0.1174 -0.0501 -0.2534
 7591SOL    HW133702   2.567   2.968   1.039 -1.2831 -1.5247  1.5550
 7591SOL    HW233703   2.562   3.127   1.079  1.2434 -0.9562 -0.2099
 7592SOL     OW33704   8.620   0.737   4.127  0.0452 -0.0728  0.4715
 7592SOL    HW133705   8.688   0.707   4.194  0.7467 -0.2957 -0.3267
 7592SOL    HW233706   8.532   0.696   4.148  0.4662 -0.8461  0.7371
 7593SOL     OW33707   9.096   5.034   3.405 -0.1495  0.4567  0.0374
 7593SOL    HW133708   9.134   5.001   3.319 -2.6443  0.7536 -1.2489
 7593SOL    HW233709   9.052   4.958   3.453 -1.1253  0.7992 -0.2906
 7594SOL     OW33710   9.765   0.659   4.607 -0.2926  0.2643  0.1317
 7594SOL    HW133711   9.833   0.587   4.597 -0.8683 -0.3323  0.4454
 7594SOL    HW233712   9.745   0.673   4.704 -0.4407  0.6017  0.0534
 7595SOL     OW33713   9.575   8.287   0.237 -0.3048  0.7947  0.1354
 7595SOL    HW133714   9.481   8.255   0.245 -0.1922  0.5896  0.6967
 7595SOL    HW233715   9.636   8.209   0.220 -0.1744  0.8557  0.3129
 7596SOL     OW33716   7.717   2.227   3.609  0.4065  0.1120  0.7424
 7596SOL    HW133717   7.710   2.305   3.546 -0.5857 -0.7673 -0.2326
 7596SOL    HW233718   7.813   2.213   3.633  0.8136  0.3702 -0.6800
 7597SOL     OW33719   2.251   9.150   2.704  0.2524  0.2802 -0.0914
 7597SOL    HW133720   2.259   9.171   2.802  1.9675 -1.5755  0.1876
 7597SOL    HW233721   2.328   9.191   2.655 -0.2623  0.6672 -0.5718
 7598SOL     OW33722   4.455   9.717   3.084  0.2048 -0.5277  0.0434
 7598SOL    HW133723   4.478   9.813   3.070  0.6955 -0.7608 -0.8110
 7598SOL    HW233724   4.474   9.666   3.000  0.3323 -1.4399  0.6173
 7599SOL     OW33725   9.956   8.560   1.547 -0.3483 -0.0043 -0.2158
 7599SOL    HW133726  10.023   8.634   1.558 -1.6305  1.1131  0.2839
 7599SOL    HW233727   9.868   8.589   1.585 -0.7440 -1.9950  0.4710
 7600SOL     OW33728   4.814   9.167   3.894  0.3611  0.3295 -0.0863
 7600SOL    HW133729   4.809   9.068   3.891 -0.5808  0.3470  0.9629
 7600SOL    HW233730   4.770   9.201   3.977  1.4013  1.5750 -0.0242
 7601SOL     OW33731   7.947   0.542   4.180 -0.4062 -0.2103  0.2093
 7601SOL    HW133732   7.972   0.592   4.263 -0.5646 -0.7576  0.5869
 7601SOL    HW233733   7.913   0.607   4.112 -1.5311  0.0833  1.0470
 7602SOL     OW33734   8.540   8.131   4.432  0.0243 -0.5111 -0.4550
 7602SOL    HW133735   8.464   8.155   4.493 -0.0488 -2.0007  0.0747
 7602SOL    HW233736   8.582   8.214   4.396 -2.0006  0.3263 -0.9254
 7603SOL     OW33737   3.644   4.515   0.330 -0.8315 -0.3449 -0.1216
 7603SOL    HW133738   3.641   4.581   0.255  0.9922  0.5079  0.5330
 7603SOL    HW233739   3.667   4.425   0.294 -0.3594 -0.0234 -0.6352
 7604SOL     OW33740   7.798   2.245   0.995  0.1112 -0.3036 -0.1684
 7604SOL    HW133741   7.778   2.222   0.899  2.2065 -0.1837 -0.6599
 7604SOL    HW233742   7.896   2.258   1.006 -0.0895 -0.5239  2.0699
 7605SOL     OW33743   2.228   7.443   3.640  0.3066 -0.1415 -0.4918
 7605SOL    HW133744   2.290   7.519   3.662 -0.8306  0.6930 -0.1274
 7605SOL    HW233745   2.204   7.447   3.544 -0.0014  0.1586 -0.4056
 7606SOL     OW33746   8.961   7.101   0.923  0.1890  0.1117 -0.5817
 7606SOL    HW133747   9.059   7.106   0.905  0.3419 -0.0366  0.1885
 7606SOL    HW233748   8.943   7.028   0.989 -0.5428 -0.5238 -1.4690
 7607SOL     OW33749   4.259   2.061   3.560 -0.0148  0.0588  0.1269
 7607SOL    HW133750   4.212   2.053   3.472 -0.7610  0.0913  0.5130
 7607SOL    HW233751   4.347   2.014   3.555  0.2507  0.6344 -0.8390
 7608SOL     OW33752   9.283   5.845   2.419  0.4324  0.0340  0.3902
 7608SOL    HW133753   9.330   5.780   2.479 -0.8369  0.7442  2.1774
 7608SOL    HW233754   9.265   5.930   2.469 -1.6197  0.2330 -0.6325
 7609SOL     OW33755   1.981   4.083   4.952  0.4493 -0.3113 -0.3668
 7609SOL    HW133756   2.062   4.032   4.982  0.3612 -0.5347 -0.5094
 7609SOL    HW233757   1.898   4.038   4.985  0.3173 -0.9969 -1.5748
 7610SOL     OW33758   1.536   1.440   1.927 -0.4675  0.5342 -0.0680
 7610SOL    HW133759   1.541   1.362   1.989 -0.0661 -0.9721 -1.9419
 7610SOL    HW233760   1.448   1.438   1.878  0.8424 -0.6127 -2.4555
 7611SOL     OW33761   0.298   5.019   1.667  0.4934  0.5294 -0.1329
 7611SOL    HW133762   0.349   4.935   1.681  0.1205 -0.1088 -2.3760
 7611SOL    HW233763   0.200   4.999   1.663  0.4723  0.8597 -1.8736
 7612SOL     OW33764   1.411   9.174   4.518 -0.2665 -0.3144 -0.4500
 7612SOL    HW133765   1.319   9.155   4.551  0.1861  0.6879  1.4586
 7612SOL    HW233766   1.409   9.252   4.455 -0.8567 -0.9451 -1.2099
 7613SOL     OW33767   4.422   8.497   0.900 -0.2066 -0.7580  0.2595
 7613SOL    HW133768   4.469   8.456   0.822  0.7311 -0.3154  0.5774
 7613SOL    HW233769   4.434   8.597   0.897 -1.5281 -0.6014  0.0891
 7614SOL     OW33770   3.650   8.612   1.785  0.2744 -0.1956 -0.2071
 7614SOL    HW133771   3.588   8.595   1.862  0.3592  0.9850  0.1252
 7614SOL    HW233772   3.607   8.674   1.720  0.6022 -0.3916 -0.6122
 7615SOL     OW33773   9.705   9.291   4.614  0.2366  0.6530  0.6467
 7615SOL    HW133774   9.664   9.358   4.552  1.0601  1.1761  0.6650
 7615SOL    HW233775   9.799   9.274   4.586  0.3278  0.2104  1.2219
 7616SOL     OW33776   9.996   1.227   1.220 -0.1204 -0.3459  0.2965
 7616SOL    HW133777  10.091   1.239   1.248  0.0345  0.0736 -0.4075
 7616SOL    HW233778   9.983   1.266   1.129 -1.4298  1.3204  1.1947
 7617SOL     OW33779   3.011   9.510   2.241 -0.1566 -0.1458 -0.6167
 7617SOL    HW133780   3.047   9.538   2.152 -1.5039  1.6745 -0.6232
 7617SOL    HW233781   2.912   9.528   2.244 -0.3289 -1.2556  0.8448
 7618SOL     OW33782   0.059   2.670   0.352  0.0895  0.1815 -0.2068
 7618SOL    HW133783   0.004   2.644   0.272 -0.9409  1.1233  0.1883
 7618SOL    HW233784   0.148   2.704   0.321 -0.2683  0.4601 -0.9480
 7619SOL     OW33785   1.119   2.334   2.311 -0.1685  0.4242 -0.4197
 7619SOL    HW133786   1.112   2.318   2.410  0.4568 -2.1774 -0.7644
 7619SOL    HW233787   1.039   2.386   2.281  0.1285  2.1491  1.5889
 7620SOL     OW33788   2.668   0.014   1.983 -0.0473  0.3053 -0.3269
 7620SOL    HW133789   2.688   0.083   1.913 -0.6218  0.2916 -0.5140
 7620SOL    HW233790   2.711   0.040   2.069  1.0453  0.0877 -0.8056
 7621SOL     OW33791   1.319   5.554   3.151  0.7827 -0.3818 -0.3098
 7621SOL    HW133792   1.237   5.611   3.157  1.8190  1.0482  0.8130
 7621SOL    HW233793   1.302   5.466   3.195 -0.3590 -0.3453 -0.6715
 7622SOL     OW33794   2.343   1.967   1.950 -0.0896 -0.3548  0.1130
 7622SOL    HW133795   2.284   1.887   1.953 -1.4892  0.6742  0.1469
 7622SOL    HW233796   2.406   1.958   1.872 -1.2557 -0.7722 -0.7987
 7623SOL     OW33797   8.702   9.947   3.919 -0.7274 -0.4778 -0.1180
 7623SOL    HW133798   8.754   9.952   4.004 -0.6239  1.7084 -0.2862
 7623SOL    HW233799   8.761   9.969   3.842 -1.3698 -0.1763 -0.5317
 7624SOL     OW33800   2.917   0.712   4.967  0.6561 -0.0557  0.3972
 7624SOL    HW133801   2.949   0.777   5.036  0.7823 -0.6335  0.8835
 7624SOL    HW233802   2.846   0.654   5.006  0.0264  0.2761 -0.2605
 7625SOL     OW33803   2.535   2.689   3.702 -0.1296  0.8988  0.3151
 7625SOL    HW133804   2.482   2.706   3.785  0.3176  2.4266  0.2999
 7625SOL    HW233805   2.631   2.675   3.727 -0.2749 -0.3413  0.2030
 7626SOL     OW33806   8.460   2.534   4.849 -0.2415  0.3260  0.3934
 7626SOL    HW133807   8.527   2.591   4.802  0.3943  1.1305  2.2614
 7626SOL    HW233808   8.418   2.471   4.783  2.5485 -0.4041 -0.7721
 7627SOL     OW33809   7.684   8.484   4.172  0.0788  0.1337  0.0242
 7627SOL    HW133810   7.642   8.456   4.258 -0.1872  0.4441 -0.0020
 7627SOL    HW233811   7.754   8.418   4.145 -1.1065 -0.9418 -0.4646
 7628SOL     OW33812   4.507   8.208   4.878 -0.6636  0.1105 -0.3954
 7628SOL    HW133813   4.464   8.241   4.962  2.5025 -0.7002  1.6262
 7628SOL    HW233814   4.552   8.284   4.832 -0.6866  0.1778 -0.3080
 7629SOL     OW33815   3.945   1.805   4.446 -0.0676  0.0669 -0.1248
 7629SOL    HW133816   3.865   1.847   4.490 -0.2290  2.1065 -2.2718
 7629SOL    HW233817   3.919   1.716   4.408 -0.2191 -1.2000  2.7848
 7630SOL     OW33818   3.328   5.151   0.373 -0.0300  0.3874  0.4772
 7630SOL    HW133819   3.254   5.111   0.428  0.6717 -1.4650  0.1035
 7630SOL    HW233820   3.395   5.194   0.433  0.4775 -1.1940  1.0893
 7631SOL     OW33821   4.635   3.181   1.431 -0.0932 -0.0148  0.3457
 7631SOL    HW133822   4.600   3.246   1.498  1.7898 -0.1388  1.4682
 7631SOL    HW233823   4.561   3.156   1.368 -1.8066  0.3504  2.1439
 7632SOL     OW33824   9.531   4.806   5.597 -0.1630  0.2173 -0.0246
 7632SOL    HW133825   9.554   4.808   5.500 -0.6398 -1.4376 -0.1852
 7632SOL    HW233826   9.565   4.889   5.641  0.9795  0.4972 -1.3963
 7633SOL     OW33827   1.160   9.950   0.564  0.3405 -0.3962 -0.0694
 7633SOL    HW133828   1.207   9.963   0.477  0.7194  1.8059  0.4372
 7633SOL    HW233829   1.073   9.903   0.548  0.8031 -0.7953 -1.5158
 7634SOL     OW33830   1.045   5.010   1.737 -0.2923  0.5212  0.1764
 7634SOL    HW133831   1.038   5.090   1.677  1.2809 -0.7375 -1.7575
 7634SOL    HW233832   1.141   4.983   1.744 -0.7687 -0.9660  1.1146
 7635SOL     OW33833   0.611   9.382   4.367 -0.2692 -0.3401  0.2522
 7635SOL    HW133834   0.607   9.430   4.280  0.6239  0.4291  0.6218
 7635SOL    HW233835   0.678   9.308   4.362  0.6299  0.4336  0.6234
 7636SOL     OW33836   0.689   4.946   4.015  0.2927 -0.0098 -0.1423
 7636SOL    HW133837   0.753   4.875   4.045  0.3772  0.2087  0.1908
 7636SOL    HW233838   0.721   4.987   3.930  1.2729  1.0023  0.7035
 7637SOL     OW33839   7.024   9.333   3.799  0.2847  0.6993 -0.0246
 7637SOL    HW133840   7.087   9.322   3.877  0.5441  0.2299 -0.3019
 7637SOL    HW233841   6.994   9.428   3.794  0.9866  0.9290  0.0997
 7638SOL     OW33842   3.405   8.906   1.597 -0.4946  0.6287  0.4651
 7638SOL    HW133843   3.360   8.822   1.570  1.7202 -0.8636  1.2626
 7638SOL    HW233844   3.437   8.955   1.516 -1.7488  0.7179  0.0081
 7639SOL     OW33845   5.844   0.362   0.919 -0.7128 -0.0796 -0.0760
 7639SOL    HW133846   5.759   0.406   0.892 -0.5531  0.1467 -0.2119
 7639SOL    HW233847   5.837   0.331   1.014 -2.1043 -2.9462 -1.0741
 7640SOL     OW33848   1.069   8.519   3.144  0.1272 -0.5727 -0.9642
 7640SOL    HW133849   1.081   8.431   3.190  0.9015  0.1689  0.2787
 7640SOL    HW233850   0.979   8.556   3.167  0.0304 -0.7666 -1.0284
 7641SOL     OW33851   8.874   4.922   4.958  0.5301  0.3806  0.4042
 7641SOL    HW133852   8.965   4.935   4.997  0.7250 -2.3109  0.9508
 7641SOL    HW233853   8.882   4.905   4.860  0.5063  1.2939  0.2377
 7642SOL     OW33854   6.911   9.060   4.335 -0.3131  0.4367  0.6397
 7642SOL    HW133855   6.899   9.087   4.239  0.2010  1.8363  0.9560
 7642SOL    HW233856   6.823   9.035   4.374 -0.4475 -0.7082 -0.3573
 7643SOL     OW33857   2.708   5.800   0.666 -0.0511 -0.0865 -0.1576
 7643SOL    HW133858   2.771   5.847   0.604  1.0926  0.2299  1.2092
 7643SOL    HW233859   2.658   5.729   0.616 -0.1806  1.0959 -1.7417
 7644SOL     OW33860   1.086   5.739   1.557 -0.3252 -0.2626 -1.2301
 7644SOL    HW133861   1.048   5.648   1.570  1.2416 -1.0781 -2.2020
 7644SOL    HW233862   1.176   5.744   1.600 -0.9323  1.2238 -0.0952
 7645SOL     OW33863   2.123   7.228   1.078  0.9057 -0.2471  0.2658
 7645SOL    HW133864   2.076   7.305   1.122  2.4277  1.5726 -1.1989
 7645SOL    HW233865   2.204   7.262   1.029  0.8293 -2.5793 -1.5703
 7646SOL     OW33866   1.146   5.868   1.890 -0.2559  0.4792 -0.3711
 7646SOL    HW133867   1.181   5.954   1.928 -0.3790  0.4450 -0.1813
 7646SOL    HW233868   1.075   5.889   1.822  0.1820  0.5515 -0.8119
 7647SOL     OW33869   1.343   4.673   5.633  0.0538  0.2345 -0.0773
 7647SOL    HW133870   1.341   4.626   5.544  2.5589  1.3052 -0.7375
 7647SOL    HW233871   1.429   4.653   5.680 -1.5807 -0.9635  2.5193
 7648SOL     OW33872   1.998   9.259   3.014  0.2114 -0.1446 -0.7079
 7648SOL    HW133873   2.022   9.188   3.080 -0.4767  0.2824  0.0084
 7648SOL    HW233874   1.975   9.216   2.926  1.0158 -0.7160 -0.6427
 7649SOL     OW33875   7.916   9.417   0.755  0.1807 -0.5182  0.5210
 7649SOL    HW133876   7.979   9.441   0.828  0.3479 -0.9819  0.5315
 7649SOL    HW233877   7.913   9.491   0.687  0.7717 -0.5151  0.4936
 7650SOL     OW33878   4.039   7.910   3.745  0.3445 -0.3940  0.3026
 7650SOL    HW133879   4.084   7.832   3.790 -0.1679 -1.6219 -1.2611
 7650SOL    HW233880   3.940   7.897   3.748  0.2802 -0.0815 -0.4717
 7651SOL     OW33881   2.066   7.256   2.323 -0.4529  0.2278  0.0671
 7651SOL    HW133882   2.025   7.258   2.232  1.2214  0.1135 -0.7088
 7651SOL    HW233883   2.108   7.167   2.339 -0.4097  0.3734  0.8091
 7652SOL     OW33884   0.917   7.198   4.994 -0.3231  0.8276 -0.5290
 7652SOL    HW133885   0.959   7.263   4.930  0.0433  0.2241 -0.9100
 7652SOL    HW233886   0.885   7.118   4.943 -0.1126  0.3853  0.0345
 7653SOL     OW33887   8.941   0.351   0.083 -0.2261  0.0625 -0.4093
 7653SOL    HW133888   8.856   0.337   0.033  0.0400 -0.3045 -0.7650
 7653SOL    HW233889   9.009   0.393   0.023  0.2143 -0.7338 -0.4793
 7654SOL     OW33890   8.006   2.962   3.412  0.3018  0.1869 -0.1543
 7654SOL    HW133891   8.025   3.060   3.407  1.7294 -0.1266 -1.4109
 7654SOL    HW233892   8.029   2.919   3.325  3.1015 -1.8278  1.4762
 7655SOL     OW33893   9.549   2.518   4.260  0.3132 -0.1620  0.1956
 7655SOL    HW133894   9.592   2.472   4.337  0.0935 -0.5558  0.0847
 7655SOL    HW233895   9.584   2.479   4.175 -0.4737 -0.6846  0.1064
 7656SOL     OW33896   4.400   2.428   0.622  0.2928  0.3911  0.3518
 7656SOL    HW133897   4.366   2.462   0.535 -1.7282  0.3692  1.0915
 7656SOL    HW233898   4.450   2.343   0.608 -0.4044  0.1559 -0.7438
 7657SOL     OW33899   2.642   0.312   1.181  0.6769 -0.1590  0.5508
 7657SOL    HW133900   2.676   0.389   1.235 -2.6225  1.7069  0.1187
 7657SOL    HW233901   2.559   0.276   1.223 -0.6053 -0.2208 -1.9321
 7658SOL     OW33902   1.689   9.949   1.439 -0.1852  0.4783  0.2811
 7658SOL    HW133903   1.714   9.852   1.443 -0.1233  0.3891 -1.6798
 7658SOL    HW233904   1.731   9.997   1.516 -0.7568 -1.1598  1.6506
 7659SOL     OW33905   0.244   0.093   2.549 -0.2155 -0.5028 -0.6612
 7659SOL    HW133906   0.288   0.124   2.633 -0.4011 -0.7642 -0.4660
 7659SOL    HW233907   0.146   0.110   2.554  0.0357  1.4291 -1.6987
 7660SOL     OW33908   2.868   1.456   2.543  0.1017  0.1315 -0.5999
 7660SOL    HW133909   2.900   1.397   2.469  0.9565  0.9666 -0.9054
 7660SOL    HW233910   2.788   1.507   2.512 -0.7103 -0.9480 -0.2961
 7661SOL     OW33911   2.492   5.973   0.551  0.4812 -0.4564  0.4554
 7661SOL    HW133912   2.531   5.885   0.579  2.5400 -0.2895 -1.7767
 7661SOL    HW233913   2.460   5.967   0.457  0.6104  1.2034  0.2936
 7662SOL     OW33914   6.502   0.403   3.077  0.4434  0.0686 -0.2819
 7662SOL    HW133915   6.528   0.341   3.003  1.2355 -0.7173  0.6357
 7662SOL    HW233916   6.479   0.350   3.158  0.5917  0.9530  0.3460
 7663SOL     OW33917   2.230   0.504   1.743 -0.1928 -0.0745 -0.0764
 7663SOL    HW133918   2.271   0.425   1.697 -1.6972 -0.6027 -0.5626
 7663SOL    HW233919   2.288   0.584   1.731  1.0385 -0.9540 -0.1307
 7664SOL     OW33920   7.716   6.576   5.556  0.4231 -0.0840 -0.1090
 7664SOL    HW133921   7.798   6.559   5.611 -0.8885 -2.1230  1.2554
 7664SOL    HW233922   7.640   6.601   5.616 -0.3959  0.0854 -1.2090
 7665SOL     OW33923   9.579   5.200   2.877  0.0230  0.2813  0.5899
 7665SOL    HW133924   9.622   5.206   2.787  1.6435 -3.8024  0.9955
 7665SOL    HW233925   9.636   5.246   2.945  0.4266  0.6046  0.0318
 7666SOL     OW33926   0.649   1.062   5.166  0.7387 -0.0573 -0.3356
 7666SOL    HW133927   0.725   1.108   5.119  1.6770 -1.2414  0.0129
 7666SOL    HW233928   0.642   0.967   5.134  0.1297 -0.2975  0.4895
 7667SOL     OW33929   4.409   9.584   5.153  0.6977  0.2215  0.0852
 7667SOL    HW133930   4.441   9.561   5.062  1.6053 -1.5540  0.8451
 7667SOL    HW233931   4.410   9.503   5.212  1.5853  1.6456  2.1067
 7668SOL     OW33932   2.711   9.559   2.780 -0.1105  0.6140 -0.2366
 7668SOL    HW133933   2.709   9.460   2.793 -0.6187  0.5884 -0.4909
 7668SOL    HW233934   2.632   9.599   2.828 -0.6968  0.7548 -1.3182
 7669SOL     OW33935   7.797   0.557   5.251 -0.0298 -0.6986 -0.0327
 7669SOL    HW133936   7.895   0.544   5.263  0.2018 -1.7119 -2.6898
 7669SOL    HW233937   7.748   0.481   5.293  0.3880 -0.9513  0.0012
 7670SOL     OW33938   1.614   6.150   1.914 -0.2019 -0.1939 -0.4351
 7670SOL    HW133939   1.683   6.123   1.981  1.9299  0.9409 -2.1255
 7670SOL    HW233940   1.606   6.079   1.844  0.5990  0.5216 -1.2539
 7671SOL     OW33941   9.075   5.817   1.577  0.7547 -0.2962  0.4862
 7671SOL    HW133942   9.150   5.883   1.574  2.3190 -2.0696 -0.1344
 7671SOL    HW233943   9.096   5.745   1.643  0.9949 -2.4076 -1.8093
 7672SOL     OW33944   1.458   8.076   4.929 -0.1938  0.0500  0.0362
 7672SOL    HW133945   1.510   8.096   4.846 -0.4707  0.9145  0.0668
 7672SOL    HW233946   1.386   8.010   4.909 -0.9068  1.0263 -0.6380
 7673SOL     OW33947   8.096   2.068   0.494 -0.0650 -0.6863 -0.1113
 7673SOL    HW133948   8.173   2.122   0.529 -1.0732  2.7674 -2.9496
 7673SOL    HW233949   8.121   2.027   0.406 -1.1462 -0.3079 -0.6038
 7674SOL     OW33950   4.232   3.961   2.304  0.3223  0.7112  0.3106
 7674SOL    HW133951   4.296   4.032   2.273  1.6265 -1.2653 -1.6973
 7674SOL    HW233952   4.280   3.900   2.367 -0.2885  0.5791  0.6473
 7675SOL     OW33953   9.586   9.572   2.593 -0.7899 -0.1745 -0.4869
 7675SOL    HW133954   9.536   9.516   2.527 -0.4270  0.7672 -1.5804
 7675SOL    HW233955   9.667   9.522   2.624 -1.1694 -0.7769 -0.4640
 7676SOL     OW33956   7.147   3.679   0.554  0.2575  0.2356 -0.5879
 7676SOL    HW133957   7.098   3.738   0.490 -1.8922 -1.1087 -0.2450
 7676SOL    HW233958   7.126   3.583   0.534  0.2623 -0.2502  1.5456
 7677SOL     OW33959   1.597   2.122   5.194 -0.3447 -0.3360 -0.1968
 7677SOL    HW133960   1.535   2.131   5.271 -0.0175 -0.7797  0.1238
 7677SOL    HW233961   1.589   2.030   5.155  0.4188 -0.5397  0.1189
 7678SOL     OW33962   0.355   2.740   4.150 -0.5856 -0.1241  0.0460
 7678SOL    HW133963   0.285   2.808   4.123  0.7693  0.5417 -1.9342
 7678SOL    HW233964   0.387   2.692   4.068 -0.3402 -2.0342  1.2365
 7679SOL     OW33965   4.103   2.129   1.076  0.3482  0.5464  0.4579
 7679SOL    HW133966   4.185   2.079   1.049 -0.9394 -0.6141 -1.3584
 7679SOL    HW233967   4.067   2.091   1.161 -0.8049 -1.8761 -1.0762
 7680SOL     OW33968   9.370   7.510   4.365 -0.1899 -0.2768  0.5736
 7680SOL    HW133969   9.304   7.584   4.379 -0.6624 -0.5754 -0.0690
 7680SOL    HW233970   9.440   7.514   4.436 -0.7935  0.1607  1.1489
 7681SOL     OW33971   5.222   1.744   2.373 -0.5581 -0.0199  0.0621
 7681SOL    HW133972   5.278   1.745   2.456  1.5355 -0.7917 -1.3030
 7681SOL    HW233973   5.237   1.658   2.324 -3.3065 -0.4411 -0.1236
 7682SOL     OW33974   0.903   8.297   3.633 -0.1057 -0.4255 -0.1941
 7682SOL    HW133975   0.929   8.384   3.673 -0.3845 -1.2721  1.9274
 7682SOL    HW233976   0.980   8.258   3.583  0.5795  0.2032  0.3635
 7683SOL     OW33977   4.479   4.857   3.956  0.0399 -0.1609 -0.2375
 7683SOL    HW133978   4.510   4.952   3.959  1.9091 -0.7103 -0.9167
 7683SOL    HW233979   4.547   4.799   4.002  0.4861 -1.5247 -2.5196
 7684SOL     OW33980   5.987   1.484   2.379  0.4404 -0.3239  0.3222
 7684SOL    HW133981   5.947   1.441   2.460  0.3961 -1.8959 -0.5278
 7684SOL    HW233982   6.072   1.437   2.355  1.5481  1.4464  0.6638
 7685SOL     OW33983   8.230   3.970   5.225  0.4401  0.2089  0.5408
 7685SOL    HW133984   8.230   3.949   5.323  1.7600  0.0719  0.5200
 7685SOL    HW233985   8.321   3.953   5.188  0.2094  1.2500 -0.5079
 7686SOL     OW33986   0.655   3.863   2.606 -0.3261 -0.6776 -0.1666
 7686SOL    HW133987   0.673   3.927   2.681 -0.5016  0.2129 -0.8825
 7686SOL    HW233988   0.569   3.886   2.562  1.0261  0.4284 -2.3208
 7687SOL     OW33989   0.038   6.589   2.475  0.3851  0.6025 -0.6875
 7687SOL    HW133990   0.092   6.633   2.547  0.6235  0.9723 -1.0890
 7687SOL    HW233991  -0.040   6.542   2.515  0.6115  0.6709 -0.1717
 7688SOL     OW33992   0.115   4.123   3.128  0.4108 -0.5686 -0.3841
 7688SOL    HW133993   0.064   4.171   3.057  0.3155 -0.0988  0.0022
 7688SOL    HW233994   0.055   4.102   3.204  1.1091  1.2134  0.6752
 7689SOL     OW33995   3.768   7.354   4.679  0.0348 -0.2347  0.0921
 7689SOL    HW133996   3.846   7.338   4.618  1.4981  0.5073  1.7027
 7689SOL    HW233997   3.707   7.275   4.678  1.3355 -1.2497 -0.4358
 7690SOL     OW33998   1.655   0.083   5.318 -0.0774 -0.3821 -0.2225
 7690SOL    HW133999   1.749   0.102   5.288  0.5767 -0.3137  1.7893
 7690SOL    HW234000   1.638   0.131   5.404 -1.3673 -1.8490  0.3466
 7691SOL     OW34001   2.148   6.390   0.033  0.4041  0.4130  0.2235
 7691SOL    HW134002   2.149   6.304   0.084  0.7987  0.9622  1.1433
 7691SOL    HW234003   2.228   6.395  -0.026  0.4576  0.2155  0.2804
 7692SOL     OW34004   0.902   9.602   1.324  0.2206 -0.1031  0.0303
 7692SOL    HW134005   0.972   9.534   1.303 -1.7045 -2.5873  1.4808
 7692SOL    HW234006   0.866   9.641   1.238  2.0550 -0.1258 -0.7689
 7693SOL     OW34007   0.401   6.130   1.759  0.4478  0.8106  0.6901
 7693SOL    HW134008   0.312   6.165   1.788 -0.3333  0.3667 -1.1287
 7693SOL    HW234009   0.404   6.031   1.769  0.9773  0.8872  1.3533
 7694SOL     OW34010   1.602   3.294   1.491  0.0380 -0.4389  0.0752
 7694SOL    HW134011   1.573   3.387   1.471  0.2091  0.0656  2.0169
 7694SOL    HW234012   1.701   3.288   1.487 -0.0969 -1.3999 -3.4295
 7695SOL     OW34013   8.823   1.756   0.452 -0.0090  0.5279 -0.7183
 7695SOL    HW134014   8.796   1.849   0.478  0.6662  1.8447 -4.4852
 7695SOL    HW234015   8.923   1.747   0.458 -0.1887 -0.4814  1.1494
 7696SOL     OW34016   8.691   7.660   1.393 -0.9115 -0.4492  0.0210
 7696SOL    HW134017   8.675   7.606   1.310 -0.1908  0.1920 -0.5535
 7696SOL    HW234018   8.610   7.714   1.414 -1.3308 -1.1105  0.1111
 7697SOL     OW34019   2.705   5.837   3.189 -0.0639 -0.0434  0.0800
 7697SOL    HW134020   2.755   5.888   3.260  0.8978 -1.2811  0.3048
 7697SOL    HW234021   2.650   5.766   3.231 -0.8547  0.3399 -0.2941
 7698SOL     OW34022   9.406   6.369   2.851  0.1634  0.4752  0.1361
 7698SOL    HW134023   9.389   6.445   2.788 -0.8948 -0.0240 -0.2021
 7698SOL    HW234024   9.319   6.340   2.892  0.6314 -0.2020  0.6636
 7699SOL     OW34025   5.523   3.035   0.827  0.2733  0.4655  0.0039
 7699SOL    HW134026   5.553   2.948   0.865  0.5909  1.3991  1.9937
 7699SOL    HW234027   5.504   3.025   0.730  1.6450 -1.4738 -0.0813
 7700SOL     OW34028   2.836   4.463   3.829 -0.7178  0.3013 -0.2913
 7700SOL    HW134029   2.905   4.398   3.798 -1.5848 -1.4710  1.4372
 7700SOL    HW234030   2.754   4.454   3.773 -1.3712 -1.1431  0.8805
 7701SOL     OW34031   8.393   5.389   4.639  0.0328 -0.0547 -0.3265
 7701SOL    HW134032   8.338   5.321   4.591 -0.7576  1.8630 -2.1931
 7701SOL    HW234033   8.488   5.383   4.609  0.4343 -1.7843  1.1651
 7702SOL     OW34034   9.797   8.736   1.230  0.2220 -0.4975  0.0587
 7702SOL    HW134035   9.738   8.680   1.172 -0.6663  0.1200  0.3613
 7702SOL    HW234036   9.742   8.800   1.283  1.0346 -0.9551  1.4918
 7703SOL     OW34037   8.308   5.862   0.051 -0.5481  0.5587  0.0776
 7703SOL    HW134038   8.333   5.895   0.142  0.3170 -0.8046  0.3481
 7703SOL    HW234039   8.262   5.773   0.060 -1.5717  1.0015 -0.7310
 7704SOL     OW34040   5.193   2.614   0.763  0.2422 -0.2912 -0.3500
 7704SOL    HW134041   5.130   2.540   0.741  1.2025 -1.6145  1.2515
 7704SOL    HW234042   5.175   2.692   0.703 -3.3426 -0.3981  0.4810
 7705SOL     OW34043   8.252   9.176   0.591 -0.0625 -0.5592  0.2822
 7705SOL    HW134044   8.224   9.173   0.687 -1.3619 -0.0016 -0.0615
 7705SOL    HW234045   8.221   9.093   0.545  0.5832 -0.8387  0.3505
 7706SOL     OW34046   7.890   4.714   0.691 -0.2116  0.7789  0.4167
 7706SOL    HW134047   7.971   4.767   0.717  0.6510  0.2289 -1.1112
 7706SOL    HW234048   7.862   4.740   0.599 -0.3227 -0.7758  0.0017
 7707SOL     OW34049   7.836   6.019   3.600  0.0069  0.1998  0.1214
 7707SOL    HW134050   7.931   6.030   3.631  0.4686 -1.0400 -0.7847
 7707SOL    HW234051   7.783   5.972   3.670  0.2969  0.0742  0.2568
 7708SOL     OW34052   0.466   0.560   3.272 -0.0662  0.1608  0.0214
 7708SOL    HW134053   0.549   0.508   3.251 -0.6963  0.0075 -2.2587
 7708SOL    HW234054   0.477   0.607   3.360  2.7178  0.7621 -0.6037
 7709SOL     OW34055   0.018   2.466   2.947  0.0242  0.1794  0.1185
 7709SOL    HW134056  -0.048   2.396   2.917  0.7136 -0.1941 -0.5338
 7709SOL    HW234057   0.014   2.475   3.046 -0.8760  0.0208  0.1063
 7710SOL     OW34058   8.648   2.683   0.235 -0.7122 -0.2211  0.3445
 7710SOL    HW134059   8.593   2.603   0.261 -0.9439  0.1297  0.9342
 7710SOL    HW234060   8.737   2.679   0.280 -0.2329 -0.8039 -0.6337
 7711SOL     OW34061   8.151   7.362   0.365 -0.2463  0.0554 -0.4415
 7711SOL    HW134062   8.118   7.440   0.311 -0.0898  0.8380  0.5716
 7711SOL    HW234063   8.239   7.331   0.329 -0.1622  0.5455 -0.6599
 7712SOL     OW34064   3.565   3.249   4.194 -0.0297  0.2624  0.3543
 7712SOL    HW134065   3.601   3.309   4.122 -0.0410 -0.2480 -0.0841
 7712SOL    HW234066   3.576   3.293   4.283 -0.1854  0.9810  0.0231
 7713SOL     OW34067   8.918   3.831   3.418  0.0358  0.3202 -0.3282
 7713SOL    HW134068   9.012   3.835   3.452 -0.3542 -0.1844  0.8157
 7713SOL    HW234069   8.901   3.910   3.359  1.4502 -0.0539 -1.2571
 7714SOL     OW34070   5.274   9.556   4.499  0.6837 -0.0161 -1.1757
 7714SOL    HW134071   5.324   9.515   4.423  1.1958 -0.5559 -0.5517
 7714SOL    HW234072   5.336   9.613   4.553  0.3954  0.1148 -0.9793
 7715SOL     OW34073   3.338   9.480   1.761  0.0126 -0.2303  0.5504
 7715SOL    HW134074   3.362   9.383   1.769 -0.4374 -0.3649  0.2319
 7715SOL    HW234075   3.392   9.521   1.688  0.4301 -0.1668  0.8908
 7716SOL     OW34076   5.357   2.363   3.293 -0.2023 -0.3877  0.2340
 7716SOL    HW134077   5.259   2.360   3.314 -0.3776  0.6259 -0.3938
 7716SOL    HW234078   5.379   2.450   3.249  1.0047 -0.5671  0.4541
 7717SOL     OW34079   2.560   7.181   0.645 -0.1519 -0.2399  0.0905
 7717SOL    HW134080   2.617   7.231   0.580  0.0804  0.9450  1.1991
 7717SOL    HW234081   2.572   7.083   0.630  0.3986  0.0085 -1.2132
 7718SOL     OW34082   7.959   1.811   0.460 -0.2723  0.2648  0.1693
 7718SOL    HW134083   8.034   1.769   0.510  0.0392 -0.4494 -0.8921
 7718SOL    HW234084   7.990   1.898   0.422  0.1514 -0.2530 -0.6619
 7719SOL     OW34085   2.827   8.675   3.106 -0.5066 -0.1455  0.0012
 7719SOL    HW134086   2.805   8.698   3.011 -0.5809 -0.4479 -0.0544
 7719SOL    HW234087   2.917   8.632   3.110 -0.5447 -0.2200  0.0542
 7720SOL     OW34088   1.195   8.267   1.277 -0.8013 -0.2481 -0.0666
 7720SOL    HW134089   1.119   8.307   1.225  0.3898  0.4463 -1.3143
 7720SOL    HW234090   1.217   8.177   1.240  0.5798  0.5903 -1.3154
 7721SOL     OW34091   0.529   5.394   1.048 -0.2774  0.1698  0.3626
 7721SOL    HW134092   0.606   5.444   1.089  0.1146  0.9635 -1.3055
 7721SOL    HW234093   0.505   5.317   1.107  3.0899 -1.2825 -0.0239
 7722SOL     OW34094   9.131   5.207   0.155 -0.0752 -0.1975  0.2846
 7722SOL    HW134095   9.212   5.155   0.181  1.2729  1.2574 -0.9170
 7722SOL    HW234096   9.075   5.226   0.237  1.4032 -0.1915  1.3126
 7723SOL     OW34097   0.782   0.466   4.161  0.2372 -0.3405  0.0271
 7723SOL    HW134098   0.689   0.481   4.127  0.5321  1.5616  0.0047
 7723SOL    HW234099   0.846   0.470   4.084  0.3436 -1.7072  0.0342
 7724SOL     OW34100   1.503   7.911   2.526  0.2120  0.4741 -0.5556
 7724SOL    HW134101   1.574   7.847   2.496  0.0719  0.0618 -0.0269
 7724SOL    HW234102   1.413   7.866   2.521  0.3519 -0.2485  2.1490
 7725SOL     OW34103   3.427   4.490   3.997  0.4088  0.1651  0.3347
 7725SOL    HW134104   3.494   4.536   3.938  0.8247 -0.4202  0.3499
 7725SOL    HW234105   3.452   4.394   4.008 -1.4660 -0.5348 -1.2068
 7726SOL     OW34106   0.758   2.725   0.627 -0.2692 -0.1859  0.1941
 7726SOL    HW134107   0.700   2.805   0.618 -1.3673 -0.8248  1.4394
 7726SOL    HW234108   0.757   2.693   0.722  0.9069 -1.1065 -0.0887
 7727SOL     OW34109   2.873   4.804   2.025  0.3201 -0.0119 -0.2325
 7727SOL    HW134110   2.873   4.902   2.006  0.7279  0.0658  0.1619
 7727SOL    HW234111   2.818   4.757   1.956 -0.3332  0.5529 -0.1019
 7728SOL     OW34112   7.510   9.444   5.289  0.0045 -0.0710 -0.3763
 7728SOL    HW134113   7.558   9.385   5.353  1.2144 -0.3404 -1.5140
 7728SOL    HW234114   7.538   9.423   5.196 -1.6019  0.4320 -1.0039
 7729SOL     OW34115   0.136   2.598   2.367 -0.6738  0.0738  0.5836
 7729SOL    HW134116   0.181   2.687   2.370  0.5112 -0.4602 -0.8594
 7729SOL    HW234117   0.084   2.584   2.452  2.0628  0.6159  2.4074
 7730SOL     OW34118   1.029   3.493   2.736 -0.2777  0.1693 -0.3754
 7730SOL    HW134119   1.080   3.575   2.710  0.3654 -0.2685 -0.5209
 7730SOL    HW234120   1.072   3.413   2.694  0.2959 -0.4661  1.3648
 7731SOL     OW34121   1.110   6.416   3.525 -0.1611  0.0924  0.3599
 7731SOL    HW134122   1.144   6.458   3.442  0.7619  0.5683  0.9780
 7731SOL    HW234123   1.011   6.431   3.532 -0.2576 -0.0185 -0.6773
 7732SOL     OW34124   4.128   2.274   1.804 -0.7741  0.3735 -0.2318
 7732SOL    HW134125   4.196   2.338   1.838  0.9216  0.3577 -3.3894
 7732SOL    HW234126   4.039   2.318   1.799 -0.2275  1.5565  0.4486
 7733SOL     OW34127   4.882   9.984   2.029  0.5374  0.6298  0.6171
 7733SOL    HW134128   4.867   9.933   2.114 -1.5089 -0.3839 -0.3015
 7733SOL    HW234129   4.884   9.919   1.952  0.6902  1.6852 -0.2729
 7734SOL     OW34130   9.368   0.647   1.886  0.5423 -0.4548  0.1099
 7734SOL    HW134131   9.427   0.726   1.903 -0.5835  0.6143 -0.8718
 7734SOL    HW234132   9.304   0.637   1.962 -0.2520  0.4453 -0.4316
 7735SOL     OW34133   9.029   1.269   2.260 -0.5521  0.2417 -0.1491
 7735SOL    HW134134   9.103   1.225   2.311 -0.0079 -1.6690 -2.4927
 7735SOL    HW234135   9.062   1.355   2.221  0.2014 -0.1631 -0.4266
 7736SOL     OW34136   9.894   6.426   0.263 -0.0305 -0.2741 -0.0206
 7736SOL    HW134137   9.883   6.469   0.173 -0.2067  1.5731  0.8678
 7736SOL    HW234138   9.911   6.328   0.251  4.0820  0.5871 -2.2797
 7737SOL     OW34139   1.157   8.445   0.480 -0.1450  0.3335 -0.2784
 7737SOL    HW134140   1.179   8.532   0.524 -1.2063 -0.5015  1.9814
 7737SOL    HW234141   1.111   8.386   0.545 -1.0361 -1.2708 -2.3127
 7738SOL     OW34142   4.405   1.749   0.997  0.1670 -0.6937 -0.8380
 7738SOL    HW134143   4.431   1.845   0.992  2.2756 -1.0702  1.9002
 7738SOL    HW234144   4.465   1.695   0.937  0.4627 -0.5813 -0.6445
 7739SOL     OW34145   0.025   4.231   1.144 -0.2180  0.1149  0.3283
 7739SOL    HW134146   0.111   4.280   1.131 -0.6483  0.8840  0.3297
 7739SOL    HW234147   0.040   4.153   1.205  0.4588  0.2936  0.3917
 7740SOL     OW34148   4.259   1.611   1.187 -0.2466 -0.0464 -0.5959
 7740SOL    HW134149   4.169   1.589   1.150  0.0416  1.4153 -2.2128
 7740SOL    HW234150   4.312   1.661   1.119  1.9127 -1.1446  0.2241
 7741SOL     OW34151   4.761   1.983   1.776  0.5067 -0.0488 -0.1614
 7741SOL    HW134152   4.732   1.888   1.790 -0.0440  0.3588  1.5840
 7741SOL    HW234153   4.841   2.002   1.832  0.4046  0.6212 -0.2389
 7742SOL     OW34154   7.429   1.576   2.448 -0.0860 -0.6946 -0.0077
 7742SOL    HW134155   7.418   1.603   2.544 -1.3856  0.1845 -0.3912
 7742SOL    HW234156   7.406   1.653   2.389 -0.2284 -1.5229 -1.0467
 7743SOL     OW34157   4.879   3.540   0.663  0.5961  0.1623  0.6851
 7743SOL    HW134158   4.824   3.620   0.689  0.4431 -0.0561  1.0529
 7743SOL    HW234159   4.818   3.467   0.632  0.8763  0.9151 -1.6899
 7744SOL     OW34160   1.560   6.944   2.367  0.0537  0.0055 -0.0577
 7744SOL    HW134161   1.649   6.989   2.357  0.0456  0.1318  0.4593
 7744SOL    HW234162   1.538   6.897   2.281  0.2987  0.5529 -0.4278
 7745SOL     OW34163   1.759   5.327   4.216 -0.5296 -0.0722  0.2568
 7745SOL    HW134164   1.742   5.312   4.313 -0.3166 -1.3541  0.1026
 7745SOL    HW234165   1.840   5.385   4.205 -0.1639 -0.4659  0.8338
 7746SOL     OW34166   3.873   4.199   3.140  0.1991 -0.6682 -0.4623
 7746SOL    HW134167   3.938   4.123   3.143  0.8589 -0.1149 -0.4666
 7746SOL    HW234168   3.829   4.209   3.229  1.5796  0.1793  0.1601
 7747SOL     OW34169   4.635   8.252   1.471  0.4146 -0.2861 -0.8041
 7747SOL    HW134170   4.608   8.215   1.560  2.7177 -2.0142 -0.7997
 7747SOL    HW234171   4.655   8.350   1.481  1.6237 -0.6718  0.8186
 7748SOL     OW34172   7.750   3.999   5.411 -0.0625 -0.6523  0.1336
 7748SOL    HW134173   7.809   4.080   5.416 -0.2049 -0.4703 -0.9890
 7748SOL    HW234174   7.768   3.949   5.326 -1.4998 -0.5892 -0.2395
 7749SOL     OW34175   9.225   0.007   1.084  0.4406  0.1596 -0.3653
 7749SOL    HW134176   9.132   0.041   1.074  0.4075  0.2190  0.1390
 7749SOL    HW234177   9.284   0.049   1.016  0.2549  0.6856 -0.1994
 7750SOL     OW34178   2.616   8.902   1.208  0.3643  0.1802 -0.0618
 7750SOL    HW134179   2.537   8.935   1.158  0.8853  0.8621 -0.4346
 7750SOL    HW234180   2.589   8.825   1.267 -0.4794  0.1471 -0.4977
 7751SOL     OW34181   8.745   6.409   5.017 -0.4094  0.3062  0.2122
 7751SOL    HW134182   8.811   6.377   4.949 -0.5284  2.0252 -0.7251
 7751SOL    HW234183   8.662   6.355   5.011  0.0129 -0.2968 -0.2306
 7752SOL     OW34184   8.567   4.072   0.822 -0.2619 -0.0320 -0.7813
 7752SOL    HW134185   8.527   4.154   0.781  0.7882 -0.0707 -1.9171
 7752SOL    HW234186   8.667   4.080   0.822 -0.2017 -0.5422  0.7390
 7753SOL     OW34187   1.032   8.700   0.627 -0.3818  0.2346 -1.0615
 7753SOL    HW134188   1.041   8.719   0.529 -1.9537  1.0293 -1.0665
 7753SOL    HW234189   1.122   8.677   0.664  0.6300  2.0909 -2.2304
 7754SOL     OW34190   3.059   6.617   4.187  0.2508 -0.7410  1.3183
 7754SOL    HW134191   3.021   6.690   4.130  0.6800 -1.9632 -0.5785
 7754SOL    HW234192   3.157   6.632   4.200  0.4437 -1.2620  0.4795
 7755SOL     OW34193   1.843   1.809   0.360  0.6356 -0.1325 -0.4058
 7755SOL    HW134194   1.764   1.843   0.309  0.5111  0.0766 -0.0714
 7755SOL    HW234195   1.917   1.788   0.295  0.1825 -0.6810 -0.7537
 7756SOL     OW34196   9.709   1.974   4.696  0.6945  0.2415  0.3898
 7756SOL    HW134197   9.779   1.905   4.677  0.8507  0.4404  0.2433
 7756SOL    HW234198   9.707   2.042   4.623 -1.3927 -1.1603 -0.8849
 7757SOL     OW34199   1.831   1.341   1.653  0.4012  0.1901 -0.6648
 7757SOL    HW134200   1.830   1.242   1.665 -0.1348  0.3962  1.1889
 7757SOL    HW234201   1.860   1.384   1.739 -2.5899  1.7842 -0.3910
 7758SOL     OW34202   3.666   3.890   0.181  0.0168  0.1610  0.0569
 7758SOL    HW134203   3.620   3.807   0.149  0.9190 -0.2226 -0.2551
 7758SOL    HW234204   3.765   3.880   0.170  0.0888  1.6388 -0.8943
 7759SOL     OW34205   9.260   7.684   5.410 -0.0390 -0.4676 -0.3890
 7759SOL    HW134206   9.288   7.769   5.454  0.5282 -0.2792 -1.1036
 7759SOL    HW234207   9.327   7.612   5.428  0.1988 -0.3896 -0.9306
 7760SOL     OW34208   9.692   1.375   3.225 -0.3625 -0.5516  0.3409
 7760SOL    HW134209   9.621   1.345   3.288 -1.0819  2.2899  0.9500
 7760SOL    HW234210   9.656   1.447   3.166  1.8113  0.4896  0.2373
 7761SOL     OW34211   2.958   9.871   5.190 -0.6551 -0.3193 -0.1847
 7761SOL    HW134212   2.865   9.835   5.191 -0.9208  0.3465  1.8992
 7761SOL    HW234213   2.987   9.890   5.284  0.9837  1.0147 -0.9380
 7762SOL     OW34214   0.947   8.599   5.034  0.2014 -0.1706  0.3100
 7762SOL    HW134215   0.868   8.565   4.983  1.5722 -3.3609  0.2087
 7762SOL    HW234216   0.998   8.664   4.977  0.1003 -1.4762 -1.2986
 7763SOL     OW34217   8.788   6.507   0.977 -0.0280 -0.2456 -0.7148
 7763SOL    HW134218   8.860   6.526   1.044 -0.2620  1.7669 -1.0253
 7763SOL    HW234219   8.700   6.503   1.024 -0.2287  1.4607 -0.9403
 7764SOL     OW34220   0.261   9.706   3.829 -0.2417 -0.1579  0.8148
 7764SOL    HW134221   0.265   9.806   3.836 -0.7138 -0.1444  0.9140
 7764SOL    HW234222   0.197   9.670   3.897  0.3075 -0.5677  1.1120
 7765SOL     OW34223   1.568   2.910   3.905 -0.1572 -0.1458 -0.2094
 7765SOL    HW134224   1.642   2.843   3.912  0.1827  0.3274  0.9541
 7765SOL    HW234225   1.532   2.928   3.996 -0.8612  0.5719 -0.6295
 7766SOL     OW34226   8.913   3.033   2.054  0.0687  0.0695 -0.0677
 7766SOL    HW134227   8.861   3.094   2.114  1.5964 -0.1379  1.5243
 7766SOL    HW234228   9.004   3.019   2.093  1.0091 -0.2676 -2.3522
 7767SOL     OW34229   2.456   7.980   4.089 -0.0604 -0.6586 -0.2214
 7767SOL    HW134230   2.395   7.905   4.113 -1.3235  0.1707 -0.8358
 7767SOL    HW234231   2.482   8.030   4.171  0.9105 -1.8402  0.2164
 7768SOL     OW34232   9.054   2.178   1.132  0.3815 -0.1905  0.0324
 7768SOL    HW134233   9.032   2.085   1.160  0.2739 -0.2161 -0.1380
 7768SOL    HW234234   9.099   2.226   1.207 -0.6865  0.0132  0.5478
 7769SOL     OW34235   8.456   1.836   3.697  0.0564  0.1928  0.2146
 7769SOL    HW134236   8.458   1.879   3.607 -1.8088 -0.2923 -0.0840
 7769SOL    HW234237   8.504   1.749   3.693  0.7391  0.5710 -0.0738
 7770SOL     OW34238   5.121   8.633   5.347  0.9928 -0.5642 -0.0132
 7770SOL    HW134239   5.136   8.535   5.342  2.7393 -0.3034 -0.4651
 7770SOL    HW234240   5.074   8.665   5.265  0.4847 -1.0044  0.1067
 7771SOL     OW34241   5.061   8.358   3.254  0.0748 -0.1101  0.0018
 7771SOL    HW134242   5.121   8.285   3.287 -0.5576 -0.0311  1.3984
 7771SOL    HW234243   5.116   8.432   3.216  0.6627 -2.1741 -3.3282
 7772SOL     OW34244   3.958   9.931   4.205 -0.2204 -0.0775 -0.3918
 7772SOL    HW134245   4.030   9.924   4.274 -1.4004  0.8039  0.9676
 7772SOL    HW234246   3.983  10.001   4.138  0.4380 -0.1654 -0.2431
 7773SOL     OW34247   8.532   1.612   5.042  0.2433 -0.6555  0.0137
 7773SOL    HW134248   8.569   1.519   5.036  1.8916 -0.0629  0.7190
 7773SOL    HW234249   8.559   1.654   5.129 -0.2810  0.5739 -0.3978
 7774SOL     OW34250   4.569   8.865   5.604 -0.8659 -0.0038  0.3052
 7774SOL    HW134251   4.590   8.801   5.678 -2.6965 -1.5514 -0.5023
 7774SOL    HW234252   4.633   8.942   5.609  3.1565 -3.1228 -0.3320
 7775SOL     OW34253   8.565   7.424   2.946 -0.2353  0.1132  0.2971
 7775SOL    HW134254   8.576   7.365   2.866  0.3232  1.3966 -0.5870
 7775SOL    HW234255   8.489   7.487   2.931  0.7736  1.3231  0.1561
 7776SOL     OW34256   7.971   2.853   2.833 -0.4452 -0.1693 -0.0539
 7776SOL    HW134257   7.962   2.776   2.895  1.1028 -0.6141 -0.3574
 7776SOL    HW234258   8.006   2.821   2.745  0.4949  0.9053 -0.0881
 7777SOL     OW34259   0.742   8.858   2.116 -0.1324 -0.2526 -0.5982
 7777SOL    HW134260   0.647   8.868   2.145 -0.4981 -0.9097 -1.5282
 7777SOL    HW234261   0.803   8.890   2.188 -1.0752  0.8682 -0.2948
 7778SOL     OW34262   4.051   4.797   2.412 -0.5641 -0.2605 -0.6328
 7778SOL    HW134263   4.135   4.812   2.361 -0.1457 -0.0994  0.0943
 7778SOL    HW234264   4.055   4.849   2.498 -1.2043 -0.6241 -0.3842
 7779SOL     OW34265   6.538   1.487   1.608 -0.3099  0.4153 -0.3726
 7779SOL    HW134266   6.520   1.551   1.682  1.8452  1.0733 -0.3752
 7779SOL    HW234267   6.626   1.441   1.624 -2.0052 -2.9193 -0.1193
 7780SOL     OW34268   7.163   4.571   0.239 -0.5585  0.0664 -0.1680
 7780SOL    HW134269   7.230   4.539   0.307 -0.8203 -1.4347 -0.6063
 7780SOL    HW234270   7.188   4.663   0.210  1.3580 -0.4616 -0.3256
 7781SOL     OW34271   2.903   6.474   1.937  0.1150  0.3288 -0.1337
 7781SOL    HW134272   2.884   6.487   2.035 -1.5369  0.6287 -0.4775
 7781SOL    HW234273   2.848   6.397   1.903 -0.7724  1.4403 -1.2427
 7782SOL     OW34274   0.509   8.796   2.950 -0.0891 -0.3333 -0.5251
 7782SOL    HW134275   0.464   8.734   3.015 -1.5183  1.3405  0.1430
 7782SOL    HW234276   0.596   8.827   2.988 -0.0242 -0.8425 -0.2544
 7783SOL     OW34277   4.382   8.429   0.574 -0.2257 -0.0541  0.2400
 7783SOL    HW134278   4.429   8.516   0.584  0.0360 -0.1218 -0.3643
 7783SOL    HW234279   4.406   8.388   0.486  0.3987 -1.1938  0.9310
 7784SOL     OW34280   2.143   6.195   0.305  0.1591 -0.7644 -0.2481
 7784SOL    HW134281   2.050   6.174   0.333 -0.1063 -0.6742 -1.0318
 7784SOL    HW234282   2.187   6.252   0.374 -0.8082  0.2909 -0.4847
 7785SOL     OW34283   0.607   0.789   1.955  0.1999 -0.4954 -0.3055
 7785SOL    HW134284   0.668   0.720   1.919  1.0095 -0.5036  1.0346
 7785SOL    HW234285   0.660   0.865   1.994 -0.6421  0.0455 -0.1743
 7786SOL     OW34286   8.459   4.667   2.107 -0.4294  0.0697 -0.0620
 7786SOL    HW134287   8.384   4.732   2.122 -0.0139  1.0069 -1.8972
 7786SOL    HW234288   8.488   4.672   2.012 -0.2574 -2.6974 -0.1857
 7787SOL     OW34289   2.604   8.749   1.621 -0.4586  0.6187 -0.2715
 7787SOL    HW134290   2.515   8.761   1.665 -0.4661  1.6733 -0.5701
 7787SOL    HW234291   2.667   8.818   1.654 -0.6558  1.8432 -2.4037
 7788SOL     OW34292   2.055   0.143   1.798  0.2248 -0.0412 -0.1631
 7788SOL    HW134293   2.116   0.085   1.852 -0.6959 -1.0803 -0.2218
 7788SOL    HW234294   2.045   0.232   1.843  0.8358 -0.2876  0.4677
 7789SOL     OW34295   2.864   1.803   3.624  0.6204 -0.6381  0.0414
 7789SOL    HW134296   2.836   1.890   3.666  0.9855 -0.7799  0.5889
 7789SOL    HW234297   2.954   1.777   3.659  0.3074 -1.4731  0.2296
 7790SOL     OW34298   5.247   6.991   2.322  0.6038  0.2275  0.1096
 7790SOL    HW134299   5.197   6.971   2.238  2.7700 -1.3922 -0.8286
 7790SOL    HW234300   5.182   7.006   2.397 -1.3113  0.6452 -1.6048
 7791SOL     OW34301   3.259   5.680   4.679 -0.8145  0.2909 -0.1178
 7791SOL    HW134302   3.321   5.606   4.654 -0.9293 -0.4257  1.6306
 7791SOL    HW234303   3.296   5.767   4.648  1.6998  0.0107  1.9503
 7792SOL     OW34304   1.797   5.695   1.466 -0.3834 -0.4942 -0.0259
 7792SOL    HW134305   1.801   5.595   1.464  1.4190 -0.4978  1.8116
 7792SOL    HW234306   1.831   5.728   1.554 -4.2319  1.6179  0.7911
 7793SOL     OW34307   7.865   7.919   4.191  0.2253 -0.4711 -0.1356
 7793SOL    HW134308   7.794   7.932   4.260 -0.1596  0.3238 -0.6730
 7793SOL    HW234309   7.842   7.839   4.135 -0.9914  0.6106 -1.2079
 7794SOL     OW34310   7.675   0.565   2.856 -0.0088  0.1355 -0.1120
 7794SOL    HW134311   7.592   0.612   2.888 -0.2815 -1.0038  0.8824
 7794SOL    HW234312   7.652   0.507   2.777 -0.2906 -0.6623  0.5530
 7795SOL     OW34313   1.300   8.891   0.258  0.0201 -0.0182 -0.0249
 7795SOL    HW134314   1.217   8.946   0.262  0.4666  0.7077 -0.6283
 7795SOL    HW234315   1.380   8.951   0.262  0.5104 -0.6557 -0.1885
 7796SOL     OW34316   9.434   6.695   2.182 -0.1548  0.1777  0.0193
 7796SOL    HW134317   9.516   6.744   2.152 -0.9299  1.0852 -0.6738
 7796SOL    HW234318   9.452   6.597   2.183  1.1021  0.4081  0.3958
 7797SOL     OW34319   2.321   2.244   4.245  0.0649  0.1652  0.8758
 7797SOL    HW134320   2.334   2.157   4.293 -1.5082 -0.0559  0.9484
 7797SOL    HW234321   2.409   2.288   4.229  0.7298 -0.4807  2.6468
 7798SOL     OW34322   2.196   0.857   4.834 -0.1250 -0.3389 -0.2861
 7798SOL    HW134323   2.269   0.886   4.896  0.4041  0.1022 -1.1010
 7798SOL    HW234324   2.120   0.820   4.887  1.3168 -2.2664  0.5277
 7799SOL     OW34325   3.042   6.077   1.153 -0.2499 -0.3938  0.4316
 7799SOL    HW134326   3.064   5.983   1.126  0.0548 -0.1395 -0.2253
 7799SOL    HW234327   3.126   6.127   1.170 -0.3201  0.4194 -1.5266
 7800SOL     OW34328   9.236   8.168   2.380 -0.1523  0.0664 -0.0388
 7800SOL    HW134329   9.330   8.199   2.398  0.1704 -0.5777 -0.5877
 7800SOL    HW234330   9.179   8.190   2.459  0.7020 -0.4898  0.7589
 7801SOL     OW34331   9.997   3.810   5.540 -0.0959 -0.9954 -0.0565
 7801SOL    HW134332  10.076   3.813   5.600  0.7901  0.6041 -1.2633
 7801SOL    HW234333  10.003   3.884   5.473 -2.7215 -0.6926 -0.0276
 7802SOL     OW34334   3.363   0.486   4.278  0.0493 -0.4474  0.0720
 7802SOL    HW134335   3.456   0.456   4.302 -0.1508 -0.7256  0.5019
 7802SOL    HW234336   3.297   0.441   4.339 -0.2267  1.2683  1.0476
 7803SOL     OW34337   9.487   8.958   4.876  0.0972 -0.2428  0.1598
 7803SOL    HW134338   9.453   8.897   4.947  1.3694 -0.2295  0.7832
 7803SOL    HW234339   9.425   9.037   4.867 -0.0955 -0.2717  1.2016
 7804SOL     OW34340   1.463   1.697   3.799 -0.0150  0.0590  0.1124
 7804SOL    HW134341   1.368   1.686   3.828  0.0334 -1.0191 -0.1121
 7804SOL    HW234342   1.498   1.609   3.766  0.8169  0.6230 -0.5309
 7805SOL     OW34343   2.258   7.309   0.209  0.7021  0.5147  0.0369
 7805SOL    HW134344   2.260   7.407   0.186  1.2108  0.2554 -1.0391
 7805SOL    HW234345   2.165   7.283   0.234  0.2122  0.8873 -1.3560
 7806SOL     OW34346   7.918   6.236   4.433  0.0498  0.4365  0.5733
 7806SOL    HW134347   7.884   6.297   4.362 -1.0061 -0.1698  0.5605
 7806SOL    HW234348   7.852   6.164   4.451  2.3648 -2.1749 -1.1378
 7807SOL     OW34349   1.653   1.559   3.276 -0.2881 -0.0929 -0.0803
 7807SOL    HW134350   1.682   1.650   3.244  0.0075 -0.3968 -0.6914
 7807SOL    HW234351   1.572   1.531   3.225 -0.7035  0.0671  0.4993
 7808SOL     OW34352   9.854   6.835   5.290  0.2794 -0.1451 -0.7927
 7808SOL    HW134353   9.895   6.756   5.336 -0.4934  0.6939  1.4120
 7808SOL    HW234354   9.922   6.876   5.229  1.6056 -0.8505  0.1560
 7809SOL     OW34355   4.289   0.753   2.480 -0.5060 -0.2135 -0.2846
 7809SOL    HW134356   4.343   0.828   2.444 -0.4731  0.5557  1.3285
 7809SOL    HW234357   4.348   0.689   2.530 -0.6548 -0.8847 -0.9624
 7810SOL     OW34358   2.107   1.279   1.872 -0.0169 -0.3302 -0.5603
 7810SOL    HW134359   2.179   1.261   1.939  0.9275 -0.9853 -1.7241
 7810SOL    HW234360   2.018   1.265   1.915  0.4926  1.6075  1.2127
 7811SOL     OW34361   2.923   3.161   2.574 -0.0012  0.3174  0.0460
 7811SOL    HW134362   2.961   3.156   2.482 -0.6804 -3.0845 -0.0949
 7811SOL    HW234363   2.828   3.191   2.570 -0.7429 -2.0566 -0.5947
 7812SOL     OW34364   3.060   4.849   5.528  0.3793  0.3224  0.0798
 7812SOL    HW134365   3.075   4.926   5.465 -1.3162  0.9055  0.3776
 7812SOL    HW234366   3.012   4.881   5.609  0.9046 -0.7959  0.8359
 7813SOL     OW34367   2.954   5.530   2.046  0.2180  0.6209 -0.9595
 7813SOL    HW134368   2.910   5.457   2.098  0.7064  1.2276  0.3090
 7813SOL    HW234369   2.987   5.492   1.959 -0.3107 -0.4667 -0.7065
 7814SOL     OW34370   1.420   3.086   5.596  0.1807 -0.2549 -0.9088
 7814SOL    HW134371   1.348   3.055   5.533 -0.5866 -0.1473 -0.0849
 7814SOL    HW234372   1.380   3.104   5.686  0.9499  1.3447 -0.8772
 7815SOL     OW34373   2.626   4.229   5.000  0.1099  0.2267 -0.0496
 7815SOL    HW134374   2.662   4.145   5.041  0.3821  0.9229  1.1813
 7815SOL    HW234375   2.533   4.244   5.032  0.1751  0.5582 -0.0145
 7816SOL     OW34376   5.410   8.130   3.791  0.3434  0.1735  0.1451
 7816SOL    HW134377   5.495   8.108   3.840 -0.2729  1.6225  1.9588
 7816SOL    HW234378   5.359   8.046   3.773  0.9552 -0.4798  1.3525
 7817SOL     OW34379   1.950   1.076   4.306  0.5026  0.9891 -0.1952
 7817SOL    HW134380   1.964   1.173   4.325  0.7612  0.6635  1.3034
 7817SOL    HW234381   1.933   1.027   4.391  0.7799 -0.3513 -0.8938
 7818SOL     OW34382   5.970   7.894   3.136 -0.1089 -0.1234  0.1055
 7818SOL    HW134383   5.972   7.801   3.174 -2.0504 -0.6046 -0.9542
 7818SOL    HW234384   6.007   7.892   3.043 -1.3522 -0.0568 -0.3890
 7819SOL     OW34385   4.998   3.976   3.216 -0.0340 -0.5954  0.1625
 7819SOL    HW134386   5.045   4.034   3.282 -0.3885 -0.5383  0.3676
 7819SOL    HW234387   4.920   3.932   3.260 -0.6138 -0.1103 -0.3647
 7820SOL     OW34388   0.845   5.877   4.662 -0.1411  0.2692  0.2558
 7820SOL    HW134389   0.748   5.872   4.642  0.6836  0.5582 -4.1912
 7820SOL    HW234390   0.868   5.970   4.691 -0.8654  0.6786 -0.4765
 7821SOL     OW34391   8.837   6.324   3.689 -0.1986 -0.3902 -0.7469
 7821SOL    HW134392   8.861   6.421   3.690 -0.1832 -0.3692 -2.1277
 7821SOL    HW234393   8.752   6.311   3.638 -2.5996 -0.6100  3.0729
 7822SOL     OW34394   9.371   8.220   1.851  0.1228 -0.1302  0.0969
 7822SOL    HW134395   9.305   8.282   1.809  0.5237 -1.0044 -1.8614
 7822SOL    HW234396   9.463   8.240   1.817  0.6376 -0.1116  1.4372
 7823SOL     OW34397   3.239   6.604   0.196  0.0359  0.4269  0.0546
 7823SOL    HW134398   3.167   6.620   0.128  0.1151 -0.7567 -0.3096
 7823SOL    HW234399   3.198   6.597   0.287 -0.3143 -0.2043 -0.1463
 7824SOL     OW34400   1.952   3.047   1.932  0.6746  0.2833 -0.1953
 7824SOL    HW134401   1.999   3.040   2.020  0.8997  0.5972 -0.2882
 7824SOL    HW234402   1.983   2.973   1.872 -0.1159 -0.4444  0.2794
 7825SOL     OW34403   8.058   6.750   1.332 -0.2031  0.1133  0.0248
 7825SOL    HW134404   8.127   6.821   1.318 -0.4327  0.2584 -0.3615
 7825SOL    HW234405   8.100   6.660   1.318  0.2677  0.1327  1.2227
 7826SOL     OW34406   8.241   2.005   1.046  0.2301 -0.3340  0.0881
 7826SOL    HW134407   8.202   1.917   1.018 -0.4536  0.4169 -1.3538
 7826SOL    HW234408   8.213   2.025   1.140  0.2293 -1.5543  0.3616
 7827SOL     OW34409   2.522   3.954   3.327  0.3630 -0.4170 -0.1408
 7827SOL    HW134410   2.526   3.883   3.398 -1.3826 -2.1580 -1.7165
 7827SOL    HW234411   2.608   3.955   3.276 -0.3473 -2.9786 -1.5115
 7828SOL     OW34412   3.794   2.907   0.126  0.5368 -0.4801  1.0013
 7828SOL    HW134413   3.725   2.903   0.198  0.1140 -0.5455  0.5994
 7828SOL    HW234414   3.883   2.880   0.162  0.1265 -1.5017  1.2538
 7829SOL     OW34415   1.647   6.277   3.795 -0.7486 -0.1401  0.2238
 7829SOL    HW134416   1.556   6.306   3.824 -0.5269 -0.0291  0.8106
 7829SOL    HW234417   1.696   6.237   3.872  0.8967  2.7390  0.7705
 7830SOL     OW34418   9.726   9.584   3.326  0.1410 -0.4174  0.6316
 7830SOL    HW134419   9.710   9.683   3.322  1.4636 -0.2301 -0.2760
 7830SOL    HW234420   9.808   9.565   3.379 -0.3340 -1.0602  1.1464
 7831SOL     OW34421   9.741   3.174   4.119 -0.2269 -0.2708 -0.3863
 7831SOL    HW134422   9.732   3.087   4.070 -1.5288  0.8070 -2.1305
 7831SOL    HW234423   9.812   3.230   4.076 -0.5699  0.2148 -0.3298
 7832SOL     OW34424   4.283   0.111   4.983  0.5662 -0.0933  0.0751
 7832SOL    HW134425   4.344   0.036   4.957  0.4939 -1.1002  2.6334
 7832SOL    HW234426   4.325   0.164   5.057  0.0167  1.5903 -0.7912
 7833SOL     OW34427   3.316   0.051   5.616 -0.1861  0.2720 -0.7326
 7833SOL    HW134428   3.242   0.005   5.566  0.2069 -1.7146  0.4351
 7833SOL    HW234429   3.356   0.122   5.558 -1.4720 -0.1994 -2.2506
 7834SOL     OW34430   1.510   4.568   2.910 -0.1386 -0.6678  0.1156
 7834SOL    HW134431   1.510   4.663   2.942 -2.1282 -0.3301 -0.8516
 7834SOL    HW234432   1.503   4.566   2.810  0.0136 -1.8417  0.1207
 7835SOL     OW34433   4.905   5.347   2.068  0.0440 -0.4691 -0.4858
 7835SOL    HW134434   4.905   5.325   2.165 -0.9037 -0.0040 -0.3772
 7835SOL    HW234435   4.899   5.263   2.014  0.4033 -0.7146 -0.1416
 7836SOL     OW34436   6.325   9.527   1.131  0.3754 -0.1639 -0.0545
 7836SOL    HW134437   6.301   9.606   1.074 -2.2579 -0.5387  0.4586
 7836SOL    HW234438   6.396   9.473   1.085 -0.6108  0.3650 -2.2897
 7837SOL     OW34439   2.790   0.614   4.066 -0.0925 -0.6314  0.3050
 7837SOL    HW134440   2.770   0.601   4.163 -1.5776  0.2598  0.1524
 7837SOL    HW234441   2.757   0.535   4.014 -0.6191 -0.4678  0.3815
 7838SOL     OW34442   1.238   7.757   5.401  0.4223  0.4654 -0.2700
 7838SOL    HW134443   1.249   7.659   5.386 -0.1258  0.4804 -0.7865
 7838SOL    HW234444   1.171   7.793   5.336 -0.9072  0.8025  1.2622
 7839SOL     OW34445   9.270   8.368   5.138 -0.0499 -0.1109 -0.0852
 7839SOL    HW134446   9.364   8.388   5.112 -0.2162  0.1604 -0.4877
 7839SOL    HW234447   9.223   8.453   5.162  0.3817 -0.4560  2.0780
 7840SOL     OW34448   8.727   9.728   2.869 -0.1877  0.0151 -0.7147
 7840SOL    HW134449   8.762   9.821   2.880  1.0277 -0.4920 -0.2408
 7840SOL    HW234450   8.644   9.717   2.924 -0.5543  0.9382 -1.0852
 7841SOL     OW34451   9.253   9.305   0.117  0.0183 -0.1260 -0.2233
 7841SOL    HW134452   9.191   9.243   0.166 -1.0912  0.2342 -1.1444
 7841SOL    HW234453   9.344   9.265   0.115  0.1094 -0.1243  2.1688
 7842SOL     OW34454   2.678   3.085   0.745  0.1258  0.3392 -0.1107
 7842SOL    HW134455   2.699   3.176   0.779 -0.2923  0.5782 -0.4767
 7842SOL    HW234456   2.587   3.058   0.777  0.7247 -0.4372  0.9693
 7843SOL     OW34457   0.844   6.416   3.514  0.7027  0.2178 -0.0457
 7843SOL    HW134458   0.822   6.382   3.422  0.2627  0.0400  0.1249
 7843SOL    HW234459   0.800   6.359   3.582  1.0902  0.3076  0.2816
 7844SOL     OW34460   8.871   3.557   4.286 -0.1514  0.3195 -0.3275
 7844SOL    HW134461   8.798   3.575   4.220 -0.8037 -1.1828 -0.0264
 7844SOL    HW234462   8.843   3.589   4.376 -0.8672 -1.1775 -0.0081
 7845SOL     OW34463   4.990   4.951   1.024  0.2628  0.0925 -0.0196
 7845SOL    HW134464   5.019   4.875   0.966 -0.1624 -0.4008  0.4136
 7845SOL    HW234465   4.898   4.933   1.059  1.3586 -0.6615  2.5766
 7846SOL     OW34466   5.689   9.771   3.885  0.4592 -0.6867 -0.4531
 7846SOL    HW134467   5.655   9.863   3.866 -0.1169 -0.5981  0.9799
 7846SOL    HW234468   5.780   9.777   3.925  0.4021 -0.7378 -0.3148
 7847SOL     OW34469   4.420   9.473   3.811  0.2669  0.2697  0.0426
 7847SOL    HW134470   4.381   9.384   3.785  0.3359  0.1287  0.4121
 7847SOL    HW234471   4.347   9.540   3.822  0.1540  0.0759  0.4610
 7848SOL     OW34472   8.469   2.832   0.042 -0.5022 -0.1097 -0.3280
 7848SOL    HW134473   8.497   2.920   0.003 -0.5161 -0.3863 -0.9787
 7848SOL    HW234474   8.541   2.798   0.102 -0.9149  0.8082  0.6906
 7849SOL     OW34475   9.030   9.978   2.063  0.6160  0.2675  0.3424
 7849SOL    HW134476   9.046   9.896   2.118 -0.4698 -0.4289 -0.3400
 7849SOL    HW234477   9.095   9.980   1.987  0.0624 -0.4634 -0.1669
 7850SOL     OW34478   5.716   8.718   3.834  0.2318  0.1087 -0.0415
 7850SOL    HW134479   5.781   8.656   3.791 -1.1918 -1.7951  0.4659
 7850SOL    HW234480   5.625   8.701   3.797 -0.6154  0.0668  1.9994
 7851SOL     OW34481   1.573   9.583   2.548  0.5320  0.6866  0.1807
 7851SOL    HW134482   1.603   9.665   2.596  1.6363  1.0335 -1.0745
 7851SOL    HW234483   1.498   9.606   2.486  0.6028  0.6734  0.0904
 7852SOL     OW34484   3.130   0.623   3.679  0.2604 -0.2720 -0.0155
 7852SOL    HW134485   3.031   0.614   3.694  0.5341 -2.4616  0.6471
 7852SOL    HW234486   3.178   0.609   3.765  1.1539  0.9861 -0.2992
 7853SOL     OW34487   4.469   8.925   2.260 -0.0547  0.2975 -0.5961
 7853SOL    HW134488   4.538   8.891   2.195 -0.8203  0.8485 -1.7190
 7853SOL    HW234489   4.507   8.999   2.314 -0.7283  2.8506 -3.4816
 7854SOL     OW34490   0.208   3.805   2.568  0.2238  0.2654 -0.5268
 7854SOL    HW134491   0.140   3.749   2.521  0.1678  0.3991 -0.6064
 7854SOL    HW234492   0.168   3.843   2.652  0.2323  0.2641 -0.5222
 7855SOL     OW34493   1.460   6.551   3.826 -0.0472 -0.2150 -0.5203
 7855SOL    HW134494   1.539   6.612   3.817  1.0141 -1.3418  0.9581
 7855SOL    HW234495   1.376   6.604   3.811  0.7948  1.9402  1.9884
 7856SOL     OW34496   3.498   2.666   3.989  0.0293  0.4937  0.2530
 7856SOL    HW134497   3.408   2.627   4.008  0.0909 -0.5335 -1.4200
 7856SOL    HW234498   3.561   2.641   4.062  0.0505 -2.5682 -0.7508
 7857SOL     OW34499   6.778   0.688   1.541 -0.3110  0.2630 -0.4696
 7857SOL    HW134500   6.718   0.610   1.563 -1.1306  1.0484  0.1195
 7857SOL    HW234501   6.723   0.772   1.538  0.4951  0.7635 -1.5144
 7858SOL     OW34502   6.864   1.275   3.182 -0.4048 -0.1240 -0.2796
 7858SOL    HW134503   6.864   1.224   3.268 -1.4224  0.2420 -0.0549
 7858SOL    HW234504   6.834   1.369   3.199 -0.3814  0.0156 -0.9907
 7859SOL     OW34505   7.026   0.909   2.375 -0.0660  0.4520  0.3911
 7859SOL    HW134506   7.117   0.927   2.337 -0.3748 -0.2571 -0.6996
 7859SOL    HW234507   7.034   0.894   2.473  0.4068  4.9281  1.1505
 7860SOL     OW34508   1.839   4.783   4.498  0.4427  0.1738 -0.0099
 7860SOL    HW134509   1.772   4.810   4.429 -0.6238  1.1342  1.3732
 7860SOL    HW234510   1.912   4.851   4.503  1.5300 -0.8602 -1.4997
 7861SOL     OW34511   8.750   7.011   3.069 -0.0311 -0.2906  0.4809
 7861SOL    HW134512   8.813   7.042   2.998 -1.2169 -2.6312 -1.6708
 7861SOL    HW234513   8.658   7.043   3.048  0.0514  1.3638  2.4983
 7862SOL     OW34514   8.266   4.870   2.079 -0.2329  0.5329  0.2170
 7862SOL    HW134515   8.250   4.937   2.007 -0.3410 -0.2877 -0.5345
 7862SOL    HW234516   8.204   4.792   2.067  1.9431 -1.1164 -0.7528
 7863SOL     OW34517   0.961   2.331   5.351 -0.4392  0.1062 -0.7906
 7863SOL    HW134518   1.057   2.324   5.324 -0.6883 -0.5355 -1.5146
 7863SOL    HW234519   0.905   2.277   5.289 -1.2516  0.3277 -0.2547
 7864SOL     OW34520   8.812   2.524   2.817 -0.1748 -0.1744 -0.0723
 7864SOL    HW134521   8.898   2.573   2.830 -0.1819 -0.1211 -0.2247
 7864SOL    HW234522   8.819   2.466   2.735 -1.5803  2.7195 -2.3341
 7865SOL     OW34523   0.099   7.036   5.199  0.2964  0.1413 -0.4380
 7865SOL    HW134524   0.100   6.994   5.289 -0.7633  0.9979 -0.0130
 7865SOL    HW234525   0.121   6.968   5.130 -1.4347 -1.1408  0.2334
 7866SOL     OW34526   0.685   0.263   2.281  0.3739 -0.6347  0.4834
 7866SOL    HW134527   0.785   0.260   2.279  0.4099  0.3433  0.4268
 7866SOL    HW234528   0.648   0.177   2.246  1.1754  0.1648 -2.4095
 7867SOL     OW34529   2.699   2.985   0.027  0.1772 -0.0024  0.2546
 7867SOL    HW134530   2.654   2.961   0.113  0.9932  1.6959  1.1820
 7867SOL    HW234531   2.780   3.040   0.046 -0.1737  1.2184 -1.6334
 7868SOL     OW34532   9.954   3.412   2.601 -0.3328 -0.1485 -0.6000
 7868SOL    HW134533  10.025   3.352   2.566 -1.3305 -2.2621  0.8107
 7868SOL    HW234534   9.953   3.407   2.701 -2.1747  0.1217 -0.5766
 7869SOL     OW34535   2.337   9.026   2.339 -0.2957  0.0706 -0.1136
 7869SOL    HW134536   2.374   9.110   2.378  0.0843 -0.6502  1.0959
 7869SOL    HW234537   2.237   9.026   2.348 -0.1591 -0.4292  1.5706
 7870SOL     OW34538   6.688   9.978   1.525  0.1511  0.4822  0.3645
 7870SOL    HW134539   6.717  10.059   1.474  0.9374  0.2121  0.3745
 7870SOL    HW234540   6.646  10.006   1.611  0.8347  0.8671  0.5802
 7871SOL     OW34541   2.879   5.225   4.383  0.2928  0.1474  0.2125
 7871SOL    HW134542   2.919   5.194   4.297  0.7604  0.3233  0.3671
 7871SOL    HW234543   2.788   5.185   4.394 -0.3111  1.1536 -0.9889
 7872SOL     OW34544   0.009   1.833   4.989 -0.0275 -0.9547  0.1286
 7872SOL    HW134545  -0.010   1.753   5.046 -1.1811 -0.2432  0.7625
 7872SOL    HW234546  -0.046   1.827   4.905 -1.5591  0.0858  1.0300
 7873SOL     OW34547   3.912   1.256   1.393  0.2836 -0.8247 -0.0211
 7873SOL    HW134548   3.939   1.352   1.390  0.9397 -0.9576  1.3882
 7873SOL    HW234549   3.845   1.238   1.321 -2.1776  1.4275  1.6284
 7874SOL     OW34550   2.595   7.323   1.383  0.1072  0.0181 -0.3163
 7874SOL    HW134551   2.503   7.289   1.406 -0.1774  1.3388  0.5586
 7874SOL    HW234552   2.627   7.277   1.300 -2.0233  0.7413 -1.5940
 7875SOL     OW34553   8.674   4.411   1.223  0.2672 -0.1088  0.0985
 7875SOL    HW134554   8.714   4.442   1.137 -0.1999  0.9571  0.2679
 7875SOL    HW234555   8.618   4.330   1.206  0.1300  0.1333 -0.6087
 7876SOL     OW34556   9.743   3.738   0.802  0.5263 -0.2125  0.3055
 7876SOL    HW134557   9.757   3.675   0.879  0.9358 -0.4116  0.0657
 7876SOL    HW234558   9.694   3.819   0.835 -0.2164 -0.7580  0.5670
 7877SOL     OW34559   7.522   8.791   3.190  0.7024 -0.2336  0.2101
 7877SOL    HW134560   7.508   8.713   3.130  1.3863 -0.5095  0.4051
 7877SOL    HW234561   7.434   8.823   3.225  0.5464 -1.8148  1.2655
 7878SOL     OW34562   3.654   9.177   5.112 -0.1006 -0.1664  0.6101
 7878SOL    HW134563   3.567   9.226   5.106 -0.4959 -0.8089  1.1568
 7878SOL    HW234564   3.661   9.114   5.035 -0.5840 -0.8696  1.1367
 7879SOL     OW34565   9.390   1.893   5.169  0.1359 -0.2819 -0.3727
 7879SOL    HW134566   9.348   1.845   5.247  0.0744 -0.4220 -0.4918
 7879SOL    HW234567   9.489   1.894   5.180  0.0434  0.9683  0.4452
 7880SOL     OW34568   0.307   2.545   1.509  0.1123 -0.6025 -0.0020
 7880SOL    HW134569   0.255   2.615   1.459 -1.5899 -0.4416  1.9356
 7880SOL    HW234570   0.252   2.462   1.519  0.6777 -0.8710  1.0089
 7881SOL     OW34571   8.698   0.816   3.287  0.0824 -0.0469 -0.0838
 7881SOL    HW134572   8.709   0.867   3.202 -0.7404 -0.0880 -0.2193
 7881SOL    HW234573   8.785   0.771   3.310  0.2419 -0.2621 -1.0529
 7882SOL     OW34574   6.498   1.289   1.417 -0.1633 -0.6389 -0.3701
 7882SOL    HW134575   6.549   1.245   1.490 -1.0182 -0.2417  0.4780
 7882SOL    HW234576   6.512   1.388   1.421  0.5504 -0.6973 -1.3372
 7883SOL     OW34577   3.131   7.658   3.142  0.0297  0.2585 -0.2354
 7883SOL    HW134578   3.056   7.656   3.208  0.6497 -1.8677  0.4414
 7883SOL    HW234579   3.214   7.624   3.185  0.4788 -1.0506 -2.0727
 7884SOL     OW34580   3.391   4.797   0.070  0.8413 -0.0448 -0.1349
 7884SOL    HW134581   3.398   4.770  -0.026  0.1258 -2.6973  0.5045
 7884SOL    HW234582   3.482   4.799   0.111  0.9305 -1.4762 -0.2366
 7885SOL     OW34583   8.444   0.697   3.205  0.5358 -0.0035  0.3317
 7885SOL    HW134584   8.522   0.745   3.244  1.5610 -0.7363 -0.7774
 7885SOL    HW234585   8.443   0.602   3.236  0.3944 -0.1373 -0.0682
 7886SOL     OW34586   8.786   8.062   3.424 -0.3696  0.4666 -0.1984
 7886SOL    HW134587   8.831   7.974   3.439  0.1855  1.0247  1.5557
 7886SOL    HW234588   8.784   8.082   3.326  3.6323  0.6408 -0.3448
 7887SOL     OW34589   2.902   4.159   0.462 -0.1915 -0.2266 -0.0936
 7887SOL    HW134590   2.930   4.233   0.402  0.9926  0.4431  1.2460
 7887SOL    HW234591   2.969   4.085   0.457 -1.2907 -1.1703 -1.3119
 7888SOL     OW34592   7.005   0.835   2.883 -0.1404  0.4128  0.0404
 7888SOL    HW134593   7.066   0.876   2.951  0.4718 -1.9630  0.9682
 7888SOL    HW234594   6.915   0.820   2.923 -0.1286  0.1028 -0.0518
 7889SOL     OW34595   1.443   8.855   4.151  0.6774 -0.1198 -0.6037
 7889SOL    HW134596   1.405   8.873   4.242  1.8307  2.6587 -0.6222
 7889SOL    HW234597   1.526   8.801   4.160 -0.6912 -2.2031 -0.2277
 7890SOL     OW34598   9.073   4.490   3.247 -0.2859  0.6107 -0.0462
 7890SOL    HW134599   9.044   4.442   3.164  0.5502 -0.9501  0.5422
 7890SOL    HW234600   9.153   4.547   3.226  1.4448 -1.6551  0.1814
 7891SOL     OW34601   3.161   0.289   0.775 -0.0659  0.2685  0.5943
 7891SOL    HW134602   3.244   0.260   0.726 -1.5082  3.0043 -3.8065
 7891SOL    HW234603   3.185   0.355   0.845  1.6757 -0.6615  0.9031
 7892SOL     OW34604   9.883   5.587   0.202 -0.2207  0.5812 -0.6865
 7892SOL    HW134605   9.862   5.505   0.255 -1.4829  0.8658 -0.7239
 7892SOL    HW234606   9.812   5.656   0.217  1.0553  1.8461 -0.3085
 7893SOL     OW34607   5.311   2.652   1.815 -0.1101  0.5536 -0.4426
 7893SOL    HW134608   5.260   2.676   1.897  0.5235  1.4897 -0.3134
 7893SOL    HW234609   5.407   2.635   1.839 -0.4155 -1.6195 -0.6146
 7894SOL     OW34610   4.789   4.479   0.398  0.4465 -0.0880 -0.0529
 7894SOL    HW134611   4.741   4.392   0.389 -0.7317  0.5887 -0.4955
 7894SOL    HW234612   4.885   4.463   0.422  0.3445 -1.5106 -0.5933
 7895SOL     OW34613   1.396   1.563   3.068  0.1518 -0.6906  0.0565
 7895SOL    HW134614   1.354   1.517   3.146 -0.7403  0.0426  0.0174
 7895SOL    HW234615   1.387   1.662   3.078 -0.4061 -0.6023 -1.2143
 7896SOL     OW34616   1.121   2.829   5.215  0.3648 -0.7025  0.1513
 7896SOL    HW134617   1.109   2.923   5.182  0.1241 -0.8354 -0.1347
 7896SOL    HW234618   1.036   2.778   5.204 -0.1357 -0.3702  2.2028
 7897SOL     OW34619   9.487   9.485   4.583 -0.0780 -0.0971  0.3155
 7897SOL    HW134620   9.398   9.440   4.587 -0.0535 -0.1685  0.0829
 7897SOL    HW234621   9.492   9.555   4.654  0.5860 -1.7449  1.9093
 7898SOL     OW34622   9.530   6.920   1.117 -0.0644  0.4265 -0.7242
 7898SOL    HW134623   9.578   7.000   1.152  0.7222 -0.6044  0.6063
 7898SOL    HW234624   9.462   6.890   1.184  2.7438 -2.6975  0.8671
 7899SOL     OW34625   2.003   5.456   3.638 -0.3599 -0.2871  0.4591
 7899SOL    HW134626   2.079   5.492   3.692 -1.1646  2.6458 -0.2698
 7899SOL    HW234627   2.000   5.356   3.647  2.9037 -0.3671  1.3348
 7900SOL     OW34628   8.903   4.611   2.451  0.1177 -0.2157  0.7321
 7900SOL    HW134629   8.894   4.528   2.396 -3.5513  1.6933 -1.7549
 7900SOL    HW234630   8.958   4.678   2.402 -0.4897  0.3598  0.8302
 7901SOL     OW34631   1.135   2.728   3.487  0.2472  0.2980  0.1750
 7901SOL    HW134632   1.213   2.783   3.518  0.1356  0.1444  0.7308
 7901SOL    HW234633   1.076   2.707   3.564  0.7635 -1.3783  0.1392
 7902SOL     OW34634   0.535   4.481   1.628 -0.5301 -0.3734  0.0167
 7902SOL    HW134635   0.489   4.537   1.559  0.4192 -0.2712 -0.5402
 7902SOL    HW234636   0.504   4.509   1.719  0.2236  1.3338 -0.2340
 7903SOL     OW34637   6.601   1.078   4.003  0.0393  0.2460  0.2191
 7903SOL    HW134638   6.668   1.132   4.054 -1.3723  0.4065  1.9458
 7903SOL    HW234639   6.566   1.005   4.062 -1.5243  0.3439 -0.5829
 7904SOL     OW34640   6.497   9.598   1.349 -0.0088 -0.2082  0.1676
 7904SOL    HW134641   6.526   9.505   1.371  0.2355 -0.0950  0.3123
 7904SOL    HW234642   6.452   9.598   1.259 -2.6738 -0.9804  1.4660
 7905SOL     OW34643   8.821   6.789   1.826  0.6423 -1.0449  0.4397
 7905SOL    HW134644   8.864   6.842   1.899  1.8849 -2.2787  0.6305
 7905SOL    HW234645   8.857   6.696   1.827 -0.2610 -1.4231 -0.9536
 7906SOL     OW34646   5.813   8.382   3.018  0.2445  0.2536  0.2079
 7906SOL    HW134647   5.814   8.378   3.118 -0.0092 -3.1854  0.1295
 7906SOL    HW234648   5.890   8.331   2.982 -0.6067  0.0680 -1.3896
 7907SOL     OW34649   8.363   0.174   0.794 -0.2766  0.3185 -0.2022
 7907SOL    HW134650   8.369   0.192   0.892 -1.9277 -0.1078 -0.0162
 7907SOL    HW234651   8.272   0.198   0.761  0.0704 -0.1272 -1.5186
 7908SOL     OW34652   9.176   1.240   1.090  0.4135 -0.4526 -0.5566
 7908SOL    HW134653   9.225   1.228   1.176 -1.0172  1.2428  0.5356
 7908SOL    HW234654   9.201   1.327   1.048 -1.7500  0.5562  0.1402
 7909SOL     OW34655   2.940   3.604   1.846  0.3699  0.4989 -0.0043
 7909SOL    HW134656   2.924   3.692   1.889 -0.5198  0.1940  0.2943
 7909SOL    HW234657   3.038   3.585   1.843  0.5162  1.1837  0.5437
 7910SOL     OW34658   4.533   4.608   1.987 -0.3724  0.0194  0.0950
 7910SOL    HW134659   4.467   4.538   1.961 -0.6840  0.4570 -0.2914
 7910SOL    HW234660   4.489   4.678   2.042 -0.1637  0.1490  0.1011
 7911SOL     OW34661   0.340   8.697   3.542 -0.0673  0.0050  0.5193
 7911SOL    HW134662   0.312   8.615   3.493 -0.6442  1.0868 -0.9656
 7911SOL    HW234663   0.424   8.678   3.593 -0.5600 -1.6918  0.7243
 7912SOL     OW34664   8.756   2.174   5.488  0.2508 -0.5913  0.1166
 7912SOL    HW134665   8.783   2.078   5.498 -0.4778 -0.8454 -0.2980
 7912SOL    HW234666   8.656   2.181   5.495  0.3828  0.2906  1.3319
 7913SOL     OW34667   3.472   1.693   1.767  0.1762 -0.0530  0.1038
 7913SOL    HW134668   3.497   1.664   1.859  0.6235 -0.4528 -0.1467
 7913SOL    HW234669   3.523   1.776   1.743  0.8451 -0.5494 -0.1917
 7914SOL     OW34670   3.760   8.052   4.885  0.2769  0.0291  0.0252
 7914SOL    HW134671   3.722   8.027   4.974 -1.0198 -0.3655 -0.6165
 7914SOL    HW234672   3.723   7.990   4.815 -1.1712  2.2655 -1.2425
 7915SOL     OW34673   5.063   0.162   1.679 -0.1074  0.1535 -0.7242
 7915SOL    HW134674   4.981   0.146   1.734 -1.4709 -1.8046 -3.1924
 7915SOL    HW234675   5.098   0.075   1.645  2.1681  1.1048 -0.9474
 7916SOL     OW34676   3.068   6.792   1.101  0.1774  0.1769  0.5911
 7916SOL    HW134677   3.116   6.792   1.189  0.8838  1.3939  0.2167
 7916SOL    HW234678   2.976   6.831   1.114 -0.3237 -1.1168  1.0828
 7917SOL     OW34679   8.272   5.907   5.037 -0.0393  0.1198  0.3126
 7917SOL    HW134680   8.197   5.859   4.991 -0.9703  0.3926  1.4992
 7917SOL    HW234681   8.263   5.895   5.136 -0.7587  3.3562  0.7120
 7918SOL     OW34682   3.561   3.986   3.196 -0.2630 -0.0590 -0.3548
 7918SOL    HW134683   3.513   3.947   3.274 -1.0749 -0.2713 -0.9569
 7918SOL    HW234684   3.518   4.073   3.170 -0.3203 -0.2456 -0.8880
 7919SOL     OW34685   1.171   9.242   1.433 -0.3559  0.2251  0.8544
 7919SOL    HW134686   1.088   9.279   1.475  0.5530  3.0082  0.2895
 7919SOL    HW234687   1.157   9.234   1.334 -0.5175 -0.9326  0.9618
 7920SOL     OW34688   2.555   1.550   2.875 -0.3127  0.3904 -0.3224
 7920SOL    HW134689   2.551   1.650   2.875  0.8997  0.4556 -2.1122
 7920SOL    HW234690   2.625   1.520   2.940 -1.3879  0.6488  0.9801
 7921SOL     OW34691   8.215   6.272   3.527  0.9149  0.0898  0.0689
 7921SOL    HW134692   8.176   6.341   3.588  0.6032  0.1439 -0.1901
 7921SOL    HW234693   8.272   6.317   3.458  1.3140  0.0245  0.3502
 7922SOL     OW34694   2.828   0.003   0.136  0.3483  0.0238  0.0123
 7922SOL    HW134695   2.800   0.088   0.181 -1.1877  1.1104 -2.8517
 7922SOL    HW234696   2.768  -0.072   0.166 -1.9246  1.1321 -1.5500
 7923SOL     OW34697   2.262   0.442   3.697 -0.1177  0.2457  0.0951
 7923SOL    HW134698   2.264   0.367   3.630  1.5283  1.0258 -0.7522
 7923SOL    HW234699   2.300   0.525   3.656 -0.0948  1.0254  1.6558
 7924SOL     OW34700   7.759   8.332   2.028  0.3914 -0.4672  0.3130
 7924SOL    HW134701   7.848   8.350   2.070  1.2546 -0.7127 -1.3351
 7924SOL    HW234702   7.763   8.355   1.930 -1.4047 -0.3332  0.2513
 7925SOL     OW34703   1.962   6.914   2.372 -0.3120 -0.0476 -0.6001
 7925SOL    HW134704   2.010   6.905   2.459  1.4348 -0.3659 -1.5760
 7925SOL    HW234705   1.943   6.823   2.334  1.9893  0.0741 -2.1669
 7926SOL     OW34706   6.869   0.713   4.389 -0.1646  0.1735  0.0638
 7926SOL    HW134707   6.850   0.615   4.395 -1.4431  0.4165  0.1918
 7926SOL    HW234708   6.820   0.761   4.463 -0.4227  1.0234 -0.6432
 7927SOL     OW34709   0.367   4.942   2.660 -0.7512  0.0959  0.1215
 7927SOL    HW134710   0.385   4.861   2.716 -1.0284  0.3605  0.5934
 7927SOL    HW234711   0.455   4.980   2.629 -0.6071 -0.1735  0.1913
 7928SOL     OW34712   7.592   0.169   0.205  0.2713 -0.0973 -0.2156
 7928SOL    HW134713   7.541   0.192   0.287  0.2406  0.0185 -0.2684
 7928SOL    HW234714   7.643   0.083   0.220 -0.1386 -0.3468 -0.2531
 7929SOL     OW34715   9.138   4.172   3.948 -0.3935 -0.9502 -0.1997
 7929SOL    HW134716   9.119   4.261   3.989  0.6132 -0.1329 -1.4765
 7929SOL    HW234717   9.174   4.110   4.018  2.9135  0.9271 -0.1352
 7930SOL     OW34718   6.053   1.978   2.072  0.0316 -0.1856 -0.3021
 7930SOL    HW134719   5.957   1.952   2.073  0.5051 -1.9567  0.0648
 7930SOL    HW234720   6.070   2.047   2.143 -1.2181  1.1699 -1.2775
 7931SOL     OW34721   0.092   9.264   0.643  0.2456  0.6162 -0.1205
 7931SOL    HW134722   0.096   9.326   0.564 -0.9157 -1.5980 -1.9871
 7931SOL    HW234723   0.167   9.198   0.637 -2.5706 -2.5850 -2.0842
 7932SOL     OW34724   7.945   2.673   0.942 -0.3665  0.2513 -0.2964
 7932SOL    HW134725   7.935   2.764   0.982  0.1390 -0.0541  0.5367
 7932SOL    HW234726   7.876   2.661   0.870 -1.3577  0.7655  0.5453
 7933SOL     OW34727   4.722   1.727   1.905 -0.1681  0.2174 -0.2263
 7933SOL    HW134728   4.726   1.673   1.821  2.2223 -0.2130  0.1243
 7933SOL    HW234729   4.639   1.705   1.955  0.4834 -2.7643 -0.3680
 7934SOL     OW34730   9.868   1.510   2.215  0.4048 -0.1618 -0.0019
 7934SOL    HW134731   9.879   1.602   2.252 -1.3509  0.5986 -1.3049
 7934SOL    HW234732   9.771   1.493   2.196  0.5487 -2.7484  1.3655
 7935SOL     OW34733   3.532   8.108   0.653  0.0898 -0.4435 -0.0928
 7935SOL    HW134734   3.598   8.095   0.579  0.7490 -1.3091  0.6300
 7935SOL    HW234735   3.490   8.020   0.676  0.8021 -0.4131  1.3868
 7936SOL     OW34736   3.652   1.159   3.579  0.0702  0.5685 -0.5454
 7936SOL    HW134737   3.636   1.145   3.482  0.5895 -1.8834 -0.3037
 7936SOL    HW234738   3.742   1.123   3.605  0.2722  1.9092  0.6916
 7937SOL     OW34739   2.642   5.216   1.459  0.0491 -0.2081  0.0499
 7937SOL    HW134740   2.567   5.214   1.525 -0.6908  2.6497 -0.6241
 7937SOL    HW234741   2.607   5.243   1.369  1.7087  0.2013 -0.5056
 7938SOL     OW34742   3.802   6.230   4.092  0.5293  0.8858 -0.0492
 7938SOL    HW134743   3.729   6.226   4.023  2.0768  0.6661 -1.7121
 7938SOL    HW234744   3.845   6.140   4.100  1.6574  1.3997 -0.2533
 7939SOL     OW34745   0.582   0.291   2.735  0.3300 -0.1553  0.0887
 7939SOL    HW134746   0.574   0.333   2.645 -0.4679  0.2331  0.3345
 7939SOL    HW234747   0.500   0.237   2.755  0.7039 -0.6116  0.3864
 7940SOL     OW34748   3.857   6.006   2.269 -0.1366  0.3834  0.2383
 7940SOL    HW134749   3.768   6.048   2.259 -0.2611  0.4235  1.4152
 7940SOL    HW234750   3.846   5.907   2.280 -0.3095  0.7097  3.6551
 7941SOL     OW34751   5.845   4.586   0.419  0.3621  0.1093 -0.6950
 7941SOL    HW134752   5.871   4.654   0.488 -0.9406  1.1309 -1.2030
 7941SOL    HW234753   5.754   4.550   0.441  1.2690 -1.9048 -0.1118
 7942SOL     OW34754   1.880   3.418   4.559  0.2679 -0.2269  0.1525
 7942SOL    HW134755   1.937   3.455   4.486 -0.6811  0.5209 -0.2147
 7942SOL    HW234756   1.787   3.403   4.525 -0.0532 -0.3451  1.0630
 7943SOL     OW34757   9.477   7.243   3.217 -0.4904 -0.2735  0.2948
 7943SOL    HW134758   9.566   7.199   3.229  0.9530  2.0406 -1.4734
 7943SOL    HW234759   9.439   7.268   3.306  0.8168 -0.9117  1.0344
 7944SOL     OW34760   0.701   6.818   4.191  0.3303  0.5179  0.4295
 7944SOL    HW134761   0.790   6.800   4.232  1.4597  0.3276 -2.0211
 7944SOL    HW234762   0.637   6.745   4.217  1.4534 -0.4328  0.5743
 7945SOL     OW34763   5.886   1.510   3.955  0.3770 -0.5822  0.0057
 7945SOL    HW134764   5.857   1.547   4.043 -0.1897  1.1886 -0.8867
 7945SOL    HW234765   5.870   1.411   3.953 -0.4620 -0.4951  1.5515
 7946SOL     OW34766   8.341   5.716   3.545  0.0631  0.1876 -0.3162
 7946SOL    HW134767   8.396   5.639   3.511 -0.7582 -0.8608  0.7039
 7946SOL    HW234768   8.246   5.705   3.515 -1.1648 -1.8991  4.0017
 7947SOL     OW34769   6.831   0.379   0.092  0.7510  0.5971  0.5254
 7947SOL    HW134770   6.886   0.393   0.175 -0.8231 -1.7754  2.0375
 7947SOL    HW234771   6.742   0.423   0.104  0.8691  1.0625 -0.3071
 7948SOL     OW34772   9.172   0.163   3.256  0.2058  0.3566  0.1604
 7948SOL    HW134773   9.109   0.223   3.306  0.0225  0.9034 -0.7117
 7948SOL    HW234774   9.149   0.166   3.158  0.5578 -0.6973  0.0423
 7949SOL     OW34775   3.634   1.566   2.404 -0.5897  0.2801  0.1865
 7949SOL    HW134776   3.596   1.626   2.334 -0.3059  0.0414 -0.1723
 7949SOL    HW234777   3.628   1.471   2.373  3.1399  0.4311 -1.2591
 7950SOL     OW34778   4.428   3.594   1.948  0.1404  0.3689  0.3407
 7950SOL    HW134779   4.365   3.666   1.979  0.7079  1.1516 -0.2960
 7950SOL    HW234780   4.506   3.589   2.010 -0.6836 -0.8121  1.3068
 7951SOL     OW34781   8.687   6.619   1.224 -0.2602  0.4275 -0.1416
 7951SOL    HW134782   8.631   6.698   1.249  0.6458  0.9881  0.1496
 7951SOL    HW234783   8.775   6.650   1.188 -0.5577 -0.4247 -1.6451
 7952SOL     OW34784   3.139   6.276   2.542 -0.1041 -0.3844  0.0033
 7952SOL    HW134785   3.128   6.190   2.493  0.8793 -0.4390 -0.1295
 7952SOL    HW234786   3.059   6.334   2.526 -0.4712 -1.0119 -0.4381
 7953SOL     OW34787   0.368   8.405   1.435  0.1222 -0.8400  0.1117
 7953SOL    HW134788   0.322   8.317   1.433 -0.6482 -0.4310 -0.3096
 7953SOL    HW234789   0.306   8.476   1.402  0.4520 -0.0089  1.2350
 7954SOL     OW34790   8.499   0.484   1.106  0.1365  0.1529 -0.4937
 7954SOL    HW134791   8.476   0.520   1.016  0.1619  0.1887 -0.4858
 7954SOL    HW234792   8.493   0.557   1.174  1.0453  0.3421 -0.6172
 7955SOL     OW34793   0.613   3.195   4.475 -0.2153  0.1750 -0.1508
 7955SOL    HW134794   0.558   3.237   4.548  0.7235  1.3840 -0.1339
 7955SOL    HW234795   0.552   3.148   4.412 -1.0687 -0.6710  1.2612
 7956SOL     OW34796   4.415   6.241   1.706 -0.2031  0.0711  0.3306
 7956SOL    HW134797   4.462   6.239   1.618  0.8354  1.8995  0.8112
 7956SOL    HW234798   4.347   6.168   1.710 -0.7436  0.4100 -2.2545
 7957SOL     OW34799   2.056   1.386   2.977 -0.3317 -0.7641  0.4566
 7957SOL    HW134800   2.008   1.437   3.048 -0.8600 -0.3448 -0.1943
 7957SOL    HW234801   2.153   1.411   2.978 -0.5687  0.1769  0.2060
 7958SOL     OW34802   1.117   2.516   0.112  0.4545  0.2104 -0.2228
 7958SOL    HW134803   1.039   2.489   0.169 -0.1806  0.4329 -0.9865
 7958SOL    HW234804   1.128   2.616   0.118 -0.6128  0.4310 -1.7590
 7959SOL     OW34805   0.858   7.619   2.973 -0.1984  0.4442  0.0395
 7959SOL    HW134806   0.767   7.580   2.989  0.2386 -0.2427  0.8640
 7959SOL    HW234807   0.863   7.710   3.012 -0.9122  0.9595 -1.0431
 7960SOL     OW34808   9.972   2.402   1.758 -0.3069  0.0235 -0.2349
 7960SOL    HW134809  10.038   2.404   1.832 -0.5808  0.2330  0.0076
 7960SOL    HW234810   9.880   2.391   1.795 -0.4132 -0.2433 -0.5667
 7961SOL     OW34811   1.686   6.708   1.327  0.2214  0.0538  0.4953
 7961SOL    HW134812   1.765   6.736   1.381 -1.2448 -0.9852  3.3368
 7961SOL    HW234813   1.668   6.611   1.343 -2.1116  0.4670  0.6017
 7962SOL     OW34814   8.037   1.908   5.518 -0.7152  0.6188 -0.2523
 7962SOL    HW134815   8.108   1.932   5.583 -2.1982  3.2328  0.4649
 7962SOL    HW234816   7.972   1.846   5.561 -0.7989  1.0409  0.2283
 7963SOL     OW34817   0.850   9.329   1.881 -0.8793  0.4840  0.2789
 7963SOL    HW134818   0.827   9.235   1.906  0.1552 -0.0018 -0.5686
 7963SOL    HW234819   0.914   9.366   1.948  0.8600 -0.3655 -0.8919
 7964SOL     OW34820   6.462   9.949   4.443 -0.3208 -0.1065 -0.2792
 7964SOL    HW134821   6.410   9.864   4.456 -0.1586 -0.3259 -1.0690
 7964SOL    HW234822   6.410  10.010   4.384 -0.6835  0.5673  0.7278
 7965SOL     OW34823   1.334   8.121   5.550  0.3508  0.5939  0.1111
 7965SOL    HW134824   1.246   8.076   5.564 -1.2028  3.1792 -1.0113
 7965SOL    HW234825   1.323   8.220   5.557  2.8868  1.0586 -1.5243
 7966SOL     OW34826   3.403   1.083   2.171 -0.5387  0.3975 -0.5309
 7966SOL    HW134827   3.472   1.053   2.106  0.0433 -0.2391  0.3636
 7966SOL    HW234828   3.364   1.170   2.141  0.5915  0.7161 -1.1022
 7967SOL     OW34829   0.202   5.790   1.429  0.2190 -0.1704 -0.7025
 7967SOL    HW134830   0.184   5.881   1.464 -0.6120 -0.5816 -0.0215
 7967SOL    HW234831   0.298   5.782   1.402  0.4928  0.6362  0.0215
 7968SOL     OW34832   8.719   7.580   0.633  0.0628  0.2324  0.5190
 7968SOL    HW134833   8.731   7.483   0.612 -1.2004  0.0440  0.6360
 7968SOL    HW234834   8.780   7.606   0.708  0.5910 -0.4057  0.3142
 7969SOL     OW34835   4.307   1.282   3.841  0.0950  0.7451  0.4439
 7969SOL    HW134836   4.308   1.310   3.745  0.3391  0.2045  0.2839
 7969SOL    HW234837   4.392   1.312   3.885  0.3717  0.2283  0.2641
 7970SOL     OW34838   2.360   2.374   4.830  0.1126 -0.0665  0.4690
 7970SOL    HW134839   2.305   2.458   4.830 -1.4295 -1.0597  0.0932
 7970SOL    HW234840   2.363   2.336   4.922 -0.8018 -0.6206  0.2794
 7971SOL     OW34841   4.337   8.499   5.468 -0.7302 -0.0013 -0.4180
 7971SOL    HW134842   4.401   8.489   5.391  0.1625 -0.7460  0.4072
 7971SOL    HW234843   4.350   8.589   5.510 -0.7758  0.1627 -0.7524
 7972SOL     OW34844   9.772   7.069   2.523 -0.5795 -0.4208  0.2425
 7972SOL    HW134845   9.756   6.971   2.516 -0.1951 -0.4367 -0.4014
 7972SOL    HW234846   9.862   7.092   2.485 -0.5990  0.1635  0.5227
 7973SOL     OW34847   2.619   3.611   2.054 -0.8062 -0.2149  0.0777
 7973SOL    HW134848   2.621   3.662   1.968  0.0012 -2.8595 -1.5375
 7973SOL    HW234849   2.559   3.658   2.119  0.6983  3.3006 -0.9352
 7974SOL     OW34850   2.389   9.745   5.440 -0.2599 -0.2597  0.1795
 7974SOL    HW134851   2.430   9.662   5.404 -2.5646 -1.3192 -0.0666
 7974SOL    HW234852   2.335   9.790   5.368  0.9105  1.4280  0.3224
 7975SOL     OW34853   9.314   1.627   1.834  0.6794  0.3940 -0.2261
 7975SOL    HW134854   9.378   1.700   1.858 -1.1845  1.1831  2.5259
 7975SOL    HW234855   9.325   1.551   1.897  0.0551 -0.1721 -0.7872
 7976SOL     OW34856   0.699   3.086   1.166  0.1777  0.2128  0.4601
 7976SOL    HW134857   0.772   3.062   1.231  0.0774  0.6150  0.7287
 7976SOL    HW234858   0.622   3.023   1.177  1.1512 -1.2451 -0.9809
 7977SOL     OW34859   7.936   9.156   2.698  0.0468  0.3144  0.0840
 7977SOL    HW134860   7.951   9.131   2.794 -1.4619 -1.0279 -0.0109
 7977SOL    HW234861   8.022   9.147   2.648  1.1773  2.4109  1.5883
 7978SOL     OW34862   7.006   2.524   3.383  0.1745 -0.0933 -0.2866
 7978SOL    HW134863   6.974   2.575   3.463  1.9601 -2.2645  1.8804
 7978SOL    HW234864   7.090   2.565   3.348  0.2397 -0.0643 -0.0948
 7979SOL     OW34865   8.473   2.784   2.532  0.5408 -0.7534  0.2291
 7979SOL    HW134866   8.420   2.727   2.469  2.3003 -0.8760 -1.1763
 7979SOL    HW234867   8.505   2.729   2.609 -1.7873 -0.5631  1.3531
 7980SOL     OW34868   4.959   5.107   0.590 -0.0955  0.5654 -0.2550
 7980SOL    HW134869   5.050   5.079   0.560  0.0429  1.8470 -1.0957
 7980SOL    HW234870   4.890   5.067   0.529 -0.2267 -1.6646  1.2962
 7981SOL     OW34871   5.301   1.359   0.873 -0.0328  1.1368 -0.4624
 7981SOL    HW134872   5.203   1.355   0.859  0.0998  1.4483 -1.5019
 7981SOL    HW234873   5.334   1.452   0.856  0.6815  0.6593 -1.7815
 7982SOL     OW34874   2.774   4.184   1.755  0.3782 -0.2365 -0.1721
 7982SOL    HW134875   2.843   4.256   1.749 -0.9170  0.9325 -1.3455
 7982SOL    HW234876   2.816   4.096   1.731  1.7460  0.2587  0.3474
 7983SOL     OW34877   4.723   3.766   0.694 -0.3584 -0.3858  0.1450
 7983SOL    HW134878   4.711   3.865   0.694  0.2438 -0.3045 -0.5591
 7983SOL    HW234879   4.661   3.724   0.760 -1.5565  0.3528 -0.4947
 7984SOL     OW34880   3.896   1.921   5.331  0.5658  0.3478 -0.8449
 7984SOL    HW134881   3.910   1.827   5.302 -1.5728 -0.1833 -0.2511
 7984SOL    HW234882   3.818   1.960   5.281  1.9671  2.1052 -1.7466
 7985SOL     OW34883   0.082   7.885   2.097  0.4665  0.1941  0.1801
 7985SOL    HW134884   0.180   7.872   2.112  0.4014 -0.2453  0.2074
 7985SOL    HW234885   0.031   7.809   2.136  0.2117 -0.3333 -1.1425
 7986SOL     OW34886   3.272   6.283   0.797  0.4921 -0.4390  0.2613
 7986SOL    HW134887   3.236   6.353   0.858 -0.1286  0.5412 -1.1935
 7986SOL    HW234888   3.238   6.193   0.825 -1.4455  0.2443  0.1252
 7987SOL     OW34889   3.938   1.491   5.287  0.5436  0.8469  0.8400
 7987SOL    HW134890   3.987   1.530   5.365  0.9189  0.4836  0.7863
 7987SOL    HW234891   3.855   1.446   5.319  0.7422  0.6215  1.0459
 7988SOL     OW34892   2.103   1.615   4.530  0.4348 -0.2284  0.7481
 7988SOL    HW134893   2.117   1.699   4.583 -0.4831 -0.6189  1.6170
 7988SOL    HW234894   2.111   1.536   4.591  1.4159 -0.7916 -0.0877
 7989SOL     OW34895   7.879   5.787   4.530  0.5329 -0.1115 -0.0705
 7989SOL    HW134896   7.952   5.813   4.594 -0.5350  1.8234  0.4167
 7989SOL    HW234897   7.800   5.755   4.582  0.5372 -0.8873 -0.5393
 7990SOL     OW34898   8.101   8.009   3.961 -0.2735 -0.1474  0.2620
 7990SOL    HW134899   8.006   8.042   3.954 -0.9042 -1.2849  2.8982
 7990SOL    HW234900   8.101   7.909   3.967  1.0450 -0.1083  1.0310
 7991SOL     OW34901   7.880   1.792   1.615  0.1404  0.4981  0.4797
 7991SOL    HW134902   7.832   1.810   1.701 -2.6663 -0.4194 -0.8227
 7991SOL    HW234903   7.875   1.873   1.557 -2.8500 -0.6381 -0.9740
 7992SOL     OW34904   9.046   1.963   5.103  0.1793 -0.2129  0.5768
 7992SOL    HW134905   9.090   2.000   5.185  1.0189 -3.2036  1.5451
 7992SOL    HW234906   9.114   1.950   5.031 -0.0115 -0.3430  0.4188
 7993SOL     OW34907   3.573   7.456   2.726 -0.1882  0.0966 -0.1909
 7993SOL    HW134908   3.662   7.464   2.681  0.0345 -0.6378  0.1205
 7993SOL    HW234909   3.500   7.477   2.660  0.2715  2.3107 -0.0262
 7994SOL     OW34910   9.756   8.706   5.448  0.4172  0.0138 -0.1654
 7994SOL    HW134911   9.721   8.751   5.530 -1.6118 -0.8650 -0.5343
 7994SOL    HW234912   9.746   8.768   5.370  0.6684  0.1456 -0.0974
 7995SOL     OW34913   8.574   3.707   2.430  0.5020  0.6152 -0.6369
 7995SOL    HW134914   8.558   3.733   2.525  0.9709 -0.4784 -0.2478
 7995SOL    HW234915   8.497   3.737   2.374 -1.4802 -1.8422  0.6790
 7996SOL     OW34916   4.680   5.530   2.051 -0.9359 -0.0408 -0.0767
 7996SOL    HW134917   4.702   5.618   2.093  0.7061 -0.9820  1.1045
 7996SOL    HW234918   4.763   5.475   2.043 -2.0521 -1.7586 -0.1538
 7997SOL     OW34919   3.631   9.254   1.854 -0.8194 -0.0441  0.2611
 7997SOL    HW134920   3.642   9.286   1.760  1.2704 -1.9831 -0.1857
 7997SOL    HW234921   3.718   9.259   1.902 -1.6804  0.1091  1.8433
 7998SOL     OW34922   4.134   7.555   4.169 -0.5087  0.6182  0.3410
 7998SOL    HW134923   4.210   7.619   4.163 -1.1064  1.3000  0.0359
 7998SOL    HW234924   4.078   7.576   4.249  0.1520 -0.4738  1.1068
 7999SOL     OW34925   3.253   2.354   1.044 -0.2881 -0.1913 -0.5310
 7999SOL    HW134926   3.315   2.277   1.039  0.3798  0.3286 -0.3563
 7999SOL    HW234927   3.213   2.372   0.954  0.0095 -0.3601 -0.6954
 8000SOL     OW34928   4.647   4.208   4.786 -0.2482  0.0724 -0.2117
 8000SOL    HW134929   4.647   4.301   4.823 -0.0799  0.3143 -0.8124
 8000SOL    HW234930   4.726   4.158   4.822  0.0639  0.3908 -0.4615
 8001SOL     OW34931   3.244   7.217   0.752 -0.3467 -0.0875 -0.1248
 8001SOL    HW134932   3.308   7.173   0.690  2.6724  1.6358  1.6738
 8001SOL    HW234933   3.229   7.312   0.723  0.3004  0.4212  1.1806
 8002SOL     OW34934   1.666   5.651   1.148 -0.0176  0.2368 -0.2089
 8002SOL    HW134935   1.678   5.717   1.073 -1.0663  0.1994 -0.4228
 8002SOL    HW234936   1.667   5.700   1.235 -0.4571  0.4934 -0.3466
 8003SOL     OW34937   0.731   2.639   1.499  0.2256 -0.0846 -0.4322
 8003SOL    HW134938   0.673   2.560   1.517 -1.4123  0.8929 -1.3090
 8003SOL    HW234939   0.779   2.626   1.412  2.0144 -1.2808  0.7178
 8004SOL     OW34940   8.692   7.890   2.829 -0.4487 -0.3978  0.4801
 8004SOL    HW134941   8.611   7.946   2.808 -0.7670 -2.0147 -2.7932
 8004SOL    HW234942   8.687   7.804   2.779  1.0456 -2.5640  3.8808
 8005SOL     OW34943   7.542   3.821   5.110  0.7431  0.2281 -0.0198
 8005SOL    HW134944   7.450   3.784   5.106  1.2470 -1.0967  0.4248
 8005SOL    HW234945   7.587   3.810   5.021  1.0274 -0.6107  0.2204
 8006SOL     OW34946   6.856   1.124   4.582 -0.1325 -0.5173 -0.1132
 8006SOL    HW134947   6.910   1.179   4.645 -1.4612  1.5583 -0.7159
 8006SOL    HW234948   6.839   1.034   4.622 -0.0951  0.4061  2.0678
 8007SOL     OW34949   4.551   4.275   5.182 -0.1418  0.4716  0.2958
 8007SOL    HW134950   4.548   4.309   5.088  2.4144 -0.7498 -0.2875
 8007SOL    HW234951   4.523   4.179   5.185 -2.2005  1.0707  1.1246
 8008SOL     OW34952   5.131   1.740   3.020 -0.6185 -0.5995  0.4427
 8008SOL    HW134953   5.127   1.793   3.105 -1.0186 -0.7137  0.4946
 8008SOL    HW234954   5.192   1.662   3.033 -0.8311 -0.7265  0.6860
 8009SOL     OW34955   2.333   9.881   1.430  0.0444  0.3989 -0.0234
 8009SOL    HW134956   2.360   9.870   1.526  0.0999 -0.7303 -0.1652
 8009SOL    HW234957   2.391   9.949   1.386  1.6788 -0.9073  0.0752
 8010SOL     OW34958   6.161   0.778   1.870  0.3004  0.2830  0.0586
 8010SOL    HW134959   6.216   0.717   1.813  2.6392  1.3237  1.1426
 8010SOL    HW234960   6.143   0.863   1.821 -2.8147 -1.1165 -1.3857
 8011SOL     OW34961   2.522   3.184   2.714  0.0707  0.6103  0.2355
 8011SOL    HW134962   2.583   3.257   2.685 -0.8930  1.3814  0.1269
 8011SOL    HW234963   2.539   3.162   2.810  2.8681 -1.5476 -0.6593
 8012SOL     OW34964   8.876   2.443   5.613  0.2076  0.3390  0.0867
 8012SOL    HW134965   8.898   2.351   5.579 -2.5824  0.0746 -1.1843
 8012SOL    HW234966   8.877   2.507   5.536 -1.9853  0.5475  0.2122
 8013SOL     OW34967   8.739   0.683   4.364 -0.0725  0.1631 -0.2343
 8013SOL    HW134968   8.835   0.708   4.377  0.0553 -0.9923  1.2177
 8013SOL    HW234969   8.685   0.723   4.438 -0.4800 -0.3911 -0.2319
 8014SOL     OW34970   7.828   9.438   1.144  0.5355 -0.0963 -0.0926
 8014SOL    HW134971   7.748   9.488   1.109  0.9148  0.8154  0.3404
 8014SOL    HW234972   7.911   9.487   1.120  0.9146 -0.5208  0.3398
 8015SOL     OW34973   9.077   0.352   1.486 -0.2341  0.2391 -0.4689
 8015SOL    HW134974   9.038   0.263   1.458  0.6905  0.0866 -1.2942
 8015SOL    HW234975   9.176   0.343   1.494 -0.2597  0.9225  0.5247
 8016SOL     OW34976   3.871   0.081   3.973  0.1709 -0.3553  0.0091
 8016SOL    HW134977   3.917   0.103   3.887  1.1852 -0.5475  0.4976
 8016SOL    HW234978   3.866   0.162   4.030  0.1116 -0.3925  0.0577
 8017SOL     OW34979   5.159   9.090   1.600  0.7626  0.4656 -0.4924
 8017SOL    HW134980   5.179   9.098   1.698  0.0212  0.3526 -0.3265
 8017SOL    HW234981   5.244   9.079   1.549  1.0894 -0.6146  0.2612
 8018SOL     OW34982   4.558   9.841   0.304  0.3207  0.2795 -0.4834
 8018SOL    HW134983   4.506   9.908   0.251 -1.8703  0.1430  1.4062
 8018SOL    HW234984   4.563   9.755   0.253 -0.2258  0.6707 -1.2138
 8019SOL     OW34985   6.440   0.683   4.494  0.0686 -0.1784  0.4549
 8019SOL    HW134986   6.373   0.752   4.519 -1.3217 -1.6500  0.8038
 8019SOL    HW234987   6.439   0.670   4.395  0.1925  0.1458  0.4099
 8020SOL     OW34988   3.709   5.541   3.163  0.1981 -0.4825  0.7086
 8020SOL    HW134989   3.623   5.551   3.113 -0.7492 -1.6437  2.0460
 8020SOL    HW234990   3.712   5.608   3.237  1.3605  0.8838 -0.5474
 8021SOL     OW34991   1.088   7.253   0.453  0.3234 -0.0405  0.0236
 8021SOL    HW134992   1.071   7.174   0.394 -2.0837  0.6005 -0.1975
 8021SOL    HW234993   1.118   7.220   0.543  2.0456 -1.0824 -0.9027
 8022SOL     OW34994   4.619   9.514   2.242  0.1396 -0.1219  0.6777
 8022SOL    HW134995   4.606   9.436   2.181 -1.3356  0.9885 -0.4980
 8022SOL    HW234996   4.701   9.501   2.297  1.0830 -1.5071 -1.0129
 8023SOL     OW34997   0.654   4.465   4.481  0.1037 -0.5520  0.1710
 8023SOL    HW134998   0.604   4.400   4.423 -0.0632  0.3431 -0.7141
 8023SOL    HW234999   0.596   4.544   4.499  0.9299  0.1621 -0.2609
 8024SOL     OW35000   4.439   1.117   1.167 -0.4993 -0.3800 -0.0003
 8024SOL    HW135001   4.391   1.062   1.235  0.2737 -1.3184 -0.2044
 8024SOL    HW235002   4.532   1.136   1.198 -0.2166 -0.6122 -0.6850
 8025SOL     OW35003   3.493   0.967   4.778  0.4845  0.1770  0.0267
 8025SOL    HW135004   3.466   0.896   4.714 -0.5851 -0.4835  1.1763
 8025SOL    HW235005   3.593   0.973   4.781  0.5927 -1.2702 -0.1050
 8026SOL     OW35006   1.934   7.448   5.482 -0.1982 -0.4640 -0.6902
 8026SOL    HW135007   1.941   7.545   5.505  0.2955 -0.9082  1.0910
 8026SOL    HW235008   2.022   7.414   5.451  1.1353 -1.5739  3.8405
 8027SOL     OW35009   2.451   5.542   1.249 -0.4710  0.0868  0.6164
 8027SOL    HW135010   2.425   5.538   1.345  1.2227  0.1615  1.0931
 8027SOL    HW235011   2.520   5.613   1.235 -0.0582 -0.5047 -0.4840
 8028SOL     OW35012   7.649   1.599   3.488  0.5514 -0.0324  0.2044
 8028SOL    HW135013   7.720   1.668   3.501 -0.5989  1.0135  0.9593
 8028SOL    HW235014   7.613   1.606   3.395  0.1402  0.6765  0.4117
 8029SOL     OW35015   8.139   1.775   1.959  0.0074  0.1361 -0.0362
 8029SOL    HW135016   8.199   1.818   1.891  1.8090 -0.1842  1.3162
 8029SOL    HW235017   8.139   1.676   1.946 -0.1736  0.1320 -0.0035
 8030SOL     OW35018   1.228   1.004   5.305  0.2672  0.0710  0.1571
 8030SOL    HW135019   1.182   1.013   5.216  0.2113  1.0299  0.2754
 8030SOL    HW235020   1.171   1.045   5.376 -0.2209 -1.7431  0.8204
 8031SOL     OW35021   4.133   9.643   1.881 -0.4339  0.0451 -0.1404
 8031SOL    HW135022   4.100   9.668   1.790 -0.1441  0.4075 -0.1501
 8031SOL    HW235023   4.179   9.554   1.877 -1.1963 -0.3507 -0.1693
 8032SOL     OW35024   1.999   6.898   3.247 -0.3737 -0.5424  0.4240
 8032SOL    HW135025   2.066   6.827   3.265 -0.3044 -0.1488  1.7853
 8032SOL    HW235026   2.045   6.981   3.216 -0.2133 -0.2489  1.4282
 8033SOL     OW35027   2.790   6.064   1.979  0.1979 -0.3763 -0.2210
 8033SOL    HW135028   2.738   5.979   1.985  0.6301 -0.6936 -1.0024
 8033SOL    HW235029   2.883   6.045   1.949 -0.1490  0.5211 -1.9588
 8034SOL     OW35030   2.172   1.607   1.250  0.1904  0.4050 -0.3656
 8034SOL    HW135031   2.115   1.672   1.199  2.3763  2.7980  0.1597
 8034SOL    HW235032   2.151   1.613   1.347  0.9422  0.8802 -0.2336
 8035SOL     OW35033   5.206   8.971   2.458  0.8325 -0.0441  0.0171
 8035SOL    HW135034   5.194   9.030   2.538  0.9078  0.5161 -0.3797
 8035SOL    HW235035   5.144   9.000   2.386  1.4879  0.1035 -0.4902
 8036SOL     OW35036   0.561   2.001   3.219  0.1634  0.7758  0.4634
 8036SOL    HW135037   0.635   2.041   3.166 -1.1604  3.4981  0.5686
 8036SOL    HW235038   0.473   2.029   3.181 -0.8073  0.9243  2.6952
 8037SOL     OW35039   9.076   7.517   1.829 -0.2833 -0.5558 -0.2518
 8037SOL    HW135040   8.976   7.516   1.829 -0.3210  0.9307 -1.8890
 8037SOL    HW235041   9.109   7.579   1.900 -0.6024  1.3496 -1.7348
 8038SOL     OW35042   4.553   4.249   4.525 -0.1141 -0.1759  0.2400
 8038SOL    HW135043   4.593   4.239   4.616 -0.6002  0.6983  0.5502
 8038SOL    HW235044   4.589   4.177   4.465 -0.9509 -1.7091  1.5257
 8039SOL     OW35045   9.157   8.782   2.592  0.1603  0.4439 -0.6617
 8039SOL    HW135046   9.227   8.812   2.528  0.6689  0.9967  0.1456
 8039SOL    HW235047   9.068   8.786   2.547  0.6151 -0.0693 -1.6293
 8040SOL     OW35048   9.220   1.907   4.823 -0.0540 -0.1017 -0.0477
 8040SOL    HW135049   9.134   1.957   4.816  0.7894  1.7290  1.8714
 8040SOL    HW235050   9.291   1.957   4.773  0.7763  0.6297  1.8126
 8041SOL     OW35051   6.491   0.584   0.902 -0.1925 -0.3351 -0.1182
 8041SOL    HW135052   6.473   0.658   0.837 -0.0343 -2.0035 -2.1212
 8041SOL    HW235053   6.417   0.579   0.968  0.2087  2.1347  0.5641
 8042SOL     OW35054   9.514   0.839   0.139 -0.1177 -0.4565  0.6537
 8042SOL    HW135055   9.414   0.829   0.148 -0.5971  0.8467 -2.3832
 8042SOL    HW235056   9.540   0.931   0.169  0.2690 -0.9807  1.9502
 8043SOL     OW35057   6.315   7.022   3.466  0.1232 -0.1438 -0.8213
 8043SOL    HW135058   6.308   7.048   3.562  1.3872  2.1042 -1.3050
 8043SOL    HW235059   6.324   6.922   3.458  0.4477 -0.3022  1.3952
 8044SOL     OW35060   1.435   2.477   2.985 -0.1962  0.2694 -0.0001
 8044SOL    HW135061   1.482   2.435   3.061 -0.5666 -2.5824 -1.2837
 8044SOL    HW235062   1.339   2.492   3.009 -0.3259 -0.6813  0.0948
 8045SOL     OW35063   9.749   2.447   1.953 -0.0428  0.3103 -0.2511
 8045SOL    HW135064   9.795   2.449   2.042 -0.7924  1.1313  0.1263
 8045SOL    HW235065   9.656   2.414   1.965  0.1762 -0.5613 -0.8908
 8046SOL     OW35066   3.233   8.745   5.396  0.0996  0.6292 -0.4393
 8046SOL    HW135067   3.229   8.679   5.471 -1.5381  1.2799  0.0765
 8046SOL    HW235068   3.149   8.800   5.396  0.9552  1.9619 -1.5343
 8047SOL     OW35069   1.117   8.193   3.477  0.2894 -0.0504  0.4393
 8047SOL    HW135070   1.144   8.097   3.484  0.2801 -0.0629  0.2711
 8047SOL    HW235071   1.195   8.251   3.499  0.7288 -0.0769 -0.9917
 8048SOL     OW35072   6.608   9.051   2.261 -1.0173  0.5037  0.0218
 8048SOL    HW135073   6.529   9.004   2.301 -2.1252  1.1358 -1.3926
 8048SOL    HW235074   6.625   9.015   2.169 -0.8347  1.6959 -0.4196
 8049SOL     OW35075   3.489   0.713   0.911  0.1072  0.0503  0.0309
 8049SOL    HW135076   3.523   0.627   0.947  0.1979  0.0067 -0.1572
 8049SOL    HW235077   3.560   0.758   0.857  0.1431  0.3663  0.3400
 8050SOL     OW35078   2.758   3.833   2.211  0.5770 -0.2991 -0.2259
 8050SOL    HW135079   2.772   3.841   2.310 -0.1811  0.1827 -0.1489
 8050SOL    HW235080   2.782   3.741   2.181  1.3608 -0.2756  0.3109
 8051SOL     OW35081   4.257   6.043   2.668 -0.0446  0.0009  0.0967
 8051SOL    HW135082   4.339   6.011   2.621  0.5328  4.0480 -1.9318
 8051SOL    HW235083   4.187   6.064   2.600 -0.6823  2.0313  1.3354
 8052SOL     OW35084   2.904   5.830   4.926 -0.9283  0.0464  0.1208
 8052SOL    HW135085   2.939   5.823   4.832  1.4214  1.5077  0.8332
 8052SOL    HW235086   2.926   5.747   4.976 -0.4436  0.0377 -0.0941
 8053SOL     OW35087   7.268   4.213   0.144  0.1529 -0.3846  0.3775
 8053SOL    HW135088   7.192   4.278   0.144  0.1065 -0.4297  0.9585
 8053SOL    HW235089   7.265   4.157   0.061 -1.0531 -1.0889  0.8778
 8054SOL     OW35090   0.197   9.433   2.538  0.0645 -0.4163 -0.0393
 8054SOL    HW135091   0.228   9.448   2.632 -0.4043  0.1879  0.0245
 8054SOL    HW235092   0.151   9.344   2.531 -0.7474 -0.0547  0.5299
 8055SOL     OW35093   3.756   5.462   3.633 -0.1103 -0.1019  0.5531
 8055SOL    HW135094   3.697   5.513   3.696  0.8779  1.0597  0.5521
 8055SOL    HW235095   3.824   5.411   3.685 -1.1214 -1.4838  0.5557
 8056SOL     OW35096   9.985   3.396   1.090  0.0257  0.1152  0.1728
 8056SOL    HW135097   9.962   3.386   1.186  1.2402 -1.4918  0.3056
 8056SOL    HW235098  10.081   3.369   1.075  0.1012  1.1348 -1.3397
 8057SOL     OW35099   8.345   9.521   4.281 -0.0147 -0.6714  0.1904
 8057SOL    HW135100   8.351   9.433   4.234  2.7258  0.0093 -0.8303
 8057SOL    HW235101   8.406   9.521   4.360  0.8464  0.6743 -0.4580
 8058SOL     OW35102   4.061   0.158   1.186 -0.2798 -0.2696 -0.0950
 8058SOL    HW135103   4.141   0.143   1.128 -0.0181 -1.0744  0.4774
 8058SOL    HW235104   3.985   0.102   1.151  0.3190 -1.9584  1.2482
 8059SOL     OW35105   3.348   0.544   1.196 -0.5110  0.2143 -0.5169
 8059SOL    HW135106   3.305   0.632   1.215  0.4712  0.8487 -1.1915
 8059SOL    HW235107   3.412   0.554   1.120  1.5117 -0.4966  1.0522
 8060SOL     OW35108   3.357   4.522   2.594  0.3274 -0.0195  0.0379
 8060SOL    HW135109   3.413   4.482   2.666  2.1589  1.9374 -0.2519
 8060SOL    HW235110   3.414   4.579   2.535 -2.1109  2.7828  0.2659
 8061SOL     OW35111   1.869   3.807   4.066 -0.3011 -0.5260 -0.1861
 8061SOL    HW135112   1.906   3.900   4.076 -0.7676 -0.1955 -1.3755
 8061SOL    HW235113   1.869   3.762   4.154  0.9830  0.2094  0.2089
 8062SOL     OW35114   1.665   3.880   0.615  0.3794 -0.1416 -0.6022
 8062SOL    HW135115   1.586   3.867   0.556 -1.1961  2.0846  0.9292
 8062SOL    HW235116   1.684   3.795   0.664 -2.9829  0.0923  1.2594
 8063SOL     OW35117   6.432   8.087   3.591  0.2797 -0.7276 -0.2363
 8063SOL    HW135118   6.425   8.178   3.633 -0.1266 -0.5353 -0.7166
 8063SOL    HW235119   6.418   8.017   3.661  0.2262 -0.4155  0.0667
 8064SOL     OW35120   4.569   7.535   3.567  0.1294 -0.2569 -0.0427
 8064SOL    HW135121   4.539   7.628   3.589 -1.9122 -0.7309 -0.7559
 8064SOL    HW235122   4.593   7.531   3.470  0.6659 -0.3760  0.0921
 8065SOL     OW35123   3.847   2.724   1.204 -0.5837 -0.9528  0.7374
 8065SOL    HW135124   3.778   2.692   1.139  0.4588 -0.6838 -0.5274
 8065SOL    HW235125   3.837   2.823   1.218  0.8501 -0.5070 -1.1063
 8066SOL     OW35126   9.919   4.799   3.274  0.0115  0.2135 -0.2557
 8066SOL    HW135127   9.824   4.806   3.305 -0.2217  0.4125 -0.9968
 8066SOL    HW235128   9.927   4.839   3.183  0.8007  0.1492 -0.2188
 8067SOL     OW35129   2.797   6.988   1.237  0.6335 -0.1941  0.4908
 8067SOL    HW135130   2.758   7.065   1.186  0.6885 -1.5295 -1.6322
 8067SOL    HW235131   2.724   6.927   1.267  0.7757 -0.6739 -0.1216
 8068SOL     OW35132   8.382   3.719   2.232  0.0293 -0.1947 -0.2027
 8068SOL    HW135133   8.370   3.639   2.172 -0.7746 -0.0582 -0.2202
 8068SOL    HW235134   8.303   3.779   2.224  0.5775  0.5510 -0.0935
 8069SOL     OW35135   6.273   1.430   1.540  0.4919 -0.1716 -0.1950
 8069SOL    HW135136   6.238   1.383   1.621 -0.2639  2.8316  1.2996
 8069SOL    HW235137   6.373   1.423   1.538  0.5389 -0.1372  1.1214
 8070SOL     OW35138   5.049   8.903   4.450  0.4354  0.1854  0.0956
 8070SOL    HW135139   5.037   8.878   4.546 -1.2116 -0.2912 -0.2178
 8070SOL    HW235140   5.061   8.821   4.395 -2.8471  0.1394 -0.6496
 8071SOL     OW35141   4.181   8.382   0.808  0.3795 -0.1215 -0.3543
 8071SOL    HW135142   4.159   8.336   0.722  0.7621 -2.5788  0.8335
 8071SOL    HW235143   4.280   8.395   0.814  0.5957 -2.0558  0.7159
 8072SOL     OW35144   8.827   9.187   0.389 -0.7320  0.7127 -0.0653
 8072SOL    HW135145   8.800   9.282   0.405 -1.0620  0.3770  1.4184
 8072SOL    HW235146   8.782   9.128   0.456  1.2159 -0.2281  0.4445
 8073SOL     OW35147   4.929   6.744   2.144  0.3925 -0.2184  0.4124
 8073SOL    HW135148   4.982   6.664   2.170 -0.0813 -0.5351  0.3966
 8073SOL    HW235149   4.843   6.716   2.102 -0.0806  0.2950  1.0268
 8074SOL     OW35150   9.556   3.014   5.579 -0.3627 -0.0586  0.1303
 8074SOL    HW135151   9.602   2.944   5.633 -0.2807 -1.1053 -1.2622
 8074SOL    HW235152   9.502   2.970   5.507 -1.7996  1.2437  0.3875
 8075SOL     OW35153   2.483   8.209   3.324 -0.3818  0.1895  0.1630
 8075SOL    HW135154   2.508   8.146   3.250  0.1126 -0.0760  0.5526
 8075SOL    HW235155   2.428   8.283   3.287  1.7679  1.3049 -0.8817
 8076SOL     OW35156   9.708   0.028   1.370  0.7307  0.2432  0.4509
 8076SOL    HW135157   9.629   0.009   1.428  0.3646  0.6676  0.0888
 8076SOL    HW235158   9.680   0.033   1.274  1.4290 -1.0452  0.1641
 8077SOL     OW35159   9.787   0.995   1.437  0.0270  0.2740  0.5693
 8077SOL    HW135160   9.783   0.906   1.483 -2.0264  0.4731  0.8460
 8077SOL    HW235161   9.847   1.056   1.488  0.1981 -0.4723  1.2793
 8078SOL     OW35162   8.009   7.339   4.297  0.0165 -0.3166 -0.2495
 8078SOL    HW135163   7.930   7.375   4.348 -0.2404 -0.2301 -0.7026
 8078SOL    HW235164   8.051   7.265   4.349  1.5186  1.6657  1.4319
 8079SOL     OW35165   0.671   3.811   4.504 -0.0736  0.2158  0.3089
 8079SOL    HW135166   0.733   3.810   4.582  0.9628  1.9050 -0.4500
 8079SOL    HW235167   0.607   3.735   4.510  1.0435 -0.6063  1.9509
 8080SOL     OW35168   4.113   2.067   1.562  0.3308  0.3172 -0.2067
 8080SOL    HW135169   4.171   1.995   1.523  0.9164  0.3781  0.5492
 8080SOL    HW235170   4.161   2.113   1.635 -1.0733 -0.3565  1.1713
 8081SOL     OW35171   2.772   6.432   5.304  0.8919  0.3938 -0.5159
 8081SOL    HW135172   2.826   6.348   5.298 -1.2518 -1.1650  1.0289
 8081SOL    HW235173   2.739   6.457   5.212  1.6193 -0.3809 -0.9995
 8082SOL     OW35174   0.669   7.499   3.674 -0.0790  0.2450  0.0882
 8082SOL    HW135175   0.612   7.539   3.746  1.2223 -0.7887  1.7564
 8082SOL    HW235176   0.635   7.526   3.584 -1.4665  1.9533  1.1076
 8083SOL     OW35177   6.969   7.455   4.012  0.6211  0.0957 -0.6553
 8083SOL    HW135178   7.045   7.390   4.007  0.1946 -0.3848 -0.8721
 8083SOL    HW235179   6.975   7.519   3.935  1.1507  0.4362 -0.3328
 8084SOL     OW35180   5.913   3.898   0.249  0.4144  0.4489  0.2300
 8084SOL    HW135181   5.997   3.853   0.279  0.4413 -1.3961 -2.4416
 8084SOL    HW235182   5.935   3.970   0.183  0.0184  1.0533  0.7560
 8085SOL     OW35183   1.517   2.409   3.239 -0.0662  0.5943  0.1337
 8085SOL    HW135184   1.479   2.324   3.276 -1.1838  1.3181  0.6759
 8085SOL    HW235185   1.539   2.471   3.314 -1.5320  1.7277 -0.3628
 8086SOL     OW35186   8.375   5.020   2.829 -0.8303 -0.7526  0.0303
 8086SOL    HW135187   8.325   5.083   2.769 -0.8798 -1.2571 -0.4693
 8086SOL    HW235188   8.363   5.048   2.924  1.2062  1.4628 -0.3201
 8087SOL     OW35189   0.969   9.314   0.626  0.2577  0.4028 -0.4038
 8087SOL    HW135190   0.976   9.315   0.726  0.9675 -2.1054 -0.3906
 8087SOL    HW235191   1.057   9.336   0.586  0.2473  0.3270 -0.4688
 8088SOL     OW35192   6.814   0.518   3.052 -0.1358  0.2496 -0.1125
 8088SOL    HW135193   6.736   0.489   3.108 -0.2680  0.6756 -0.0749
 8088SOL    HW235194   6.798   0.611   3.018 -0.0727 -0.0245 -0.8972
 8089SOL     OW35195   7.409   7.564   1.970  0.5795 -0.0725 -0.3018
 8089SOL    HW135196   7.410   7.654   2.012  0.5049 -0.3345  0.2720
 8089SOL    HW235197   7.432   7.571   1.873 -0.5697  0.7118 -0.5350
 8090SOL     OW35198   8.480   0.781   0.678  0.0550  0.5752  0.3659
 8090SOL    HW135199   8.558   0.810   0.623  0.2939 -0.9298 -0.0904
 8090SOL    HW235200   8.511   0.726   0.755 -0.6404 -0.9924 -0.4601
 8091SOL     OW35201   1.101   4.796   2.314 -0.5953 -0.2599 -0.2502
 8091SOL    HW135202   1.063   4.777   2.404 -0.9756  3.0938  0.3602
 8091SOL    HW235203   1.030   4.788   2.245 -1.2064  0.9023  0.2393
 8092SOL     OW35204   2.071   9.880   1.453  0.5446 -0.1705  0.0924
 8092SOL    HW135205   2.162   9.852   1.424  1.2031  0.8608  1.1367
 8092SOL    HW235206   2.045   9.964   1.405  0.4770 -0.0224  0.3846
 8093SOL     OW35207   1.841   0.644   1.810 -0.6511  0.3173 -0.3269
 8093SOL    HW135208   1.914   0.608   1.868 -0.1682  1.1992 -0.3974
 8093SOL    HW235209   1.875   0.656   1.716 -0.7664  1.1323 -0.2630
 8094SOL     OW35210   8.983   1.762   1.560  0.5005  0.4367 -0.0626
 8094SOL    HW135211   8.903   1.711   1.593  1.4684  0.1830  1.9647
 8094SOL    HW235212   9.012   1.828   1.630  2.9956 -0.5538 -0.1042
 8095SOL     OW35213   2.747   1.551   0.480 -0.0934  0.0458  0.4560
 8095SOL    HW135214   2.739   1.650   0.488  0.5998  0.3644 -2.3977
 8095SOL    HW235215   2.655   1.511   0.482 -0.6088  1.0537 -1.6524
 8096SOL     OW35216   1.504   2.415   0.394  0.0370 -0.3078 -0.0169
 8096SOL    HW135217   1.541   2.505   0.418  1.0061 -0.9885  1.0856
 8096SOL    HW235218   1.500   2.406   0.294  2.2466  0.0402 -0.1611
 8097SOL     OW35219   0.219   1.863   1.133  0.3136 -0.2595 -0.0558
 8097SOL    HW135220   0.227   1.862   1.033  0.5644 -0.8707 -0.0306
 8097SOL    HW235221   0.185   1.775   1.165  0.7207 -0.2386  0.4389
 8098SOL     OW35222   4.159   9.407   5.353  0.3439  0.1104  0.4049
 8098SOL    HW135223   4.257   9.424   5.369  0.6944 -1.8438  0.4325
 8098SOL    HW235224   4.145   9.380   5.258 -0.2841  1.0620  0.2172
 8099SOL     OW35225   5.791   1.982   2.351  0.8333  0.2807 -0.0018
 8099SOL    HW135226   5.795   2.015   2.446  1.0811  0.9930 -0.2627
 8099SOL    HW235227   5.794   1.882   2.351  0.0819  0.2515  0.7850
 8100SOL     OW35228   7.764   0.653   4.000 -0.6030  0.2918 -0.1834
 8100SOL    HW135229   7.675   0.641   4.043 -0.4229 -2.0734 -0.3997
 8100SOL    HW235230   7.753   0.693   3.909 -1.3970  0.4100 -0.0353
 8101SOL     OW35231   6.885   0.594   3.345  0.2681  0.3201 -0.5158
 8101SOL    HW135232   6.925   0.582   3.255  1.8054 -1.1889  0.3405
 8101SOL    HW235233   6.905   0.514   3.402 -2.4549  0.3027  0.5256
 8102SOL     OW35234   5.035   4.917   5.516  0.0715  0.1557  0.0767
 8102SOL    HW135235   5.096   4.850   5.558  1.1580  0.8794 -0.3307
 8102SOL    HW235236   5.052   5.007   5.557 -0.1546  0.5118 -0.6011
 8103SOL     OW35237   8.795   4.265   1.643 -0.2777  0.0266 -0.1720
 8103SOL    HW135238   8.800   4.334   1.715 -1.1561 -0.6635  0.5685
 8103SOL    HW235239   8.818   4.307   1.555  1.0546  0.8121  0.5441
 8104SOL     OW35240   8.797   8.157   3.163 -0.3255  0.3726  0.6447
 8104SOL    HW135241   8.801   8.250   3.200  0.2186  0.9397 -0.8134
 8104SOL    HW235242   8.737   8.155   3.084 -1.2992 -0.7893  1.3941
 8105SOL     OW35243   3.620   0.300   2.615  0.6118 -0.1690  0.3816
 8105SOL    HW135244   3.584   0.235   2.549  0.6400 -1.1266  1.2953
 8105SOL    HW235245   3.592   0.392   2.590 -0.2157 -0.6262 -0.4032
 8106SOL     OW35246   9.350   7.222   2.961 -0.2131  0.5008  0.4027
 8106SOL    HW135247   9.393   7.225   3.052  1.2359  2.2284 -0.3283
 8106SOL    HW235248   9.264   7.273   2.963 -1.8418 -2.1504  1.6083
 8107SOL     OW35249   6.420   0.674   4.222 -0.1281 -0.4047 -0.1066
 8107SOL    HW135250   6.320   0.666   4.220  0.0415 -2.4269 -1.9618
 8107SOL    HW235251   6.461   0.583   4.223  1.7100  0.4008  2.4550
 8108SOL     OW35252   6.118   7.701   3.553 -0.0265  0.1694 -0.4990
 8108SOL    HW135253   6.152   7.617   3.596 -0.3977  0.2716  0.0018
 8108SOL    HW235254   6.195   7.764   3.540  0.2415 -0.2222 -0.8197
 8109SOL     OW35255   9.056   9.092   0.287  0.2094 -0.0491 -0.4572
 8109SOL    HW135256   9.084   9.021   0.351  1.7188 -1.1706 -2.3333
 8109SOL    HW235257   8.962   9.121   0.308  0.1573 -1.4516  1.3055
 8110SOL     OW35258   9.232   2.149   0.283  0.3297  0.1097 -0.4916
 8110SOL    HW135259   9.229   2.125   0.380  0.1114  1.9042 -0.0309
 8110SOL    HW235260   9.297   2.224   0.270  0.5732 -0.3221 -1.7751
 8111SOL     OW35261   8.322   6.412   1.672 -0.1528  0.0898  0.6530
 8111SOL    HW135262   8.314   6.347   1.597 -0.0218  1.1556 -0.3046
 8111SOL    HW235263   8.287   6.371   1.756 -2.8998 -0.1536 -0.5683
 8112SOL     OW35264   8.162   0.460   0.509 -0.4914 -0.1174 -0.1319
 8112SOL    HW135265   8.090   0.411   0.462  0.9530 -1.6140 -0.8326
 8112SOL    HW235266   8.134   0.481   0.603 -2.1691  0.1369 -0.6894
 8113SOL     OW35267   7.557   9.419   4.994 -0.2237 -0.3357 -0.3703
 8113SOL    HW135268   7.508   9.506   4.982  1.5802  0.5647 -1.4935
 8113SOL    HW235269   7.523   9.353   4.927 -0.0983  0.2057 -0.9778
 8114SOL     OW35270   4.409   2.338   3.303  0.5594 -0.3311  0.3099
 8114SOL    HW135271   4.412   2.241   3.277 -0.7299 -0.7538  1.6813
 8114SOL    HW235272   4.353   2.388   3.237  0.7131 -0.6285 -0.0508
 8115SOL     OW35273   3.977   7.648   4.377  0.1872 -0.4350  0.2438
 8115SOL    HW135274   3.901   7.709   4.353  0.6633 -0.0847 -0.3825
 8115SOL    HW235275   3.956   7.601   4.463 -0.2331  0.5235  0.6714
 8116SOL     OW35276   7.900   9.889   1.174 -0.0844 -0.2066 -0.0629
 8116SOL    HW135277   7.865   9.956   1.109 -1.3888 -0.0863  0.7508
 8116SOL    HW235278   7.865   9.909   1.265  2.4162  0.1471  0.8635
 8117SOL     OW35279   1.928   2.662   4.476 -0.0241 -0.3521 -0.5799
 8117SOL    HW135280   1.933   2.727   4.400 -1.9783  1.8227  1.0547
 8117SOL    HW235281   1.874   2.702   4.550 -0.5846 -3.5540  0.8275
 8118SOL     OW35282   8.707   6.321   2.303 -0.5322 -0.5244  0.0073
 8118SOL    HW135283   8.617   6.356   2.330 -0.8291 -1.1427 -0.1689
 8118SOL    HW235284   8.778   6.383   2.336 -0.9339 -0.8476  1.5042
 8119SOL     OW35285   8.525   1.814   1.037 -0.1063 -0.1031  0.1901
 8119SOL    HW135286   8.498   1.902   1.075 -1.2398  0.4870 -1.9534
 8119SOL    HW235287   8.540   1.822   0.939  2.8322 -1.6172  0.4468
 8120SOL     OW35288   8.968   1.310   0.568  0.4271 -0.1969 -0.4898
 8120SOL    HW135289   8.916   1.224   0.568  0.7795 -0.4179  0.2631
 8120SOL    HW235290   9.012   1.323   0.479 -0.3269 -0.3691 -0.8882
 8121SOL     OW35291   6.018   9.770   1.336  0.1344  0.2074  0.4403
 8121SOL    HW135292   5.965   9.772   1.252 -0.4058 -1.9194  0.6976
 8121SOL    HW235293   5.960   9.738   1.411  1.5162 -1.2336  0.9199
 8122SOL     OW35294   8.332   5.073   4.782  0.0444 -0.0487 -0.2825
 8122SOL    HW135295   8.413   5.124   4.755  0.4990  0.3545  1.7996
 8122SOL    HW235296   8.358   4.990   4.831 -0.7669 -0.5523 -0.6860
 8123SOL     OW35297   2.703   6.294   1.848 -0.3554  0.1421 -0.7296
 8123SOL    HW135298   2.728   6.279   1.752 -1.0841 -1.4750 -0.6888
 8123SOL    HW235299   2.741   6.220   1.904  0.9565  1.6379  0.3985
 8124SOL     OW35300   4.681   0.398   1.108 -0.7966  0.3446 -0.6364
 8124SOL    HW135301   4.693   0.468   1.038  1.4704  0.7657  0.1305
 8124SOL    HW235302   4.760   0.336   1.107 -0.5943  0.5439  1.7482
 8125SOL     OW35303   3.794   5.899   1.922 -0.3500 -0.1416 -0.8399
 8125SOL    HW135304   3.857   5.939   1.989  0.1552 -1.7604 -0.3067
 8125SOL    HW235305   3.781   5.802   1.943 -0.5053 -0.5802 -2.8609
 8126SOL     OW35306   0.637   1.594   3.969  0.2704 -0.0668 -0.2274
 8126SOL    HW135307   0.617   1.506   4.013 -1.5142  0.4153 -0.0263
 8126SOL    HW235308   0.552   1.643   3.953  1.1121  0.8211 -2.0634
 8127SOL     OW35309   7.331   7.768   3.226  0.2750  0.4164  0.4513
 8127SOL    HW135310   7.401   7.697   3.229 -1.0928 -0.9186  1.2834
 8127SOL    HW235311   7.345   7.826   3.145  2.1740  0.0274  0.4738
 8128SOL     OW35312   1.035   2.022   4.965 -0.1472 -0.1003  0.4157
 8128SOL    HW135313   1.117   2.069   4.932 -0.1781 -0.1986  0.1952
 8128SOL    HW235314   1.007   2.061   5.053  0.6319 -0.6465  0.9029
 8129SOL     OW35315   9.248   0.751   2.985  0.0238  0.8187  0.8764
 8129SOL    HW135316   9.292   0.840   2.976  0.1923  0.5735 -0.9828
 8129SOL    HW235317   9.311   0.687   3.029  0.0845  1.4690  1.7524
 8130SOL     OW35318   1.120   9.462   1.195  0.3387 -0.4409 -0.2125
 8130SOL    HW135319   1.125   9.364   1.177 -0.3883 -0.6784  0.8447
 8130SOL    HW235320   1.198   9.508   1.152  0.9389 -1.5391 -0.3012
 8131SOL     OW35321   4.123   5.859   2.791 -0.7905 -0.4732  0.2191
 8131SOL    HW135322   4.041   5.911   2.815 -1.1808 -0.3596 -1.2943
 8131SOL    HW235323   4.195   5.922   2.761 -1.0625 -0.7489 -1.0402
 8132SOL     OW35324   9.588   3.978   3.264  0.8621  0.3634 -0.7254
 8132SOL    HW135325   9.601   3.956   3.167 -0.8875  0.7173 -1.0504
 8132SOL    HW235326   9.568   3.894   3.314  1.5670  0.2085 -0.6968
 8133SOL     OW35327   7.139   9.574   4.882 -0.3493 -0.3445 -0.3888
 8133SOL    HW135328   7.196   9.572   4.800 -0.4311 -1.5330 -0.4146
 8133SOL    HW235329   7.064   9.639   4.868  0.3854  0.4514 -0.7449
 8134SOL     OW35330   9.120   7.378   2.952 -0.0283 -0.3007  0.2390
 8134SOL    HW135331   9.091   7.336   2.866 -0.2314  0.6915 -0.1870
 8134SOL    HW235332   9.047   7.368   3.020 -0.7203  0.7509 -0.3354
 8135SOL     OW35333   3.557   9.481   0.846 -0.2546  0.5433 -0.4344
 8135SOL    HW135334   3.606   9.501   0.761  0.3332  1.8063  0.1811
 8135SOL    HW235335   3.564   9.383   0.866  1.1149  0.5302 -0.9121
 8136SOL     OW35336   7.943   0.542   0.964 -0.7838  0.0732 -0.1125
 8136SOL    HW135337   7.940   0.622   1.024 -0.7629 -0.1936  0.2469
 8136SOL    HW235338   7.925   0.459   1.018  1.2109 -0.3689 -0.0938
 8137SOL     OW35339   8.941   3.059   4.209  0.1384  0.1244  0.5559
 8137SOL    HW135340   9.033   3.024   4.224 -0.5269 -1.6011  0.7557
 8137SOL    HW235341   8.904   3.021   4.125 -0.4473  0.6879  0.5582
 8138SOL     OW35342   1.412   2.429   3.698  0.2980  0.8607  0.1785
 8138SOL    HW135343   1.490   2.383   3.741 -0.6807  0.4135  1.4820
 8138SOL    HW235344   1.331   2.419   3.755 -0.5584  1.9581 -0.8165
 8139SOL     OW35345   3.978   0.931   3.846 -0.0739  0.1368 -0.6991
 8139SOL    HW135346   3.936   0.875   3.775 -1.0575  0.3250 -0.2683
 8139SOL    HW235347   4.071   0.955   3.819  0.8520 -2.7909 -0.3152
 8140SOL     OW35348   5.015   0.925   1.526  0.4705 -0.3058  0.0489
 8140SOL    HW135349   4.983   0.834   1.554 -0.9898  0.0444 -0.4270
 8140SOL    HW235350   4.947   0.993   1.552  0.5291  0.3914 -1.5666
 8141SOL     OW35351   1.317   3.593   0.963 -0.2039  0.4261  0.7144
 8141SOL    HW135352   1.258   3.661   0.921  1.2337  1.3779  0.2023
 8141SOL    HW235353   1.272   3.503   0.961 -1.5392  1.0998  0.1814
 8142SOL     OW35354   5.985   1.360   2.900 -0.5507 -0.0018 -0.4272
 8142SOL    HW135355   5.916   1.412   2.951  0.3740 -0.8228  1.7331
 8142SOL    HW235356   5.976   1.263   2.923  0.6550 -0.2339 -0.9423
 8143SOL     OW35357   1.885   4.270   2.998 -0.0599  0.5737  0.1231
 8143SOL    HW135358   1.980   4.277   3.031 -0.2721 -0.7493  1.0374
 8143SOL    HW235359   1.825   4.323   3.058 -0.2066 -0.4049  0.8364
 8144SOL     OW35360   8.558   0.190   1.783  0.5007 -0.2936  0.0440
 8144SOL    HW135361   8.580   0.273   1.731  0.8366 -0.2453  0.2691
 8144SOL    HW235362   8.636   0.163   1.838 -0.4046  0.6172  1.8345
 8145SOL     OW35363   5.927   0.710   3.193 -0.5680  0.0545 -0.2916
 8145SOL    HW135364   6.013   0.678   3.153 -0.6133 -0.7829  0.2732
 8145SOL    HW235365   5.870   0.750   3.122  0.2934  0.6341 -0.6688
 8146SOL     OW35366   9.708   9.971   2.210  0.0070 -0.4271  0.0600
 8146SOL    HW135367   9.672   9.881   2.184  0.3680 -0.7343  0.5958
 8146SOL    HW235368   9.750  10.015   2.130 -0.4702 -0.5913 -0.2797
 8147SOL     OW35369   9.373   2.705   1.487 -0.3154  0.6491 -0.1629
 8147SOL    HW135370   9.303   2.759   1.533 -0.3272  1.4257 -1.0806
 8147SOL    HW235371   9.352   2.698   1.390 -1.2213 -2.4764  0.2258
 8148SOL     OW35372   4.859   8.711   4.903  0.1530 -0.3178 -0.1783
 8148SOL    HW135373   4.864   8.612   4.913  0.3136 -0.1576  1.5067
 8148SOL    HW235374   4.881   8.737   4.809  2.1697 -1.7206 -0.1168
 8149SOL     OW35375   8.032   3.943   0.544  0.5886  0.1687  0.3046
 8149SOL    HW135376   8.083   3.913   0.463  1.5411 -0.0141  0.9639
 8149SOL    HW235377   7.946   3.986   0.515  0.5817 -0.5434 -0.7686
 8150SOL     OW35378   7.766   7.627   3.165 -0.5306 -0.4701 -0.0941
 8150SOL    HW135379   7.670   7.646   3.146 -0.8015 -1.6960  0.0124
 8150SOL    HW235380   7.774   7.542   3.217  0.7719 -1.7808 -2.3654
 8151SOL     OW35381   2.176   4.468   3.040 -0.5505  0.6272  0.6265
 8151SOL    HW135382   2.137   4.398   3.099 -0.1298 -0.3107 -0.1867
 8151SOL    HW235383   2.272   4.482   3.065 -1.0718  2.1258  1.8847
 8152SOL     OW35384   0.009   4.840   5.617  0.3047  0.2296 -0.1791
 8152SOL    HW135385   0.090   4.834   5.559 -0.8837  0.6588 -1.9047
 8152SOL    HW235386   0.006   4.930   5.661  1.0125  0.0345  0.2801
 8153SOL     OW35387   2.409   4.053   2.438  0.4143 -0.3235  0.1688
 8153SOL    HW135388   2.345   3.976   2.432 -1.6377  1.1286  2.2965
 8153SOL    HW235389   2.487   4.026   2.494 -0.0304 -1.0407  0.4573
 8154SOL     OW35390   0.327   2.799   2.997 -0.7947  1.0753  0.4960
 8154SOL    HW135391   0.401   2.812   2.931 -1.1085 -2.2380 -0.5883
 8154SOL    HW235392   0.343   2.857   3.077  3.5641 -0.3429  0.7542
 8155SOL     OW35393   7.236   8.504   3.036 -0.2918  0.5865 -0.2712
 8155SOL    HW135394   7.229   8.423   2.978 -2.0814  0.3768  0.1821
 8155SOL    HW235395   7.281   8.479   3.122  0.3148  0.3742 -0.6472
 8156SOL     OW35396   7.991   2.247   5.022 -0.0351  0.5737 -0.7115
 8156SOL    HW135397   8.089   2.268   5.028 -0.0327  0.2518  0.4762
 8156SOL    HW235398   7.949   2.304   4.952  0.9218  1.0240 -0.9277
 8157SOL     OW35399   2.970   9.545   3.147  0.1891  0.2102 -0.2904
 8157SOL    HW135400   2.978   9.476   3.075  0.8816  0.0268 -0.0422
 8157SOL    HW235401   3.061   9.567   3.182 -0.2193 -0.4354  1.2195
 8158SOL     OW35402   0.538   6.744   3.452 -0.1541  0.5670  0.3894
 8158SOL    HW135403   0.633   6.722   3.475 -0.5568  0.4472  1.9603
 8158SOL    HW235404   0.527   6.741   3.353  1.3616  0.0860  0.2182
 8159SOL     OW35405   1.903   2.060   3.929 -0.9040  0.1196 -0.3672
 8159SOL    HW135406   1.874   2.154   3.944  0.5677  0.3013  1.4221
 8159SOL    HW235407   2.002   2.053   3.941 -1.1852 -1.9192  0.9564
 8160SOL     OW35408   3.242   4.365   0.337 -0.3641  0.2755 -0.1172
 8160SOL    HW135409   3.317   4.420   0.300  0.5866 -0.3286  0.8924
 8160SOL    HW235410   3.272   4.321   0.421 -2.9294  2.7561  2.1956
 8161SOL     OW35411   3.505   6.157   1.393 -0.7478 -0.5303 -0.7263
 8161SOL    HW135412   3.571   6.214   1.345  0.9590 -0.4460  1.6270
 8161SOL    HW235413   3.528   6.060   1.379 -1.4590 -0.5658 -1.7057
 8162SOL     OW35414   8.311   2.576   1.138 -0.5645 -0.1896  0.2016
 8162SOL    HW135415   8.398   2.624   1.135 -0.4344 -0.3509  1.2541
 8162SOL    HW235416   8.269   2.577   1.047  1.5768 -2.0478 -0.8602
 8163SOL     OW35417   0.008   8.656   5.620 -0.4179  0.2956 -0.1362
 8163SOL    HW135418  -0.058   8.698   5.557 -1.2183  1.5655  1.5079
 8163SOL    HW235419  -0.031   8.572   5.658 -0.6479  0.4608 -0.0050
 8164SOL     OW35420   3.269   3.521   1.230 -0.1569 -0.0917  0.2248
 8164SOL    HW135421   3.326   3.481   1.302 -0.1840  1.2161  0.9846
 8164SOL    HW235422   3.200   3.454   1.201 -0.7604 -0.3169  2.0838
 8165SOL     OW35423   1.322   4.853   4.644 -0.9093 -0.9037 -0.1488
 8165SOL    HW135424   1.404   4.908   4.663 -0.5505 -0.7029 -2.1694
 8165SOL    HW235425   1.254   4.869   4.716 -0.7875  2.1014 -0.6368
 8166SOL     OW35426   4.488   6.284   1.974 -0.8111  0.0407 -0.2161
 8166SOL    HW135427   4.580   6.245   1.967 -0.9316 -0.2063 -0.4437
 8166SOL    HW235428   4.449   6.294   1.882 -0.8413  0.5489 -0.1462
 8167SOL     OW35429   5.284   4.011   2.324  0.1741 -0.2328  0.2481
 8167SOL    HW135430   5.378   4.006   2.291  0.2543  1.5239  0.1205
 8167SOL    HW235431   5.224   4.039   2.248 -0.0038  1.4895  1.0053
 8168SOL     OW35432   4.820   2.249   1.200  0.1133 -0.1978  0.2519
 8168SOL    HW135433   4.827   2.296   1.112 -0.0556  0.4471  0.5800
 8168SOL    HW235434   4.886   2.288   1.264 -0.3896 -0.0498  0.6816
 8169SOL     OW35435   9.427   6.181   1.566 -0.5639 -0.6079 -0.4645
 8169SOL    HW135436   9.438   6.214   1.660 -1.0279 -1.9259  0.0591
 8169SOL    HW235437   9.514   6.190   1.518 -0.9042  2.2939 -0.6518
 8170SOL     OW35438   0.828   1.246   5.413  0.1213  0.2550  0.0593
 8170SOL    HW135439   0.821   1.193   5.329 -0.7567 -0.5921  0.6605
 8170SOL    HW235440   0.738   1.282   5.438  0.4168  0.6888  0.5186
 8171SOL     OW35441   5.605   8.766   4.102 -0.2022 -0.8042 -0.4312
 8171SOL    HW135442   5.663   8.735   4.027  3.0248  1.1161  1.1782
 8171SOL    HW235443   5.629   8.717   4.185 -0.6243  0.3080  0.3508
 8172SOL     OW35444   8.995   5.283   1.263  0.2285  0.0096  0.1088
 8172SOL    HW135445   8.921   5.306   1.326  0.4825  1.0297  0.0483
 8172SOL    HW235446   9.052   5.364   1.249  0.2936 -0.2737 -1.2660
 8173SOL     OW35447   1.757   5.275   4.469 -0.2294  0.8504  0.0715
 8173SOL    HW135448   1.661   5.278   4.498  0.2225  1.6039  1.5306
 8173SOL    HW235449   1.816   5.259   4.548  0.8794  0.5829 -0.7876
 8174SOL     OW35450   7.514   8.319   2.892  0.5739  0.1734 -0.0415
 8174SOL    HW135451   7.458   8.310   2.975  0.2701  0.7474 -0.1816
 8174SOL    HW235452   7.487   8.401   2.842 -0.9822 -1.5409 -2.0651
 8175SOL     OW35453   2.041   5.726   1.341  0.3355 -0.5299  0.2564
 8175SOL    HW135454   1.942   5.707   1.344  0.5940 -1.6353  4.1597
 8175SOL    HW235455   2.085   5.658   1.282 -1.1690 -0.1431 -1.3848
 8176SOL     OW35456   3.125   6.922   5.000 -0.4592 -0.0469  0.2957
 8176SOL    HW135457   3.211   6.880   4.969  0.1308  1.9953 -0.9426
 8176SOL    HW235458   3.066   6.937   4.921 -0.4958  1.7848  0.6578
 8177SOL     OW35459   1.428   1.723   5.258  0.4594 -0.4023  0.0948
 8177SOL    HW135460   1.337   1.748   5.290  0.4331  0.7863 -0.8799
 8177SOL    HW235461   1.490   1.715   5.336  0.2012  1.6444  0.5217
 8178SOL     OW35462   2.226   5.081   4.531  0.7595 -0.4383 -0.9871
 8178SOL    HW135463   2.299   5.015   4.514 -0.9104 -2.4809 -0.3997
 8178SOL    HW235464   2.245   5.131   4.616  1.5734 -0.8311 -0.9369
 8179SOL     OW35465   1.386   7.206   4.967 -0.2573  0.1858 -0.2481
 8179SOL    HW135466   1.402   7.108   4.949  0.0363  0.1164  0.4007
 8179SOL    HW235467   1.313   7.216   5.034 -0.8037  0.4375 -0.8699
 8180SOL     OW35468   1.175   1.807   5.290  0.2183  1.0774 -0.1454
 8180SOL    HW135469   1.170   1.815   5.389 -1.4626  2.9112 -0.3595
 8180SOL    HW235470   1.209   1.892   5.251  1.4800  0.1466 -1.1091
 8181SOL     OW35471   3.584   4.662   3.164 -0.0698 -0.9293  0.0443
 8181SOL    HW135472   3.585   4.748   3.112  0.7843 -0.2694  1.1358
 8181SOL    HW235473   3.500   4.612   3.142 -0.4763  0.0789 -0.7726
 8182SOL     OW35474   8.478   3.730   4.456 -0.4691  0.2119  0.2803
 8182SOL    HW135475   8.491   3.819   4.412  0.5549 -1.0955 -2.1606
 8182SOL    HW235476   8.524   3.729   4.545  0.8351  1.6113 -0.3673
 8183SOL     OW35477   4.281   4.078   1.391 -0.0786  0.2254  0.1090
 8183SOL    HW135478   4.223   4.001   1.365 -0.8769  1.2008 -1.0732
 8183SOL    HW235479   4.238   4.129   1.465  1.0001 -1.0953  1.7032
 8184SOL     OW35480   1.810   0.827   4.066 -0.4373  0.6938 -0.4175
 8184SOL    HW135481   1.749   0.754   4.036 -0.3059  0.1491  0.6155
 8184SOL    HW235482   1.896   0.787   4.098 -0.3006  1.3149 -0.0091
 8185SOL     OW35483   1.669   7.742   4.149 -0.0726  0.0020 -0.3173
 8185SOL    HW135484   1.689   7.646   4.167 -0.1559  0.0655  0.1254
 8185SOL    HW235485   1.677   7.795   4.234  1.0542  0.5730 -0.7667
 8186SOL     OW35486   5.270   2.267   2.238 -0.1611  0.0277 -0.6216
 8186SOL    HW135487   5.359   2.256   2.284  0.3202  0.0594 -1.5333
 8186SOL    HW235488   5.205   2.201   2.275  0.1858  0.1368  0.1927
 8187SOL     OW35489   6.005   9.957   3.820  0.3622 -0.5785 -0.0503
 8187SOL    HW135490   5.996  10.041   3.874  1.1718  0.1111 -0.9801
 8187SOL    HW235491   5.984   9.878   3.879  0.2877  0.2156  1.0159
 8188SOL     OW35492   0.239   0.795   2.880  0.0992  0.3176 -0.5035
 8188SOL    HW135493   0.304   0.751   2.818 -1.4184  0.6953 -2.4290
 8188SOL    HW235494   0.224   0.737   2.960  2.0994 -0.1829 -0.4799
 8189SOL     OW35495   6.229   9.584   4.177  0.1505 -0.2673  0.5299
 8189SOL    HW135496   6.159   9.656   4.188  0.3907  0.3956 -1.9425
 8189SOL    HW235497   6.183   9.497   4.159 -0.0815 -0.2436  0.9829
 8190SOL     OW35498   1.335   8.917   4.701 -0.2092 -0.5477  0.5990
 8190SOL    HW135499   1.342   9.012   4.731 -1.3449 -0.2690  0.0115
 8190SOL    HW235500   1.289   8.863   4.771 -0.5775 -0.4250  0.4537
 8191SOL     OW35501   1.147   1.707   2.921  0.1603  0.1059 -0.1343
 8191SOL    HW135502   1.141   1.777   2.992  0.5744 -0.3221  0.3379
 8191SOL    HW235503   1.072   1.642   2.932 -1.3344  1.5351 -1.7550
 8192SOL     OW35504   1.101   1.737   0.232  0.3257 -0.3559  0.0207
 8192SOL    HW135505   1.087   1.829   0.196  0.9975 -0.7928 -1.4076
 8192SOL    HW235506   1.040   1.721   0.309  1.0563  1.7172  1.0551
 8193SOL     OW35507   9.565   2.623   3.815  0.2209  0.3915  0.2832
 8193SOL    HW135508   9.507   2.637   3.734  1.2508 -0.1358 -0.5629
 8193SOL    HW235509   9.660   2.645   3.792  0.5377  0.1381  1.3288
 8194SOL     OW35510   3.141   3.656   2.345 -0.1490  0.0351  0.0948
 8194SOL    HW135511   3.153   3.752   2.374 -2.6299 -0.0078  1.4399
 8194SOL    HW235512   3.069   3.652   2.276 -0.2545 -0.8778  0.2608
 8195SOL     OW35513   1.059   0.160   3.061 -0.3856 -0.3568 -0.2496
 8195SOL    HW135514   1.092   0.203   3.145  1.8114 -3.3900  0.5454
 8195SOL    HW235515   1.111   0.196   2.983  1.4213 -1.4864  0.4004
 8196SOL     OW35516   8.066   9.762   4.176  0.0623 -0.2238 -0.5016
 8196SOL    HW135517   8.057   9.673   4.219 -0.1809 -1.1712 -2.4732
 8196SOL    HW235518   8.144   9.762   4.113  0.2204  1.0303 -0.3342
 8197SOL     OW35519   2.636   2.317   0.684 -0.1735  0.2080  0.5988
 8197SOL    HW135520   2.633   2.275   0.774  0.9224 -0.0722  0.5093
 8197SOL    HW235521   2.543   2.338   0.654 -0.5659 -0.0391  1.6273
 8198SOL     OW35522   1.611   4.305   2.313  0.5632  0.0350  0.1168
 8198SOL    HW135523   1.668   4.225   2.294 -0.0979 -0.2259 -0.7684
 8198SOL    HW235524   1.583   4.348   2.227  0.1815  0.6990  0.5680
 8199SOL     OW35525   3.165   4.494   1.598 -0.3341  0.4395 -0.1702
 8199SOL    HW135526   3.069   4.472   1.615 -0.0334 -0.7797 -0.0090
 8199SOL    HW235527   3.215   4.411   1.572  0.9380  0.8346  0.9247
 8200SOL     OW35528   7.227   5.336   4.671  0.0910 -0.0644 -0.1792
 8200SOL    HW135529   7.261   5.388   4.592  0.0674  0.7645  0.3413
 8200SOL    HW235530   7.304   5.306   4.726 -0.0205  3.7278  2.2038
 8201SOL     OW35531   2.685   4.580   1.362 -0.2352  0.2424  0.3134
 8201SOL    HW135532   2.651   4.534   1.281  0.6536  1.3311 -0.7013
 8201SOL    HW235533   2.777   4.547   1.383 -0.0061  0.8019  0.1925
 8202SOL     OW35534   8.063   0.620   2.409 -0.2886 -0.2322 -0.1579
 8202SOL    HW135535   8.079   0.521   2.405  0.5177 -0.0937 -0.5107
 8202SOL    HW235536   8.059   0.657   2.316 -0.4617  0.0827 -0.0258
 8203SOL     OW35537   9.517   5.048   1.568 -0.0069 -0.0874 -0.2165
 8203SOL    HW135538   9.443   4.988   1.539 -0.2842  0.9464 -1.6797
 8203SOL    HW235539   9.493   5.090   1.656 -0.8548 -0.2781 -0.3518
 8204SOL     OW35540   9.638   8.505   1.786  0.2540 -0.1499  0.2864
 8204SOL    HW135541   9.721   8.477   1.834  0.6578 -0.2238 -0.4380
 8204SOL    HW235542   9.604   8.429   1.730 -0.5845 -0.2794  0.9542
 8205SOL     OW35543   3.578   0.353   4.859  0.1311 -0.0149 -0.1882
 8205SOL    HW135544   3.571   0.350   4.959 -0.2176  0.8177 -0.1817
 8205SOL    HW235545   3.568   0.261   4.822 -0.5996 -0.2198  0.4955
 8206SOL     OW35546   1.565   0.446   4.402  0.2705  0.5432 -0.0133
 8206SOL    HW135547   1.570   0.349   4.377 -1.4143  1.0753 -2.6719
 8206SOL    HW235548   1.649   0.492   4.374  0.1675  0.2593 -0.8135
 8207SOL     OW35549   5.278   8.161   3.299 -0.3673  0.7738  0.0291
 8207SOL    HW135550   5.301   8.191   3.392 -0.8298 -0.8490  0.6755
 8207SOL    HW235551   5.229   8.074   3.302  0.7336  0.0348 -1.7929
 8208SOL     OW35552   2.179   3.002   3.316  0.0307 -0.5167  0.3194
 8208SOL    HW135553   2.183   3.065   3.393 -2.3398 -0.2994  0.2915
 8208SOL    HW235554   2.187   2.908   3.349  0.7338 -0.3424  0.6500
 8209SOL     OW35555   2.460   0.036   2.823 -0.4089  0.3426 -0.3991
 8209SOL    HW135556   2.420   0.086   2.899  0.0890  0.1219  0.0109
 8209SOL    HW235557   2.393  -0.031   2.788 -0.2273 -0.3694  0.6007
 8210SOL     OW35558   1.032   7.838   4.060 -0.4415 -0.2759  0.1054
 8210SOL    HW135559   1.112   7.898   4.062 -0.8157  0.2379 -0.0432
 8210SOL    HW235560   1.038   7.775   3.983 -0.2012 -0.2002  0.0639
 8211SOL     OW35561   2.618   0.988   4.944 -0.2386 -0.2236 -0.8782
 8211SOL    HW135562   2.534   1.038   4.967  0.2158  0.7202 -1.2330
 8211SOL    HW235563   2.632   0.991   4.845  0.1107 -0.5408 -0.8387
 8212SOL     OW35564   0.195   1.266   0.413  0.0944 -0.0026  0.1653
 8212SOL    HW135565   0.129   1.239   0.483  1.5217  0.8145  1.8769
 8212SOL    HW235566   0.239   1.353   0.440 -0.6226  1.2863 -2.6264
 8213SOL     OW35567   2.537   4.719   2.651 -0.0452 -0.2642  0.2678
 8213SOL    HW135568   2.461   4.737   2.589  1.5349  0.8716 -1.3981
 8213SOL    HW235569   2.563   4.804   2.698  0.6031 -0.4957  0.3363
 8214SOL     OW35570   0.203   5.701   4.483 -0.2450 -0.3794  0.2238
 8214SOL    HW135571   0.210   5.797   4.509 -0.9706 -0.4938  0.8746
 8214SOL    HW235572   0.292   5.657   4.494 -0.4197 -0.3107  2.1206
 8215SOL     OW35573   0.950   6.977   3.406 -0.9117 -0.3874  0.2323
 8215SOL    HW135574   0.930   6.952   3.501 -1.6932 -0.9712 -0.0816
 8215SOL    HW235575   1.014   7.054   3.405  0.8629 -1.8388  1.2027
 8216SOL     OW35576   1.660   0.776   4.578  0.1821  0.5055  0.3909
 8216SOL    HW135577   1.588   0.841   4.553 -0.1096 -0.1497 -0.5215
 8216SOL    HW235578   1.740   0.791   4.521 -0.5018 -1.0287 -1.0185
 8217SOL     OW35579   8.993   0.870   4.388 -0.6815 -0.2813 -0.5197
 8217SOL    HW135580   8.958   0.963   4.376 -1.1281 -0.3074  0.5568
 8217SOL    HW235581   9.047   0.865   4.472  0.4960 -0.6678 -1.2803
 8218SOL     OW35582   4.439   5.134   0.227 -1.0145  0.1615  0.6372
 8218SOL    HW135583   4.429   5.200   0.302 -1.8985 -0.1691  0.8143
 8218SOL    HW235584   4.514   5.071   0.248 -0.6182  0.6720  0.7870
 8219SOL     OW35585   4.662   9.197   4.543 -0.1981  0.2331  0.0164
 8219SOL    HW135586   4.623   9.288   4.527 -0.0903  0.4908  1.1976
 8219SOL    HW235587   4.667   9.179   4.641 -1.8353 -1.7555 -0.2304
 8220SOL     OW35588   4.517   7.622   2.720  0.4196 -0.2852  0.1966
 8220SOL    HW135589   4.474   7.555   2.781  1.8147 -2.7520 -1.4624
 8220SOL    HW235590   4.521   7.585   2.627 -1.4427  3.3062 -1.4066
 8221SOL     OW35591   3.370   4.278   1.571  0.0440 -0.1262 -0.3508
 8221SOL    HW135592   3.458   4.234   1.586 -0.7357 -0.5433  3.4027
 8221SOL    HW235593   3.303   4.210   1.542  0.4205 -0.1978 -1.0611
 8222SOL     OW35594   3.891   3.990   4.818 -0.0328 -0.1744 -0.2158
 8222SOL    HW135595   3.836   3.911   4.842  0.3791 -0.5193 -0.4102
 8222SOL    HW235596   3.913   3.987   4.720  0.8747 -0.3795 -0.0113
 8223SOL     OW35597   2.524   2.997   1.717 -0.0694 -0.1808  0.1030
 8223SOL    HW135598   2.486   3.020   1.628 -0.9734 -1.1050  0.2351
 8223SOL    HW235599   2.454   3.012   1.788  0.1961 -0.7599  0.4914
 8224SOL     OW35600   8.397   1.551   3.176 -0.1340 -0.4841  0.0063
 8224SOL    HW135601   8.483   1.501   3.180  0.1318  0.0853  1.6337
 8224SOL    HW235602   8.415   1.648   3.160 -0.3795 -0.1308  1.7765
 8225SOL     OW35603   6.096   0.355   2.984  0.0685  0.4302  0.5426
 8225SOL    HW135604   6.134   0.413   2.912  0.3751  1.5109  1.5713
 8225SOL    HW235605   6.146   0.268   2.987 -0.2537  0.1803 -0.8541
 8226SOL     OW35606   1.732   7.152   3.309  0.5003 -0.5425  0.2962
 8226SOL    HW135607   1.750   7.054   3.307 -1.2518 -0.8458 -1.7866
 8226SOL    HW235608   1.634   7.168   3.319  0.7927  1.0118  0.8548
 8227SOL     OW35609   4.306   3.171   0.382  0.3699 -0.1382 -0.5613
 8227SOL    HW135610   4.337   3.095   0.324  2.3518  0.2048  0.0005
 8227SOL    HW235611   4.364   3.176   0.464 -0.6728  1.0788  0.1208
 8228SOL     OW35612   3.534   1.766   4.185 -0.0419  0.5342  0.1242
 8228SOL    HW135613   3.438   1.770   4.214 -0.0054  0.2205  0.2935
 8228SOL    HW235614   3.549   1.829   4.109 -0.2750  0.9289  0.4062
 8229SOL     OW35615   3.442   8.208   3.079  0.4211 -0.2179  0.4559
 8229SOL    HW135616   3.412   8.124   3.125 -1.5071 -1.5567 -3.0679
 8229SOL    HW235617   3.536   8.196   3.046  0.3769 -0.7244  0.5166
 8230SOL     OW35618   0.403   7.724   1.385 -0.4695 -0.0711  0.3280
 8230SOL    HW135619   0.400   7.680   1.295 -2.0119 -0.2495  0.4584
 8230SOL    HW235620   0.459   7.668   1.447 -1.4559 -1.2531  0.1707
 8231SOL     OW35621   0.499   4.844   1.296  0.7166 -0.3641 -0.0161
 8231SOL    HW135622   0.544   4.834   1.207  1.4476 -0.8586  0.3994
 8231SOL    HW235623   0.558   4.898   1.357 -0.0602  0.5111 -0.0224
 8232SOL     OW35624   0.238   4.647   0.816 -0.3012 -0.0711 -0.3355
 8232SOL    HW135625   0.267   4.567   0.763  2.1345  0.4541  0.1570
 8232SOL    HW235626   0.260   4.730   0.765 -1.2958  0.3446 -0.0954
 8233SOL     OW35627   0.979   3.081   4.113  0.0165  0.1186  0.0402
 8233SOL    HW135628   0.969   3.033   4.026 -1.3824 -0.2022  0.3759
 8233SOL    HW235629   0.892   3.083   4.161  0.2042  2.4333  0.3361
 8234SOL     OW35630   9.870   6.363   5.211 -0.6264  0.5688 -0.0667
 8234SOL    HW135631   9.914   6.396   5.127 -0.7512  2.1429  0.4677
 8234SOL    HW235632   9.777   6.399   5.216 -1.2774 -1.0879 -0.1836
 8235SOL     OW35633   8.385   0.474   3.794  0.2426 -0.3579  0.1937
 8235SOL    HW135634   8.315   0.425   3.743 -0.8672  2.4327 -1.0407
 8235SOL    HW235635   8.349   0.502   3.883 -1.1370  3.2214 -1.4044
 8236SOL     OW35636   2.109   9.721   2.013 -0.0820  0.1336 -0.5577
 8236SOL    HW135637   2.150   9.703   2.103  1.0815  0.4262 -1.0126
 8236SOL    HW235638   2.010   9.715   2.020  0.0368 -0.9113  0.5136
 8237SOL     OW35639   1.300   0.670   2.287 -0.4489 -0.0396  0.8591
 8237SOL    HW135640   1.295   0.728   2.369  1.7056  0.1627  0.8570
 8237SOL    HW235641   1.248   0.714   2.213  0.0425  1.2322  1.2477
 8238SOL     OW35642   3.799   9.562   2.797  0.1586  0.3239 -0.2302
 8238SOL    HW135643   3.803   9.656   2.830  1.1132 -0.5192  2.1510
 8238SOL    HW235644   3.888   9.535   2.762  0.1364 -0.0019 -0.0375
 8239SOL     OW35645   9.491   9.367   2.377 -0.3093 -0.6862 -0.0302
 8239SOL    HW135646   9.505   9.361   2.278 -1.9458 -2.3447 -0.1928
 8239SOL    HW235647   9.393   9.372   2.397  0.0566  0.7766  1.4711
 8240SOL     OW35648   4.775   0.119   1.523  0.2459  0.1190 -0.0818
 8240SOL    HW135649   4.814   0.120   1.615  0.8974  0.2523 -0.3537
 8240SOL    HW235650   4.849   0.124   1.455 -0.1491 -1.3301 -0.6365
 8241SOL     OW35651   5.577   1.615   2.501 -0.7944  0.0368 -0.5134
 8241SOL    HW135652   5.600   1.547   2.571 -0.8039  0.4939 -0.0661
 8241SOL    HW235653   5.660   1.648   2.458 -0.6642  1.0134  0.4688
 8242SOL     OW35654   8.794   8.939   4.772  0.2102  0.8529 -0.3502
 8242SOL    HW135655   8.782   9.035   4.747 -0.1878  0.5363 -1.3770
 8242SOL    HW235656   8.740   8.881   4.711 -0.1425  0.0208  0.7315
 8243SOL     OW35657   2.187   2.074   3.943 -0.4106  0.1456 -0.2416
 8243SOL    HW135658   2.233   2.034   4.022  0.5143 -0.1886 -0.9372
 8243SOL    HW235659   2.243   2.149   3.906 -1.6328  1.3996  0.4178
 8244SOL     OW35660   2.439   9.414   3.329 -0.2512  0.5345 -0.4090
 8244SOL    HW135661   2.373   9.476   3.286 -2.0259 -0.0018  1.5216
 8244SOL    HW235662   2.452   9.439   3.424  1.5265 -0.0535 -0.4750
 8245SOL     OW35663   3.505   4.019   3.625  0.1327 -0.2065  0.3391
 8245SOL    HW135664   3.443   4.096   3.607  1.3287  0.7255  0.1350
 8245SOL    HW235665   3.488   3.946   3.560  0.9753  1.0819 -1.3499
 8246SOL     OW35666   0.993   9.464   3.256  0.2603 -0.4771 -0.3286
 8246SOL    HW135667   0.976   9.472   3.355  0.6322  1.3687 -0.3929
 8246SOL    HW235668   1.021   9.553   3.220  0.6735 -1.2698 -2.0071
 8247SOL     OW35669   0.422   7.850   0.097 -0.4074  1.1306  0.1273
 8247SOL    HW135670   0.508   7.865   0.146  0.7875 -0.5996 -1.3214
 8247SOL    HW235671   0.345   7.869   0.157  0.9983  1.4197  1.8826
 8248SOL     OW35672   7.099   8.178   2.273  0.1338 -0.3997 -0.0028
 8248SOL    HW135673   7.024   8.244   2.273  1.4979  1.2308 -1.2293
 8248SOL    HW235674   7.127   8.159   2.179 -0.1446 -2.6550  0.3474
 8249SOL     OW35675   8.322   7.092   3.204  0.0612  0.5363 -0.3044
 8249SOL    HW135676   8.307   7.081   3.106 -0.4363  1.5919 -0.3535
 8249SOL    HW235677   8.406   7.144   3.219 -0.8657  2.0202 -0.2168
 8250SOL     OW35678   8.677   1.053   0.187 -0.2441  0.6834 -0.0464
 8250SOL    HW135679   8.730   1.056   0.272 -1.2062 -0.9187  0.6395
 8250SOL    HW235680   8.652   0.958   0.167 -0.6159  1.1278 -1.7568
 8251SOL     OW35681   2.202   7.965   1.856  0.1044  0.3008 -0.4952
 8251SOL    HW135682   2.146   8.012   1.924 -0.2076 -2.4186  1.1910
 8251SOL    HW235683   2.151   7.888   1.817  1.3786 -0.0278 -1.5887
 8252SOL     OW35684   3.084   0.054   1.682  0.5247 -0.9285 -0.2398
 8252SOL    HW135685   3.098  -0.009   1.758  0.6857  0.3785  0.8254
 8252SOL    HW235686   3.163   0.114   1.673 -0.2601  0.1075 -0.3017
 8253SOL     OW35687   2.615   2.426   5.182  0.1096 -0.0443 -0.0232
 8253SOL    HW135688   2.536   2.397   5.128 -0.7607  1.8709  0.1467
 8253SOL    HW235689   2.595   2.415   5.279  0.2066  0.0532  0.0082
 8254SOL     OW35690   7.619   9.612   3.986 -0.6030  0.4789  0.2089
 8254SOL    HW135691   7.670   9.663   3.917  1.3181 -1.0915  0.4291
 8254SOL    HW235692   7.644   9.645   4.077  0.4148 -0.6338  0.3402
 8255SOL     OW35693   4.738   7.947   3.118  0.3212 -0.1300  0.3994
 8255SOL    HW135694   4.799   7.878   3.080  0.9094  1.2677 -1.2923
 8255SOL    HW235695   4.793   8.019   3.161 -0.1575  0.7320 -0.4201
 8256SOL     OW35696   2.987   2.753   4.213 -0.1926  0.0302  0.4509
 8256SOL    HW135697   2.963   2.670   4.162  0.4957 -0.1964  0.4765
 8256SOL    HW235698   2.936   2.831   4.178  0.8060  0.0167 -1.0770
 8257SOL     OW35699   1.044   8.718   5.263  0.4396  0.7213 -0.0963
 8257SOL    HW135700   1.076   8.805   5.227 -2.7113  1.6967 -0.7115
 8257SOL    HW235701   1.003   8.664   5.189  0.8646 -0.5595  0.5869
 8258SOL     OW35702   9.663   8.412   2.944 -0.4594  0.2148  0.7777
 8258SOL    HW135703   9.574   8.393   2.985 -0.8548 -2.5900 -1.2381
 8258SOL    HW235704   9.710   8.326   2.925  1.6482  1.5860 -0.4546
 8259SOL     OW35705   9.977   8.993   3.834 -0.2443 -0.0278 -0.1505
 8259SOL    HW135706  10.077   8.998   3.838 -0.2570  0.8614 -0.8626
 8259SOL    HW235707   9.950   8.922   3.770 -0.0647  0.8591 -1.2178
 8260SOL     OW35708   8.659   8.557   3.016 -0.2390 -0.6833  0.2284
 8260SOL    HW135709   8.584   8.557   3.083  0.0600 -1.2578  0.5718
 8260SOL    HW235710   8.657   8.471   2.965  0.9134 -1.2084  1.0643
 8261SOL     OW35711   3.822   9.133   5.304  0.2691 -0.2153  0.5944
 8261SOL    HW135712   3.793   9.195   5.377 -0.9303 -0.2318  0.1422
 8261SOL    HW235713   3.767   9.149   5.223  1.8989  0.1101 -0.4733
 8262SOL     OW35714   8.788   3.297   0.592  0.0883  0.1285 -0.1074
 8262SOL    HW135715   8.693   3.305   0.561  0.3526  0.3899 -0.8558
 8262SOL    HW235716   8.809   3.373   0.653 -0.2870 -0.1195  0.3370
 8263SOL     OW35717   5.266   9.856   3.444  0.6336 -0.1524  0.0136
 8263SOL    HW135718   5.268   9.956   3.448  0.7037 -0.1767  0.7238
 8263SOL    HW235719   5.244   9.827   3.351 -1.8214  0.5436  0.3486
 8264SOL     OW35720   2.148   2.633   1.261 -0.6438  0.0571  0.4701
 8264SOL    HW135721   2.087   2.563   1.299 -3.2716  0.6056 -2.5466
 8264SOL    HW235722   2.162   2.705   1.329 -2.1733 -0.8251  1.7552
 8265SOL     OW35723   0.846   3.501   1.003  0.1198 -0.4211 -0.1068
 8265SOL    HW135724   0.820   3.562   0.927  0.2619 -0.4145 -0.1490
 8265SOL    HW235725   0.773   3.434   1.017  0.0660 -0.3848 -0.2102
 8266SOL     OW35726   7.018   6.758   3.522  0.3244  0.1441  0.1453
 8266SOL    HW135727   7.009   6.742   3.424 -0.8412  1.8102 -0.0346
 8266SOL    HW235728   7.114   6.747   3.549  0.5934 -0.6788 -1.0990
 8267SOL     OW35729   9.428   4.770   2.594 -0.0828  0.1256 -0.7202
 8267SOL    HW135730   9.400   4.681   2.558 -0.3480 -0.5874  1.1772
 8267SOL    HW235731   9.349   4.816   2.634  0.2839  0.7248 -0.6788
 8268SOL     OW35732   0.820   1.923   0.778  0.3971  0.0917  0.0066
 8268SOL    HW135733   0.817   1.969   0.689 -1.1089 -0.1883 -0.1014
 8268SOL    HW235734   0.877   1.976   0.841  1.3607  0.3642 -1.0825
 8269SOL     OW35735   6.621   7.753   2.676 -0.3873  0.4381 -0.7501
 8269SOL    HW135736   6.642   7.783   2.769 -1.5810 -0.1041 -0.2954
 8269SOL    HW235737   6.704   7.718   2.632  0.1711  0.6617  0.1262
 8270SOL     OW35738   6.167   9.563   2.115  0.2141 -0.0516 -0.2522
 8270SOL    HW135739   6.069   9.550   2.101  0.0700 -0.0771  0.7421
 8270SOL    HW235740   6.218   9.519   2.042 -0.4895 -0.7246 -0.3381
 8271SOL     OW35741   2.905   6.400   2.516  0.7012  0.5123  0.0011
 8271SOL    HW135742   2.888   6.484   2.569  0.4803 -0.9106  2.2731
 8271SOL    HW235743   2.817   6.362   2.488  0.7015 -0.0135  0.7006
 8272SOL     OW35744   5.469   0.547   2.318  0.2265 -0.0594 -0.7430
 8272SOL    HW135745   5.555   0.573   2.360 -0.6605  0.2045  0.9157
 8272SOL    HW235746   5.479   0.457   2.275  0.9859 -0.5638  0.4838
 8273SOL     OW35747   7.356   8.810   4.523 -0.2439  0.1272  0.6420
 8273SOL    HW135748   7.438   8.800   4.467 -0.3162  0.4911  0.4701
 8273SOL    HW235749   7.378   8.860   4.606 -0.2178 -0.0777  0.7580
 8274SOL     OW35750   8.308   6.594   4.382  0.1815  0.2958 -0.2524
 8274SOL    HW135751   8.252   6.511   4.389 -1.1192  1.0204 -1.6742
 8274SOL    HW235752   8.402   6.569   4.361 -0.2389 -0.8218 -0.8644
 8275SOL     OW35753   2.412   1.061   3.664  0.1232 -0.1198  0.1759
 8275SOL    HW135754   2.508   1.059   3.693 -0.9312  1.2015  4.0155
 8275SOL    HW235755   2.357   1.010   3.729 -1.9168 -0.4237 -1.7260
 8276SOL     OW35756   3.262   2.973   3.325 -0.1997  0.3031 -0.0240
 8276SOL    HW135757   3.315   2.958   3.241 -0.3916  2.0290 -0.4657
 8276SOL    HW235758   3.189   3.039   3.307  0.1743  1.2119  1.6770
 8277SOL     OW35759   6.580   0.589   1.304  0.2094 -0.4228 -0.4410
 8277SOL    HW135760   6.583   0.560   1.400  0.7181  1.3190  0.0745
 8277SOL    HW235761   6.566   0.688   1.299 -0.0676 -0.5350 -2.1793
 8278SOL     OW35762   7.279   9.185   2.108  0.1404 -0.7518 -0.0494
 8278SOL    HW135763   7.288   9.267   2.051  0.7827 -0.9573 -0.2421
 8278SOL    HW235764   7.361   9.175   2.165 -0.9025  0.0138  1.6557
 8279SOL     OW35765   9.128   5.560   0.251 -1.1109  0.1431 -0.2695
 8279SOL    HW135766   9.100   5.634   0.312  0.4611 -0.8126  1.6593
 8279SOL    HW235767   9.047   5.520   0.208 -1.9395  3.3298 -1.7865
 8280SOL     OW35768   6.705   4.550   0.210 -0.6736 -0.2209  0.8821
 8280SOL    HW135769   6.708   4.597   0.298  1.2733 -1.6960  1.6122
 8280SOL    HW235770   6.783   4.577   0.154 -1.0459 -0.4997  0.2100
 8281SOL     OW35771   0.312   6.740   0.437 -0.5501  0.0549 -0.1840
 8281SOL    HW135772   0.274   6.822   0.392 -0.6433  0.6308  0.9375
 8281SOL    HW235773   0.285   6.740   0.533  0.8585 -0.4313  0.2115
 8282SOL     OW35774   3.365   2.937   5.505 -0.4528 -0.3203 -0.3012
 8282SOL    HW135775   3.351   2.843   5.536 -1.3891  0.4541  1.6871
 8282SOL    HW235776   3.282   2.990   5.520  1.0972  1.6251  1.6183
 8283SOL     OW35777   9.597   0.317   3.899  0.3470  0.1493 -0.1312
 8283SOL    HW135778   9.576   0.251   3.827 -1.2992  1.9273 -1.3333
 8283SOL    HW235779   9.512   0.360   3.931  1.4182  2.1708  0.1195
 8284SOL     OW35780   8.809   3.162   5.272  0.2269  0.1572  0.3237
 8284SOL    HW135781   8.881   3.208   5.323  0.1786  2.2691 -1.4232
 8284SOL    HW235782   8.849   3.096   5.208  0.3812 -1.1706  1.7653
 8285SOL     OW35783   3.983   1.970   0.875  0.5306 -0.3674  0.2917
 8285SOL    HW135784   4.047   2.037   0.912  0.4449 -1.0957  1.8322
 8285SOL    HW235785   4.011   1.878   0.904 -1.6924 -0.6242  1.7761
 8286SOL     OW35786   8.600   1.609   0.400  0.2543  0.0472 -0.2846
 8286SOL    HW135787   8.589   1.554   0.483  1.8006  0.0922 -0.0368
 8286SOL    HW235788   8.677   1.672   0.412 -0.6299  1.3123 -1.0851
 8287SOL     OW35789   0.225   8.800   0.567 -0.0651 -0.5739 -0.2059
 8287SOL    HW135790   0.236   8.702   0.582 -0.2837 -0.9546 -2.3712
 8287SOL    HW235791   0.128   8.824   0.572  0.0218 -0.3951  0.6924
 8288SOL     OW35792   3.513   1.432   3.977 -0.1509  0.1994  0.1257
 8288SOL    HW135793   3.516   1.375   3.895  0.9641  0.7425 -0.2135
 8288SOL    HW235794   3.430   1.490   3.974 -0.4898 -0.3038 -0.2562
 8289SOL     OW35795   2.122   1.542   5.429 -0.2478 -0.7708  0.4937
 8289SOL    HW135796   2.144   1.449   5.457  2.5844 -0.3565 -0.2377
 8289SOL    HW235797   2.158   1.607   5.496 -0.9233 -0.1398  0.2524
 8290SOL     OW35798   8.662   1.640   5.507  0.6387  0.0505 -0.0926
 8290SOL    HW135799   8.723   1.611   5.581  0.1879  1.0678  0.6858
 8290SOL    HW235800   8.572   1.661   5.545  0.5673  1.1095 -0.8537
 8291SOL     OW35801   8.014   4.729   3.952  0.5290 -0.7619 -0.2642
 8291SOL    HW135802   8.045   4.746   4.045 -0.4277  0.3710 -0.1518
 8291SOL    HW235803   8.014   4.814   3.899  0.6870 -1.3192 -1.1879
 8292SOL     OW35804   3.309   8.947   3.200  0.5930 -0.3723 -0.2302
 8292SOL    HW135805   3.374   9.021   3.216 -0.3860  0.4613 -0.0054
 8292SOL    HW235806   3.232   8.957   3.262 -0.3394 -0.6214 -1.3206
 8293SOL     OW35807   7.963   8.926   1.129  0.2200 -0.4280 -0.4176
 8293SOL    HW135808   7.912   8.924   1.043  0.5636 -0.6562 -0.6194
 8293SOL    HW235809   7.904   8.898   1.204  0.2403 -1.3915 -0.7541
 8294SOL     OW35810   1.943   1.570   5.218 -0.3294 -0.1950 -0.6915
 8294SOL    HW135811   1.960   1.508   5.141 -0.3553 -1.7646  0.5354
 8294SOL    HW235812   2.012   1.553   5.289 -1.2803  0.1092  0.3062
 8295SOL     OW35813   1.526   4.357   0.094  0.2713  0.1916  0.0543
 8295SOL    HW135814   1.594   4.300   0.048 -1.2733 -0.6772 -1.2086
 8295SOL    HW235815   1.447   4.301   0.118 -0.2036  1.2836  1.0745
 8296SOL     OW35816   3.400   3.169   5.251  0.5845  0.2070 -0.0349
 8296SOL    HW135817   3.468   3.106   5.290  2.0953  1.3210 -0.8034
 8296SOL    HW235818   3.411   3.172   5.151 -1.6384 -0.7735 -0.3329
 8297SOL     OW35819   1.762   3.665   3.516 -0.3400  0.4418  0.1502
 8297SOL    HW135820   1.677   3.703   3.480 -0.0961 -2.2927 -3.5753
 8297SOL    HW235821   1.833   3.735   3.515 -1.1295  1.2597 -2.0942
 8298SOL     OW35822   7.718   0.316   3.742 -0.1647 -0.3105  0.1653
 8298SOL    HW135823   7.675   0.234   3.705 -0.2603  0.2881 -1.0915
 8298SOL    HW235824   7.670   0.344   3.826 -0.2680 -1.4033  0.4691
 8299SOL     OW35825   4.760   3.346   2.851 -0.0669 -0.0534 -0.5048
 8299SOL    HW135826   4.692   3.314   2.917  0.6175 -0.5003 -0.0072
 8299SOL    HW235827   4.787   3.270   2.791 -0.4178  0.2603 -1.0575
 8300SOL     OW35828   5.222   2.780   2.453  0.4497  0.1203  0.0160
 8300SOL    HW135829   5.279   2.757   2.375  0.0255 -1.9726  0.2833
 8300SOL    HW235830   5.134   2.816   2.421 -0.3822 -2.3065 -0.5661
 8301SOL     OW35831   7.218   1.121   2.848  0.3459  0.1921 -0.6592
 8301SOL    HW135832   7.133   1.150   2.891 -0.3143  0.0686 -1.8412
 8301SOL    HW235833   7.293   1.127   2.913 -0.0065  3.2907 -0.4910
 8302SOL     OW35834   9.696   4.840   3.408  0.6763 -0.3297  0.4245
 8302SOL    HW135835   9.717   4.843   3.506 -0.7826 -1.2120  0.7681
 8302SOL    HW235836   9.603   4.806   3.394  0.2555  1.4243 -1.2026
 8303SOL     OW35837   3.007   2.345   1.160 -0.1446 -0.4130  0.3179
 8303SOL    HW135838   2.937   2.387   1.103  0.4781 -0.3051 -0.3865
 8303SOL    HW235839   3.096   2.352   1.114  0.0132 -2.3137  0.2815
 8304SOL     OW35840   2.955   6.822   5.208  0.0273  0.1244  0.0436
 8304SOL    HW135841   2.996   6.851   5.122 -0.1768 -1.6609 -0.6772
 8304SOL    HW235842   2.858   6.804   5.194 -0.3066  1.1528  0.9767
 8305SOL     OW35843   8.122   2.412   1.866 -0.3201 -0.3419 -0.6190
 8305SOL    HW135844   8.024   2.423   1.887 -0.1684  0.0777 -0.1012
 8305SOL    HW235845   8.174   2.479   1.919  0.3693 -1.4571  0.1429
 8306SOL     OW35846   8.266   9.181   2.612  0.5551 -0.1063 -0.9028
 8306SOL    HW135847   8.244   9.247   2.684  0.7151 -1.7543  0.6955
 8306SOL    HW235848   8.300   9.229   2.531 -0.1124  1.8048 -0.0571
 8307SOL     OW35849   5.329   6.667   2.037 -0.1071 -0.1996  0.2118
 8307SOL    HW135850   5.343   6.575   2.001 -1.5804  0.0528 -1.0681
 8307SOL    HW235851   5.236   6.675   2.073  0.2602  0.5684  1.0178
 8308SOL     OW35852   9.596   8.139   3.404  0.7817 -0.1976  0.4483
 8308SOL    HW135853   9.571   8.107   3.313  0.0436  0.8720  0.2611
 8308SOL    HW235854   9.672   8.084   3.440 -0.8109 -2.5216  0.3848
 8309SOL     OW35855   1.138   1.526   1.662  0.1371  0.7178  0.3018
 8309SOL    HW135856   1.067   1.596   1.670  0.1008  0.9936 -2.0271
 8309SOL    HW235857   1.157   1.509   1.565  1.9534 -0.6777  0.8771
 8310SOL     OW35858   0.897   9.096   2.278  0.4068 -0.3919  0.1714
 8310SOL    HW135859   0.848   9.070   2.361 -0.1129 -3.1807 -0.9429
 8310SOL    HW235860   0.859   9.181   2.241 -1.3476 -0.7310  1.1573
 8311SOL     OW35861   3.164   6.742   2.420  0.6820  0.3012 -0.9874
 8311SOL    HW135862   3.087   6.784   2.372  0.1182 -0.8304 -1.0935
 8311SOL    HW235863   3.204   6.671   2.362  0.8959 -0.0971 -0.3490
 8312SOL     OW35864   9.006   0.153   5.490  0.3272 -0.0346 -0.0330
 8312SOL    HW135865   9.090   0.189   5.531  0.8978 -0.2575 -0.9819
 8312SOL    HW235866   9.029   0.106   5.405 -0.6172 -1.2255  0.3662
 8313SOL     OW35867   2.028   7.682   0.693  0.6302  0.0815 -0.1898
 8313SOL    HW135868   1.968   7.605   0.716  0.4773  0.8917  2.3216
 8313SOL    HW235869   1.994   7.765   0.738  1.9867  1.1752 -1.1311
 8314SOL     OW35870   4.549   8.668   2.057  0.0620 -0.0729  0.1198
 8314SOL    HW135871   4.470   8.681   1.996  1.7070 -3.2255 -2.8925
 8314SOL    HW235872   4.614   8.743   2.044 -0.2570  0.0139 -1.0311
 8315SOL     OW35873   5.224   9.125   3.090 -0.4752 -0.2764  1.0241
 8315SOL    HW135874   5.297   9.145   3.024 -0.2292  0.8914  1.6372
 8315SOL    HW235875   5.138   9.114   3.041 -0.9351  3.8537  0.7124
 8316SOL     OW35876   8.533   9.023   4.967 -0.4514  0.3404 -0.2731
 8316SOL    HW135877   8.613   9.049   5.020  0.0370 -0.3467 -0.6483
 8316SOL    HW235878   8.509   9.096   4.903  0.5916  0.0949 -0.9674
 8317SOL     OW35879   7.769   3.159   1.241  0.3955 -0.0875 -0.8532
 8317SOL    HW135880   7.830   3.124   1.312  0.4663  1.2690 -0.2137
 8317SOL    HW235881   7.675   3.128   1.260  0.2674  0.9560  0.3485
 8318SOL     OW35882   0.776   3.474   3.966 -0.0545 -0.3614 -0.3579
 8318SOL    HW135883   0.728   3.400   3.920  0.5476 -0.7022 -0.4394
 8318SOL    HW235884   0.731   3.494   4.053 -0.1284 -0.9212 -0.2666
 8319SOL     OW35885   9.603   3.548   4.170  0.0146 -0.0570 -0.1605
 8319SOL    HW135886   9.535   3.511   4.107  0.4798 -0.1949 -0.5815
 8319SOL    HW235887   9.623   3.643   4.146 -0.8067  0.3190  0.6137
 8320SOL     OW35888   7.179   8.737   4.294 -0.0716  0.3561 -0.0855
 8320SOL    HW135889   7.227   8.744   4.381 -0.6793  0.8055  0.2093
 8320SOL    HW235890   7.231   8.677   4.233  1.1627  1.2881  0.0326
 8321SOL     OW35891   9.751   1.358   5.060  0.3758  0.6330  0.3489
 8321SOL    HW135892   9.812   1.283   5.035  0.7166  0.8201  0.6093
 8321SOL    HW235893   9.666   1.321   5.099  0.0373  0.3579 -0.6495
 8322SOL     OW35894   9.099   3.117   0.046  0.8078  0.1983 -0.0768
 8322SOL    HW135895   9.091   3.019   0.068  1.3442  0.4713  1.3738
 8322SOL    HW235896   9.151   3.127  -0.039 -0.5190 -0.8402 -1.0324
 8323SOL     OW35897   5.873   0.843   1.639  0.1697  0.3671 -0.1553
 8323SOL    HW135898   5.815   0.824   1.560  1.8013 -0.2204 -1.2476
 8323SOL    HW235899   5.847   0.783   1.715  0.7844 -1.4683 -1.3587
 8324SOL     OW35900   1.206   3.027   2.524 -0.0806 -0.1081 -0.1253
 8324SOL    HW135901   1.278   3.068   2.469 -0.2648  1.2521  0.6034
 8324SOL    HW235902   1.189   2.934   2.494 -0.2986  0.6636 -2.4830
 8325SOL     OW35903   4.374   1.574   5.438 -0.1965 -0.4052 -0.1130
 8325SOL    HW135904   4.366   1.602   5.343 -0.5618  0.6084  0.2116
 8325SOL    HW235905   4.466   1.596   5.472 -0.0386 -0.8451 -0.2561
 8326SOL     OW35906   0.451   2.819   4.545  0.6760  0.5274 -0.1531
 8326SOL    HW135907   0.414   2.886   4.610 -0.9568  0.5302 -1.0541
 8326SOL    HW235908   0.522   2.765   4.590  1.0674  1.9476  0.9936
 8327SOL     OW35909   7.698   3.596   5.528 -0.3550  0.5550 -0.5319
 8327SOL    HW135910   7.642   3.519   5.497  0.6953 -0.0866 -0.8887
 8327SOL    HW235911   7.768   3.562   5.591  0.0667  1.2306 -0.6374
 8328SOL     OW35912   3.444   1.677   2.852  0.2164 -0.8674 -0.1855
 8328SOL    HW135913   3.500   1.698   2.772 -0.6609 -1.3125 -0.9271
 8328SOL    HW235914   3.443   1.578   2.867 -1.1271 -0.9589 -0.7557
 8329SOL     OW35915   0.575   7.360   5.439 -0.3926 -0.5163 -0.6027
 8329SOL    HW135916   0.640   7.376   5.365 -1.5665 -2.5718 -2.1046
 8329SOL    HW235917   0.499   7.425   5.431  0.3728  0.4569 -0.1133
 8330SOL     OW35918   8.511   9.259   0.491 -0.2507  0.0577  0.2497
 8330SOL    HW135919   8.431   9.223   0.539 -0.1855 -0.7386 -0.2201
 8330SOL    HW235920   8.581   9.188   0.485  0.5668  0.8065  0.8133
 8331SOL     OW35921   0.192   2.762   4.739 -1.1138  0.6771 -0.3633
 8331SOL    HW135922   0.223   2.670   4.713 -0.9812  0.5055  0.3961
 8331SOL    HW235923   0.166   2.812   4.657 -2.5406 -0.5230 -0.6724
 8332SOL     OW35924   7.954   0.330   3.222  0.3037  1.0540 -0.6524
 8332SOL    HW135925   7.961   0.330   3.321  1.0804  2.1430 -0.7026
 8332SOL    HW235926   8.041   0.298   3.182 -0.3633 -0.4253 -0.9689
 8333SOL     OW35927   7.291   1.172   4.804 -0.3787  0.2591 -0.8178
 8333SOL    HW135928   7.298   1.250   4.742 -0.6256 -0.4649 -1.7724
 8333SOL    HW235929   7.225   1.192   4.876  0.2127  1.2666 -0.5459
 8334SOL     OW35930   4.830   3.716   2.511  0.0603  0.0870 -0.0681
 8334SOL    HW135931   4.882   3.631   2.502  0.7136  0.3178  1.3368
 8334SOL    HW235932   4.890   3.793   2.492 -0.7830  0.2199 -2.3294
 8335SOL     OW35933   3.285   6.521   1.392 -0.2522  0.0997  0.1360
 8335SOL    HW135934   3.308   6.589   1.462  0.6521  2.2329 -2.1617
 8335SOL    HW235935   3.193   6.539   1.358  0.2011  0.5335 -0.8690
 8336SOL     OW35936   0.312   2.142   3.275 -0.2999 -0.1963 -0.1135
 8336SOL    HW135937   0.236   2.140   3.209  1.9040 -3.0467 -2.7140
 8336SOL    HW235938   0.284   2.094   3.358 -3.0668  3.3291  1.1343
 8337SOL     OW35939   1.532   6.464   1.613 -0.5854  0.4399 -0.4845
 8337SOL    HW135940   1.478   6.515   1.546 -1.6199  0.4483  0.3359
 8337SOL    HW235941   1.629   6.485   1.601 -0.9133  1.8112 -0.8146
 8338SOL     OW35942   9.311   3.462   1.433 -0.7212 -0.2527  0.3916
 8338SOL    HW135943   9.350   3.460   1.526  1.7186  0.0544 -0.5824
 8338SOL    HW235944   9.385   3.464   1.366 -2.4228  1.9858 -1.5252
 8339SOL     OW35945   7.156   9.289   4.899  0.1777  0.4732  0.3883
 8339SOL    HW135946   7.143   9.388   4.911 -1.4610  0.2266  0.7714
 8339SOL    HW235947   7.090   9.240   4.955  1.4354 -0.8647  0.7159
 8340SOL     OW35948   2.877   6.696   4.817 -0.4564  0.4182 -0.2104
 8340SOL    HW135949   2.845   6.784   4.853 -0.6315  0.1023  0.4131
 8340SOL    HW235950   2.894   6.633   4.893 -0.2230 -0.0496 -0.6476
 8341SOL     OW35951   4.549   7.902   2.885  0.1712  0.1661 -0.1691
 8341SOL    HW135952   4.606   7.899   2.968  1.1314  0.5758 -0.8007
 8341SOL    HW235953   4.536   7.809   2.851 -0.0706  0.0129  0.3388
 8342SOL     OW35954   4.473   1.635   2.889 -0.0023  0.7504  0.3125
 8342SOL    HW135955   4.382   1.637   2.847  0.2735  0.6428 -0.2926
 8342SOL    HW235956   4.500   1.539   2.903  0.4338  0.7658 -0.4150
 8343SOL     OW35957   4.812   7.196   2.373 -0.3639 -0.2986 -0.0655
 8343SOL    HW135958   4.762   7.251   2.307 -0.6937 -0.1701  0.2908
 8343SOL    HW235959   4.870   7.130   2.324  0.2019  0.5044 -0.4953
 8344SOL     OW35960   9.474   3.838   4.915 -0.5203  0.3837 -0.1794
 8344SOL    HW135961   9.456   3.933   4.887 -1.3330  0.3741  0.3050
 8344SOL    HW235962   9.452   3.777   4.839 -2.4421  0.3849  0.3521
 8345SOL     OW35963   7.581   0.395   2.675  0.4044  0.2229 -0.1583
 8345SOL    HW135964   7.624   0.310   2.706 -1.1251 -0.1610  0.9937
 8345SOL    HW235965   7.497   0.373   2.625 -0.1281  1.0639  0.3567
 8346SOL     OW35966   3.434   3.255   3.158  0.2541 -0.6633  0.6787
 8346SOL    HW135967   3.390   3.255   3.069 -1.2775 -1.4535  1.4158
 8346SOL    HW235968   3.457   3.348   3.184  1.2679 -0.4835 -0.7915
 8347SOL     OW35969   1.390   3.528   0.322  0.2229 -0.0130  0.1766
 8347SOL    HW135970   1.451   3.487   0.255  1.0028 -0.7588  1.3086
 8347SOL    HW235971   1.297   3.495   0.306  0.4226 -0.2845 -0.4559
 8348SOL     OW35972   4.895   0.757   4.112 -0.5919  0.0846 -0.1249
 8348SOL    HW135973   4.944   0.819   4.173 -0.8205  0.7123 -0.5754
 8348SOL    HW235974   4.813   0.802   4.077 -0.4322 -0.2540 -0.9425
 8349SOL     OW35975   9.513   0.470   4.575 -0.4968  0.4295 -0.2338
 8349SOL    HW135976   9.584   0.403   4.553 -1.1974 -0.4045  0.0280
 8349SOL    HW235977   9.533   0.512   4.664  0.5922  1.4614 -0.9462
 8350SOL     OW35978   5.399   0.179   2.703  0.5647  0.3539  0.2150
 8350SOL    HW135979   5.403   0.207   2.607  1.0707  0.9906  0.4131
 8350SOL    HW235980   5.429   0.084   2.711 -0.8645 -0.1686 -0.4280
 8351SOL     OW35981   8.435   8.056   4.802  0.6495  0.0731 -0.2893
 8351SOL    HW135982   8.480   7.967   4.816  3.1553  0.9090 -2.5786
 8351SOL    HW235983   8.479   8.125   4.860 -1.0681 -0.0710  1.2254
 8352SOL     OW35984   9.690   7.095   0.420 -0.1083 -0.1543 -0.1684
 8352SOL    HW135985   9.612   7.113   0.479 -1.5194 -0.6240 -1.8205
 8352SOL    HW235986   9.666   7.120   0.326  2.8669  2.7443 -0.2134
 8353SOL     OW35987   9.310   9.262   4.287  0.7240 -0.0137 -0.6349
 8353SOL    HW135988   9.354   9.348   4.263 -0.3965  0.6265 -0.4300
 8353SOL    HW235989   9.230   9.249   4.228 -0.0889 -0.0911  0.4821
 8354SOL     OW35990   6.618   1.476   3.942 -0.2750 -0.3342 -0.5588
 8354SOL    HW135991   6.648   1.570   3.963 -1.6289  0.1905 -0.9609
 8354SOL    HW235992   6.691   1.412   3.967  0.4307  0.7742  0.2860
 8355SOL     OW35993   7.816   1.353   4.359  0.2553 -0.0999  0.4137
 8355SOL    HW135994   7.825   1.443   4.315 -0.5164  0.7232  1.8921
 8355SOL    HW235995   7.906   1.319   4.385  0.6158 -0.0782 -0.7710
 8356SOL     OW35996   1.207   0.515   4.513 -0.0030  0.1476  0.0438
 8356SOL    HW135997   1.179   0.579   4.585  0.5605 -0.6548  0.9904
 8356SOL    HW235998   1.273   0.560   4.453 -2.5151  1.7412 -1.6502
 8357SOL     OW35999   8.912   5.069   3.075  0.1566  0.2090 -0.0855
 8357SOL    HW136000   8.879   5.156   3.110  0.5887  0.1724  0.4108
 8357SOL    HW236001   8.848   5.034   3.006 -1.2282 -0.2373  1.4183
 8358SOL     OW36002   7.199   0.806   1.337 -0.3014 -0.5476 -0.0839
 8358SOL    HW136003   7.168   0.768   1.425 -0.3090  0.9751  0.6011
 8358SOL    HW236004   7.244   0.735   1.283 -1.4150 -1.8150  0.6240
 8359SOL     OW36005   6.584   7.652   3.537  0.2881  0.2603  0.5291
 8359SOL    HW136006   6.562   7.577   3.475 -3.2573 -0.2423  2.2761
 8359SOL    HW236007   6.633   7.615   3.617  0.7119  0.2149  0.2547
 8360SOL     OW36008   6.229   8.951   1.742 -0.3369 -0.0105  0.1735
 8360SOL    HW136009   6.319   8.908   1.743  0.1584  0.9917 -0.4233
 8360SOL    HW236010   6.202   8.974   1.836 -1.3954 -3.1835  0.7213
 8361SOL     OW36011   4.155   7.756   4.539 -0.0262 -0.0116 -0.1796
 8361SOL    HW136012   4.252   7.754   4.515 -0.3625 -0.7904 -1.4916
 8361SOL    HW236013   4.100   7.727   4.461 -1.2883 -0.1772  0.7483
 8362SOL     OW36014   1.838   7.248   5.302 -0.0924  0.0091 -0.1191
 8362SOL    HW136015   1.859   7.339   5.339 -0.7198  0.8548 -1.7823
 8362SOL    HW236016   1.910   7.220   5.239  0.2912 -0.8264  0.6849
 8363SOL     OW36017   2.928   3.141   1.678 -0.1386  0.2498  0.0588
 8363SOL    HW136018   2.889   3.225   1.716  0.6665  0.4749  0.4018
 8363SOL    HW236019   2.925   3.069   1.747 -1.8984 -0.3449 -0.6168
 8364SOL     OW36020   0.530   2.144   4.414  0.8905  0.1354 -0.3186
 8364SOL    HW136021   0.622   2.142   4.453  0.7843 -0.0946 -0.0755
 8364SOL    HW236022   0.536   2.168   4.317  1.1645  0.5910 -0.1881
 8365SOL     OW36023   1.320   2.171   3.911 -0.5302  0.1383  0.0285
 8365SOL    HW136024   1.258   2.214   3.845 -1.2907 -0.6727  0.2138
 8365SOL    HW236025   1.276   2.168   4.000 -0.4001 -0.8480  0.0610
 8366SOL     OW36026   7.559   0.911   2.252 -0.1409  0.0183 -0.1978
 8366SOL    HW136027   7.511   0.965   2.321  0.1126 -0.3616  0.2752
 8366SOL    HW236028   7.641   0.871   2.291  0.1451  0.0146 -0.7926
 8367SOL     OW36029   4.992   0.606   1.231 -0.1024  0.1313  0.5725
 8367SOL    HW136030   4.921   0.650   1.176 -0.3878 -0.8322  0.1540
 8367SOL    HW236031   4.949   0.556   1.306  0.2134  0.5329  1.0169
 8368SOL     OW36032   0.821   7.719   1.739 -0.1593 -0.6414 -0.2236
 8368SOL    HW136033   0.742   7.780   1.743  0.9519  0.7600  1.0329
 8368SOL    HW236034   0.855   7.714   1.645 -0.1686  0.8360 -0.3142
 8369SOL     OW36035   9.313   2.455   3.253 -0.0418  1.2769  0.0262
 8369SOL    HW136036   9.224   2.423   3.221  0.7238  0.5816 -1.4420
 8369SOL    HW236037   9.314   2.555   3.252 -0.7434  1.2895 -0.1179
 8370SOL     OW36038   7.576   2.453   3.026 -0.8027 -0.6156  0.4611
 8370SOL    HW136039   7.607   2.385   3.093 -0.4558 -0.3653  0.5585
 8370SOL    HW236040   7.642   2.459   2.951  1.0574  2.1700  2.2205
 8371SOL     OW36041   6.693   8.346   1.777 -0.7775 -0.6110  0.1026
 8371SOL    HW136042   6.598   8.370   1.761 -1.2423 -1.3681  1.6816
 8371SOL    HW236043   6.721   8.276   1.710 -1.1536 -0.0087 -0.6966
 8372SOL     OW36044   2.634   2.071   0.416  0.3317 -0.0944  0.3661
 8372SOL    HW136045   2.669   2.147   0.362 -1.2683  0.4016 -0.0216
 8372SOL    HW236046   2.566   2.105   0.482  0.2155 -1.0683  0.7671
 8373SOL     OW36047   3.400   4.124   2.817  0.1644  0.4664  0.1407
 8373SOL    HW136048   3.499   4.114   2.830  0.1567  1.5029  1.0011
 8373SOL    HW236049   3.371   4.065   2.741  1.2105 -0.9278  0.7879
 8374SOL     OW36050   7.957   4.452   1.444 -0.6158  0.2333 -0.0703
 8374SOL    HW136051   8.036   4.464   1.385 -1.6185  0.3163 -1.4006
 8374SOL    HW236052   7.902   4.375   1.411 -2.9468  2.3370 -1.2036
 8375SOL     OW36053   4.412   8.735   1.255  0.3612 -0.5052 -0.0721
 8375SOL    HW136054   4.354   8.662   1.290 -0.4490  0.7164  1.1716
 8375SOL    HW236055   4.361   8.790   1.189  0.5351 -0.2647 -0.0091
 8376SOL     OW36056   0.049   9.669   3.094 -0.0932  0.1347  0.0411
 8376SOL    HW136057   0.095   9.757   3.108  0.2532 -0.0261 -0.0914
 8376SOL    HW236058  -0.040   9.684   3.051  0.2165  0.3712 -0.5165
 8377SOL     OW36059   0.438   4.844   4.133 -0.7031 -0.1340  0.2148
 8377SOL    HW136060   0.508   4.819   4.066 -0.0277  3.0853 -0.3660
 8377SOL    HW236061   0.377   4.766   4.148  0.0448 -1.4163 -2.9628
 8378SOL     OW36062   0.790   1.474   3.333 -0.1091 -0.3493 -0.2116
 8378SOL    HW136063   0.708   1.523   3.364 -0.4893 -2.0439  1.5062
 8378SOL    HW236064   0.864   1.489   3.398 -0.8577 -3.7701  1.5191
 8379SOL     OW36065   3.489   6.483   3.417  0.1271  0.5815 -0.6834
 8379SOL    HW136066   3.547   6.564   3.428 -1.2751  1.6215 -0.6641
 8379SOL    HW236067   3.438   6.490   3.331  1.0769 -0.9986 -1.3804
 8380SOL     OW36068   0.738   5.863   2.948  0.3595 -0.1503  0.0091
 8380SOL    HW136069   0.703   5.918   2.872  2.1096  1.1215  0.0935
 8380SOL    HW236070   0.711   5.767   2.935 -1.3829  0.4474 -0.9613
 8381SOL     OW36071   3.541   2.176   1.356  0.0425 -0.1002  0.3268
 8381SOL    HW136072   3.533   2.214   1.449  0.0769 -0.6297  0.5460
 8381SOL    HW236073   3.598   2.094   1.359 -0.7344 -0.6558 -0.0130
 8382SOL     OW36074   9.279   2.653   2.440  0.5151 -0.0042 -0.4400
 8382SOL    HW136075   9.209   2.603   2.491  0.7544  0.2726  0.1624
 8382SOL    HW236076   9.245   2.673   2.348  0.0294 -0.3842 -0.3481
 8383SOL     OW36077   3.628   5.462   0.940 -0.3165  0.0401  0.3219
 8383SOL    HW136078   3.660   5.556   0.952  0.2513 -0.2956  1.4913
 8383SOL    HW236079   3.529   5.461   0.931 -0.2136  0.8768 -1.0342
 8384SOL     OW36080   9.370   8.988   1.596  0.4232  0.0464  0.0066
 8384SOL    HW136081   9.366   8.996   1.696  1.3421 -1.1634  0.1523
 8384SOL    HW236082   9.388   8.893   1.571  0.0267  0.3135 -1.3287
 8385SOL     OW36083   2.293   1.436   3.946  0.8400  0.3059 -0.5821
 8385SOL    HW136084   2.271   1.399   3.855 -1.2095 -1.9636  0.7734
 8385SOL    HW236085   2.295   1.361   4.012 -0.0701  2.2240  1.6634
 8386SOL     OW36086   7.861   9.905   0.008 -1.2646  0.8390 -0.5546
 8386SOL    HW136087   7.857   9.835  -0.064  0.0841 -0.4154  0.5442
 8386SOL    HW236088   7.773   9.909   0.055 -0.7205 -1.7528  0.8166
 8387SOL     OW36089   1.788   4.589   2.619 -0.3674  0.4831  0.0962
 8387SOL    HW136090   1.788   4.689   2.621 -0.6865  0.4725  0.6610
 8387SOL    HW236091   1.801   4.554   2.712 -2.1041  0.0007  0.1662
 8388SOL     OW36092   3.109   8.123   3.406 -0.0768 -0.1667 -0.4559
 8388SOL    HW136093   3.085   8.082   3.318 -0.2432  0.3843 -0.6686
 8388SOL    HW236094   3.146   8.053   3.467 -1.4454 -0.8677 -0.4151
 8389SOL     OW36095   9.751   0.660   2.417 -0.1104 -0.1695  0.4503
 8389SOL    HW136096   9.687   0.736   2.407  0.6194  0.7739  2.6193
 8389SOL    HW236097   9.699   0.576   2.432 -0.8918  0.2211 -0.0365
 8390SOL     OW36098   6.779   1.489   3.332 -0.0376  0.6665  0.1112
 8390SOL    HW136099   6.715   1.451   3.399 -1.2009 -0.2322 -1.4739
 8390SOL    HW236100   6.766   1.589   3.328 -2.2854  0.3582 -1.1164
 8391SOL     OW36101   1.473   2.563   2.262  0.1628  0.7492  0.8587
 8391SOL    HW136102   1.477   2.605   2.353  0.3584  1.7823  0.3779
 8391SOL    HW236103   1.387   2.588   2.218 -0.5911 -0.9476  1.3229
 8392SOL     OW36104   4.344   7.732   3.123 -0.2724 -0.0829  0.6717
 8392SOL    HW136105   4.268   7.770   3.177 -0.3739  0.0742  0.4164
 8392SOL    HW236106   4.424   7.721   3.182 -0.1547  0.8045  0.6731
 8393SOL     OW36107   9.814   2.777   1.995  0.5815  0.0391 -0.0038
 8393SOL    HW136108   9.898   2.797   1.945 -2.1305  0.1672 -4.8518
 8393SOL    HW236109   9.793   2.679   1.987 -1.4815  0.5997 -1.8909
 8394SOL     OW36110   1.872   8.974   1.130 -0.0712 -0.1220  0.2526
 8394SOL    HW136111   1.909   9.016   1.213 -0.0256  1.4270 -0.5319
 8394SOL    HW236112   1.919   9.011   1.050 -1.4370 -0.1695 -0.5898
 8395SOL     OW36113   7.482   7.402   2.947  0.5706 -0.4692  0.0139
 8395SOL    HW136114   7.460   7.310   2.979  0.1974 -0.5975 -0.6031
 8395SOL    HW236115   7.455   7.469   3.016  1.0583 -0.8371  0.5647
 8396SOL     OW36116   7.921   0.724   1.182  0.1317 -0.2556 -0.4087
 8396SOL    HW136117   8.011   0.742   1.223 -1.2259  2.3105  1.6658
 8396SOL    HW236118   7.879   0.645   1.226  1.2485 -1.2821 -1.1820
 8397SOL     OW36119   3.081   8.871   1.313  0.5127  0.4649  0.5751
 8397SOL    HW136120   3.035   8.798   1.363  1.5569 -2.1266 -2.1434
 8397SOL    HW236121   3.115   8.939   1.378  0.8161 -2.1762  3.2744
 8398SOL     OW36122   4.542   5.103   5.619  0.1788  0.0086  0.0910
 8398SOL    HW136123   4.477   5.130   5.691 -0.2451 -1.9743  0.4837
 8398SOL    HW236124   4.605   5.035   5.656 -1.2350 -2.4705 -1.9199
 8399SOL     OW36125   9.936   8.542   4.326  0.4751  0.5123  0.6380
 8399SOL    HW136126   9.841   8.530   4.296  0.7771  0.8413 -0.4493
 8399SOL    HW236127   9.940   8.614   4.395  0.0101  0.8429  0.3196
 8400SOL     OW36128   2.404   1.682   3.984 -0.6420  0.1983 -0.5663
 8400SOL    HW136129   2.488   1.689   3.930 -0.3800  0.3713 -0.1325
 8400SOL    HW236130   2.374   1.586   3.985  0.6546 -0.2142  0.9456
 8401SOL     OW36131   9.895   7.972   4.281  0.5289  0.2760  0.3462
 8401SOL    HW136132   9.889   7.892   4.342  2.3026  1.2365  1.8396
 8401SOL    HW236133   9.822   8.036   4.303  2.3667  1.5678  2.9366
 8402SOL     OW36134   7.539   0.018   1.029  0.2364 -0.2393  0.0863
 8402SOL    HW136135   7.442   0.024   1.053  0.7617 -1.1921  2.5587
 8402SOL    HW236136   7.553  -0.058   0.966 -0.8375  0.9721 -1.6931
 8403SOL     OW36137   8.430   1.591   2.594  0.0586  0.1150 -0.6684
 8403SOL    HW136138   8.363   1.536   2.643  1.1224 -0.5599  0.0540
 8403SOL    HW236139   8.406   1.595   2.497 -0.5001 -0.9092 -0.5778
 8404SOL     OW36140   2.266   2.753   1.501  0.1791 -0.1402 -0.6225
 8404SOL    HW136141   2.351   2.758   1.448  0.5263 -0.3506 -0.0896
 8404SOL    HW236142   2.206   2.829   1.476  0.8782  0.4904 -0.3923
 8405SOL     OW36143   7.766   0.761   3.760  0.0203 -0.3795  0.2454
 8405SOL    HW136144   7.684   0.740   3.709 -0.0604 -1.3689  0.7789
 8405SOL    HW236145   7.846   0.749   3.701 -0.0794 -1.3936  0.3074
 8406SOL     OW36146   9.696   1.973   5.594  0.0706  0.4492 -0.3803
 8406SOL    HW136147   9.650   2.060   5.577 -0.6054 -0.0016 -0.8490
 8406SOL    HW236148   9.789   1.977   5.556  0.4038  1.3306  0.5136
 8407SOL     OW36149   9.700   9.252   0.430  0.1890  0.2586  0.2754
 8407SOL    HW136150   9.612   9.300   0.437  0.1586  0.1883  0.4006
 8407SOL    HW236151   9.727   9.219   0.520 -0.4554 -1.1583 -0.0437
 8408SOL     OW36152   8.731   3.624   3.356  0.4200 -0.0130 -0.4731
 8408SOL    HW136153   8.636   3.653   3.347  0.1676 -0.5470  0.3248
 8408SOL    HW236154   8.788   3.702   3.383  0.2943  0.4091 -1.4114
 8409SOL     OW36155   0.461   3.059   2.281  0.0265  0.0521  0.4339
 8409SOL    HW136156   0.527   3.102   2.219 -0.0375 -0.7461 -0.1822
 8409SOL    HW236157   0.487   3.079   2.376  0.9603  0.0184  0.1849
 8410SOL     OW36158   3.277   7.458   4.850 -1.0450 -0.1816 -0.3174
 8410SOL    HW136159   3.364   7.450   4.899 -1.4342 -1.7816  0.1573
 8410SOL    HW236160   3.281   7.535   4.787 -0.3421  1.6417  1.8527
 8411SOL     OW36161   1.260   7.330   2.961  0.0912  0.4618  0.4880
 8411SOL    HW136162   1.262   7.429   2.975 -1.3953  0.1054  3.6101
 8411SOL    HW236163   1.304   7.284   3.039  2.3883 -1.3223 -1.7543
 8412SOL     OW36164   9.685   9.852   3.306  0.6944  0.2404  0.3135
 8412SOL    HW136165   9.783   9.873   3.302  0.4811  1.0883 -0.7189
 8412SOL    HW236166   9.635   9.917   3.248 -0.3299 -1.1165 -0.3374
 8413SOL     OW36167   7.277   9.746   3.324  0.1009 -0.0456  0.0752
 8413SOL    HW136168   7.375   9.730   3.339  0.3488  0.3915 -1.0166
 8413SOL    HW236169   7.260   9.759   3.227 -0.6478  2.3985  0.4840
 8414SOL     OW36170   2.023   9.538   3.020 -0.5306 -0.0778 -0.1940
 8414SOL    HW136171   1.980   9.449   3.009  1.4553 -1.0747 -0.1590
 8414SOL    HW236172   1.984   9.603   2.954 -1.9635 -0.9735 -0.2345
 8415SOL     OW36173   8.155   9.393   3.339 -0.4016 -0.0393  0.3220
 8415SOL    HW136174   8.239   9.441   3.365 -1.0452  0.7832  0.9203
 8415SOL    HW236175   8.172   9.337   3.258  0.4296  0.9849 -0.2233
 8416SOL     OW36176   6.746   7.332   4.151 -0.1285  0.3284  0.1833
 8416SOL    HW136177   6.819   7.369   4.093  2.0078  0.5413  2.9192
 8416SOL    HW236178   6.676   7.401   4.165 -0.1003  0.6550 -1.2302
 8417SOL     OW36179   7.247   7.808   2.234 -0.0843  0.3986 -0.3741
 8417SOL    HW136180   7.177   7.743   2.204 -0.3139  0.1484  0.6971
 8417SOL    HW236181   7.213   7.860   2.313  1.0720  0.0217  0.3785
 8418SOL     OW36182   4.556   8.080   3.777 -0.2853  0.5459  0.3270
 8418SOL    HW136183   4.465   8.043   3.758 -0.5232  1.6006 -0.7260
 8418SOL    HW236184   4.621   8.043   3.711 -0.1427  0.4999  0.4949
 8419SOL     OW36185   7.406   9.633   4.328 -0.1101 -0.3352  0.5817
 8419SOL    HW136186   7.450   9.568   4.390  0.3011  0.2817  0.9393
 8419SOL    HW236187   7.319   9.664   4.368  0.4247  0.4969  1.1315
 8420SOL     OW36188   5.361   8.805   2.785 -0.0326  0.2689 -0.5602
 8420SOL    HW136189   5.300   8.733   2.818 -0.0680  0.1123 -0.9636
 8420SOL    HW236190   5.331   8.893   2.822  2.2756 -0.3863  3.0392
 8421SOL     OW36191   0.151   6.799   0.739  0.0546 -0.5058  0.1356
 8421SOL    HW136192   0.164   6.756   0.828  0.2508 -3.7171 -1.3842
 8421SOL    HW236193   0.054   6.798   0.715  0.3171 -2.3461 -0.9436
 8422SOL     OW36194   9.404   9.236   1.474 -0.6790  0.1745  0.7384
 8422SOL    HW136195   9.339   9.245   1.398 -2.4416  1.1892  2.3145
 8422SOL    HW236196   9.410   9.140   1.502  0.1193 -0.2276 -0.7831
 8423SOL     OW36197   1.244   7.430   0.338  0.4805  0.2363 -0.1545
 8423SOL    HW136198   1.307   7.472   0.404  2.1766 -1.4728 -0.6511
 8423SOL    HW236199   1.185   7.365   0.386  1.0163 -0.2478 -0.1488
 8424SOL     OW36200   2.555   4.036   3.680 -0.5019  0.2482 -0.4043
 8424SOL    HW136201   2.582   4.083   3.764  0.8137  0.0447 -0.7053
 8424SOL    HW236202   2.551   4.102   3.605 -0.0617  0.1479 -0.5208
 8425SOL     OW36203   2.060   2.042   0.511  0.5410 -0.5788  0.4302
 8425SOL    HW136204   2.129   2.016   0.443  0.2841  0.1569 -0.1128
 8425SOL    HW236205   1.994   1.968   0.521  0.8883 -0.9126  0.2836
 8426SOL     OW36206   2.051   2.029   4.436 -0.3418 -0.1618 -0.1342
 8426SOL    HW136207   2.010   2.105   4.386  1.9013 -0.0626 -1.9189
 8426SOL    HW236208   2.145   2.016   4.405  0.2226 -1.8739  2.1560
 8427SOL     OW36209   8.837   7.724   0.137 -0.7118  0.6942  0.2039
 8427SOL    HW136210   8.906   7.655   0.159  1.4932  2.8200  0.2303
 8427SOL    HW236211   8.798   7.760   0.221 -1.4183 -0.0848  0.2101
 8428SOL     OW36212   5.046   7.442   3.089 -0.2214  0.0147 -0.1882
 8428SOL    HW136213   4.996   7.379   3.029  1.3301 -1.0387 -0.3993
 8428SOL    HW236214   5.052   7.402   3.181  0.2446  0.1234 -0.1687
 8429SOL     OW36215   9.341   4.598   0.428 -0.6622  0.5508 -0.3693
 8429SOL    HW136216   9.439   4.583   0.434 -0.7623  0.1640  0.4168
 8429SOL    HW236217   9.293   4.531   0.486 -1.3803  0.7883 -0.6758
 8430SOL     OW36218   9.406   6.206   0.195  0.5634 -0.1318  0.1642
 8430SOL    HW136219   9.345   6.285   0.189  2.3637  1.2269 -0.9185
 8430SOL    HW236220   9.353   6.122   0.192 -1.2075  1.0144 -1.3409
 8431SOL     OW36221   5.097   1.058   0.616  0.0369  0.3189 -0.3301
 8431SOL    HW136222   5.196   1.073   0.616 -0.2498  2.3026  0.4336
 8431SOL    HW236223   5.064   1.060   0.522  0.7594 -0.8141 -0.6327
 8432SOL     OW36224   8.000   2.542   0.232 -0.1384  0.0118 -0.3356
 8432SOL    HW136225   8.031   2.588   0.315 -1.1835  1.5231 -0.7611
 8432SOL    HW236226   7.934   2.600   0.184 -2.3411 -2.3869 -0.3406
 8433SOL     OW36227   2.800   4.321   0.641 -0.4869 -0.2604  0.3738
 8433SOL    HW136228   2.703   4.338   0.622 -1.0991 -2.3844  1.4289
 8433SOL    HW236229   2.833   4.247   0.583  0.5851  0.6072 -0.1428
 8434SOL     OW36230   3.010   9.191   2.498  0.1399  0.5721 -0.1736
 8434SOL    HW136231   3.061   9.105   2.500  0.3873  0.7285  0.1949
 8434SOL    HW236232   3.074   9.267   2.492 -0.0759  0.7412 -0.3562
 8435SOL     OW36233   0.600   7.509   4.500  0.4849  0.1366  0.1028
 8435SOL    HW136234   0.598   7.497   4.400  1.4097  1.8316 -0.1369
 8435SOL    HW236235   0.688   7.478   4.535  1.0715  1.7177  0.0756
 8436SOL     OW36236   2.481   2.723   1.764  0.1295  0.0300 -0.0701
 8436SOL    HW136237   2.498   2.814   1.726  1.4176 -0.8392 -1.6877
 8436SOL    HW236238   2.384   2.700   1.757 -0.4565  1.8790  1.7692
 8437SOL     OW36239   1.216   0.535   2.671 -0.2382  0.0414  0.0100
 8437SOL    HW136240   1.297   0.574   2.715 -0.5793  0.5945  0.1653
 8437SOL    HW236241   1.139   0.599   2.681 -0.8766 -0.7919  0.4816
 8438SOL     OW36242   7.705   0.081   2.419  0.0905 -0.1618  0.4625
 8438SOL    HW136243   7.696  -0.018   2.431 -2.0282 -0.2370 -1.4196
 8438SOL    HW236244   7.797   0.103   2.386  0.3126 -1.5979  0.0974
 8439SOL     OW36245   0.853   3.190   4.925  0.0297  0.1116  0.4589
 8439SOL    HW136246   0.948   3.188   4.895  0.5846  0.3727  2.1447
 8439SOL    HW236247   0.836   3.111   4.985 -0.7686  0.1815  0.3333
 8440SOL     OW36248   3.343   0.725   3.398  0.3419 -0.3302  0.2118
 8440SOL    HW136249   3.352   0.769   3.308 -0.6732 -0.5525 -0.0049
 8440SOL    HW236250   3.259   0.671   3.400 -1.0071  1.7634  2.1644
 8441SOL     OW36251   6.240   4.749   0.439 -0.2235  0.1693  0.4715
 8441SOL    HW136252   6.313   4.809   0.409 -1.2710  1.2388  0.0173
 8441SOL    HW236253   6.228   4.757   0.538 -1.1045  1.5896  0.2694
 8442SOL     OW36254   1.371   3.316   2.484 -0.1480 -0.0263 -0.6907
 8442SOL    HW136255   1.341   3.384   2.552 -0.7724  0.1356 -1.1217
 8442SOL    HW236256   1.466   3.292   2.501 -0.1092  0.4935 -0.1455
 8443SOL     OW36257   9.328   1.855   3.399  0.0958 -0.5498 -0.1282
 8443SOL    HW136258   9.259   1.794   3.360  0.2048  0.1096 -1.3526
 8443SOL    HW236259   9.418   1.829   3.366  0.0790  0.6523 -1.1641
 8444SOL     OW36260   9.930   1.369   4.786 -0.7607 -0.1686  0.4350
 8444SOL    HW136261   9.970   1.277   4.793  0.7205  0.5804  2.5367
 8444SOL    HW236262   9.968   1.416   4.707  0.1747 -0.6089  0.6084
 8445SOL     OW36263   2.074   9.742   1.675  0.1300 -0.0365 -0.0666
 8445SOL    HW136264   2.076   9.794   1.590  0.9920 -0.3526 -0.2446
 8445SOL    HW236265   2.131   9.789   1.744 -0.1087 -0.0814  0.1614
 8446SOL     OW36266   3.758   3.287   0.585  0.2602  0.1490 -0.1104
 8446SOL    HW136267   3.789   3.225   0.513  2.3694 -1.0089  1.7402
 8446SOL    HW236268   3.690   3.241   0.641 -0.7066  0.7378 -0.7759
 8447SOL     OW36269   9.421   7.938   4.984  0.3572 -0.3205  0.3938
 8447SOL    HW136270   9.351   8.005   5.007  0.8883 -0.0748  1.3201
 8447SOL    HW236271   9.399   7.896   4.896 -2.0055 -1.6336  1.5521
 8448SOL     OW36272   1.848   4.419   1.425  0.0053  0.1600  0.2107
 8448SOL    HW136273   1.880   4.330   1.395  0.5485  0.7124 -0.9043
 8448SOL    HW236274   1.756   4.411   1.463 -0.3028 -0.7293 -0.7082
 8449SOL     OW36275   5.265   6.954   2.705  0.1961 -0.1602  0.2919
 8449SOL    HW136276   5.243   6.857   2.720 -0.9663  0.0588  0.0498
 8449SOL    HW236277   5.346   6.961   2.647  1.6597 -0.9950  2.1735
 8450SOL     OW36278   0.833   9.366   0.371 -0.3130 -0.1776 -0.1587
 8450SOL    HW136279   0.839   9.290   0.435  1.3904 -0.1547 -0.2511
 8450SOL    HW236280   0.903   9.434   0.394 -0.4917  0.3982 -1.2978
 8451SOL     OW36281   7.679   1.440   3.738 -0.1714  0.0870  0.4990
 8451SOL    HW136282   7.663   1.511   3.670 -0.9708  1.4302  2.0447
 8451SOL    HW236283   7.768   1.455   3.782 -0.0415 -0.2571  0.3509
 8452SOL     OW36284   8.453   9.124   3.227  0.1299 -1.0640  0.1346
 8452SOL    HW136285   8.489   9.030   3.232  1.2071 -0.6167  1.1609
 8452SOL    HW236286   8.441   9.159   3.320  0.6951  0.1712 -0.2524
 8453SOL     OW36287   2.143   8.857   4.694 -0.1946 -0.0575  0.5698
 8453SOL    HW136288   2.072   8.851   4.623  1.7886 -1.0375 -1.4088
 8453SOL    HW236289   2.215   8.920   4.663  0.3091  0.1224  2.0898
 8454SOL     OW36290   3.039   7.470   5.383 -0.2846  0.1993 -0.2274
 8454SOL    HW136291   3.123   7.526   5.385 -0.9515  1.1884  2.1940
 8454SOL    HW236292   2.960   7.530   5.375 -0.9475 -0.4834  1.1508
 8455SOL     OW36293   1.511   8.184   0.628  0.3115 -0.2179 -0.3300
 8455SOL    HW136294   1.437   8.128   0.666 -0.0552 -0.0245 -0.7576
 8455SOL    HW236295   1.518   8.167   0.529  0.4243  0.2370 -0.4004
 8456SOL     OW36296   1.047   0.602   0.819 -0.0352  0.1185  0.1531
 8456SOL    HW136297   1.089   0.668   0.882  0.5269 -0.6160  0.5534
 8456SOL    HW236298   1.112   0.528   0.800 -0.7664 -0.4708 -0.0670
 8457SOL     OW36299   4.329   2.389   3.791  0.0494  0.4876 -0.0822
 8457SOL    HW136300   4.365   2.353   3.706  1.9746  1.2293  0.3872
 8457SOL    HW236301   4.310   2.314   3.854 -1.4757 -0.0669 -1.1697
 8458SOL     OW36302   4.340   0.948   1.349  0.3026 -0.4190 -0.7633
 8458SOL    HW136303   4.273   0.986   1.413 -0.4242  1.3898 -2.5463
 8458SOL    HW236304   4.371   0.859   1.382 -2.9215 -1.2659  0.1471
 8459SOL     OW36305   3.547   1.039   4.357  0.0463  0.2428 -0.2301
 8459SOL    HW136306   3.590   1.111   4.410  0.2763  0.5064 -0.7707
 8459SOL    HW236307   3.535   1.069   4.262  1.9327 -1.1362 -0.9477
 8460SOL     OW36308   0.513   9.982   2.244 -0.1151  0.5010  0.2714
 8460SOL    HW136309   0.465   9.981   2.157  2.5654 -3.8719 -1.2919
 8460SOL    HW236310   0.456   9.941   2.315 -0.4839 -0.3292 -0.5063
 8461SOL     OW36311   0.564   8.958   1.468  0.6847  1.2039  0.4504
 8461SOL    HW136312   0.541   8.973   1.372 -0.3168  0.4812  0.5615
 8461SOL    HW236313   0.612   9.038   1.504 -1.3553  2.6590  0.0654
 8462SOL     OW36314   0.011   0.781   5.087  0.4735 -0.0780  0.1947
 8462SOL    HW136315   0.051   0.701   5.044  0.7247 -0.4321  1.0920
 8462SOL    HW236316  -0.015   0.760   5.182  0.3683  0.8369  0.3782
 8463SOL     OW36317   6.442   7.450   3.892 -0.1061 -0.1322  0.2573
 8463SOL    HW136318   6.458   7.436   3.990 -0.9301 -0.0176  0.4190
 8463SOL    HW236319   6.528   7.473   3.847  0.0826  1.0045  1.1698
 8464SOL     OW36320   9.861   6.099   4.355  0.4262 -0.5182 -0.1158
 8464SOL    HW136321   9.953   6.064   4.343  0.3755 -0.4951 -0.5771
 8464SOL    HW236322   9.864   6.184   4.408  0.9495  0.9692 -2.4433
 8465SOL     OW36323   3.703   2.203   0.684 -0.3509  0.6330 -0.4940
 8465SOL    HW136324   3.720   2.105   0.680 -1.2065  0.2119  3.5963
 8465SOL    HW236325   3.608   2.222   0.659 -0.2477  0.4004 -1.0662
 8466SOL     OW36326   5.623   5.119   0.567 -0.4934 -0.6001  0.6564
 8466SOL    HW136327   5.716   5.155   0.566  0.2349 -2.3898  1.4087
 8466SOL    HW236328   5.625   5.022   0.591 -2.4995 -0.8440 -0.0455
 8467SOL     OW36329   0.567   2.377   4.184 -0.1920 -1.1938  0.3054
 8467SOL    HW136330   0.621   2.445   4.235  0.6309 -1.0179 -0.7809
 8467SOL    HW236331   0.470   2.399   4.193  0.0833  0.4302 -0.4175
 8468SOL     OW36332   1.205   9.985   2.109  0.0238 -0.1024  0.6484
 8468SOL    HW136333   1.145  10.048   2.059  0.4656  0.5452  0.9270
 8468SOL    HW236334   1.190   9.995   2.208  2.0693  1.5889  0.8254
 8469SOL     OW36335   2.315   0.751   0.195 -0.4069 -0.0410  0.1048
 8469SOL    HW136336   2.375   0.793   0.263  1.8449 -0.7272 -1.3987
 8469SOL    HW236337   2.238   0.811   0.178  1.4318  2.3425 -0.1331
 8470SOL     OW36338   7.424   6.803   2.935 -0.2320 -0.2293  0.5093
 8470SOL    HW136339   7.501   6.785   2.995  0.9321 -0.3277 -0.9729
 8470SOL    HW236340   7.449   6.874   2.869 -1.0543 -0.9792 -0.6238
 8471SOL     OW36341   7.774   2.540   4.970 -0.1220 -0.2161 -0.0404
 8471SOL    HW136342   7.774   2.639   4.984 -1.9061 -0.1973 -0.1043
 8471SOL    HW236343   7.733   2.495   5.049  0.8614 -0.9319  0.0748
 8472SOL     OW36344   2.499   6.179   3.027 -0.2483 -0.4562  0.1690
 8472SOL    HW136345   2.519   6.163   2.930 -1.3730  0.3168 -0.2040
 8472SOL    HW236346   2.582   6.166   3.081  1.0966  1.9231 -1.2278
 8473SOL     OW36347   9.667   1.928   5.236 -0.4597 -0.6690 -0.2108
 8473SOL    HW136348   9.722   1.845   5.241  0.5115 -0.1119 -1.3626
 8473SOL    HW236349   9.708   1.998   5.295  0.5725  0.0224 -1.7258
 8474SOL     OW36350   6.502   7.488   2.862  0.8805  0.0100 -0.4435
 8474SOL    HW136351   6.471   7.582   2.869 -0.1190 -0.4706  2.2560
 8474SOL    HW236352   6.601   7.484   2.878  0.7080  0.4720  0.7778
 8475SOL     OW36353   1.994   2.269   1.578  0.3925 -0.0395 -0.1162
 8475SOL    HW136354   2.059   2.226   1.641  0.0098 -0.8165 -0.2586
 8475SOL    HW236355   1.965   2.203   1.509 -0.7467  0.2449  0.0872
 8476SOL     OW36356   1.002   6.902   5.154  0.1551  0.3979  0.0720
 8476SOL    HW136357   1.098   6.890   5.128 -0.1959 -0.7066 -0.7738
 8476SOL    HW236358   0.951   6.938   5.076 -0.3083  0.0198  0.1975
 8477SOL     OW36359   4.169   2.733   3.009  0.0971  0.6182 -0.2124
 8477SOL    HW136360   4.112   2.815   2.996 -0.0137  0.6275  0.2864
 8477SOL    HW236361   4.226   2.746   3.091  0.8334  0.6165 -0.7258
 8478SOL     OW36362   8.181   2.933   0.334 -0.2938  0.0013  0.3466
 8478SOL    HW136363   8.118   3.003   0.300 -2.5876 -1.9561  0.4144
 8478SOL    HW236364   8.190   2.861   0.266  0.9712 -0.3268  0.8459
 8479SOL     OW36365   0.021   8.057   3.634  0.3707  0.0118 -0.2529
 8479SOL    HW136366  -0.014   7.968   3.665 -2.5179  0.5170 -1.9578
 8479SOL    HW236367   0.121   8.056   3.640  0.4133 -3.3229 -0.1207
 8480SOL     OW36368   7.150   9.522   2.995  0.0770  0.3442 -0.9308
 8480SOL    HW136369   7.243   9.485   2.991 -0.1868 -0.4863  0.2042
 8480SOL    HW236370   7.085   9.449   2.972 -0.2778  1.0505 -2.2057
 8481SOL     OW36371   7.864   7.668   4.040  0.5583  0.7898 -0.2283
 8481SOL    HW136372   7.954   7.668   3.996  0.0024  0.2589 -1.4043
 8481SOL    HW236373   7.794   7.691   3.972 -0.2053  1.0949  0.6538
 8482SOL     OW36374   0.604   7.982   3.944  0.3039 -0.2395 -0.4945
 8482SOL    HW136375   0.631   7.928   3.865 -0.8220 -0.4079 -0.7768
 8482SOL    HW236376   0.547   8.059   3.914 -1.6250 -1.3114  0.2996
 8483SOL     OW36377   3.567   8.965   5.393 -0.2399  0.2237  0.0595
 8483SOL    HW136378   3.612   9.046   5.430 -1.4676  0.0422  2.0098
 8483SOL    HW236379   3.628   8.886   5.404 -0.1944  0.3579  0.8423
 8484SOL     OW36380   2.455   7.264   3.668  0.2887 -0.1116 -0.1795
 8484SOL    HW136381   2.404   7.345   3.695  0.4356 -0.7626  2.2516
 8484SOL    HW236382   2.548   7.270   3.706  0.9364 -0.5047 -1.6723
 8485SOL     OW36383   0.903   8.345   4.545 -0.2724  0.4326 -0.7200
 8485SOL    HW136384   0.939   8.252   4.539  0.9328  0.7418  1.5269
 8485SOL    HW236385   0.814   8.348   4.499  0.0665 -1.6093 -1.5813
 8486SOL     OW36386   9.432   3.806   2.079  0.0735  0.1899  0.0239
 8486SOL    HW136387   9.432   3.716   2.122 -0.6029  0.0338 -0.3049
 8486SOL    HW236388   9.454   3.876   2.148 -1.2577 -0.0330  0.6766
 8487SOL     OW36389   3.342   1.189   1.641  0.4979  0.3811  1.0315
 8487SOL    HW136390   3.267   1.231   1.589 -1.4484 -1.5423  2.2011
 8487SOL    HW236391   3.427   1.236   1.621 -0.9349  2.2718 -0.7664
 8488SOL     OW36392   2.289   7.296   5.178 -0.2575 -1.0510 -0.0934
 8488SOL    HW136393   2.293   7.330   5.273  0.1710  0.2536 -0.5617
 8488SOL    HW236394   2.370   7.241   5.159  1.2240  1.2213 -0.6163
 8489SOL     OW36395   4.346   0.417   4.620 -0.0954  0.0189  0.0675
 8489SOL    HW136396   4.251   0.391   4.635  0.2506 -1.6648 -0.4970
 8489SOL    HW236397   4.378   0.471   4.697 -0.5392 -2.2258  1.9082
 8490SOL     OW36398   8.238   5.856   3.259 -0.3535 -0.1612 -0.0988
 8490SOL    HW136399   8.160   5.911   3.287 -1.5660 -2.2735  0.8186
 8490SOL    HW236400   8.318   5.914   3.248 -1.4860  1.6904  1.2114
 8491SOL     OW36401   8.401   6.196   3.020 -0.2343  0.0801 -0.0375
 8491SOL    HW136402   8.320   6.195   2.961  0.2309 -0.0447 -0.6790
 8491SOL    HW236403   8.481   6.220   2.966  0.5758 -2.3116  0.0622
 8492SOL     OW36404   7.337   5.433   4.425 -0.1298  0.2399 -0.1186
 8492SOL    HW136405   7.409   5.501   4.410  1.3694 -1.4724 -0.8047
 8492SOL    HW236406   7.304   5.400   4.337 -0.1845 -0.6309  0.2281
 8493SOL     OW36407   2.066   3.908   4.340  0.2623 -0.0982 -0.5224
 8493SOL    HW136408   2.052   3.947   4.431 -1.0028 -1.5070 -0.0878
 8493SOL    HW236409   2.121   3.825   4.347  0.4792 -0.0061 -1.0858
 8494SOL     OW36410   8.560   1.765   5.280  0.1079  0.4587  0.6276
 8494SOL    HW136411   8.648   1.796   5.245  0.3624  0.9857  1.7417
 8494SOL    HW236412   8.574   1.693   5.348 -0.3313  0.3379  0.5914
 8495SOL     OW36413   9.922   2.856   4.175 -0.0660  0.8294  0.1059
 8495SOL    HW136414   9.924   2.942   4.227 -3.4771  0.4212  1.0477
 8495SOL    HW236415   9.959   2.782   4.232 -0.7058  0.9929  0.7490
 8496SOL     OW36416   9.854   3.577   5.470 -0.0934  0.0072 -0.4729
 8496SOL    HW136417   9.788   3.561   5.543 -0.2655  0.7842 -0.4433
 8496SOL    HW236418   9.901   3.664   5.486 -1.2408  0.9665 -2.0878
 8497SOL     OW36419   0.657   4.997   0.744 -0.2386 -0.5125  0.5564
 8497SOL    HW136420   0.592   5.060   0.701  0.2086 -0.6688 -0.3650
 8497SOL    HW236421   0.626   4.903   0.730  0.5209 -0.6149 -0.4426
 8498SOL     OW36422   0.004   7.436   0.844  0.4518  0.2273 -0.5423
 8498SOL    HW136423   0.011   7.501   0.768  0.6589  1.0707  0.1959
 8498SOL    HW236424   0.083   7.447   0.905  1.4041 -1.8995 -1.3295
 8499SOL     OW36425   3.803   1.263   2.955 -0.1326  0.2527 -0.0053
 8499SOL    HW136426   3.896   1.238   2.932  0.3622  1.3298  0.7676
 8499SOL    HW236427   3.745   1.259   2.874  0.9701  1.3110 -0.8547
 8500SOL     OW36428   9.870   1.715   4.710 -0.1214 -0.5414  0.0526
 8500SOL    HW136429   9.913   1.639   4.661 -0.2903 -0.0735 -0.8401
 8500SOL    HW236430   9.824   1.681   4.791  1.5275 -1.1238  0.7786
 8501SOL     OW36431   2.690   1.782   2.366  0.1053  1.1115  0.0667
 8501SOL    HW136432   2.788   1.797   2.380  0.5024 -0.3372 -0.9142
 8501SOL    HW236433   2.660   1.833   2.285  0.0688  1.4781  0.3106
 8502SOL     OW36434   4.341   8.252   3.515  0.8720  0.3391 -0.7468
 8502SOL    HW136435   4.435   8.220   3.502 -0.1623 -1.7872 -3.5231
 8502SOL    HW236436   4.320   8.323   3.447  0.3998  0.6318 -0.2963
 8503SOL     OW36437   1.579   4.243   0.913  0.0804 -0.4272 -0.2442
 8503SOL    HW136438   1.509   4.175   0.930 -0.6387  0.2434 -0.5205
 8503SOL    HW236439   1.625   4.224   0.826  0.9785 -1.4874  0.4531
 8504SOL     OW36440   5.222   3.792   2.450  0.3061  0.2441  0.2964
 8504SOL    HW136441   5.143   3.803   2.511 -0.6953 -0.0522 -0.9023
 8504SOL    HW236442   5.242   3.879   2.405  0.5230  0.2726  0.4517
 8505SOL     OW36443   3.289   3.222   4.189 -0.5333  0.2983 -0.1024
 8505SOL    HW136444   3.383   3.196   4.169  0.3761  1.5857  2.2994
 8505SOL    HW236445   3.252   3.162   4.259 -1.2972  0.1863 -0.5948
 8506SOL     OW36446   0.694   9.521   5.327  0.5374  0.0115  0.4186
 8506SOL    HW136447   0.744   9.536   5.242  1.3281  0.3244  0.9301
 8506SOL    HW236448   0.599   9.552   5.316  0.4425 -0.6046 -0.5589
 8507SOL     OW36449   0.730   7.023   3.773  0.2642  0.5817  0.1783
 8507SOL    HW136450   0.680   7.003   3.857  0.0752 -1.5456 -0.4216
 8507SOL    HW236451   0.667   7.023   3.695  0.5650  1.7788 -0.0807
 8508SOL     OW36452   0.166   1.946   2.979 -0.0759  0.3286 -0.4037
 8508SOL    HW136453   0.075   1.943   3.020  1.5821 -0.4386  3.4772
 8508SOL    HW236454   0.203   2.039   2.987  1.1346 -0.3084  2.0961
 8509SOL     OW36455   0.701   6.890   0.168  0.1115 -0.3848 -0.3448
 8509SOL    HW136456   0.640   6.930   0.236  0.6428 -0.3733  0.1302
 8509SOL    HW236457   0.778   6.846   0.214 -1.0240 -2.9598 -0.7730
 8510SOL     OW36458   0.280   3.266   2.192  0.3179 -0.2711 -0.1136
 8510SOL    HW136459   0.316   3.176   2.217 -0.5434 -0.5032  0.3053
 8510SOL    HW236460   0.264   3.270   2.093 -0.2970 -0.8229 -0.0410
 8511SOL     OW36461   1.861   7.057   5.506 -0.0473  0.0920 -0.4698
 8511SOL    HW136462   1.768   7.036   5.536 -0.4422  0.2015 -1.6086
 8511SOL    HW236463   1.861   7.145   5.458  0.6196  0.0254 -0.5864
 8512SOL     OW36464   8.957   2.833   2.477  0.7055  0.0042 -0.2115
 8512SOL    HW136465   8.861   2.856   2.496  0.4425  0.5068 -2.0861
 8512SOL    HW236466   8.961   2.743   2.434  1.0216  0.2924 -0.7817
 8513SOL     OW36467   8.928   8.495   4.912 -0.8997 -0.7229 -0.4564
 8513SOL    HW136468   8.911   8.398   4.895 -1.0638 -0.6506 -0.7083
 8513SOL    HW236469   8.905   8.548   4.830  1.9189 -0.7702 -1.3276
 8514SOL     OW36470   1.314   7.487   5.454  0.1731 -0.1585  0.2780
 8514SOL    HW136471   1.249   7.415   5.432  1.7747 -1.1738 -1.2321
 8514SOL    HW236472   1.335   7.484   5.552 -0.7581 -0.8903  0.4604
 8515SOL     OW36473   9.393   1.257   3.835  0.0107  0.0647  0.4807
 8515SOL    HW136474   9.452   1.311   3.895  0.2229 -1.4122  1.6416
 8515SOL    HW236475   9.325   1.208   3.890  0.5771 -1.7735 -0.4039
 8516SOL     OW36476   3.080   6.354   0.078  0.3615 -0.0435 -0.8019
 8516SOL    HW136477   3.040   6.370  -0.013  0.0684  1.2978 -0.4408
 8516SOL    HW236478   3.159   6.414   0.090 -0.0015  0.2472  0.0976
 8517SOL     OW36479   9.688   4.484   2.369  0.0903 -0.1478 -0.2658
 8517SOL    HW136480   9.727   4.552   2.431 -1.7094  0.4095  0.2811
 8517SOL    HW236481   9.741   4.482   2.285 -0.0444  2.2083 -0.4388
 8518SOL     OW36482   7.882   3.317   2.510 -0.5231 -0.3267 -0.3374
 8518SOL    HW136483   7.891   3.247   2.580  0.5574  0.4881  0.3429
 8518SOL    HW236484   7.913   3.405   2.546  1.0054 -0.1055 -2.1613
 8519SOL     OW36485   9.510   8.121   3.128 -0.9162  0.0657 -0.1308
 8519SOL    HW136486   9.601   8.117   3.088 -0.3409  3.5190  0.6363
 8519SOL    HW236487   9.448   8.171   3.067 -1.2069  1.3383  1.1782
 8520SOL     OW36488   3.520   7.134   3.944 -0.6315  0.0643 -0.5142
 8520SOL    HW136489   3.443   7.080   3.979  0.1765 -0.0523  1.1280
 8520SOL    HW236490   3.593   7.136   4.012  1.1412 -0.4502 -2.3344
 8521SOL     OW36491   9.687   9.428   3.987 -0.4397  0.3138 -0.2801
 8521SOL    HW136492   9.703   9.437   3.888  0.8951 -2.1430 -0.3206
 8521SOL    HW236493   9.696   9.333   4.014 -0.1605  1.0457  2.3437
 8522SOL     OW36494   3.154   7.508   0.761 -1.0546 -0.2954  0.1214
 8522SOL    HW136495   3.086   7.578   0.738  0.0816  0.3497 -1.4277
 8522SOL    HW236496   3.121   7.453   0.837 -1.8990  2.0620  1.5208
 8523SOL     OW36497   6.992   8.617   3.088 -0.3449 -0.0156 -0.0755
 8523SOL    HW136498   7.070   8.556   3.071 -1.2894 -1.7312  1.4885
 8523SOL    HW236499   6.907   8.564   3.083 -1.2189  1.2509  0.9529
 8524SOL     OW36500   2.725   1.223   0.669 -0.4572 -0.2550 -0.4621
 8524SOL    HW136501   2.805   1.248   0.723 -1.0422 -0.6371  0.6100
 8524SOL    HW236502   2.730   1.127   0.644 -1.1101 -0.5798  0.5865
 8525SOL     OW36503   9.542   1.349   0.201  0.2109 -0.0052 -0.3440
 8525SOL    HW136504   9.578   1.442   0.208  0.1609  0.0312 -0.5791
 8525SOL    HW236505   9.449   1.352   0.164  0.7167 -0.2522 -1.6589
 8526SOL     OW36506   0.834   6.668   1.268 -0.3570 -0.2947  0.9190
 8526SOL    HW136507   0.931   6.685   1.283 -0.2465  0.2239 -0.3273
 8526SOL    HW236508   0.791   6.750   1.229 -0.4933 -1.7137 -2.0799
 8527SOL     OW36509   2.057   7.314   2.746 -0.4165 -0.4206  0.1593
 8527SOL    HW136510   2.003   7.337   2.664 -1.8224  0.2594  1.2471
 8527SOL    HW236511   2.130   7.381   2.758  0.5369 -1.2009 -1.1897
 8528SOL     OW36512   0.526   0.780   0.409  0.1353 -0.2844 -0.1091
 8528SOL    HW136513   0.547   0.870   0.447 -0.1196  0.2730 -1.2669
 8528SOL    HW236514   0.554   0.709   0.473  0.5446  0.6166  0.7127
 8529SOL     OW36515   3.743   9.133   2.941  0.0958 -0.2851  0.4154
 8529SOL    HW136516   3.702   9.187   2.868  0.4934 -0.2031  0.2457
 8529SOL    HW236517   3.691   9.145   3.026 -0.1880 -0.1389  0.2212
 8530SOL     OW36518   9.535   8.149   5.369  0.0637 -0.1208 -0.4009
 8530SOL    HW136519   9.544   8.112   5.276 -0.0711 -0.2051 -0.3800
 8530SOL    HW236520   9.440   8.143   5.398  0.4104 -1.8461  0.4600
 8531SOL     OW36521   6.801   9.357   4.486  0.2486  0.3847 -0.5896
 8531SOL    HW136522   6.727   9.396   4.542  1.2349  0.7644  0.4729
 8531SOL    HW236523   6.856   9.295   4.542  0.0602 -0.7814 -1.6821
 8532SOL     OW36524   6.326   8.978   4.540  0.3248 -0.4831  0.0854
 8532SOL    HW136525   6.365   8.943   4.454 -0.9200  0.5636 -0.9373
 8532SOL    HW236526   6.398   9.018   4.596  1.0256 -0.3456 -0.8988
 8533SOL     OW36527   9.364   2.590   0.456  0.0743  0.3527 -0.5270
 8533SOL    HW136528   9.280   2.543   0.483 -0.8187  1.3331 -1.5671
 8533SOL    HW236529   9.385   2.661   0.524 -0.1847  0.4034 -0.4989
 8534SOL     OW36530   8.488   3.895   5.143  0.0005 -0.4898  0.5828
 8534SOL    HW136531   8.473   3.831   5.067  0.4381  0.4757 -0.3387
 8534SOL    HW236532   8.551   3.854   5.209 -2.1964 -2.2990  1.6462
 8535SOL     OW36533   7.874   0.039   3.027 -0.1229  0.1095 -0.0136
 8535SOL    HW136534   7.862   0.138   3.014  0.4702  0.2648  0.6029
 8535SOL    HW236535   7.863  -0.007   2.939 -2.3233  0.5162  0.0035
 8536SOL     OW36536   2.232   2.114   4.744 -0.1286 -0.5132  0.2128
 8536SOL    HW136537   2.159   2.180   4.761 -1.0231 -1.7233  1.1369
 8536SOL    HW236538   2.299   2.154   4.681 -2.0187  0.2849 -1.3102
 8537SOL     OW36539   4.802   9.489   2.455 -0.2979 -0.0375 -0.1004
 8537SOL    HW136540   4.734   9.550   2.496  3.8634  3.7765  1.4809
 8537SOL    HW236541   4.839   9.429   2.525 -0.9373 -1.0674 -0.6410
 8538SOL     OW36542   0.915   9.325   2.814 -0.4603  0.2644 -0.2596
 8538SOL    HW136543   0.846   9.280   2.871 -1.7418 -0.0239 -1.9950
 8538SOL    HW236544   0.875   9.406   2.771 -0.3946 -1.1285 -3.0148
 8539SOL     OW36545   1.248   7.701   1.170 -0.3308  0.5929 -0.1556
 8539SOL    HW136546   1.302   7.670   1.248  0.0698  0.9818 -0.2775
 8539SOL    HW236547   1.228   7.622   1.111 -0.6349  0.3009  0.3403
 8540SOL     OW36548   9.465   4.009   2.270  0.3009  0.0450 -0.5539
 8540SOL    HW136549   9.557   4.047   2.268  0.7944 -1.1663 -1.6107
 8540SOL    HW236550   9.457   3.948   2.349  0.1446  0.7702 -0.0045
 8541SOL     OW36551   6.525   1.669   1.801  0.1917 -0.4967  0.4146
 8541SOL    HW136552   6.443   1.726   1.795  0.4273 -0.2604 -0.5731
 8541SOL    HW236553   6.595   1.716   1.855  0.2980  0.0395 -0.1915
 8542SOL     OW36554   1.182   4.231   2.815  0.1795  0.1551  0.0684
 8542SOL    HW136555   1.245   4.154   2.807  2.9706  2.3168  0.2359
 8542SOL    HW236556   1.098   4.201   2.861  0.6859 -3.0174 -0.9385
 8543SOL     OW36557   2.549   0.994   0.837  0.1638  0.2225 -0.4772
 8543SOL    HW136558   2.546   0.905   0.881  0.5034  0.3495 -0.1919
 8543SOL    HW236559   2.478   1.053   0.876  0.4251  0.3154 -0.1411
 8544SOL     OW36560   1.139   6.349   0.777  0.1059  1.0336  0.9290
 8544SOL    HW136561   1.148   6.447   0.758 -1.4360  1.0396  0.1362
 8544SOL    HW236562   1.220   6.301   0.744  0.8871  2.0468  1.3550
 8545SOL     OW36563   2.245   2.461   4.441  0.2132  0.0538 -0.2827
 8545SOL    HW136564   2.203   2.460   4.350 -1.8933 -0.6038  0.6678
 8545SOL    HW236565   2.173   2.462   4.511  1.8022  0.8845  1.3839
 8546SOL     OW36566   3.857   7.497   1.660 -0.4967  1.0189  0.2443
 8546SOL    HW136567   3.891   7.433   1.729 -0.8037  1.0220  0.3979
 8546SOL    HW236568   3.758   7.509   1.670 -0.8311 -0.2850 -1.2815
 8547SOL     OW36569   0.605   5.754   0.130 -0.1830  0.3969  0.3648
 8547SOL    HW136570   0.526   5.718   0.079 -0.2260  0.9135  0.0616
 8547SOL    HW236571   0.575   5.789   0.218 -0.0760 -0.7029  0.8406
 8548SOL     OW36572   0.492   7.064   3.011 -0.0329 -0.1388  0.0686
 8548SOL    HW136573   0.412   7.086   3.066 -1.5001  2.6061 -3.0288
 8548SOL    HW236574   0.570   7.120   3.041 -0.3591  0.1420  0.3976
 8549SOL     OW36575   3.580   1.705   5.124  0.3669 -0.0437  0.6917
 8549SOL    HW136576   3.542   1.797   5.111  0.6377 -0.0160  0.0621
 8549SOL    HW236577   3.677   1.713   5.149  0.5057 -0.1631  0.2031
 8550SOL     OW36578   7.040   1.215   5.372  0.2300 -0.2916 -0.0267
 8550SOL    HW136579   7.026   1.309   5.339  0.7698 -0.0020  0.5572
 8550SOL    HW236580   6.972   1.155   5.330 -0.4779  0.4609  0.0213
 8551SOL     OW36581   3.640   2.786   4.272  0.0963  0.1156  0.0319
 8551SOL    HW136582   3.618   2.835   4.356 -0.8509  1.6704 -1.0905
 8551SOL    HW236583   3.657   2.851   4.199 -1.5702 -1.2159 -1.6037
 8552SOL     OW36584   4.363   3.367   0.792  0.3794 -0.2931 -0.2536
 8552SOL    HW136585   4.451   3.410   0.809 -0.9529  2.4648  0.0524
 8552SOL    HW236586   4.346   3.297   0.862  1.8456 -0.0756  0.3346
 8553SOL     OW36587   4.869   8.871   1.643 -0.1904 -1.1342 -0.1400
 8553SOL    HW136588   4.960   8.890   1.679 -0.5083 -0.3235  0.2487
 8553SOL    HW236589   4.874   8.854   1.545  0.1668  0.4788 -0.4060
 8554SOL     OW36590   7.822   9.447   4.514 -0.2354 -0.4714  0.1516
 8554SOL    HW136591   7.874   9.526   4.545 -0.2605 -0.1857 -0.5138
 8554SOL    HW236592   7.862   9.364   4.551  1.1592 -0.3189 -0.9497
 8555SOL     OW36593   3.036   0.400   4.180 -0.3320  0.1349 -0.1612
 8555SOL    HW136594   2.945   0.436   4.158  0.3671  2.0075 -0.1256
 8555SOL    HW236595   3.083   0.464   4.242  0.9715 -0.8563 -0.1026
 8556SOL     OW36596   1.201   1.487   0.483 -0.0616 -0.4128  0.4619
 8556SOL    HW136597   1.171   1.450   0.396  0.9155  0.0828 -0.1016
 8556SOL    HW236598   1.299   1.506   0.479 -0.3036  1.1132  1.1109
 8557SOL     OW36599   3.177   1.442   3.696 -0.6288 -0.3562 -0.2132
 8557SOL    HW136600   3.231   1.408   3.618 -0.3490  1.9800 -1.0706
 8557SOL    HW236601   3.118   1.516   3.665 -0.8186  0.3165  1.7282
 8558SOL     OW36602   0.123   8.949   4.208 -0.1245  0.2713 -1.6640
 8558SOL    HW136603   0.043   9.009   4.201 -1.0346 -0.0705  3.7878
 8558SOL    HW236604   0.096   8.856   4.183 -1.0112  0.4563 -1.4362
 8559SOL     OW36605   0.467   2.350   3.149 -0.3347 -0.0577  0.0930
 8559SOL    HW136606   0.428   2.277   3.205  1.4894 -0.0558  1.3877
 8559SOL    HW236607   0.562   2.367   3.176 -0.1817  1.6039 -1.3658
 8560SOL     OW36608   9.958   0.118   3.512  0.0276 -0.3054  0.2671
 8560SOL    HW136609   9.924   0.052   3.580 -0.1623 -1.2027 -0.6901
 8560SOL    HW236610   9.882   0.175   3.481 -0.3161 -1.3194 -0.7694
 8561SOL     OW36611   2.985   5.010   0.094 -0.0599 -0.4200 -0.0035
 8561SOL    HW136612   2.932   4.994   0.178  0.2146  3.5157  1.0106
 8561SOL    HW236613   3.082   4.997   0.113 -0.0033  0.3983  0.2786
 8562SOL     OW36614   9.010   8.431   3.257 -0.6672 -0.3770 -0.0117
 8562SOL    HW136615   8.922   8.421   3.304 -1.3674 -0.7091 -1.3610
 8562SOL    HW236616   9.058   8.511   3.291 -2.8184  1.5241 -1.3137
 8563SOL     OW36617   2.300   1.959   4.378 -0.0957  0.2905  0.1098
 8563SOL    HW136618   2.362   1.916   4.444 -2.1869 -0.7514  1.4386
 8563SOL    HW236619   2.295   1.903   4.295  0.1447 -0.0195  0.3068
 8564SOL     OW36620   4.450   0.774   5.293 -0.2795 -0.0880  0.1136
 8564SOL    HW136621   4.393   0.849   5.326  0.3865  0.6678 -0.4277
 8564SOL    HW236622   4.545   0.805   5.287 -0.1173 -0.7507 -0.8131
 8565SOL     OW36623   2.341   9.364   2.088  0.3891  0.3152  0.3569
 8565SOL    HW136624   2.254   9.334   2.130  0.1914  0.7828  0.2829
 8565SOL    HW236625   2.378   9.290   2.033 -0.6380  0.5520 -0.6839
 8566SOL     OW36626   8.683   8.214   1.598 -0.0664 -0.5995  0.7853
 8566SOL    HW136627   8.712   8.118   1.605  0.3786 -0.6474 -1.3414
 8566SOL    HW236628   8.613   8.223   1.527  1.6945  1.0087 -0.8191
 8567SOL     OW36629   9.248   7.586   3.414  0.4591  0.1326  0.1561
 8567SOL    HW136630   9.261   7.685   3.418  0.3152  0.1347  0.5832
 8567SOL    HW236631   9.172   7.565   3.353 -0.0602  0.3318  0.7294
 8568SOL     OW36632   0.347   5.807   5.321  0.1683  0.1037  0.2886
 8568SOL    HW136633   0.257   5.820   5.280  0.1072  0.5288  0.5560
 8568SOL    HW236634   0.359   5.710   5.344  0.4252 -0.2494 -1.2431
 8569SOL     OW36635   8.463   5.433   0.463  0.9692  0.3933 -0.1758
 8569SOL    HW136636   8.440   5.512   0.520 -0.1047 -0.6824  0.9152
 8569SOL    HW236637   8.411   5.353   0.495  0.6121 -0.3027 -2.4531
 8570SOL     OW36638   2.492   5.780   1.461  0.7747 -0.1532 -0.3184
 8570SOL    HW136639   2.574   5.767   1.406  0.0011  2.2885 -2.1389
 8570SOL    HW236640   2.517   5.826   1.547  1.3005  0.7766 -0.9604
 8571SOL     OW36641   1.747   3.087   3.111  0.7189 -0.4551  0.3356
 8571SOL    HW136642   1.733   3.183   3.085  1.7295  0.0043  1.4239
 8571SOL    HW236643   1.802   3.041   3.042  0.2145 -0.2563 -0.2023
 8572SOL     OW36644   0.245   9.326   0.981 -0.2691 -0.4596  0.2966
 8572SOL    HW136645   0.212   9.405   1.033  1.0099  0.3622 -0.1264
 8572SOL    HW236646   0.230   9.341   0.884  1.1098 -0.1900  0.1229
 8573SOL     OW36647   6.250   4.462   0.342 -0.7787 -0.5432  0.4443
 8573SOL    HW136648   6.176   4.405   0.378 -2.2459  0.5792 -0.7069
 8573SOL    HW236649   6.237   4.556   0.373  2.3594 -0.9889  3.4372
 8574SOL     OW36650   8.646   7.632   2.442 -0.2216  0.5649  0.2617
 8574SOL    HW136651   8.687   7.566   2.379  2.5727  1.8900  0.6595
 8574SOL    HW236652   8.548   7.613   2.450  0.2302 -2.5330 -0.8524
 8575SOL     OW36653   2.179   6.663   2.983  0.4307 -0.1813  0.6555
 8575SOL    HW136654   2.199   6.574   2.941  2.7496  1.6627 -2.3976
 8575SOL    HW236655   2.260   6.722   2.976 -1.9999  3.1908 -0.2284
 8576SOL     OW36656   1.901   0.895   4.500 -0.4644  0.2195 -0.1977
 8576SOL    HW136657   1.922   0.956   4.576  0.1148 -0.0553 -0.1387
 8576SOL    HW236658   1.969   0.821   4.496 -1.7155 -0.9996  0.3527
 8577SOL     OW36659   4.444   1.995   0.783  0.2533 -0.4947  0.5083
 8577SOL    HW136660   4.390   2.021   0.703  1.1959 -0.2061 -0.0349
 8577SOL    HW236661   4.493   1.910   0.765  1.3377  0.1536  0.3777
 8578SOL     OW36662   1.134   9.411   3.572  0.3636 -0.7217  0.1301
 8578SOL    HW136663   1.212   9.387   3.513  0.6975  1.5948 -0.4321
 8578SOL    HW236664   1.162   9.402   3.667  0.9826 -0.9853 -0.0688
 8579SOL     OW36665   2.905   8.620   0.499  1.0047  0.3356 -0.0522
 8579SOL    HW136666   2.989   8.593   0.452  1.3408 -1.2147  1.3896
 8579SOL    HW236667   2.830   8.559   0.473  1.3152 -0.8609  1.7693
 8580SOL     OW36668   7.045   7.406   2.266  0.0843 -0.4080 -0.3227
 8580SOL    HW136669   7.087   7.413   2.356  1.2913 -0.5564 -0.8761
 8580SOL    HW236670   7.043   7.311   2.236  0.1436 -0.2992 -0.6796
 8581SOL     OW36671   2.177   3.747   5.006  0.5658 -0.6292  0.5639
 8581SOL    HW136672   2.104   3.698   5.053  0.7781 -1.4714  0.0290
 8581SOL    HW236673   2.188   3.838   5.046  0.0589 -0.9595  1.4515
 8582SOL     OW36674   6.835   9.027   4.028  0.4767 -0.3656 -0.1230
 8582SOL    HW136675   6.822   8.998   3.933  0.3053  0.5305 -0.3769
 8582SOL    HW236676   6.852   8.946   4.085 -0.0276 -0.9695 -0.8092
 8583SOL     OW36677   2.283   5.519   3.278 -0.5381 -0.2163 -0.0130
 8583SOL    HW136678   2.279   5.579   3.198 -1.8129 -0.3112 -0.0409
 8583SOL    HW236679   2.373   5.525   3.320 -1.0175  2.7662  0.7567
 8584SOL     OW36680   9.372   0.193   0.955 -0.2768  0.3294  0.0093
 8584SOL    HW136681   9.381   0.213   0.858 -0.1199 -2.2977 -0.5643
 8584SOL    HW236682   9.303   0.253   0.995 -0.6799  1.1261 -1.8293
 8585SOL     OW36683   0.627   6.119   3.919 -0.0454  0.6239 -0.0153
 8585SOL    HW136684   0.595   6.063   3.843 -0.4430  0.3556  0.3518
 8585SOL    HW236685   0.664   6.060   3.991 -1.4079  0.7689  0.8159
 8586SOL     OW36686   9.104   0.626   4.619 -0.0730  0.8046  0.1200
 8586SOL    HW136687   9.105   0.726   4.621 -0.5737  0.8473 -1.6208
 8586SOL    HW236688   9.010   0.593   4.634 -0.1319  0.6200 -0.6719
 8587SOL     OW36689   7.322   9.654   5.070  0.2642  0.6309  0.0552
 8587SOL    HW136690   7.262   9.637   4.992 -0.6787  0.9348  0.7124
 8587SOL    HW236691   7.297   9.593   5.145  0.8506  0.6740  0.2860
 8588SOL     OW36692   8.105   5.463   3.904 -0.5934  0.1412  0.7560
 8588SOL    HW136693   8.047   5.408   3.964 -0.2867  0.8078  1.6614
 8588SOL    HW236694   8.117   5.554   3.943 -0.0861  0.4598 -0.1288
 8589SOL     OW36695   6.860   6.848   3.723 -0.4245  0.4998 -0.2038
 8589SOL    HW136696   6.818   6.772   3.772  1.1171 -0.7339 -0.7720
 8589SOL    HW236697   6.913   6.813   3.646  1.5424  2.0084  0.4115
 8590SOL     OW36698   4.108   6.162   1.907 -0.5330  0.1770 -0.2675
 8590SOL    HW136699   4.096   6.104   1.987 -1.8940 -0.0555 -0.6314
 8590SOL    HW236700   4.184   6.128   1.851  0.1809  0.1280  0.7204
 8591SOL     OW36701   8.981   1.499   4.361  0.1291 -0.1880 -0.3648
 8591SOL    HW136702   8.934   1.488   4.274  0.0023  0.6303 -0.4037
 8591SOL    HW236703   8.937   1.442   4.430 -0.6258  0.2066 -0.5188
 8592SOL     OW36704   0.697   9.467   1.703 -0.3755  0.0362 -0.7835
 8592SOL    HW136705   0.676   9.532   1.776 -0.3713 -1.2608  0.3968
 8592SOL    HW236706   0.748   9.390   1.741  1.6364  0.4474 -2.5947
 8593SOL     OW36707   8.161   9.380   5.612 -0.6025 -0.2076 -0.4730
 8593SOL    HW136708   8.234   9.407   5.674 -1.6287  1.0666  0.1997
 8593SOL    HW236709   8.165   9.437   5.529 -1.2824  0.3899 -0.1046
 8594SOL     OW36710   2.226   5.594   5.574 -0.6378  0.1215  0.0552
 8594SOL    HW136711   2.244   5.630   5.482 -2.2099 -0.1392 -0.3674
 8594SOL    HW236712   2.283   5.514   5.590 -2.0170 -1.2248 -1.5841
 8595SOL     OW36713   2.370   8.140   4.507 -0.5244 -0.0576  0.1264
 8595SOL    HW136714   2.405   8.230   4.532  0.0039 -0.4173  0.6865
 8595SOL    HW236715   2.419   8.106   4.427  0.1043 -0.3702  0.6446
 8596SOL     OW36716   1.965   8.463   2.642  0.5669  0.4383  0.5435
 8596SOL    HW136717   1.916   8.439   2.726  0.1110  0.9755  0.4337
 8596SOL    HW236718   2.060   8.487   2.664 -0.1942  2.9916  1.2393
 8597SOL     OW36719   1.182   3.992   3.787 -0.6759 -0.2080  0.2316
 8597SOL    HW136720   1.182   4.034   3.878  1.5557 -1.5438  0.8957
 8597SOL    HW236721   1.242   3.912   3.788 -1.6301 -0.9732 -2.1011
 8598SOL     OW36722   8.282   5.657   1.102 -0.1376  0.1177  0.5450
 8598SOL    HW136723   8.317   5.733   1.047 -2.1969  0.3973 -0.3966
 8598SOL    HW236724   8.329   5.657   1.191  0.1406  2.2593  0.4301
 8599SOL     OW36725   1.693   8.169   3.939 -0.6167  0.2678 -0.7981
 8599SOL    HW136726   1.779   8.219   3.952 -2.3039  2.9558  0.4840
 8599SOL    HW236727   1.691   8.091   4.001 -0.0415  1.4975  0.8064
 8600SOL     OW36728   2.153   2.712   5.548 -0.0192 -0.5934  0.5227
 8600SOL    HW136729   2.080   2.698   5.481  0.7800 -1.4153 -0.2000
 8600SOL    HW236730   2.153   2.636   5.614  0.3780 -0.7716  0.3239
 8601SOL     OW36731   2.256   0.330   1.322  0.8638 -0.0708  0.1940
 8601SOL    HW136732   2.224   0.424   1.313 -0.2176 -0.3690  0.8535
 8601SOL    HW236733   2.225   0.276   1.244  2.5729  0.4138 -0.8342
 8602SOL     OW36734   3.959   4.375   0.246  0.0138 -0.1498  0.3290
 8602SOL    HW136735   3.875   4.326   0.224  0.3582 -0.8123  0.4655
 8602SOL    HW236736   4.006   4.398   0.161 -0.1875  0.0075  0.2607
 8603SOL     OW36737   1.482   1.002   4.531 -0.5719  0.4554  0.3393
 8603SOL    HW136738   1.385   1.016   4.510 -0.5132 -0.4724 -0.6036
 8603SOL    HW236739   1.536   1.013   4.448 -0.1362 -1.3894  0.3401
 8604SOL     OW36740   1.431   7.233   0.259  0.1494  0.2810 -0.6101
 8604SOL    HW136741   1.511   7.287   0.232  0.1032  0.6337 -0.0259
 8604SOL    HW236742   1.365   7.291   0.305 -0.2467 -0.1103 -0.6849
 8605SOL     OW36743   7.476   2.050   2.720 -0.0371  0.6658  0.1167
 8605SOL    HW136744   7.490   2.021   2.814 -0.6554  0.3772  0.1173
 8605SOL    HW236745   7.529   2.134   2.703  1.1545 -0.0339  0.3204
 8606SOL     OW36746   6.016   8.346   2.358 -0.3350  0.4681 -0.4948
 8606SOL    HW136747   6.103   8.394   2.365  0.2315 -0.4810 -0.9898
 8606SOL    HW236748   5.957   8.394   2.292 -0.0416  0.8864 -0.4560
 8607SOL     OW36749   1.556   0.351   5.083  1.0691  0.7497  0.0009
 8607SOL    HW136750   1.505   0.282   5.135  0.5723  0.5596 -0.7407
 8607SOL    HW236751   1.621   0.305   5.022  0.1822  0.9181 -1.0708
 8608SOL     OW36752   3.881   6.999   2.621  0.1623  0.0005  0.5925
 8608SOL    HW136753   3.929   6.957   2.698 -0.5940  0.1657  1.1703
 8608SOL    HW236754   3.801   6.943   2.598  1.2044 -0.8288 -1.0372
 8609SOL     OW36755   8.435   1.432   2.012  0.2006 -0.2969  0.1577
 8609SOL    HW136756   8.504   1.475   2.069  0.8767 -0.3263 -0.6371
 8609SOL    HW236757   8.457   1.335   2.000 -0.0822 -0.3513  0.0598
 8610SOL     OW36758   1.078   8.041   5.586  0.4552 -0.2755 -0.0274
 8610SOL    HW136759   1.066   7.959   5.641  2.7388 -0.9996 -0.5704
 8610SOL    HW236760   1.010   8.043   5.513 -2.1471  0.3390  2.3337
 8611SOL     OW36761   1.326   2.673   1.080  0.4826 -0.2120  0.1654
 8611SOL    HW136762   1.409   2.720   1.051 -1.0205 -0.8091 -5.7162
 8611SOL    HW236763   1.260   2.739   1.114  0.5916  1.3155 -2.4490
 8612SOL     OW36764   0.667   7.562   0.026  0.0032  0.0066  0.6795
 8612SOL    HW136765   0.713   7.493  -0.030 -3.2035 -2.2662  0.7078
 8612SOL    HW236766   0.731   7.636   0.046  2.5041 -1.2003 -2.3362
 8613SOL     OW36767   4.785   6.114   1.272  0.1744  0.3051  0.5785
 8613SOL    HW136768   4.762   6.044   1.340 -0.0160  0.3498  0.5599
 8613SOL    HW236769   4.790   6.072   1.181 -2.2857  0.7364  0.2056
 8614SOL     OW36770   6.107   4.734   0.174 -0.0028 -0.0792  0.3769
 8614SOL    HW136771   6.173   4.701   0.242 -1.0988 -3.4741 -0.1088
 8614SOL    HW236772   6.015   4.727   0.212 -0.4360  0.1252 -0.6420
 8615SOL     OW36773   9.414   6.803   1.335 -0.8662 -0.3803 -0.2966
 8615SOL    HW136774   9.392   6.891   1.377 -2.4459 -1.1454  0.5384
 8615SOL    HW236775   9.367   6.730   1.385  2.6891 -2.0130  0.8224
 8616SOL     OW36776   0.543   8.359   0.385 -0.2053 -0.0877 -0.3928
 8616SOL    HW136777   0.471   8.404   0.437  0.7672  0.8437  0.1559
 8616SOL    HW236778   0.519   8.263   0.370 -1.8986  0.3983 -0.8539
 8617SOL     OW36779   2.221   8.426   3.912 -0.0434  0.4427 -0.1973
 8617SOL    HW136780   2.221   8.342   3.967 -0.7353 -0.3905 -1.4247
 8617SOL    HW236781   2.310   8.470   3.919 -0.3641  0.7948  2.2236
 8618SOL     OW36782   7.435   0.481   3.881  0.2964  0.1440  0.1916
 8618SOL    HW136783   7.466   0.392   3.916  0.0349  0.0141  0.0977
 8618SOL    HW236784   7.364   0.466   3.812 -0.0381  0.4432  0.4733
 8619SOL     OW36785   3.620   9.781   1.717 -0.0988  0.6398  0.4045
 8619SOL    HW136786   3.688   9.852   1.736  1.3689  0.3805 -3.4112
 8619SOL    HW236787   3.549   9.817   1.657 -1.6474  0.0259  1.8396
 8620SOL     OW36788   1.025   8.524   3.753  0.3714  0.1792 -0.4221
 8620SOL    HW136789   1.088   8.601   3.743 -0.1628  1.2862  3.6769
 8620SOL    HW236790   1.073   8.446   3.793 -0.1659  0.0453 -0.0263
 8621SOL     OW36791   9.032   6.099   0.113  0.1547 -0.5863  0.0502
 8621SOL    HW136792   8.945   6.091   0.159 -0.3410 -0.6011 -0.8725
 8621SOL    HW236793   9.024   6.164   0.037  1.0461 -0.2830  0.2020
 8622SOL     OW36794   4.337   9.601   0.455  0.1711 -0.2011  0.3603
 8622SOL    HW136795   4.292   9.512   0.450  0.9123 -0.7731  2.9571
 8622SOL    HW236796   4.292   9.657   0.525  0.6587  0.9009 -0.1962
 8623SOL     OW36797   9.013   8.931   5.143  0.1186  0.2551  0.1396
 8623SOL    HW136798   8.967   8.865   5.202  0.0495 -0.7121 -0.9897
 8623SOL    HW236799   9.105   8.949   5.178  0.0504 -0.2435  0.5865
 8624SOL     OW36800   0.025   0.251   0.611 -0.5479  0.0492  0.0680
 8624SOL    HW136801  -0.037   0.211   0.544  1.7783 -1.7715 -1.0739
 8624SOL    HW236802   0.001   0.218   0.703 -0.3789 -1.8034 -0.5366
 8625SOL     OW36803   2.581   4.938   1.032 -0.4122  0.2394  0.5848
 8625SOL    HW136804   2.570   5.024   0.981  2.0539 -1.5532 -3.2032
 8625SOL    HW236805   2.667   4.939   1.082 -0.4993  0.0546  0.7407
 8626SOL     OW36806   7.878   0.496   4.524 -0.6097  0.0498  0.4812
 8626SOL    HW136807   7.865   0.575   4.465 -1.5748 -0.8211 -0.4900
 8626SOL    HW236808   7.790   0.455   4.544  0.0195 -1.7592 -0.3726
 8627SOL     OW36809   0.291   2.753   0.204 -0.4024 -0.4706 -0.1408
 8627SOL    HW136810   0.301   2.850   0.224 -1.0428 -0.2773 -0.7421
 8627SOL    HW236811   0.264   2.741   0.108 -1.1540 -1.1978  0.1497
 8628SOL     OW36812   4.946   9.146   5.190 -0.5851 -0.0138 -0.4143
 8628SOL    HW136813   5.006   9.068   5.171 -2.0690 -1.1612 -0.5057
 8628SOL    HW236814   4.851   9.117   5.180 -1.1415  2.1102 -1.6246
 8629SOL     OW36815   3.407   4.555   3.571 -0.7333  0.6730 -0.1749
 8629SOL    HW136816   3.344   4.543   3.494 -0.2397  1.0981 -0.6456
 8629SOL    HW236817   3.502   4.552   3.538 -0.5289  2.0316  0.2440
 8630SOL     OW36818   6.473   9.799   2.565  0.2054  0.1713  0.4662
 8630SOL    HW136819   6.563   9.835   2.542  0.5211 -0.9985 -0.1794
 8630SOL    HW236820   6.470   9.701   2.546 -1.0490  0.0985  0.9481
 8631SOL     OW36821   7.775   1.128   1.440 -0.0708 -0.4023  0.1585
 8631SOL    HW136822   7.794   1.192   1.514 -1.5382 -0.0849  0.2621
 8631SOL    HW236823   7.784   1.034   1.474  1.6510 -0.2692  0.1131
 8632SOL     OW36824   8.872   0.876   0.827  0.1892  0.0639 -0.0414
 8632SOL    HW136825   8.794   0.855   0.886  0.8248 -0.0869  0.7605
 8632SOL    HW236826   8.928   0.947   0.870  0.4372  0.2490 -0.6643
 8633SOL     OW36827   9.419   4.905   3.779  0.0737 -0.3168  0.2716
 8633SOL    HW136828   9.443   4.810   3.795 -2.3400 -0.6196  2.4563
 8633SOL    HW236829   9.361   4.912   3.698 -1.1593 -0.9642  1.0828
 8634SOL     OW36830   4.533   8.753   3.825 -0.7340 -0.1539  0.4532
 8634SOL    HW136831   4.459   8.713   3.878 -1.1932 -0.8009 -0.6599
 8634SOL    HW236832   4.523   8.852   3.823 -0.9773 -0.1599  1.1697
 8635SOL     OW36833   7.333   8.402   4.378  0.3482  0.1745  0.2493
 8635SOL    HW136834   7.348   8.450   4.292  1.1739  0.6623  0.6602
 8635SOL    HW236835   7.416   8.404   4.433  0.2766 -1.3987  0.4439
 8636SOL     OW36836   4.272   4.516   1.577 -0.1717 -0.4474  0.0150
 8636SOL    HW136837   4.290   4.516   1.479  1.9027  0.9808  0.3576
 8636SOL    HW236838   4.321   4.440   1.620 -0.0623 -0.3235  0.1096
 8637SOL     OW36839   0.083   6.496   4.745 -0.4640  0.8809  0.1153
 8637SOL    HW136840   0.044   6.574   4.696 -1.0973  0.6414  0.2346
 8637SOL    HW236841   0.154   6.454   4.689 -1.8023  0.0572 -0.9956
 8638SOL     OW36842   2.137   9.876   4.833 -0.0845 -0.1008 -0.1378
 8638SOL    HW136843   2.067   9.812   4.864 -0.7858  0.7902  0.1221
 8638SOL    HW236844   2.175   9.844   4.746 -0.4415 -0.8570 -0.0192
 8639SOL     OW36845   0.322   2.570   0.592  0.4615  0.1824 -0.2336
 8639SOL    HW136846   0.234   2.526   0.571  0.7303 -0.9746  0.9827
 8639SOL    HW236847   0.396   2.517   0.550  0.6497  0.6025 -0.4324
 8640SOL     OW36848   1.625   3.986   3.644  0.0768  0.7114 -0.3319
 8640SOL    HW136849   1.634   4.075   3.688 -0.2958  0.1062  1.0043
 8640SOL    HW236850   1.553   3.933   3.690 -0.1362 -0.0435 -1.5014
 8641SOL     OW36851   4.279   9.013   1.314  0.3537  0.4201  0.2693
 8641SOL    HW136852   4.248   9.085   1.376  1.0149 -1.0100  2.3047
 8641SOL    HW236853   4.372   8.986   1.338  0.5383 -0.3007 -1.2222
 8642SOL     OW36854   3.409   1.807   4.576 -0.7215  0.1448 -0.0270
 8642SOL    HW136855   3.409   1.865   4.657  1.0365 -0.6450  0.5532
 8642SOL    HW236856   3.424   1.712   4.603 -0.5713 -0.1800 -1.2391
 8643SOL     OW36857   7.736   1.483   2.113 -0.1545  0.8816  0.1138
 8643SOL    HW136858   7.785   1.531   2.185  0.2438  0.8347 -0.1242
 8643SOL    HW236859   7.754   1.385   2.120  1.4503  1.0485 -1.2123
 8644SOL     OW36860   0.993   0.058   3.754  0.3442  0.7423  0.4560
 8644SOL    HW136861   1.040  -0.030   3.749 -1.2297 -0.1944  1.7584
 8644SOL    HW236862   0.961   0.073   3.847  0.1916  2.4973  0.1343
 8645SOL     OW36863   1.382   8.302   3.037  0.4457  0.2389  0.0338
 8645SOL    HW136864   1.443   8.328   2.963  0.6211  1.1788  0.4980
 8645SOL    HW236865   1.433   8.256   3.109  0.2665 -0.7202 -0.4513
 8646SOL     OW36866   5.241   2.588   1.551 -0.3884  0.1103 -0.2440
 8646SOL    HW136867   5.287   2.622   1.633  0.0447 -0.0336 -0.4261
 8646SOL    HW236868   5.233   2.662   1.485 -0.5303  0.1671 -0.1634
 8647SOL     OW36869   9.922   4.168   5.274 -0.0726 -0.1243 -0.1625
 8647SOL    HW136870   9.828   4.140   5.259 -0.0890  0.0441 -0.3810
 8647SOL    HW236871   9.923   4.260   5.315 -0.0325 -0.6295  0.9940
 8648SOL     OW36872   2.738   7.857   4.375  0.4283 -0.1067 -0.4445
 8648SOL    HW136873   2.757   7.843   4.277 -2.3553  0.0846 -1.0628
 8648SOL    HW236874   2.737   7.768   4.421  1.8045 -0.1946 -0.5665
 8649SOL     OW36875   5.682   1.224   1.675  0.6396  0.5424 -0.6093
 8649SOL    HW136876   5.626   1.262   1.601  0.6764  1.0203 -0.3884
 8649SOL    HW236877   5.645   1.251   1.763  0.6643  0.0626 -0.4495
 8650SOL     OW36878   1.945   1.468   3.232 -0.0612 -0.1252 -0.3148
 8650SOL    HW136879   2.005   1.396   3.265  0.9116  1.2978  1.1130
 8650SOL    HW236880   1.867   1.478   3.294 -1.2905 -1.3170 -1.6356
 8651SOL     OW36881   0.917   2.562   1.990 -0.3845 -0.7726  0.6117
 8651SOL    HW136882   0.923   2.473   1.944  0.4905  0.1376 -1.0719
 8651SOL    HW236883   0.830   2.568   2.039 -1.6222 -1.5431 -1.4320
 8652SOL     OW36884   9.807   5.111   3.840 -0.6259  0.0829  0.1119
 8652SOL    HW136885   9.715   5.137   3.811 -0.7576  0.6364  0.9744
 8652SOL    HW236886   9.804   5.083   3.936  0.0971  0.0373  0.1224
 8653SOL     OW36887   0.350   0.564   3.013  0.3439 -0.0963  0.2150
 8653SOL    HW136888   0.380   0.572   3.108  0.1260  1.2343  0.1788
 8653SOL    HW236889   0.414   0.612   2.953 -0.1332  0.0514 -0.1878
 8654SOL     OW36890   9.988   6.769   3.465 -0.0338 -0.5469 -0.3797
 8654SOL    HW136891   9.903   6.819   3.447  1.1324  1.4575 -0.4136
 8654SOL    HW236892  10.004   6.765   3.564 -0.2218 -1.0560 -0.3651
 8655SOL     OW36893   1.557   0.405   4.678 -0.3225  0.0590 -0.1802
 8655SOL    HW136894   1.570   0.407   4.579  3.5127 -1.4694  0.1734
 8655SOL    HW236895   1.495   0.330   4.702 -0.3870 -0.2850 -1.3762
 8656SOL     OW36896   4.214   0.691   4.678  0.0695  0.3810  0.2207
 8656SOL    HW136897   4.198   0.625   4.752  0.0920  0.5111  0.3434
 8656SOL    HW236898   4.235   0.780   4.718 -1.7841  0.9192  0.0590
 8657SOL     OW36899   2.596   5.747   4.307  0.2440 -0.4280 -0.1916
 8657SOL    HW136900   2.557   5.824   4.358  1.1477  0.1802 -0.3938
 8657SOL    HW236901   2.568   5.752   4.212 -1.1705 -1.3731  0.1680
 8658SOL     OW36902   1.219   8.254   1.559  0.2362 -0.7098  0.3914
 8658SOL    HW136903   1.136   8.239   1.612 -0.2487  0.7387  0.0520
 8658SOL    HW236904   1.194   8.280   1.465  1.0802 -1.0511  0.0663
 8659SOL     OW36905   3.049   7.280   1.833 -0.1449  0.3312 -0.5380
 8659SOL    HW136906   3.084   7.262   1.925  0.9451  1.0512 -0.8114
 8659SOL    HW236907   2.954   7.313   1.840 -0.0955  0.3192  0.3122
 8660SOL     OW36908   1.871   5.267   4.720  0.0701 -0.2189  0.0341
 8660SOL    HW136909   1.817   5.338   4.766  0.7566  1.3996 -1.5656
 8660SOL    HW236910   1.937   5.228   4.783  0.4783  1.4167  0.6490
 8661SOL     OW36911   2.369   9.391   4.412  0.0998  0.3221  0.2453
 8661SOL    HW136912   2.469   9.401   4.418  0.0565  1.1473 -0.2900
 8661SOL    HW236913   2.342   9.303   4.451  1.2395 -0.8501 -1.5445
 8662SOL     OW36914   0.776   2.679   0.923  0.0949  0.8509  0.3222
 8662SOL    HW136915   0.703   2.655   0.987  0.8900  2.1087  1.7129
 8662SOL    HW236916   0.865   2.665   0.966  0.6801  0.0938 -1.0915
 8663SOL     OW36917   0.215   1.293   2.829 -0.5246  0.4823  0.2890
 8663SOL    HW136918   0.198   1.201   2.862  2.1015 -0.3187 -0.4822
 8663SOL    HW236919   0.196   1.297   2.730 -0.7363  0.7927  0.3409
 8664SOL     OW36920   5.323   0.508   3.157 -0.0001 -0.3684  0.5161
 8664SOL    HW136921   5.310   0.572   3.232 -1.3099  1.3537 -1.1301
 8664SOL    HW236922   5.413   0.525   3.115 -0.9235  1.4190 -0.8173
 8665SOL     OW36923   2.110   6.288   4.138  0.0029 -0.4597  0.2712
 8665SOL    HW136924   2.106   6.320   4.043  0.7348 -1.4607 -0.0974
 8665SOL    HW236925   2.033   6.327   4.189  0.1394  0.8312 -0.4983
 8666SOL     OW36926   9.562   8.368   5.146 -0.1190  0.2275 -0.0521
 8666SOL    HW136927   9.583   8.385   5.243 -1.7995 -1.0273  0.5614
 8666SOL    HW236928   9.585   8.274   5.124  1.9393  1.0063 -1.3887
 8667SOL     OW36929   0.202   0.325   0.216 -0.1465  0.2728  0.0283
 8667SOL    HW136930   0.248   0.388   0.279  1.3457 -2.5714  1.9054
 8667SOL    HW236931   0.269   0.289   0.151 -0.8093 -0.0456 -0.4815
 8668SOL     OW36932   0.823   3.954   5.623  0.3360  0.0205  0.0876
 8668SOL    HW136933   0.799   3.940   5.526 -1.0204  1.9082  0.1166
 8668SOL    HW236934   0.918   3.928   5.638  0.8012  0.4460 -1.9396
 8669SOL     OW36935   5.399   9.685   3.865 -0.0602 -0.3991  0.2764
 8669SOL    HW136936   5.485   9.662   3.818  0.6405  0.8011  0.9619
 8669SOL    HW236937   5.330   9.711   3.797  0.6404  0.3371 -0.1549
 8670SOL     OW36938   6.040   1.812   1.801 -0.4996 -0.6689 -0.5694
 8670SOL    HW136939   6.021   1.886   1.865  0.1325  0.1134 -1.2761
 8670SOL    HW236940   5.976   1.818   1.724 -1.8062 -2.1012  0.3690
 8671SOL     OW36941   1.184   1.489   2.073  0.0059 -1.0193 -0.4850
 8671SOL    HW136942   1.162   1.416   2.137  1.6920 -0.2046  1.0837
 8671SOL    HW236943   1.247   1.455   2.003 -0.9730 -1.6359 -1.0617
 8672SOL     OW36944   3.220   1.431   2.590 -0.2900 -0.3221  0.0169
 8672SOL    HW136945   3.218   1.487   2.673  3.0654  0.8659 -0.6354
 8672SOL    HW236946   3.194   1.487   2.511  0.1017 -0.4928 -0.2333
 8673SOL     OW36947   7.382   0.439   2.212 -0.2233 -0.0866 -0.1055
 8673SOL    HW136948   7.401   0.347   2.245 -0.7911 -1.1757 -2.6733
 8673SOL    HW236949   7.464   0.496   2.221  0.5189 -1.2163  0.2970
 8674SOL     OW36950   9.465   4.656   3.849 -0.6420 -0.5535  0.0714
 8674SOL    HW136951   9.525   4.593   3.800 -1.4091 -1.3705  0.1615
 8674SOL    HW236952   9.370   4.625   3.840 -1.0685  0.8280 -0.2296
 8675SOL     OW36953   3.722   6.404   1.926  0.1621  0.1477 -0.4523
 8675SOL    HW136954   3.781   6.477   1.963 -1.2574 -0.1577  2.5383
 8675SOL    HW236955   3.779   6.337   1.878  1.7351  2.0788 -1.3982
 8676SOL     OW36956   8.251   4.259   2.261 -0.2575  0.5746 -0.3532
 8676SOL    HW136957   8.228   4.281   2.167 -0.6449 -0.9364 -0.6149
 8676SOL    HW236958   8.342   4.295   2.282 -0.8344  2.3510 -0.7839
 8677SOL     OW36959   5.136   0.436   1.757  0.1751  0.5894 -0.4284
 8677SOL    HW136960   5.224   0.481   1.746  0.5664  0.5815  2.2897
 8677SOL    HW236961   5.138   0.347   1.710  2.4311 -0.4256  1.5047
 8678SOL     OW36962   0.082   3.599   3.512  0.0499 -0.4678  0.1078
 8678SOL    HW136963   0.036   3.513   3.535 -1.8346  0.6964  0.8431
 8678SOL    HW236964   0.160   3.612   3.573  1.3203 -2.3989 -1.0514
 8679SOL     OW36965   0.442   9.641   5.236  0.9332 -0.6301 -0.1663
 8679SOL    HW136966   0.355   9.608   5.199  1.2884 -0.0625 -1.5044
 8679SOL    HW236967   0.425   9.689   5.322 -0.3286  1.2286 -1.4223
 8680SOL     OW36968   0.600   3.260   4.988 -0.3376  0.1321 -0.2509
 8680SOL    HW136969   0.612   3.299   5.080  0.0603  1.4018 -0.8366
 8680SOL    HW236970   0.687   3.224   4.956 -0.0974  1.1645 -0.7882
 8681SOL     OW36971   4.158   9.417   1.587 -0.2361 -0.0728  0.1206
 8681SOL    HW136972   4.192   9.390   1.677 -2.3153 -1.2340  0.5851
 8681SOL    HW236973   4.126   9.512   1.591 -0.9181 -0.3270  0.7820
 8682SOL     OW36974   5.637   8.790   2.930 -0.1251  0.1428 -0.6150
 8682SOL    HW136975   5.553   8.770   2.880  1.1514 -0.0493 -2.7242
 8682SOL    HW236976   5.710   8.728   2.899  1.0848  1.0459  0.3828
 8683SOL     OW36977   5.818   0.423   3.864  0.7766 -0.0854  0.4583
 8683SOL    HW136978   5.842   0.515   3.894 -0.4925  0.4754 -0.2014
 8683SOL    HW236979   5.878   0.396   3.789  0.9650  0.3212  0.4617
 8684SOL     OW36980   0.998   2.665   1.083 -0.1163 -0.0153 -0.0318
 8684SOL    HW136981   0.925   2.617   1.132  0.3838 -0.3027  0.4303
 8684SOL    HW236982   1.047   2.724   1.147 -0.5108  0.8655 -0.5254
 8685SOL     OW36983   3.185   0.861   4.037  0.1557 -0.1347 -0.1478
 8685SOL    HW136984   3.257   0.927   4.018 -1.1808  1.2336 -0.6029
 8685SOL    HW236985   3.217   0.769   4.016  1.5331  0.5122 -0.9561
 8686SOL     OW36986   8.974   0.800   2.906  0.2359  0.0026  0.4544
 8686SOL    HW136987   9.056   0.797   2.962  1.4071 -0.5417 -1.2285
 8686SOL    HW236988   8.990   0.749   2.821 -2.3646 -1.4411  0.7774
 8687SOL     OW36989   1.733   6.499   4.837 -0.2699 -0.2928 -0.0197
 8687SOL    HW136990   1.695   6.579   4.884 -1.5854 -0.2373 -1.1199
 8687SOL    HW236991   1.670   6.470   4.764  1.2370 -0.9808 -1.0876
 8688SOL     OW36992   3.127   8.566   2.235  0.0359  0.1027 -0.2006
 8688SOL    HW136993   3.101   8.662   2.244 -0.8762 -0.2948  1.4773
 8688SOL    HW236994   3.213   8.560   2.184 -1.4651  1.6135 -3.0412
 8689SOL     OW36995   4.551   1.325   3.189 -0.5463  0.2590  0.0378
 8689SOL    HW136996   4.471   1.337   3.247 -1.0660 -0.1991 -0.5880
 8689SOL    HW236997   4.597   1.240   3.212  0.0436  0.7590  0.7314
 8690SOL     OW36998   2.980   8.137   2.468 -0.3091 -0.0382 -0.1616
 8690SOL    HW136999   2.958   8.204   2.398 -0.4370  0.2106  0.1146
 8690SOL    HW237000   3.075   8.148   2.497 -0.3951  0.1674  0.0410
 8691SOL     OW37001   8.254   0.417   3.560 -0.4417 -0.2310  0.8888
 8691SOL    HW137002   8.230   0.337   3.505 -0.1613 -1.1585  2.0934
 8691SOL    HW237003   8.264   0.496   3.500 -1.8441 -0.8455 -0.1846
 8692SOL     OW37004   0.938   5.435   3.585  0.3073 -0.5620  0.1664
 8692SOL    HW137005   0.939   5.510   3.651  0.1651  0.2289 -0.7213
 8692SOL    HW237006   1.032   5.404   3.568  0.8592  2.7700 -3.2345
 8693SOL     OW37007   4.824   3.688   1.681 -0.1314 -0.1401 -0.2305
 8693SOL    HW137008   4.917   3.720   1.698 -0.5601  1.1540 -0.2280
 8693SOL    HW237009   4.825   3.621   1.606  1.0375 -1.6657  1.1038
 8694SOL     OW37010   0.359   0.168   2.798 -0.4455  0.4885  0.1393
 8694SOL    HW137011   0.299   0.248   2.807  1.9236  2.1866  1.2813
 8694SOL    HW237012   0.416   0.160   2.879 -0.3252 -2.1127 -0.1862
 8695SOL     OW37013   2.746   6.544   0.815 -0.1013  0.3563 -0.1943
 8695SOL    HW137014   2.698   6.618   0.863 -0.0896 -1.5026  2.8486
 8695SOL    HW237015   2.845   6.554   0.829 -0.2362 -2.2496  3.5947
 8696SOL     OW37016   1.801   3.417   2.601 -0.4867 -0.7218 -0.6414
 8696SOL    HW137017   1.802   3.466   2.514  0.2619 -0.7762 -0.6628
 8696SOL    HW237018   1.876   3.449   2.658 -1.2428 -0.3701  0.1658
 8697SOL     OW37019   3.654   9.926   2.695 -0.1796  0.0904 -0.3885
 8697SOL    HW137020   3.625  10.021   2.707 -1.5679  0.0205 -2.8614
 8697SOL    HW237021   3.573   9.867   2.689  0.6649 -1.2204  0.7299
 8698SOL     OW37022   0.735   9.303   2.165 -0.0453 -0.7011 -0.0827
 8698SOL    HW137023   0.691   9.390   2.182 -0.3815 -1.3636  2.7053
 8698SOL    HW237024   0.668   9.238   2.128 -0.0731 -0.1495 -1.0227
 8699SOL     OW37025   2.167   4.723   0.529  0.0172 -0.1904  0.3406
 8699SOL    HW137026   2.238   4.671   0.481  0.3168  1.3340 -0.8955
 8699SOL    HW237027   2.079   4.710   0.482  0.2141  0.9006 -0.3498
 8700SOL     OW37028   3.936   8.378   4.445 -0.3138 -0.0362 -0.0942
 8700SOL    HW137029   3.885   8.455   4.405  2.5181  2.3920  0.7911
 8700SOL    HW237030   3.989   8.333   4.374 -0.5880 -0.0686 -0.2823
 8701SOL     OW37031   1.668   4.106   2.559  0.4227 -0.0960  0.1057
 8701SOL    HW137032   1.697   4.160   2.480 -0.0979  0.2868  0.1796
 8701SOL    HW237033   1.696   4.153   2.643  2.2377 -1.1976  0.1362
 8702SOL     OW37034   1.395   4.782   4.190 -0.3597 -0.1113  0.0164
 8702SOL    HW137035   1.356   4.817   4.105 -1.6838 -2.2242 -0.2832
 8702SOL    HW237036   1.365   4.840   4.266 -0.7245  0.6794 -0.7176
 8703SOL     OW37037   4.180   0.072   0.018  0.1623  0.8449 -0.9161
 8703SOL    HW137038   4.210   0.159  -0.020  0.4340  1.1967  0.1001
 8703SOL    HW237039   4.091   0.083   0.062 -0.2572  0.3873 -1.6359
 8704SOL     OW37040   7.832   7.589   2.171 -0.3465  0.4464  0.3944
 8704SOL    HW137041   7.805   7.580   2.267 -0.2526 -0.2861  0.3508
 8704SOL    HW237042   7.860   7.684   2.154 -1.1462  0.7753  0.8833
 8705SOL     OW37043   1.294   7.500   0.075 -0.2508  0.3636  0.0642
 8705SOL    HW137044   1.266   7.465   0.165 -1.2509  0.9754 -0.0027
 8705SOL    HW237045   1.315   7.597   0.082  0.2992  0.2676 -0.2313
 8706SOL     OW37046   0.317   0.386   1.551 -0.1040  0.1550 -0.1718
 8706SOL    HW137047   0.296   0.460   1.487  1.6130 -0.8468 -1.9402
 8706SOL    HW237048   0.232   0.355   1.595 -0.8755  2.9327  0.3557
 8707SOL     OW37049   9.083   7.064   3.985  0.4841  0.1496 -0.4493
 8707SOL    HW137050   9.072   7.038   4.081 -0.7497  1.8478 -0.1203
 8707SOL    HW237051   9.096   7.163   3.977 -2.2171  0.4153 -2.2147
 8708SOL     OW37052   7.411   0.192   1.649  0.3200 -0.5437  0.4224
 8708SOL    HW137053   7.340   0.261   1.637 -0.0833 -0.8772  0.8609
 8708SOL    HW237054   7.411   0.130   1.570  0.8943  0.1396 -0.1225
 8709SOL     OW37055   2.741   3.729   5.041 -0.3671 -0.0990 -0.4895
 8709SOL    HW137056   2.643   3.716   5.053 -0.2042 -0.1379  0.8717
 8709SOL    HW237057   2.789   3.649   5.078  0.2205  0.3674 -0.2472
 8710SOL     OW37058   2.449   3.153   5.594 -0.3155 -0.1841 -1.0984
 8710SOL    HW137059   2.499   3.130   5.511 -1.6860  2.1114 -2.6006
 8710SOL    HW237060   2.365   3.100   5.598 -0.8888  0.6549 -1.8621
 8711SOL     OW37061   2.497   4.420   0.759 -0.0335 -0.0753  0.1956
 8711SOL    HW137062   2.542   4.488   0.817 -0.4779  0.9898 -0.6785
 8711SOL    HW237063   2.402   4.447   0.744 -0.9426 -2.2349  1.8979
 8712SOL     OW37064   4.384   2.015   0.025 -0.4001  0.4371 -0.3087
 8712SOL    HW137065   4.326   2.097   0.024 -1.1723 -0.1014 -0.5603
 8712SOL    HW237066   4.438   2.011  -0.058 -1.6925 -0.2234 -1.1449
 8713SOL     OW37067   3.250   6.097   3.030  0.5459  0.3934 -0.1747
 8713SOL    HW137068   3.337   6.146   3.034  0.7190  0.1713 -1.0243
 8713SOL    HW237069   3.196   6.130   2.952 -0.5500  1.2027  0.9109
 8714SOL     OW37070   6.738   0.768   5.219 -0.3639 -0.1531 -0.2672
 8714SOL    HW137071   6.795   0.724   5.288  1.3383  0.9636 -0.9322
 8714SOL    HW237072   6.651   0.719   5.211  0.2669 -1.5333  1.1635
 8715SOL     OW37073   7.253   0.076   1.395 -0.1282 -0.0200 -0.2422
 8715SOL    HW137074   7.259  -0.000   1.460 -1.2571 -0.5970 -0.7991
 8715SOL    HW237075   7.157   0.092   1.371  0.1084  1.5089 -0.2220
 8716SOL     OW37076   7.431   7.146   2.278  0.4379 -0.0603 -0.8618
 8716SOL    HW137077   7.527   7.121   2.262  0.6025  0.5276 -0.8181
 8716SOL    HW237078   7.417   7.241   2.251 -0.0461 -0.0319 -0.5139
 8717SOL     OW37079   7.936   5.272   0.827 -0.4555 -0.0312  0.1279
 8717SOL    HW137080   8.019   5.321   0.852  0.1041 -0.9730  0.1565
 8717SOL    HW237081   7.864   5.337   0.804  0.3296  0.7901 -0.0317
 8718SOL     OW37082   4.704   1.967   2.132 -0.5438 -0.1894 -0.4814
 8718SOL    HW137083   4.657   1.879   2.127  1.3214 -1.1356 -2.7727
 8718SOL    HW237084   4.796   1.953   2.169 -0.2674  0.7750 -0.7976
 8719SOL     OW37085   1.882   1.847   4.091  0.9828  0.1575 -0.7267
 8719SOL    HW137086   1.879   1.925   4.029 -1.1615  1.4171  0.8673
 8719SOL    HW237087   1.791   1.806   4.098  1.2033 -0.0404  1.4493
 8720SOL     OW37088   1.785   3.913   5.334 -0.5430  0.0234 -0.5787
 8720SOL    HW137089   1.878   3.945   5.351 -1.0505  0.4190  1.6968
 8720SOL    HW237090   1.785   3.813   5.325 -0.2421 -0.3103  2.4490
 8721SOL     OW37091   2.293   4.028   0.702 -0.4092 -0.0406  0.2202
 8721SOL    HW137092   2.195   4.031   0.720  0.0699 -0.8904  3.3337
 8721SOL    HW237093   2.312   3.964   0.628 -2.1721 -0.0933 -0.1966
 8722SOL     OW37094   9.026   3.199   2.495 -0.4057 -0.3678 -0.9211
 8722SOL    HW137095   9.092   3.204   2.571  0.6637 -0.5487 -1.8217
 8722SOL    HW237096   8.974   3.114   2.503  1.5957 -1.7388 -1.8761
 8723SOL     OW37097   1.616   1.750   4.066 -0.4357  0.5632  0.1678
 8723SOL    HW137098   1.583   1.838   4.099 -0.5536  0.5650  0.0430
 8723SOL    HW237099   1.567   1.724   3.983  1.3735  1.6141 -1.2678
 8724SOL     OW37100   3.770   7.146   3.315 -0.5010 -0.5965  0.3245
 8724SOL    HW137101   3.788   7.122   3.411 -0.5892 -0.4857  0.3695
 8724SOL    HW237102   3.842   7.207   3.282 -0.2099 -1.0274  0.1721
 8725SOL     OW37103   2.178   8.582   3.212 -0.7691  0.4750  0.3603
 8725SOL    HW137104   2.198   8.657   3.275  1.4964  0.2996 -0.1034
 8725SOL    HW237105   2.244   8.508   3.225 -0.1575  0.4852 -2.2753
 8726SOL     OW37106   8.535   4.318   0.629 -0.1542  0.2476 -0.0435
 8726SOL    HW137107   8.574   4.248   0.569 -0.7986 -0.2586  0.1270
 8726SOL    HW237108   8.472   4.376   0.577 -0.8603 -0.3119  0.1828
 8727SOL     OW37109   7.776   7.866   2.097 -0.3576 -0.2749 -0.1031
 8727SOL    HW137110   7.825   7.911   2.172 -1.5102  1.2004 -0.2079
 8727SOL    HW237111   7.685   7.906   2.088 -0.5368 -1.0035 -1.7672
 8728SOL     OW37112   6.544   8.351   2.292  0.0152  0.3307  0.1881
 8728SOL    HW137113   6.597   8.322   2.372 -0.2035  0.1960  0.2822
 8728SOL    HW237114   6.476   8.281   2.270 -0.7546  0.9348  0.6322
 8729SOL     OW37115   0.184   9.402   4.335  0.0530  0.3390  0.2585
 8729SOL    HW137116   0.243   9.461   4.390  0.4231 -0.7068  1.0260
 8729SOL    HW237117   0.104   9.453   4.305 -0.5570  0.7323  2.4713
 8730SOL     OW37118   7.866   8.611   2.206  0.3494 -0.5260  0.4295
 8730SOL    HW137119   7.848   8.597   2.303  1.5120 -2.3401  0.4134
 8730SOL    HW237120   7.935   8.545   2.175 -1.4546 -1.3273 -2.0753
 8731SOL     OW37121   2.044   2.176   3.703  0.4323  0.0071  0.2719
 8731SOL    HW137122   2.104   2.145   3.776 -0.1024 -2.0724 -0.1490
 8731SOL    HW237123   1.961   2.217   3.742  1.6739  2.0481  0.8373
 8732SOL     OW37124   2.555   3.804   4.444  0.6855 -0.0522 -0.2637
 8732SOL    HW137125   2.533   3.803   4.346 -0.3821  1.4870 -0.0551
 8732SOL    HW237126   2.542   3.712   4.482  0.0301 -0.4052 -1.3169
 8733SOL     OW37127   1.307   4.910   2.147 -0.0406 -0.5062  0.0030
 8733SOL    HW137128   1.223   4.882   2.192 -1.1308  0.4778 -1.3883
 8733SOL    HW237129   1.343   4.991   2.193  0.0148 -0.7605  0.4193
 8734SOL     OW37130   9.480   0.174   0.340  0.0263  0.0453  0.4799
 8734SOL    HW137131   9.423   0.123   0.276  0.2435  1.4976 -0.8990
 8734SOL    HW237132   9.546   0.113   0.383 -1.2807 -1.2767  0.6533
 8735SOL     OW37133   8.291   4.275   1.411  0.8304  0.6583  0.2412
 8735SOL    HW137134   8.379   4.246   1.450  1.1235  1.8643  0.5240
 8735SOL    HW237135   8.267   4.216   1.334  0.4785 -1.4682  1.9427
 8736SOL     OW37136   0.021   4.533   3.328 -0.3848  0.3139  0.0492
 8736SOL    HW137137   0.070   4.476   3.262 -1.2409  0.1719 -0.4735
 8736SOL    HW237138  -0.008   4.618   3.283 -1.9106 -0.2507 -0.0652
 8737SOL     OW37139   4.126   4.738   1.642  0.0007  0.7011 -0.1894
 8737SOL    HW137140   4.065   4.749   1.563  0.4251 -1.7303 -0.8843
 8737SOL    HW237141   4.204   4.681   1.616  1.1973  1.5607  1.4466
 8738SOL     OW37142   1.214   0.988   5.611  0.2587 -0.3016 -0.5188
 8738SOL    HW137143   1.123   1.009   5.575  0.1780 -1.3582 -0.9474
 8738SOL    HW237144   1.218   1.012   5.708 -0.2709  0.3311 -0.6475
 8739SOL     OW37145   5.036   6.042   1.853 -0.1252 -0.0333  0.0398
 8739SOL    HW137146   4.948   6.019   1.812  0.3048 -0.0468 -0.9038
 8739SOL    HW237147   5.106   5.981   1.818  0.3118  0.1726  0.5508
 8740SOL     OW37148   8.459   0.441   4.718  0.3994  0.0904 -0.0217
 8740SOL    HW137149   8.375   0.479   4.756 -0.1068  0.4153 -1.4397
 8740SOL    HW237150   8.445   0.344   4.695  0.8102 -0.1988  0.9381
 8741SOL     OW37151   7.699   1.765   2.468 -0.1210 -0.6223 -0.0907
 8741SOL    HW137152   7.748   1.852   2.477 -0.4984 -0.3405 -0.6744
 8741SOL    HW237153   7.606   1.783   2.436 -0.7606 -1.1220  1.4430
 8742SOL     OW37154   9.089   3.078   3.242 -0.2796  0.0506  0.3641
 8742SOL    HW137155   9.060   3.011   3.311 -1.2400  0.8854  0.7853
 8742SOL    HW237156   9.008   3.124   3.205  0.3560  0.7672 -0.1378
 8743SOL     OW37157   4.942   3.556   0.959 -0.8512 -0.3210  0.7554
 8743SOL    HW137158   4.925   3.504   0.875 -1.5455  0.0345  0.6782
 8743SOL    HW237159   4.889   3.641   0.957 -0.0962  0.1708  1.0978
 8744SOL     OW37160   6.279   8.004   3.892  0.2615 -0.2037  0.4834
 8744SOL    HW137161   6.343   7.935   3.857  1.7717  0.9266  0.9474
 8744SOL    HW237162   6.255   8.067   3.818 -1.2871 -1.3316  0.0052
 8745SOL     OW37163   2.451   9.183   3.737 -0.0775 -0.2415 -0.0743
 8745SOL    HW137164   2.371   9.195   3.796  0.2447  1.2530  0.0660
 8745SOL    HW237165   2.479   9.087   3.740 -0.0910 -0.2160  2.1668
 8746SOL     OW37166   3.155   7.103   3.327 -0.1025  0.1539 -0.2092
 8746SOL    HW137167   3.170   7.131   3.232  1.4079  1.9532  0.5223
 8746SOL    HW237168   3.101   7.172   3.374 -1.1426 -0.9030  0.1623
 8747SOL     OW37169   1.875   3.265   1.818  0.0084 -0.0258  0.5619
 8747SOL    HW137170   1.911   3.185   1.865  1.5504 -0.0918 -0.6992
 8747SOL    HW237171   1.791   3.295   1.863 -0.3278 -2.0617  1.3121
 8748SOL     OW37172   4.712   9.345   1.412  0.5519 -0.3418 -0.0736
 8748SOL    HW137173   4.801   9.301   1.426  0.8011 -0.0818 -0.7980
 8748SOL    HW237174   4.669   9.361   1.500  0.4673 -2.0202  0.2215
 8749SOL     OW37175   3.363   4.731   4.439 -0.1546  0.2745  0.2040
 8749SOL    HW137176   3.460   4.710   4.451 -0.2860 -0.0868  0.6547
 8749SOL    HW237177   3.332   4.699   4.350 -0.1685 -0.7324  0.5744
 8750SOL     OW37178   9.670   8.598   0.677  0.2670  0.7937 -0.1787
 8750SOL    HW137179   9.657   8.697   0.663 -1.2122  1.0888  2.9541
 8750SOL    HW237180   9.630   8.548   0.600 -0.1432  2.5649 -1.1527
 8751SOL     OW37181   7.816   8.839   1.387  0.4260 -0.3711  0.0604
 8751SOL    HW137182   7.749   8.764   1.390  0.5089 -0.4785 -0.7941
 8751SOL    HW237183   7.822   8.881   1.478 -0.3638 -0.7457  0.2911
 8752SOL     OW37184   9.080   5.669   3.231  0.0822 -0.1066 -0.4749
 8752SOL    HW137185   9.097   5.572   3.248  1.4157  0.4815  1.9059
 8752SOL    HW237186   9.145   5.703   3.163  1.8453 -0.1834  1.1155
 8753SOL     OW37187   0.069   9.092   3.264  0.2545 -0.0995 -0.4081
 8753SOL    HW137188  -0.005   9.108   3.329  0.2784  2.0671 -0.8679
 8753SOL    HW237189   0.142   9.159   3.279  1.0907 -0.7548 -1.4376
 8754SOL     OW37190   1.894   6.136   0.359 -0.6378 -0.3288  0.0752
 8754SOL    HW137191   1.829   6.128   0.283 -2.2631 -0.1470  1.4265
 8754SOL    HW237192   1.849   6.180   0.437  0.7188 -1.3742  1.4766
 8755SOL     OW37193   2.738   6.513   3.109 -0.0812 -0.3207 -0.0037
 8755SOL    HW137194   2.661   6.522   3.046 -0.6532 -0.5612  0.6515
 8755SOL    HW237195   2.704   6.511   3.203  0.7162 -0.5599  0.2859
 8756SOL     OW37196   0.462   0.627   2.115 -0.2889 -0.5674 -0.5346
 8756SOL    HW137197   0.520   0.576   2.178 -1.3912 -1.1678  0.0051
 8756SOL    HW237198   0.518   0.691   2.062  0.4127  1.3591  2.4251
 8757SOL     OW37199   3.877   9.126   4.066 -0.3956 -0.0931  0.0400
 8757SOL    HW137200   3.928   9.127   3.980  0.6925 -0.9411  0.6603
 8757SOL    HW237201   3.839   9.216   4.083  1.1974  0.6533 -0.2572
 8758SOL     OW37202   3.862   9.306   2.057  0.0781  0.3998  0.3128
 8758SOL    HW137203   3.840   9.265   2.145  0.0442  0.2886  0.2526
 8758SOL    HW237204   3.834   9.401   2.056  0.2769  0.4614  0.5017
 8759SOL     OW37205   1.176   4.382   2.567 -0.0203 -0.0284  0.1451
 8759SOL    HW137206   1.200   4.337   2.654  0.7752  0.3199  0.1114
 8759SOL    HW237207   1.084   4.355   2.540  0.0047 -0.7203  0.7274
 8760SOL     OW37208   5.869   7.265   1.963 -0.2222 -0.4042  0.1086
 8760SOL    HW137209   5.798   7.311   2.016 -1.0196  0.5741 -1.7536
 8760SOL    HW237210   5.955   7.314   1.972 -0.6616  0.4992 -0.4946
 8761SOL     OW37211   1.829   8.742   3.581 -0.3237  0.0943  0.3548
 8761SOL    HW137212   1.918   8.708   3.612 -0.2438  1.5164  1.7469
 8761SOL    HW237213   1.839   8.784   3.491  1.0508  2.7942  1.6909
 8762SOL     OW37214   1.036   5.872   5.540  0.0588  0.2808  0.2586
 8762SOL    HW137215   0.969   5.819   5.592  1.7339 -1.8180  0.3380
 8762SOL    HW237216   1.046   5.834   5.449  0.0658  1.5098 -0.2673
 8763SOL     OW37217   6.001   1.230   2.135  0.3534  0.1294 -0.0204
 8763SOL    HW137218   6.078   1.178   2.097  0.1648 -1.3798  1.6001
 8763SOL    HW237219   6.035   1.311   2.183  0.8063  0.3528 -0.7094
 8764SOL     OW37220   3.309   0.441   0.352 -0.5021  0.5387 -0.2904
 8764SOL    HW137221   3.407   0.429   0.340 -0.3383 -0.7611  2.2165
 8764SOL    HW237222   3.262   0.355   0.329 -0.8072  0.3486  1.0015
 8765SOL     OW37223   5.565   0.763   3.361 -0.5337 -0.5037 -0.2121
 8765SOL    HW137224   5.556   0.683   3.420 -0.5196 -0.4692 -0.1623
 8765SOL    HW237225   5.515   0.840   3.402  1.1216  0.0712  0.7736
 8766SOL     OW37226   2.018   1.979   1.857  0.6362  0.2146 -0.2888
 8766SOL    HW137227   1.986   1.942   1.943  1.6140  0.2844  0.1085
 8766SOL    HW237228   1.941   1.987   1.793  0.0819 -0.6788  0.2653
 8767SOL     OW37229   8.453   2.409   2.083  0.2506 -0.0530 -0.4168
 8767SOL    HW137230   8.420   2.323   2.045 -0.1935 -0.8748  1.7794
 8767SOL    HW237231   8.380   2.453   2.135  2.0568 -1.0957  3.1071
 8768SOL     OW37232   3.621   8.755   2.828  0.2569  0.6335 -0.3267
 8768SOL    HW137233   3.698   8.817   2.814 -0.3420  1.2198 -1.0441
 8768SOL    HW237234   3.539   8.808   2.850  0.2956 -0.0407  1.5870
 8769SOL     OW37235   0.065   0.679   0.416  0.3042  0.4346  0.3807
 8769SOL    HW137236   0.018   0.757   0.457 -0.9916  0.3397 -0.8569
 8769SOL    HW237237   0.070   0.692   0.317  1.1773 -0.4772  0.3028
 8770SOL     OW37238   6.381   7.819   2.555  0.2149 -0.2334  0.0772
 8770SOL    HW137239   6.427   7.902   2.524  1.3064 -1.1252 -0.7496
 8770SOL    HW237240   6.449   7.752   2.586 -0.7755  0.2682  3.6082
 8771SOL     OW37241   3.538   0.446   0.971 -0.0190  0.1986 -0.5390
 8771SOL    HW137242   3.535   0.423   0.874  0.2980  0.9560 -0.7359
 8771SOL    HW237243   3.559   0.364   1.025 -2.3398 -0.6557 -0.9187
 8772SOL     OW37244   7.057   0.970   5.110 -0.0321 -0.0114  0.1909
 8772SOL    HW137245   7.013   0.941   5.195  0.4498 -0.2556  0.3562
 8772SOL    HW237246   7.092   0.890   5.061 -0.3172  0.1262 -0.2448
 8773SOL     OW37247   7.514   7.886   3.741  0.0531  0.2250 -0.0350
 8773SOL    HW137248   7.584   7.946   3.703  1.1507 -0.5390  0.7565
 8773SOL    HW237249   7.425   7.911   3.703  0.4713  2.3998  0.3486
 8774SOL     OW37250   3.715   1.968   1.357  0.3508  0.1968 -0.3007
 8774SOL    HW137251   3.693   1.897   1.424  1.0457  0.8036  0.5843
 8774SOL    HW237252   3.813   1.987   1.360  0.0878  1.6066 -0.1049
 8775SOL     OW37253   2.284   2.286   3.366  0.5393  0.7380  0.0355
 8775SOL    HW137254   2.195   2.246   3.388  1.0129 -1.0004 -1.0936
 8775SOL    HW237255   2.300   2.366   3.424 -1.4476  0.6614  0.7274
 8776SOL     OW37256   0.827   8.575   1.456  0.2872  0.2845  0.3325
 8776SOL    HW137257   0.803   8.487   1.498 -0.9199  0.3178 -0.2840
 8776SOL    HW237258   0.760   8.598   1.386  0.1389  2.0961  1.0549
 8777SOL     OW37259   4.194   7.092   2.114 -0.0565 -0.5878  0.4340
 8777SOL    HW137260   4.124   7.156   2.082 -0.0124 -0.6465  0.2197
 8777SOL    HW237261   4.226   7.120   2.204  0.8120  0.3558 -0.1650
 8778SOL     OW37262   6.654   0.129   3.989  0.1843  0.2445  0.0246
 8778SOL    HW137263   6.675   0.227   3.980 -2.6644  0.8801 -0.3306
 8778SOL    HW237264   6.682   0.097   4.079  0.2665  1.6371  0.5104
 8779SOL     OW37265   8.933   9.341   3.822 -0.2877  0.4836  0.0198
 8779SOL    HW137266   8.857   9.405   3.821  0.0655  0.9146  0.6088
 8779SOL    HW237267   9.009   9.378   3.768 -0.0255  0.6262  0.4905
 8780SOL     OW37268   0.946   4.807   0.733  0.2933 -0.0053 -0.3108
 8780SOL    HW137269   0.977   4.714   0.752  0.7327  0.5142  1.6381
 8780SOL    HW237270   0.872   4.830   0.795 -1.2878  0.2111 -2.2236
 8781SOL     OW37271   8.110   4.313   4.035  0.1674  0.5631 -0.1031
 8781SOL    HW137272   8.156   4.387   4.086  0.1043  0.3157  0.3203
 8781SOL    HW237273   8.036   4.276   4.091 -1.0612  1.4825 -1.0911
 8782SOL     OW37274   0.999   9.420   4.495 -0.1407 -0.1826  0.7737
 8782SOL    HW137275   0.960   9.423   4.587 -1.0027  1.3315  0.3717
 8782SOL    HW237276   0.963   9.496   4.441  0.3669 -1.0546 -0.8153
 8783SOL     OW37277   3.660   9.326   1.578 -0.5636  0.6675  0.2440
 8783SOL    HW137278   3.575   9.362   1.539  0.2582  1.7359 -0.5675
 8783SOL    HW237279   3.704   9.265   1.512 -0.1400  0.9814  0.2354
 8784SOL     OW37280   4.993   2.261   2.515 -0.4954 -0.1936 -0.2395
 8784SOL    HW137281   5.002   2.360   2.498 -0.2039 -0.2415 -0.3721
 8784SOL    HW237282   4.976   2.215   2.428  1.1812 -0.4627 -0.4325
 8785SOL     OW37283   1.063   2.333   1.761 -0.4100  0.8254  0.2434
 8785SOL    HW137284   1.097   2.248   1.723  0.3407  0.2173  2.1961
 8785SOL    HW237285   0.965   2.324   1.781 -0.0920 -0.0039  1.5107
 8786SOL     OW37286   2.275   8.105   5.180  0.1580  0.0945  0.2797
 8786SOL    HW137287   2.266   8.198   5.145 -0.9268 -0.4428 -0.9183
 8786SOL    HW237288   2.199   8.086   5.242  0.1577 -0.1204  0.2155
 8787SOL     OW37289   7.838   0.519   1.671  0.4693 -0.9533 -0.3010
 8787SOL    HW137290   7.750   0.563   1.689  0.8589 -0.6095  0.7909
 8787SOL    HW237291   7.830   0.421   1.689 -0.1125 -1.1855 -1.7360
 8788SOL     OW37292   6.780   7.474   2.907  0.2376  0.1510  0.1456
 8788SOL    HW137293   6.827   7.416   2.973  0.6037 -0.0890 -0.3272
 8788SOL    HW237294   6.809   7.569   2.920 -1.4807  0.4752  1.9199
 8789SOL     OW37295   0.400   1.161   5.253  0.2399 -0.1067 -0.5585
 8789SOL    HW137296   0.484   1.110   5.232  0.9831  0.9747 -0.2472
 8789SOL    HW237297   0.375   1.146   5.348  1.2795  1.2588 -0.0559
 8790SOL     OW37298   2.760   6.181   4.860  0.1866  0.5969 -0.1453
 8790SOL    HW137299   2.699   6.139   4.792 -1.1176  1.7796  0.2811
 8790SOL    HW237300   2.751   6.133   4.947 -0.0755  0.7343 -0.0990
 8791SOL     OW37301   9.153   3.475   2.124 -0.1004  0.2807 -0.1703
 8791SOL    HW137302   9.173   3.429   2.038  0.5739  0.0930  0.0816
 8791SOL    HW237303   9.232   3.530   2.152 -0.0782 -0.1467  0.6396
 8792SOL     OW37304   3.363   8.473   3.069  0.4374  0.0833  0.1557
 8792SOL    HW137305   3.397   8.484   2.975 -1.4782 -1.9367 -0.8164
 8792SOL    HW237306   3.374   8.378   3.097 -0.7795  0.2524  1.2446
 8793SOL     OW37307   3.964   1.125   0.560  0.6120  0.2183  0.2666
 8793SOL    HW137308   3.991   1.221   0.570  0.3089  0.3124  0.2120
 8793SOL    HW237309   4.041   1.071   0.526  0.3262  0.7237 -1.2214
 8794SOL     OW37310   4.670   1.044   3.106 -0.5521 -0.0536 -0.2579
 8794SOL    HW137311   4.767   1.066   3.120 -1.0059  1.9696 -0.2657
 8794SOL    HW237312   4.655   1.018   3.011 -0.2048  0.5788 -0.4837
 8795SOL     OW37313   4.433   7.986   4.759 -0.2099  0.2248 -0.1274
 8795SOL    HW137314   4.487   7.976   4.675 -0.4787  1.2007 -0.4204
 8795SOL    HW237315   4.462   8.069   4.807 -1.2279  0.5800 -0.1240
 8796SOL     OW37316   1.778   8.085   3.146  0.0353  0.4065  0.1847
 8796SOL    HW137317   1.828   8.052   3.066 -1.1264 -1.2699  0.1248
 8796SOL    HW237318   1.818   8.172   3.177 -1.0420  2.3577 -3.6455
 8797SOL     OW37319   1.374   1.809   1.657  0.7380  0.3413  0.3654
 8797SOL    HW137320   1.275   1.805   1.673  0.3569  1.1909 -1.6258
 8797SOL    HW237321   1.414   1.879   1.716 -0.1126  1.0748  0.0924
 8798SOL     OW37322   5.068   9.883   1.621  0.6644 -0.4078  0.2478
 8798SOL    HW137323   4.972   9.864   1.603  0.5365  1.1966 -0.9088
 8798SOL    HW237324   5.092   9.853   1.714 -1.1677 -0.0271  0.8554
 8799SOL     OW37325   8.076   7.215   3.635 -0.5957  0.0340  0.6807
 8799SOL    HW137326   8.079   7.190   3.538  0.3563  0.8894  0.4786
 8799SOL    HW237327   8.057   7.134   3.690  1.1498 -0.8972 -0.0586
 8800SOL     OW37328   1.466   3.087   3.419  0.2490 -0.1228  0.2524
 8800SOL    HW137329   1.449   3.165   3.479 -0.4368  0.5637 -0.8157
 8800SOL    HW237330   1.562   3.059   3.426  0.1805 -0.0195  1.6259
 8801SOL     OW37331   2.223   5.464   0.626  0.0843 -0.4629 -0.4677
 8801SOL    HW137332   2.230   5.423   0.717 -2.2180 -1.4870 -0.7085
 8801SOL    HW237333   2.161   5.542   0.630  1.6613  0.8318 -0.7524
 8802SOL     OW37334   0.832   0.733   1.471 -0.0730 -0.4262 -0.3771
 8802SOL    HW137335   0.919   0.686   1.487 -0.0955 -0.2768  0.1770
 8802SOL    HW237336   0.847   0.813   1.413  0.3266  0.2319  0.6314
 8803SOL     OW37337   8.385   2.209   4.055 -0.5107 -0.2628 -0.2795
 8803SOL    HW137338   8.352   2.302   4.042 -0.8616 -0.2022  1.0183
 8803SOL    HW237339   8.407   2.168   3.966 -2.1625  0.3879 -0.9844
 8804SOL     OW37340   6.591   7.198   3.212 -0.0297  0.4096  0.2518
 8804SOL    HW137341   6.564   7.137   3.287 -0.2205  1.0068  0.6685
 8804SOL    HW237342   6.512   7.220   3.156  0.1698 -0.2887 -0.3167
 8805SOL     OW37343   3.177   7.155   3.076 -0.2029 -0.0625 -0.0261
 8805SOL    HW137344   3.271   7.127   3.057  0.6725  2.1770  0.8017
 8805SOL    HW237345   3.132   7.181   2.990  0.5997  0.7632 -0.2086
 8806SOL     OW37346   6.055   9.499   3.895  0.0320 -0.3449  0.2592
 8806SOL    HW137347   6.039   9.530   3.802  0.6566  2.1756  0.9406
 8806SOL    HW237348   6.115   9.419   3.895  1.2415  0.5498 -1.4158
 8807SOL     OW37349   8.997   8.797   1.672  0.1086  0.1550  0.1951
 8807SOL    HW137350   9.070   8.741   1.710  0.5654 -0.8921 -2.0976
 8807SOL    HW237351   9.036   8.880   1.632 -0.1531  0.4070  0.4640
 8808SOL     OW37352   4.378   2.306   1.938  0.0557 -0.1286  0.0981
 8808SOL    HW137353   4.422   2.372   1.877 -0.2055 -0.2971 -0.2750
 8808SOL    HW237354   4.439   2.229   1.954  0.2042  0.0127  0.2125
 8809SOL     OW37355   3.130   3.171   3.525 -0.3950 -0.7886  0.2677
 8809SOL    HW137356   3.119   3.168   3.425  0.4574 -1.9107  0.2017
 8809SOL    HW237357   3.073   3.244   3.562 -1.2488 -0.8098 -0.9710
 8810SOL     OW37358   4.935   3.564   2.797  0.4134 -0.1045 -0.0776
 8810SOL    HW137359   4.853   3.509   2.812 -0.6159  1.3433 -0.3220
 8810SOL    HW237360   4.926   3.651   2.844  1.2025  0.6374 -1.2803
 8811SOL     OW37361   6.382   0.030   2.034  0.2898  0.6415  0.1011
 8811SOL    HW137362   6.311   0.062   1.972  0.6702 -0.0410 -0.6984
 8811SOL    HW237363   6.414  -0.060   2.004  0.5207  0.3385  1.2558
 8812SOL     OW37364   9.585   4.063   1.626 -0.1617 -0.3438 -0.4869
 8812SOL    HW137365   9.551   4.156   1.636 -1.7345 -1.0291  0.6119
 8812SOL    HW237366   9.647   4.059   1.547 -0.3747  1.5339 -0.7753
 8813SOL     OW37367   9.185   9.824   3.370  0.4896  0.0169 -0.0033
 8813SOL    HW137368   9.259   9.889   3.389 -0.6073  1.4883 -0.6608
 8813SOL    HW237369   9.225   9.739   3.336  1.8728  1.1316 -1.2989
 8814SOL     OW37370   6.340   8.708   2.455 -0.0776 -0.8323  0.1811
 8814SOL    HW137371   6.409   8.667   2.395  0.0670  0.4508 -0.5381
 8814SOL    HW237372   6.257   8.652   2.453  0.3373 -1.4429 -0.2871
 8815SOL     OW37373   9.947   1.318   0.961  0.5473 -0.0479 -0.0496
 8815SOL    HW137374   9.859   1.351   0.929 -0.2122 -0.8849  1.1248
 8815SOL    HW237375   9.986   1.255   0.895  0.7165  1.0469 -1.0104
 8816SOL     OW37376   4.855   1.416   0.271  0.5292  0.1503  0.2448
 8816SOL    HW137377   4.808   1.345   0.219 -1.5536  2.3276 -0.9287
 8816SOL    HW237378   4.836   1.404   0.368 -2.2974  0.8590 -0.1986
 8817SOL     OW37379   9.684   3.075   3.798 -0.4528 -0.1129  0.6893
 8817SOL    HW137380   9.722   3.010   3.864  0.7518 -1.7144 -1.5184
 8817SOL    HW237381   9.589   3.050   3.778 -0.4610 -0.2988  0.9613
 8818SOL     OW37382   2.296   6.720   4.495  0.4415 -0.1239 -0.0718
 8818SOL    HW137383   2.217   6.693   4.441  0.3583 -1.6788  0.7761
 8818SOL    HW237384   2.266   6.761   4.581  0.5383 -0.9092  0.3446
 8819SOL     OW37385   2.861   7.531   3.590 -0.4380 -0.3031 -0.2969
 8819SOL    HW137386   2.799   7.600   3.551 -0.2999 -0.1420 -0.2332
 8819SOL    HW237387   2.918   7.574   3.660  0.7612 -0.1085 -1.3720
 8820SOL     OW37388   2.848   7.976   3.453  0.0918 -0.0603  0.6274
 8820SOL    HW137389   2.852   8.015   3.362 -0.2941 -0.5482  0.3991
 8820SOL    HW237390   2.917   8.019   3.511  1.1603 -0.6279 -0.2287
 8821SOL     OW37391   2.450   5.785   2.177  0.1024  0.1875  0.3055
 8821SOL    HW137392   2.498   5.844   2.242  0.0717 -0.8296  1.2650
 8821SOL    HW237393   2.515   5.719   2.138  0.0749  0.6559 -0.5416
 8822SOL     OW37394   4.624   1.423   1.950  0.3711  0.5234  0.3389
 8822SOL    HW137395   4.669   1.360   2.014 -1.9571 -2.0905 -0.5127
 8822SOL    HW237396   4.690   1.455   1.883  1.6245 -1.0127  0.8019
 8823SOL     OW37397   0.916   2.070   5.570 -0.1674  0.2100 -0.1763
 8823SOL    HW137398   0.897   2.144   5.635 -2.0452  0.2548 -0.7575
 8823SOL    HW237399   0.941   1.987   5.621 -1.5375  0.2711  0.6009
 8824SOL     OW37400   3.774   5.865   1.624  0.6684  0.4508  0.3473
 8824SOL    HW137401   3.731   5.938   1.678 -0.4389  0.7008 -0.8642
 8824SOL    HW237402   3.832   5.810   1.684 -3.3395 -1.5141  2.6142
 8825SOL     OW37403   9.901   8.292   5.094 -0.1637  0.2287 -0.7578
 8825SOL    HW137404   9.852   8.370   5.055 -0.1715  0.3270 -0.5528
 8825SOL    HW237405   9.890   8.213   5.034  1.2623  0.8368 -1.8591
 8826SOL     OW37406   2.575   2.443   2.306 -0.2765 -0.1934 -0.7208
 8826SOL    HW137407   2.585   2.345   2.325 -0.3146 -0.2220 -0.8524
 8826SOL    HW237408   2.638   2.494   2.365  0.7822 -0.3888 -1.6549
 8827SOL     OW37409   2.426   0.237   0.488 -0.2510  0.3801  0.1646
 8827SOL    HW137410   2.494   0.165   0.471 -0.3096  0.2126  0.6429
 8827SOL    HW237411   2.454   0.320   0.441 -2.1940 -1.0510 -3.7477
 8828SOL     OW37412   2.588   2.932   2.052  0.1479  0.0644 -0.0495
 8828SOL    HW137413   2.570   2.838   2.081  0.8786 -0.9452 -2.7637
 8828SOL    HW237414   2.505   2.970   2.010  0.3717  0.0809 -0.4663
 8829SOL     OW37415   0.064   8.907   0.922  0.3491 -0.3454 -0.2829
 8829SOL    HW137416   0.156   8.947   0.916 -0.0672  0.6802  0.2572
 8829SOL    HW237417   0.049   8.872   1.014  0.4146 -1.0505 -0.5353
 8830SOL     OW37418   2.055   4.641   4.957  0.3882  0.3639  0.0314
 8830SOL    HW137419   2.001   4.596   4.886 -1.1640  1.7774  0.2753
 8830SOL    HW237420   2.152   4.623   4.943  0.0153 -0.2603 -1.8049
 8831SOL     OW37421   0.822   7.567   4.044 -0.2408  0.1142 -0.3643
 8831SOL    HW137422   0.777   7.610   3.966  0.0169 -0.3172 -0.7504
 8831SOL    HW237423   0.791   7.473   4.055 -0.2892  0.1761  0.0646
 8832SOL     OW37424   4.208   0.967   3.332 -0.2704 -0.4671 -0.5166
 8832SOL    HW137425   4.237   1.042   3.391 -0.9410  0.7381 -1.6913
 8832SOL    HW237426   4.268   0.962   3.252 -0.2358 -1.1846 -0.4539
 8833SOL     OW37427   2.572   9.619   1.784  0.1447 -1.0213  0.2171
 8833SOL    HW137428   2.552   9.715   1.763  1.6408 -0.5838  0.7255
 8833SOL    HW237429   2.667   9.599   1.759  0.5897 -1.7141  2.3419
 8834SOL     OW37430   1.716   3.351   2.857 -0.0067 -0.3118  0.2936
 8834SOL    HW137431   1.738   3.384   2.765 -0.6688  0.7187  0.4954
 8834SOL    HW237432   1.631   3.300   2.854  0.1812 -0.6272  0.2701
 8835SOL     OW37433   0.525   2.897   0.497 -0.9962  0.1849 -0.0020
 8835SOL    HW137434   0.449   2.866   0.553 -0.9666 -0.2578 -0.2049
 8835SOL    HW237435   0.492   2.965   0.430 -1.7349 -1.9188 -1.8341
 8836SOL     OW37436   3.975   2.708   5.556 -0.0272  0.0258  0.2095
 8836SOL    HW137437   3.989   2.624   5.608 -0.3339  0.4979  1.0714
 8836SOL    HW237438   3.882   2.712   5.522 -0.5698  0.8411  1.7108
 8837SOL     OW37439   2.510   9.486   0.607 -0.4510  0.3375  0.2236
 8837SOL    HW137440   2.499   9.418   0.679  0.1389  0.7860  0.7456
 8837SOL    HW237441   2.585   9.548   0.631 -0.4150  0.6411 -0.6569
 8838SOL     OW37442   8.940   3.712   2.915  0.1340 -0.0331 -0.5195
 8838SOL    HW137443   9.030   3.729   2.956  1.0223 -0.6803 -2.1307
 8838SOL    HW237444   8.903   3.797   2.878 -0.5013  0.4781  1.2787
 8839SOL     OW37445   9.554   6.214   5.364 -0.2902 -0.3380 -0.8780
 8839SOL    HW137446   9.629   6.179   5.421  0.9108  0.0653 -2.1747
 8839SOL    HW237447   9.513   6.294   5.408  0.0381 -0.5572 -0.1596
 8840SOL     OW37448   2.376   3.814   0.546  0.1950 -0.3866 -0.1296
 8840SOL    HW137449   2.440   3.743   0.577  0.0841 -1.3789 -2.1300
 8840SOL    HW237450   2.389   3.830   0.448 -0.8605  1.2564 -0.0133
 8841SOL     OW37451   2.537   5.587   0.555 -0.8329 -0.4110  0.2614
 8841SOL    HW137452   2.469   5.593   0.482 -0.2773  1.1782 -0.1532
 8841SOL    HW237453   2.544   5.493   0.587 -3.4342 -0.5550  0.5120
 8842SOL     OW37454   8.527   3.779   3.303  0.4885  0.0446  0.3712
 8842SOL    HW137455   8.515   3.770   3.204 -1.0220 -1.6959  0.6903
 8842SOL    HW237456   8.566   3.869   3.323 -2.1674  1.7393 -1.5963
 8843SOL     OW37457   1.049   5.315   3.817 -0.7449  0.4268 -0.0076
 8843SOL    HW137458   1.033   5.319   3.718 -1.3017 -0.5471  0.0288
 8843SOL    HW237459   1.054   5.219   3.845  1.5354  0.6894  0.5817
 8844SOL     OW37460   0.537   9.217   3.950  0.5053 -0.3491 -0.1132
 8844SOL    HW137461   0.493   9.154   3.885  1.7569 -1.8870  0.5070
 8844SOL    HW237462   0.466   9.263   4.004 -0.4149 -1.7891 -0.0541
 8845SOL     OW37463   2.231   8.867   2.676  0.3895  0.1160 -0.1078
 8845SOL    HW137464   2.164   8.852   2.603 -0.9461 -1.9384  1.4799
 8845SOL    HW237465   2.238   8.965   2.695 -3.9111  0.2966  1.2095
 8846SOL     OW37466   4.873   1.418   5.186 -0.1982 -0.6598  0.3020
 8846SOL    HW137467   4.946   1.480   5.214 -0.1068 -0.1405 -1.0589
 8846SOL    HW237468   4.787   1.468   5.182 -0.3685 -0.9352  0.4873
 8847SOL     OW37469   2.448   2.822   2.979 -0.2405  0.0943 -0.4319
 8847SOL    HW137470   2.546   2.810   2.992 -0.3525 -0.5277 -0.1289
 8847SOL    HW237471   2.406   2.734   2.959 -0.7965  0.2933 -0.1612
 8848SOL     OW37472   4.034   2.080   4.649 -0.2575  0.2194 -0.0010
 8848SOL    HW137473   4.081   2.005   4.603  0.2005  0.9023 -0.6723
 8848SOL    HW237474   4.101   2.149   4.678 -0.9556  2.0212 -2.4833
 8849SOL     OW37475   2.668   3.532   5.512 -0.0736 -0.0313  0.0771
 8849SOL    HW137476   2.701   3.592   5.439 -0.8091  0.9378  0.5199
 8849SOL    HW237477   2.707   3.562   5.599 -0.0464 -0.5181  0.2353
 8850SOL     OW37478   5.630   9.189   1.944  0.1479  0.6495 -0.1513
 8850SOL    HW137479   5.537   9.207   1.976 -0.2397  0.4077 -1.1039
 8850SOL    HW237480   5.694   9.193   2.021 -0.5824  1.3125  0.4273
 8851SOL     OW37481   1.905   2.274   0.491 -0.7089 -0.5476  0.2296
 8851SOL    HW137482   1.815   2.245   0.525  0.2414 -2.2933  1.3500
 8851SOL    HW237483   1.970   2.198   0.500  0.7027  0.4531 -1.2622
 8852SOL     OW37484   5.273   0.296   1.455  0.0170  0.2342 -0.0386
 8852SOL    HW137485   5.313   0.387   1.455  1.7523 -0.4979 -1.5921
 8852SOL    HW237486   5.312   0.242   1.380 -2.5802 -1.0963 -0.4891
 8853SOL     OW37487   6.834   7.397   2.624 -0.0062 -1.0479 -0.3025
 8853SOL    HW137488   6.760   7.415   2.559  1.1041 -0.6213 -1.4798
 8853SOL    HW237489   6.807   7.429   2.715 -0.5415  0.8043 -1.0913
 8854SOL     OW37490   8.945   0.722   2.628 -0.3726 -0.2527 -0.2012
 8854SOL    HW137491   9.040   0.704   2.653 -0.4159  0.9818  0.9120
 8854SOL    HW237492   8.893   0.637   2.632  0.1177 -0.4734  1.8063
 8855SOL     OW37493   8.777   9.087   5.156  0.0278  0.6197 -0.1142
 8855SOL    HW137494   8.857   9.029   5.141 -0.3751 -0.3537  1.3999
 8855SOL    HW237495   8.740   9.070   5.247 -2.3476  0.5378 -1.0491
 8856SOL     OW37496   2.488   4.325   2.516  0.0406 -0.1976  0.0848
 8856SOL    HW137497   2.587   4.314   2.505  0.0792  0.9177 -0.7769
 8856SOL    HW237498   2.445   4.235   2.523  1.1505 -0.6855  0.7911
 8857SOL     OW37499   4.487   0.961   1.789 -0.4331 -0.2048  0.2732
 8857SOL    HW137500   4.463   0.869   1.818 -1.8781  0.4098  1.0682
 8857SOL    HW237501   4.433   1.028   1.839 -0.2354  1.0411 -1.1117
 8858SOL     OW37502   1.423   5.537   1.061 -0.2525  0.1819  0.0450
 8858SOL    HW137503   1.509   5.574   1.097 -0.6140  1.2185 -0.1333
 8858SOL    HW237504   1.437   5.442   1.034  0.4583 -0.1018  1.3558
 8859SOL     OW37505   3.344   7.759   3.681  0.0548  0.5395  0.5759
 8859SOL    HW137506   3.397   7.822   3.625  2.3915 -1.0466  0.9326
 8859SOL    HW237507   3.318   7.804   3.767  1.7436  1.0103  0.8575
 8860SOL     OW37508   1.555   3.419   2.155 -0.1874  0.2401  0.0744
 8860SOL    HW137509   1.481   3.485   2.167 -1.0796 -0.3959 -1.7869
 8860SOL    HW237510   1.556   3.355   2.232 -0.2368  1.5308  1.1566
 8861SOL     OW37511   8.451   9.963   5.379  0.2749  0.0472 -0.0121
 8861SOL    HW137512   8.521   9.973   5.308 -1.7644  1.9450 -1.8284
 8861SOL    HW237513   8.485  10.003   5.464  1.6963  0.2362 -0.6406
 8862SOL     OW37514   4.095   3.044   5.428  0.5089  0.1801  0.2885
 8862SOL    HW137515   4.122   3.140   5.438  2.2651 -0.1539 -0.9171
 8862SOL    HW237516   4.072   3.026   5.333  0.0453 -0.5702  0.5446
 8863SOL     OW37517   7.164   9.731   0.004  0.7630  0.2433  0.7852
 8863SOL    HW137518   7.130   9.681  -0.075  0.1405  1.6053  0.1738
 8863SOL    HW237519   7.109   9.813   0.018 -0.1746 -0.8327  3.6519
 8864SOL     OW37520   9.643   5.214   2.577  0.2463 -0.2354  0.0127
 8864SOL    HW137521   9.607   5.205   2.484  0.4425 -2.5667  0.1288
 8864SOL    HW237522   9.739   5.186   2.577  0.7869  1.5580  0.5825
 8865SOL     OW37523   2.604   3.271   4.020 -0.5499  0.4661 -0.0588
 8865SOL    HW137524   2.661   3.302   3.944  0.2062  0.5169  0.5149
 8865SOL    HW237525   2.630   3.321   4.103 -0.5961 -0.3735  0.4667
 8866SOL     OW37526   0.696   9.959   3.300  0.1277  0.3818 -0.4094
 8866SOL    HW137527   0.739   9.958   3.390  1.0531  0.5019 -0.8447
 8866SOL    HW237528   0.598   9.977   3.310  0.2249  0.3880  0.5692
 8867SOL     OW37529   2.527   9.730   4.516  0.0229  0.7793 -0.4902
 8867SOL    HW137530   2.605   9.792   4.512  1.2485 -0.6290  1.4481
 8867SOL    HW237531   2.553   9.645   4.559 -1.6228 -1.2086 -3.2218
 8868SOL     OW37532   0.916   1.227   3.313  0.3104  0.4236 -0.0234
 8868SOL    HW137533   0.931   1.186   3.223 -0.6421 -1.3535  0.6182
 8868SOL    HW237534   0.869   1.315   3.302  0.1860  0.2173 -1.2403
 8869SOL     OW37535   8.995   0.302   2.112  0.0455 -0.6638 -0.3611
 8869SOL    HW137536   9.045   0.225   2.073 -0.8080 -0.7490 -1.3204
 8869SOL    HW237537   8.971   0.366   2.038  0.4945  0.3735  0.3795
 8870SOL     OW37538   8.813   3.836   0.178  0.4650  0.4447 -0.3878
 8870SOL    HW137539   8.837   3.779   0.100 -1.3211 -1.0803  0.1376
 8870SOL    HW237540   8.727   3.803   0.218  0.3930  2.3391  1.0878
 8871SOL     OW37541   0.971   8.305   2.886 -0.0344 -0.0844 -0.0141
 8871SOL    HW137542   1.000   8.366   2.812  0.0991 -1.6624 -1.2946
 8871SOL    HW237543   1.040   8.305   2.958  1.7942 -1.5545 -1.7005
 8872SOL     OW37544   2.420   0.086   3.710  0.0583  0.1158  0.4734
 8872SOL    HW137545   2.412   0.041   3.799  0.8201  1.2762  1.1462
 8872SOL    HW237546   2.454   0.021   3.642 -2.2267 -1.2606  0.6023
 8873SOL     OW37547   9.993   1.816   3.878 -0.1865  0.1924 -0.4775
 8873SOL    HW137548   9.996   1.765   3.791  2.6855  0.8308 -0.8083
 8873SOL    HW237549  10.033   1.906   3.865  0.2602  0.3017  1.5046
 8874SOL     OW37550   0.445   0.145   3.059  0.0533 -0.4499  0.0523
 8874SOL    HW137551   0.405   0.198   3.133  1.4484 -2.8445  2.6110
 8874SOL    HW237552   0.544   0.138   3.073 -0.0196 -3.1424 -0.5983
 8875SOL     OW37553   4.882   1.843   3.824 -0.1915 -0.9778 -0.5583
 8875SOL    HW137554   4.832   1.813   3.743 -0.3793 -0.7805 -0.5170
 8875SOL    HW237555   4.973   1.875   3.798 -0.6557  0.1197 -0.8276
 8876SOL     OW37556   7.774   6.901   3.595  0.4464  0.1102  0.0710
 8876SOL    HW137557   7.833   6.829   3.559  1.3438  0.9469 -0.1379
 8876SOL    HW237558   7.735   6.953   3.518  0.6204  0.5078  0.2546
 8877SOL     OW37559   2.433   1.871   1.203 -0.1498 -0.0318  0.2440
 8877SOL    HW137560   2.383   1.791   1.237 -0.1144 -0.2557 -0.2270
 8877SOL    HW237561   2.371   1.949   1.199 -0.0645  0.0882  1.1655
 8878SOL     OW37562   2.880   2.975   4.090  0.4599 -0.4992  0.3825
 8878SOL    HW137563   2.847   3.025   4.170  1.5788 -0.2286  0.6771
 8878SOL    HW237564   2.896   3.039   4.015 -0.1235 -0.6928  0.0851
 8879SOL     OW37565   0.439   4.763   2.829  0.2771  0.5664  0.4612
 8879SOL    HW137566   0.469   4.816   2.908  1.3160  0.8851 -0.1324
 8879SOL    HW237567   0.519   4.740   2.773 -0.4647  0.4875 -0.5707
 8880SOL     OW37568   7.673   5.368   4.606 -0.1184  0.3100 -0.3320
 8880SOL    HW137569   7.698   5.347   4.511 -1.1051 -1.5874 -0.2091
 8880SOL    HW237570   7.750   5.413   4.652  0.3238  1.3701 -2.0583
 8881SOL     OW37571   7.032   8.404   3.862  0.0257  0.1430 -0.9082
 8881SOL    HW137572   7.114   8.351   3.882  0.5939  0.3597 -2.5694
 8881SOL    HW237573   7.048   8.501   3.882 -0.3407 -0.0130  0.1928
 8882SOL     OW37574   0.209   5.409   4.769  0.5200  0.0740  0.5622
 8882SOL    HW137575   0.118   5.432   4.804  0.9683  3.4131 -0.3736
 8882SOL    HW237576   0.273   5.399   4.845 -0.0060  0.5662  1.0702
 8883SOL     OW37577   0.460   9.227   2.396  0.3879 -0.4549  0.1257
 8883SOL    HW137578   0.434   9.311   2.347 -1.2349 -1.8371 -1.4528
 8883SOL    HW237579   0.519   9.172   2.337  1.1266 -0.6337  1.0181
 8884SOL     OW37580   2.555   9.409   3.588  0.1550 -0.4605  0.0960
 8884SOL    HW137581   2.496   9.343   3.634  0.0969 -0.2407  0.3356
 8884SOL    HW237582   2.648   9.399   3.621  0.1877 -0.5708 -0.0286
 8885SOL     OW37583   1.897   7.128   1.796  0.5841  0.3850  0.0383
 8885SOL    HW137584   1.904   7.193   1.872  1.0004 -1.5328  1.7090
 8885SOL    HW237585   1.899   7.177   1.709  1.6849  2.5225  1.2232
 8886SOL     OW37586   7.536   0.602   4.490  0.9254  0.3245 -0.1529
 8886SOL    HW137587   7.577   0.594   4.399 -0.3816  1.3547 -0.8581
 8886SOL    HW237588   7.574   0.533   4.550  0.8346 -1.2413 -1.8548
 8887SOL     OW37589   8.270   6.300   0.317  0.1500 -0.0409 -0.1806
 8887SOL    HW137590   8.206   6.228   0.291  1.4143 -1.5767  0.8849
 8887SOL    HW237591   8.318   6.333   0.236 -1.3437  0.5410 -0.8634
 8888SOL     OW37592   2.401   0.540   5.632  0.2112  0.1530  0.0536
 8888SOL    HW137593   2.367   0.618   5.684 -2.1420  0.2888 -1.6294
 8888SOL    HW237594   2.400   0.458   5.690 -0.1629  0.7555  0.9087
 8889SOL     OW37595   1.227   8.336   2.608 -0.0992 -0.4392 -0.4209
 8889SOL    HW137596   1.252   8.428   2.581  0.8329 -0.0531  1.6310
 8889SOL    HW237597   1.302   8.295   2.660 -1.3467 -1.5228  0.5799
 8890SOL     OW37598   8.744   2.089   2.491 -0.2420 -0.4381 -0.2043
 8890SOL    HW137599   8.695   2.113   2.407  0.8990 -1.2530 -1.1264
 8890SOL    HW237600   8.680   2.048   2.556 -0.7461 -1.8707 -1.5547
 8891SOL     OW37601   1.720   9.451   1.621 -0.3012  0.2448  0.0919
 8891SOL    HW137602   1.793   9.451   1.689 -0.7792 -2.6249  0.6912
 8891SOL    HW237603   1.633   9.429   1.666 -0.7089 -1.1058 -1.3117
 8892SOL     OW37604   3.926   9.361   4.327 -0.1384  0.0820 -0.1064
 8892SOL    HW137605   3.995   9.289   4.328  0.7761  0.9405  1.7573
 8892SOL    HW237606   3.879   9.362   4.239 -0.1305 -2.7308 -0.1604
 8893SOL     OW37607   2.523   9.398   1.395  0.0819  0.3039 -0.0617
 8893SOL    HW137608   2.562   9.322   1.343  0.6336  1.2619 -1.0663
 8893SOL    HW237609   2.476   9.461   1.333  0.5010  1.3132  0.6254
 8894SOL     OW37610   1.851   1.115   0.680  0.3035 -0.2511  0.3010
 8894SOL    HW137611   1.886   1.128   0.587 -0.1709 -1.9515 -0.1344
 8894SOL    HW237612   1.873   1.195   0.736  0.1727  0.9973 -1.4029
 8895SOL     OW37613   0.792   9.686   3.416  0.0728  0.0043 -0.0972
 8895SOL    HW137614   0.698   9.667   3.445  0.3990 -0.7364  0.4827
 8895SOL    HW237615   0.799   9.782   3.388 -0.5698  0.3758  0.9924
 8896SOL     OW37616   3.047   6.973   0.081 -0.5019  0.1582 -0.1536
 8896SOL    HW137617   3.007   7.048   0.134  0.1491  0.3566  0.0528
 8896SOL    HW237618   3.141   6.956   0.112 -0.5363 -0.5344 -0.4091
 8897SOL     OW37619   3.622   1.548   3.579 -0.5350  0.3047  0.6335
 8897SOL    HW137620   3.672   1.517   3.498  0.4297  0.7903  1.0352
 8897SOL    HW237621   3.587   1.468   3.628 -1.9844  0.0506 -0.7921
 8898SOL     OW37622   0.868   7.560   5.012  0.0556 -0.0896 -0.1283
 8898SOL    HW137623   0.826   7.491   4.954  0.2656 -0.6809  0.4198
 8898SOL    HW237624   0.962   7.533   5.033  0.3480  0.6693 -0.4170
 8899SOL     OW37625   6.739   9.733   4.322 -0.5285  0.3946  0.4989
 8899SOL    HW137626   6.756   9.718   4.419  0.6172 -2.3805 -0.0730
 8899SOL    HW237627   6.654   9.688   4.295 -0.0115 -0.2457 -0.0998
 8900SOL     OW37628   2.572   2.521   0.350  0.2871 -0.5835 -0.0388
 8900SOL    HW137629   2.502   2.559   0.290 -0.5772 -1.5540  0.3391
 8900SOL    HW237630   2.621   2.448   0.302  0.0758 -0.8774  0.1948
 8901SOL     OW37631   7.284   9.852   1.546  0.0671 -0.1769 -0.2411
 8901SOL    HW137632   7.383   9.856   1.538 -0.0606  0.0534 -1.8004
 8901SOL    HW237633   7.259   9.843   1.642  1.5403  1.6865  0.3511
 8902SOL     OW37634   9.434   3.378   1.671  0.2619  0.1655 -0.1779
 8902SOL    HW137635   9.528   3.371   1.639 -0.1505 -1.2738 -1.1604
 8902SOL    HW237636   9.394   3.286   1.677 -1.1194  0.7683  0.0762
 8903SOL     OW37637   7.337   1.130   4.345  0.4158 -0.1497 -0.2051
 8903SOL    HW137638   7.432   1.139   4.373  0.2850  0.2569  0.1082
 8903SOL    HW237639   7.329   1.057   4.278  0.4108 -2.6218  2.3924
 8904SOL     OW37640   2.657   0.270   4.380  0.1359 -0.0572  0.2599
 8904SOL    HW137641   2.738   0.282   4.436  0.7337 -3.8428  0.3093
 8904SOL    HW237642   2.581   0.321   4.420  1.7545  1.2246  1.7798
 8905SOL     OW37643   2.854   4.233   4.263  0.0966 -0.2928  0.1956
 8905SOL    HW137644   2.847   4.185   4.350  0.2792 -0.8734 -0.1095
 8905SOL    HW237645   2.874   4.168   4.190 -0.0218  0.1953 -0.2768
 8906SOL     OW37646   8.786   7.543   2.219 -0.3683 -0.5561  0.2401
 8906SOL    HW137647   8.756   7.557   2.125  2.2823  0.1980 -0.5137
 8906SOL    HW237648   8.842   7.619   2.248  0.3772 -1.6779  1.8137
 8907SOL     OW37649   2.285   2.696   2.452 -0.1647 -0.5249  0.1014
 8907SOL    HW137650   2.367   2.716   2.506 -0.7170 -1.2102  1.2192
 8907SOL    HW237651   2.205   2.735   2.497 -0.7178 -1.6709  0.1506
 8908SOL     OW37652   7.444   9.829   0.004 -0.6005  0.0290 -0.2148
 8908SOL    HW137653   7.351   9.791   0.008  0.3521 -2.4236 -0.1117
 8908SOL    HW237654   7.506   9.758  -0.030  1.4066  1.3052  0.7579
 8909SOL     OW37655   5.661   3.992   0.678  0.4847  0.3699  0.0460
 8909SOL    HW137656   5.562   4.006   0.677  0.5273  0.6568 -0.4001
 8909SOL    HW237657   5.702   4.035   0.598  0.8476 -0.6609 -0.3418
 8910SOL     OW37658   0.713   7.952   3.282 -0.1098 -0.1568  0.0981
 8910SOL    HW137659   0.623   7.923   3.249 -0.1783 -0.3338  0.4459
 8910SOL    HW237660   0.726   8.049   3.261 -0.1486 -0.2676 -0.4658
 8911SOL     OW37661   8.672   3.544   4.476  0.0693  0.2026  0.5119
 8911SOL    HW137662   8.650   3.611   4.546 -1.8862  0.1281 -0.0056
 8911SOL    HW237663   8.607   3.551   4.401  0.2130 -1.8311  0.1531
 8912SOL     OW37664   6.925   0.482   4.957  0.3449 -0.1729  0.6859
 8912SOL    HW137665   6.958   0.472   4.863  0.5789  0.1113  0.7378
 8912SOL    HW237666   7.000   0.508   5.017 -0.4551  3.3441  0.2969
 8913SOL     OW37667   0.942   0.614   5.576  0.1808  0.2682 -0.1984
 8913SOL    HW137668   0.992   0.619   5.663 -0.5685  0.8242  0.2013
 8913SOL    HW237669   0.999   0.651   5.503  0.5600  0.4012  0.1593
 8914SOL     OW37670   0.471   8.168   4.833 -0.0477 -0.4150  0.6405
 8914SOL    HW137671   0.558   8.123   4.817  0.3924  0.4890  0.4165
 8914SOL    HW237672   0.481   8.266   4.815 -0.7026 -0.0619  2.1238
 8915SOL     OW37673   9.796   0.757   2.100  0.3575  0.5634  0.1596
 8915SOL    HW137674   9.802   0.657   2.104 -0.0730  0.5709  1.2777
 8915SOL    HW237675   9.879   0.796   2.140 -0.0587  0.6467  0.9537
 8916SOL     OW37676   3.233   3.869   0.769 -0.1944  0.4198 -0.0327
 8916SOL    HW137677   3.264   3.964   0.779  0.1461  0.4244 -1.1041
 8916SOL    HW237678   3.296   3.819   0.710 -0.7637 -0.2909 -0.0445
 8917SOL     OW37679   2.742   2.754   5.510  0.2853  0.5170 -0.2130
 8917SOL    HW137680   2.659   2.709   5.542  0.8592 -0.8174 -0.5862
 8917SOL    HW237681   2.749   2.844   5.552  0.9162 -1.0971  3.3085
 8918SOL     OW37682   5.886   0.676   4.969  0.6036  0.6001  0.0767
 8918SOL    HW137683   5.875   0.586   5.012  1.3152 -0.4339 -1.8454
 8918SOL    HW237684   5.802   0.700   4.920  0.5983  0.7424  0.1555
 8919SOL     OW37685   6.833   0.223   1.989 -0.0498 -0.4092 -0.2048
 8919SOL    HW137686   6.741   0.249   1.959 -0.9262  2.3112  4.2567
 8919SOL    HW237687   6.895   0.301   1.977  0.5642 -0.7173  0.8889
 8920SOL     OW37688   5.812   8.116   3.536  0.3969 -0.7549 -0.0655
 8920SOL    HW137689   5.744   8.112   3.463  0.2780 -0.0252  0.0004
 8920SOL    HW237690   5.845   8.024   3.555 -0.1014 -1.0405 -0.5399
 8921SOL     OW37691   8.417   7.921   2.427 -0.0407  0.0408  0.3339
 8921SOL    HW137692   8.503   7.904   2.379 -0.8292 -0.5840 -0.9066
 8921SOL    HW237693   8.394   7.842   2.485 -0.2640 -0.2304 -0.1142
 8922SOL     OW37694   1.010   0.185   4.596 -0.7077 -0.1682  0.8749
 8922SOL    HW137695   0.937   0.235   4.550 -1.7604 -0.3726  2.3273
 8922SOL    HW237696   1.063   0.248   4.653 -0.8426 -0.3583  1.2078
 8923SOL     OW37697   8.343   9.030   1.562 -0.3568 -0.1378 -0.6627
 8923SOL    HW137698   8.420   8.978   1.599 -0.8003 -1.1439 -1.1557
 8923SOL    HW237699   8.378   9.110   1.513  0.3359 -0.0875 -0.0940
 8924SOL     OW37700   0.873   5.940   1.815  0.1284  0.3704  1.1479
 8924SOL    HW137701   0.811   6.007   1.854 -1.2834 -0.6275  0.6510
 8924SOL    HW237702   0.893   5.964   1.720 -0.3388  0.1236  0.9848
 8925SOL     OW37703   9.984   3.396   5.337 -0.1703 -0.7759  0.1917
 8925SOL    HW137704   9.932   3.395   5.252  0.9093  0.2776 -0.5047
 8925SOL    HW237705   9.932   3.446   5.407 -0.0034  0.4739 -0.5646
 8926SOL     OW37706   1.466   9.299   3.039  0.2692 -0.2672 -0.1487
 8926SOL    HW137707   1.425   9.239   3.108 -1.2982  0.9320 -0.0141
 8926SOL    HW237708   1.411   9.381   3.029  1.3487  0.2938 -1.7195
 8927SOL     OW37709   9.914   0.516   3.729 -0.4070 -0.0381  0.0017
 8927SOL    HW137710   9.901   0.422   3.761 -1.6713  0.7575  1.9108
 8927SOL    HW237711   9.917   0.517   3.629 -1.7407 -1.9482 -0.0872
 8928SOL     OW37712   0.322   9.590   3.591 -0.4792  0.4917 -0.1587
 8928SOL    HW137713   0.404   9.648   3.584  0.8231 -1.0272  1.7743
 8928SOL    HW237714   0.268   9.619   3.670 -0.4944 -0.0951  0.0451
 8929SOL     OW37715   1.154   7.509   0.984 -0.2522 -0.5555  0.2493
 8929SOL    HW137716   1.124   7.505   0.888  0.4152 -0.3775  0.0303
 8929SOL    HW237717   1.123   7.427   1.032 -0.4516 -0.7215 -0.1616
 8930SOL     OW37718   7.645   6.760   3.072 -0.9378  0.3707 -0.1465
 8930SOL    HW137719   7.643   6.703   3.154  1.9437 -1.3690 -1.1898
 8930SOL    HW237720   7.654   6.856   3.098  1.5271 -0.2793  1.6203
 8931SOL     OW37721   2.676   5.273   1.996 -0.0030 -0.1475 -0.1075
 8931SOL    HW137722   2.621   5.321   2.064 -2.2059 -2.1060 -0.4411
 8931SOL    HW237723   2.658   5.313   1.906  1.4711  1.1992  0.1724
 8932SOL     OW37724   3.434   6.804   1.977 -0.1873 -0.1921  0.0733
 8932SOL    HW137725   3.494   6.784   1.900 -0.8380 -2.1553  0.0597
 8932SOL    HW237726   3.340   6.782   1.953 -0.4958 -0.1133  1.1770
 8933SOL     OW37727   0.893   6.141   4.773 -0.2155 -0.0105 -0.5904
 8933SOL    HW137728   0.830   6.218   4.762 -0.0976  0.0115 -1.1295
 8933SOL    HW237729   0.977   6.159   4.722 -0.9175 -1.2909 -2.2696
 8934SOL     OW37730   4.786   1.688   2.374  0.0274  0.0757 -0.4149
 8934SOL    HW137731   4.689   1.707   2.383 -0.0394  0.7388 -2.2605
 8934SOL    HW237732   4.801   1.590   2.374 -0.3593 -0.0251  2.2985
 8935SOL     OW37733   7.294   3.840   0.084 -0.0256 -0.0524  0.3962
 8935SOL    HW137734   7.296   3.932   0.044 -0.6298  0.1739  0.8628
 8935SOL    HW237735   7.330   3.774   0.019  0.0171  0.4606 -0.1040
 8936SOL     OW37736   2.139   7.617   4.401  0.0165  0.0918 -0.0726
 8936SOL    HW137737   2.195   7.665   4.468  1.1158  1.8763 -2.1822
 8936SOL    HW237738   2.047   7.655   4.400  0.6941  1.7937 -1.2570
 8937SOL     OW37739   1.941   9.711   3.216  0.3677  0.0459  0.5388
 8937SOL    HW137740   1.841   9.716   3.210  0.3366 -1.4555 -0.2776
 8937SOL    HW237741   1.973   9.626   3.175  2.0831  1.0603 -0.2544
 8938SOL     OW37742   9.786   7.714   1.009  0.1986  0.3100  0.0794
 8938SOL    HW137743   9.781   7.627   1.056  0.3157  1.0165  1.4284
 8938SOL    HW237744   9.878   7.752   1.019 -0.3537  1.4362  1.0726
 8939SOL     OW37745   1.195   0.299   2.889  0.6198  0.1019  0.4741
 8939SOL    HW137746   1.194   0.291   2.790  2.8778 -1.1580  0.5139
 8939SOL    HW237747   1.195   0.396   2.915  0.9145  0.4433 -0.7765
 8940SOL     OW37748   5.302   1.730   3.344 -0.2159 -0.5753 -0.0095
 8940SOL    HW137749   5.258   1.807   3.298  2.0401  0.5865 -0.2866
 8940SOL    HW237750   5.399   1.729   3.322  0.4269 -1.5056  2.6558
 8941SOL     OW37751   0.408   3.385   2.523 -0.0309 -0.1087  0.2811
 8941SOL    HW137752   0.442   3.339   2.605 -0.2722  1.5493  1.3309
 8941SOL    HW237753   0.375   3.476   2.547 -0.2681  0.3341 -1.6388
 8942SOL     OW37754   1.574   4.849   1.521 -0.1137  0.6409  0.2418
 8942SOL    HW137755   1.512   4.911   1.569  0.5958  2.0151 -0.5915
 8942SOL    HW237756   1.668   4.865   1.553 -0.0453 -0.7379  0.7775
 8943SOL     OW37757   2.143   6.281   1.722  0.2776 -0.6446 -0.0177
 8943SOL    HW137758   2.215   6.295   1.789 -0.4277 -1.5837  0.9585
 8943SOL    HW237759   2.138   6.184   1.698 -1.2573 -0.7366  0.6240
 8944SOL     OW37760   8.846   4.869   5.380  0.2786 -0.2998  0.2134
 8944SOL    HW137761   8.855   4.954   5.432  0.6586 -0.3729  0.2713
 8944SOL    HW237762   8.923   4.809   5.401 -0.2656 -0.8712  0.5663
 8945SOL     OW37763   4.814   6.370   1.894  0.2543 -0.5493  0.3085
 8945SOL    HW137764   4.813   6.388   1.796  1.0868 -2.7351 -0.1321
 8945SOL    HW237765   4.778   6.279   1.912 -0.5922  0.1202  2.1164
 8946SOL     OW37766   4.825   3.667   5.421  0.2554 -0.4112  0.1251
 8946SOL    HW137767   4.811   3.693   5.326 -0.1907  0.2749  0.3709
 8946SOL    HW237768   4.913   3.621   5.431  0.9782  0.8603 -0.3509
 8947SOL     OW37769   1.937   5.238   5.553  0.1257  0.2783 -0.2494
 8947SOL    HW137770   2.028   5.199   5.540  0.9790  1.9748  0.4373
 8947SOL    HW237771   1.919   5.250   5.650 -1.8174 -2.2448 -0.2469
 8948SOL     OW37772   6.880   0.004   3.240  0.6999 -0.1673  0.1216
 8948SOL    HW137773   6.845  -0.087   3.221 -1.5104  0.5340  0.6976
 8948SOL    HW237774   6.882   0.020   3.339 -1.8862  1.4954 -0.0538
 8949SOL     OW37775   4.290   4.483   1.920  0.6942  0.3360 -0.1625
 8949SOL    HW137776   4.257   4.547   1.989  0.7594  1.3880 -1.0841
 8949SOL    HW237777   4.223   4.476   1.846  1.1286  0.0978 -0.5370
 8950SOL     OW37778   0.106   0.635   1.857 -0.3663  0.5915  0.5565
 8950SOL    HW137779   0.193   0.637   1.808 -0.2274 -0.0986  0.7704
 8950SOL    HW237780   0.066   0.543   1.850  0.1759  0.1764  2.6405
 8951SOL     OW37781   8.580   0.989   0.994 -0.0683 -0.4735 -0.3486
 8951SOL    HW137782   8.652   1.058   0.987 -0.1956 -0.2436  0.6766
 8951SOL    HW237783   8.511   1.006   0.923  0.5300 -0.2864 -0.8922
 8952SOL     OW37784   2.136   9.689   4.052 -0.1003  0.3432  0.1295
 8952SOL    HW137785   2.184   9.666   4.137 -0.8365 -0.8225  0.2364
 8952SOL    HW237786   2.203   9.708   3.980  0.5242  0.7686  0.8101
 8953SOL     OW37787   8.434   4.763   2.465  0.0233  0.5288  0.3483
 8953SOL    HW137788   8.507   4.703   2.431 -1.4005 -1.2811  0.4622
 8953SOL    HW237789   8.412   4.739   2.559 -1.0280  0.7640  0.1705
 8954SOL     OW37790   3.327   3.409   2.804  0.4735  0.5510 -0.0546
 8954SOL    HW137791   3.298   3.497   2.765  0.1303  0.0636 -0.9111
 8954SOL    HW237792   3.255   3.341   2.789  0.8402  0.0637  0.3976
 8955SOL     OW37793   0.794   9.066   1.906  0.4773  0.2317 -0.4165
 8955SOL    HW137794   0.887   9.037   1.882  0.6686  0.2976  0.2437
 8955SOL    HW237795   0.769   9.026   1.994 -0.5315 -0.6805 -1.0968
 8956SOL     OW37796   3.007   0.927   0.875 -0.0216  0.1282 -0.3916
 8956SOL    HW137797   3.012   1.013   0.925 -0.9549 -0.9577  1.6590
 8956SOL    HW237798   3.096   0.882   0.875 -0.2264 -0.3318  1.2360
 8957SOL     OW37799   7.642   7.024   3.390  0.1041  0.1583  0.1332
 8957SOL    HW137800   7.565   7.082   3.415  1.2905  2.0257 -0.4659
 8957SOL    HW237801   7.645   7.015   3.290 -0.0620 -0.9388  0.2195
 8958SOL     OW37802   8.771   4.844   0.514  0.2242  0.1159  0.0665
 8958SOL    HW137803   8.784   4.745   0.524  2.2853  0.1945 -1.4447
 8958SOL    HW237804   8.813   4.891   0.591 -0.6800 -0.1680  0.7418
 8959SOL     OW37805   0.103   0.016   4.614 -0.4242 -0.2830  0.4482
 8959SOL    HW137806   0.025   0.013   4.676 -1.0704 -1.6686 -0.3947
 8959SOL    HW237807   0.096  -0.060   4.549  1.3858 -0.1478  0.0778
 8960SOL     OW37808   0.961   6.413   1.506  0.0210  0.5560 -0.3794
 8960SOL    HW137809   0.881   6.364   1.474 -0.4140  0.6676  0.5256
 8960SOL    HW237810   1.034   6.349   1.527 -0.8048  0.2087  1.5441
 8961SOL     OW37811   3.418   6.834   2.258  0.5165  0.2334 -0.0631
 8961SOL    HW137812   3.344   6.775   2.289  1.0023 -0.2241  0.2237
 8961SOL    HW237813   3.429   6.824   2.159  0.3404  0.1387 -0.0730
 8962SOL     OW37814   3.404   1.059   5.295 -0.1595  0.1368 -0.5289
 8962SOL    HW137815   3.438   1.150   5.272 -0.3553 -0.0460 -1.5506
 8962SOL    HW237816   3.414   0.998   5.216 -2.1171 -0.1352 -0.5972
 8963SOL     OW37817   4.087   4.946   2.626 -0.6003  0.1397  0.0251
 8963SOL    HW137818   4.018   4.928   2.696 -2.2047  0.5256 -1.4477
 8963SOL    HW237819   4.077   5.039   2.592  2.0545  0.9565  1.3380
 8964SOL     OW37820   9.750   2.956   3.096  0.1660  0.0112  0.2321
 8964SOL    HW137821   9.768   2.968   3.194  1.8616  0.2027 -0.0918
 8964SOL    HW237822   9.836   2.941   3.048 -0.6012  0.5013 -1.3287
 8965SOL     OW37823   8.312   8.592   1.588 -0.1778 -0.1443 -0.6201
 8965SOL    HW137824   8.249   8.531   1.541  0.6733 -0.5965 -1.1955
 8965SOL    HW237825   8.289   8.596   1.685 -1.8019  0.6205 -1.0237
 8966SOL     OW37826   8.329   6.231   2.322  0.1390  0.3047  0.2686
 8966SOL    HW137827   8.255   6.221   2.255  0.3071  0.7230  0.0161
 8966SOL    HW237828   8.346   6.144   2.367  0.4203 -0.1321 -0.6582
 8967SOL     OW37829   3.520   0.444   3.569 -0.7011 -0.1256 -0.2046
 8967SOL    HW137830   3.513   0.517   3.637 -0.6612 -0.7821  0.5204
 8967SOL    HW237831   3.554   0.481   3.483 -0.3067  0.6397  0.2757
 8968SOL     OW37832   5.450   4.355   0.634 -0.5135  0.1133 -0.7166
 8968SOL    HW137833   5.356   4.381   0.657 -0.3090  0.7231 -0.5614
 8968SOL    HW237834   5.466   4.260   0.660  0.0068  1.0551  2.5811
 8969SOL     OW37835   2.784   2.947   3.467 -0.0271 -0.8560 -0.3472
 8969SOL    HW137836   2.865   2.924   3.522 -1.5091  0.1314  2.3538
 8969SOL    HW237837   2.719   2.999   3.524 -1.2834  0.9030 -3.2947
 8970SOL     OW37838   4.853   8.413   0.318 -0.2424 -0.4428 -0.4361
 8970SOL    HW137839   4.784   8.414   0.390 -2.0159  0.7413 -2.0789
 8970SOL    HW237840   4.914   8.335   0.331 -1.2258 -0.8914  1.6878
 8971SOL     OW37841   4.571   0.877   1.067 -0.4475 -0.0392 -0.2882
 8971SOL    HW137842   4.632   0.879   1.146  0.0996  2.1959 -0.7250
 8971SOL    HW237843   4.489   0.932   1.087 -0.9634 -0.6252 -0.7681
 8972SOL     OW37844   2.416   0.634   3.575  0.0774  0.3929  0.3170
 8972SOL    HW137845   2.490   0.567   3.572 -1.0399 -1.0206  2.6949
 8972SOL    HW237846   2.434   0.707   3.509  3.1996 -0.2916  0.3576
 8973SOL     OW37847   8.497   1.760   1.826 -0.5983 -0.1229  0.2593
 8973SOL    HW137848   8.495   1.668   1.787 -0.4722  0.1261 -0.3290
 8973SOL    HW237849   8.414   1.809   1.799  1.4934  1.5807 -3.4008
 8974SOL     OW37850   7.785   5.507   4.033  0.3688  0.6863 -0.0739
 8974SOL    HW137851   7.694   5.472   4.055  0.5324 -0.0191 -0.5228
 8974SOL    HW237852   7.851   5.433   4.035  1.1157  1.3657  1.2019
 8975SOL     OW37853   7.073   9.847   4.294  0.5613  0.0239 -0.9243
 8975SOL    HW137854   7.104   9.938   4.321  1.9976 -0.5463 -0.6192
 8975SOL    HW237855   7.086   9.835   4.195  2.1990 -0.5609 -0.6356
 8976SOL     OW37856   1.031   3.282   3.121  0.3983  0.3972  0.2466
 8976SOL    HW137857   1.066   3.298   3.213 -0.3895  1.7005  0.3316
 8976SOL    HW237858   0.931   3.278   3.123  0.4196 -0.7789 -0.3765
 8977SOL     OW37859   8.909   2.443   1.539  0.1391 -0.4021 -0.1935
 8977SOL    HW137860   8.935   2.436   1.443 -0.3210  0.8882 -0.4237
 8977SOL    HW237861   8.823   2.494   1.547  0.3319 -0.2392  0.9258
 8978SOL     OW37862   8.209   1.064   2.500 -0.2036  0.2397 -0.4423
 8978SOL    HW137863   8.268   1.131   2.455 -0.7923  1.7907  1.0824
 8978SOL    HW237864   8.265   1.003   2.556  0.1128  0.7927 -0.1509
 8979SOL     OW37865   2.396   7.532   1.414 -0.6816 -0.0498 -0.0863
 8979SOL    HW137866   2.312   7.493   1.377 -0.7211  0.6192 -0.7063
 8979SOL    HW237867   2.467   7.462   1.415 -0.9435 -0.3288 -0.5439
 8980SOL     OW37868   9.225   5.915   3.765  0.4885  0.0511 -0.2401
 8980SOL    HW137869   9.194   5.827   3.803  1.3539  0.1436  0.6925
 8980SOL    HW237870   9.200   5.919   3.668 -0.7154 -0.6755  0.0179
 8981SOL     OW37871   9.742   4.604   4.439  0.0504  1.0531  0.0175
 8981SOL    HW137872   9.649   4.576   4.417 -0.3829  1.4816  1.2953
 8981SOL    HW237873   9.772   4.557   4.522  1.2887  0.2802 -0.8329
 8982SOL     OW37874   6.430   8.485   3.393 -0.3798  0.0338 -0.3622
 8982SOL    HW137875   6.347   8.539   3.407 -1.0372 -0.9861 -0.2726
 8982SOL    HW237876   6.439   8.417   3.466  0.7901  0.4421 -0.1061
 8983SOL     OW37877   1.255   7.548   3.973 -0.6002  0.4616  0.1220
 8983SOL    HW137878   1.194   7.543   4.051 -0.4223  1.1870  0.3129
 8983SOL    HW237879   1.228   7.624   3.914 -0.7942 -0.1437 -0.5731
 8984SOL     OW37880   6.899   0.456   3.701 -0.0761 -0.4241  0.2426
 8984SOL    HW137881   6.802   0.477   3.712 -0.4478 -1.8009 -0.3032
 8984SOL    HW237882   6.953   0.514   3.762 -1.1863  0.8464  0.0350
 8985SOL     OW37883   1.742   5.352   0.376  0.0762  0.1358 -0.1431
 8985SOL    HW137884   1.811   5.402   0.429  0.2172  0.2697 -0.4554
 8985SOL    HW237885   1.653   5.397   0.386 -0.0825 -0.3497  0.7041
 8986SOL     OW37886   3.423   7.539   0.690 -0.5045 -0.0488 -0.3074
 8986SOL    HW137887   3.324   7.545   0.693 -0.6500 -1.8838 -0.8975
 8986SOL    HW237888   3.458   7.512   0.779 -0.4726  1.3331  0.1034
 8987SOL     OW37889   1.499   4.588   1.428 -0.0609  0.2590  0.3591
 8987SOL    HW137890   1.497   4.586   1.328  0.8996 -0.9392  0.3579
 8987SOL    HW237891   1.538   4.675   1.458 -0.0149  0.4764 -0.3140
 8988SOL     OW37892   2.449   1.639   0.717 -0.0356 -0.6355 -0.1014
 8988SOL    HW137893   2.483   1.560   0.768  0.0296 -1.3801 -1.2943
 8988SOL    HW237894   2.523   1.706   0.706  0.0203 -0.5858  0.5508
 8989SOL     OW37895   3.674   0.419   4.265 -0.5799  0.0889 -0.6519
 8989SOL    HW137896   3.674   0.516   4.290  1.3917  0.1169 -0.6676
 8989SOL    HW237897   3.668   0.410   4.165 -2.4748  0.1353 -0.5547
 8990SOL     OW37898   8.411   5.403   4.172  0.2517 -0.0753 -0.0358
 8990SOL    HW137899   8.368   5.453   4.247 -1.4031  1.0762 -1.7071
 8990SOL    HW237900   8.401   5.305   4.187 -0.8221  0.1559  0.8510
 8991SOL     OW37901   2.568   7.633   4.815  0.2058  0.2703  0.0754
 8991SOL    HW137902   2.632   7.692   4.862  0.4404  1.6865 -1.9546
 8991SOL    HW237903   2.513   7.687   4.751 -1.4249 -1.2740  0.1242
 8992SOL     OW37904   4.090   9.805   0.846 -0.0328  0.2625  0.4005
 8992SOL    HW137905   4.079   9.852   0.933 -1.4498 -1.3023  1.0784
 8992SOL    HW237906   4.031   9.724   0.843 -0.4288  0.5795 -2.2040
 8993SOL     OW37907   3.852   6.167   3.174  0.6208  0.4532 -0.2201
 8993SOL    HW137908   3.813   6.087   3.221  1.3644  0.0832 -0.2149
 8993SOL    HW237909   3.842   6.247   3.232 -0.3915  0.4257 -0.3439
 8994SOL     OW37910   7.138   0.100   4.489  0.2992 -0.4300  0.1416
 8994SOL    HW137911   7.153   0.009   4.528 -0.6297 -0.2278  1.0008
 8994SOL    HW237912   7.097   0.160   4.558  0.2422  0.4399 -0.6301
 8995SOL     OW37913   2.774   4.162   2.035 -0.2425  0.0534  0.1010
 8995SOL    HW137914   2.775   4.255   2.073  1.6748  0.3632 -0.6237
 8995SOL    HW237915   2.745   4.166   1.939  0.0824 -0.0578 -0.0027
 8996SOL     OW37916   3.585   0.604   0.511  0.0316 -0.2148 -0.3024
 8996SOL    HW137917   3.658   0.664   0.478  0.5283 -0.6069  0.0789
 8996SOL    HW237918   3.561   0.538   0.440  1.0181 -0.9848  0.0775
 8997SOL     OW37919   7.310   4.082   5.553  0.5749 -0.1131  0.3068
 8997SOL    HW137920   7.271   4.154   5.495  0.2059 -0.1909  0.4580
 8997SOL    HW237921   7.373   4.026   5.499  0.0564 -0.3286 -0.0811
 8998SOL     OW37922   9.499   9.475   1.635  0.5374 -0.0543 -0.0445
 8998SOL    HW137923   9.497   9.571   1.607  0.7843  0.0298  0.2263
 8998SOL    HW237924   9.468   9.418   1.559  1.3707  0.1571 -0.5483
 8999SOL     OW37925   9.680   6.574   1.514 -0.1391 -0.5357  0.6219
 8999SOL    HW137926   9.654   6.628   1.594 -0.4151 -1.8936  1.4702
 8999SOL    HW237927   9.778   6.581   1.499 -0.1327 -0.0260  0.9019
 9000SOL     OW37928   4.468   4.364   0.231 -0.3310 -0.3990 -0.7420
 9000SOL    HW137929   4.501   4.458   0.232 -2.1533  0.2606 -0.8043
 9000SOL    HW237930   4.543   4.302   0.256  1.1279  0.9626 -1.6548
 9001SOL     OW37931   1.175   2.786   4.706  0.7817 -0.9754  0.4647
 9001SOL    HW137932   1.179   2.702   4.652 -0.6008 -0.2656 -0.7784
 9001SOL    HW237933   1.115   2.773   4.785 -0.5353 -0.7457 -0.4874
 9002SOL     OW37934   1.413   3.697   5.409 -0.1622  0.2877  0.0818
 9002SOL    HW137935   1.403   3.681   5.508 -0.5553  2.1223  0.3559
 9002SOL    HW237936   1.500   3.658   5.378 -1.3934 -3.0332  0.5196
 9003SOL     OW37937   2.326   1.631   4.990  0.2596  0.2648 -0.0393
 9003SOL    HW137938   2.355   1.648   4.896 -1.2633 -3.0434 -1.1783
 9003SOL    HW237939   2.396   1.579   5.038 -0.0685 -0.2760 -0.1434
 9004SOL     OW37940   3.246   9.600   0.110 -0.2544 -0.1494  0.0612
 9004SOL    HW137941   3.331   9.570   0.065  0.5967  0.4767  1.2271
 9004SOL    HW237942   3.198   9.521   0.146  0.7625 -0.3551  0.9937
 9005SOL     OW37943   0.314   0.031   3.806  0.1353 -0.0651 -0.5795
 9005SOL    HW137944   0.294   0.026   3.708  0.6054  0.4843 -0.7053
 9005SOL    HW237945   0.412   0.043   3.820 -0.1625  2.0918 -0.1160
 9006SOL     OW37946   2.681   0.993   4.192 -0.5536 -0.3723 -0.1483
 9006SOL    HW137947   2.614   1.013   4.120  0.5378  2.7648 -0.3924
 9006SOL    HW237948   2.770   0.973   4.151 -0.0172  1.0589  0.2610
 9007SOL     OW37949   0.887   6.881   2.748 -0.8255  0.3366  0.3649
 9007SOL    HW137950   0.817   6.948   2.724 -0.2755  0.6794 -0.3057
 9007SOL    HW237951   0.976   6.927   2.756 -0.5442 -0.2178  0.4654
 9008SOL     OW37952   0.771   8.791   1.613  0.0361  0.3182 -0.3774
 9008SOL    HW137953   0.703   8.844   1.562 -0.3966 -0.7765 -0.9674
 9008SOL    HW237954   0.803   8.715   1.556  0.7902  0.0656  0.3780
 9009SOL     OW37955   3.489   1.752   2.054 -0.7120  0.3175  0.1590
 9009SOL    HW137956   3.422   1.824   2.036 -0.3261  0.6272 -0.0553
 9009SOL    HW237957   3.580   1.793   2.059 -0.6042 -0.0139  1.0159
 9010SOL     OW37958   3.606   2.318   3.161 -0.0800 -0.2193 -0.0763
 9010SOL    HW137959   3.686   2.368   3.126 -0.4988  1.9162  1.8859
 9010SOL    HW237960   3.528   2.380   3.166 -0.3273 -0.7047  3.5213
 9011SOL     OW37961   0.764   8.946   3.870 -0.6318 -0.1673  0.4496
 9011SOL    HW137962   0.761   9.044   3.853 -2.0839 -0.2539  0.2025
 9011SOL    HW237963   0.850   8.923   3.917  0.0007  1.1170 -0.0549
 9012SOL     OW37964   1.773   8.835   2.188  0.3929 -0.2606 -0.2764
 9012SOL    HW137965   1.860   8.794   2.214  0.0503 -1.8348 -1.5171
 9012SOL    HW237966   1.790   8.908   2.121  0.9186  0.9172  1.1229
 9013SOL     OW37967   2.030   2.083   1.246  0.8090 -0.2150 -0.1275
 9013SOL    HW137968   1.997   2.043   1.332  1.8844 -1.1867 -0.1589
 9013SOL    HW237969   2.126   2.108   1.255  0.6341  0.6943 -0.7062
 9014SOL     OW37970   6.784   7.033   2.801 -0.2740 -0.3931 -0.2039
 9014SOL    HW137971   6.794   6.985   2.889 -0.9339 -0.1510  0.0029
 9014SOL    HW237972   6.858   7.099   2.792 -1.1193  0.7380  0.9183
 9015SOL     OW37973   0.208   2.118   2.623  0.1419  0.3357  0.3689
 9015SOL    HW137974   0.111   2.110   2.600 -0.2060  1.4076  1.4147
 9015SOL    HW237975   0.257   2.161   2.548 -0.3690  0.6660  0.2182
 9016SOL     OW37976   6.977   9.813   2.447 -0.3719  0.8372  0.1710
 9016SOL    HW137977   7.045   9.848   2.511 -2.4273  1.6466  1.9994
 9016SOL    HW237978   7.012   9.820   2.354  2.6430 -0.2594  1.1659
 9017SOL     OW37979   2.359   0.888   5.074 -0.4886 -0.0359 -0.0774
 9017SOL    HW137980   2.449   0.858   5.104 -0.8892 -0.4574  0.7303
 9017SOL    HW237981   2.340   0.979   5.111 -0.4255  0.0249 -0.1936
 9018SOL     OW37982   7.347   2.594   3.087  0.7377  0.3009 -0.0494
 9018SOL    HW137983   7.431   2.564   3.041 -0.1220 -0.6887 -1.0329
 9018SOL    HW237984   7.268   2.549   3.044 -0.4762  2.6721 -0.4192
 9019SOL     OW37985   0.925   6.807   0.289 -0.4314 -0.0478 -0.1376
 9019SOL    HW137986   0.974   6.816   0.375 -0.2491  1.1828 -0.3614
 9019SOL    HW237987   0.988   6.819   0.213 -0.4671 -1.7763 -0.4603
 9020SOL     OW37988   0.218   6.384   2.387 -0.1159  0.2733 -0.0539
 9020SOL    HW137989   0.273   6.433   2.319 -0.4491 -0.1530 -0.6356
 9020SOL    HW237990   0.144   6.444   2.420  1.7174  1.4845  2.0513
 9021SOL     OW37991   1.090   4.500   5.237  0.5242  0.8040  0.1904
 9021SOL    HW137992   0.995   4.477   5.258 -0.0694  1.4124 -1.7111
 9021SOL    HW237993   1.135   4.422   5.194  0.1246  1.3734 -1.2610
 9022SOL     OW37994   8.624   1.556   2.194  0.2091  0.0231  0.1537
 9022SOL    HW137995   8.665   1.643   2.166  0.7009 -0.7208 -1.4717
 9022SOL    HW237996   8.692   1.501   2.243 -0.0987  0.5480  1.1715
 9023SOL     OW37997   8.705   9.535   0.878 -0.3464  0.3130 -0.1472
 9023SOL    HW137998   8.606   9.527   0.884 -0.3637  0.0367 -0.7681
 9023SOL    HW237999   8.748   9.476   0.946 -0.5659 -1.4052 -1.4567
 9024SOL     OW38000   1.986   1.661   3.526 -0.6087 -0.3072 -0.0409
 9024SOL    HW138001   1.923   1.587   3.504 -0.6609 -0.0220 -0.8935
 9024SOL    HW238002   1.977   1.686   3.622 -0.4148 -1.5657  0.3123
 9025SOL     OW38003   4.818   0.585   5.398  0.0924 -0.1671  0.5195
 9025SOL    HW138004   4.890   0.536   5.448  0.8630 -0.3555 -0.7328
 9025SOL    HW238005   4.755   0.519   5.357 -0.2206 -0.0286  0.7744
 9026SOL     OW38006   9.641   0.708   0.513 -0.7736  0.6434  0.2168
 9026SOL    HW138007   9.672   0.798   0.544  2.7277  0.1307 -1.4520
 9026SOL    HW238008   9.692   0.637   0.561 -0.5528 -0.3128 -1.4026
 9027SOL     OW38009   1.573   0.568   5.239  0.0983  0.4686  0.2470
 9027SOL    HW138010   1.482   0.572   5.280 -0.4728  0.8232 -1.0021
 9027SOL    HW238011   1.577   0.490   5.176  0.4810  0.7541 -0.0848
 9028SOL     OW38012   1.750   0.585   4.743  0.0964  0.8183 -0.4226
 9028SOL    HW138013   1.678   0.516   4.732  1.1142 -0.1087 -1.3776
 9028SOL    HW238014   1.723   0.669   4.695 -0.6168  0.6772 -0.2697
 9029SOL     OW38015   3.785   2.502   3.058 -0.0800  0.0784  0.2049
 9029SOL    HW138016   3.724   2.538   2.988  0.4292 -1.2460 -0.9416
 9029SOL    HW238017   3.853   2.442   3.015 -0.1689 -1.2622  1.9075
 9030SOL     OW38018   0.439   1.192   4.857  0.0483 -0.8795  0.7535
 9030SOL    HW138019   0.445   1.227   4.951  0.1575  3.1823 -0.6582
 9030SOL    HW238020   0.343   1.174   4.835 -0.7834  3.8636 -0.1453
 9031SOL     OW38021   3.095   0.111   3.629  0.3246 -0.7161 -0.5829
 9031SOL    HW138022   3.016   0.067   3.672 -0.5510 -1.2392 -2.6485
 9031SOL    HW238023   3.063   0.181   3.566  1.6081  0.5911  0.2082
 9032SOL     OW38024   2.429   9.864   3.086  0.5981  0.8659 -0.0985
 9032SOL    HW138025   2.342   9.894   3.046 -0.1498  0.8591  1.4481
 9032SOL    HW238026   2.490   9.942   3.096  1.5792  0.5199 -3.0978
 9033SOL     OW38027   8.739   4.533   5.042  0.6910 -0.1033 -0.1741
 9033SOL    HW138028   8.812   4.524   4.974  0.3553 -0.7379 -0.4526
 9033SOL    HW238029   8.767   4.489   5.127  1.3176  1.1266  0.2775
 9034SOL     OW38030   2.859   7.037   0.330 -0.2411 -0.3331 -0.2447
 9034SOL    HW138031   2.926   7.092   0.381 -0.7218 -0.9049  1.0254
 9034SOL    HW238032   2.797   7.097   0.280  0.7003  0.2223 -0.7584
 9035SOL     OW38033   5.348   3.041   2.348 -0.0957 -0.1635 -0.0028
 9035SOL    HW138034   5.273   3.100   2.377  0.2292  0.0142  0.4931
 9035SOL    HW238035   5.352   2.961   2.408 -0.1405 -0.3692 -0.2773
 9036SOL     OW38036   1.209   8.824   4.456 -0.3206 -0.1828 -0.7030
 9036SOL    HW138037   1.248   8.826   4.549  0.8823 -1.3291 -1.1704
 9036SOL    HW238038   1.173   8.915   4.434  3.2723  1.3135 -0.7180
 9037SOL     OW38039   1.388   9.194   5.461 -0.8966 -0.1155  0.1939
 9037SOL    HW138040   1.315   9.126   5.457 -0.2653 -0.6987 -1.6193
 9037SOL    HW238041   1.447   9.185   5.381  0.8134  0.7549  1.3235
 9038SOL     OW38042   0.730   0.996   0.280  0.2148 -0.4655 -0.3522
 9038SOL    HW138043   0.727   1.074   0.343  0.3005 -1.2103  0.5827
 9038SOL    HW238044   0.677   1.018   0.198 -0.2963  0.3285  0.1786
 9039SOL     OW38045   8.231   0.572   2.986  0.1309  0.1343  0.6256
 9039SOL    HW138046   8.135   0.549   2.998 -0.0779  0.8436  0.3413
 9039SOL    HW238047   8.253   0.654   3.040  0.0624  1.1927 -0.9222
 9040SOL     OW38048   8.434   4.467   5.580  0.1612 -0.1062  0.2100
 9040SOL    HW138049   8.461   4.464   5.484 -1.5451 -0.1813 -0.2754
 9040SOL    HW238050   8.392   4.556   5.600 -1.1518 -0.7524  0.4159
 9041SOL     OW38051   1.853   5.795   1.696  0.0059 -0.0344 -0.7367
 9041SOL    HW138052   1.942   5.803   1.741 -0.5007 -0.4540  0.3815
 9041SOL    HW238053   1.781   5.798   1.766 -0.8777  0.7754 -1.6738
 9042SOL     OW38054   9.030   8.190   2.563 -0.2816 -0.4115  0.0681
 9042SOL    HW138055   8.963   8.264   2.564 -0.4541 -0.5683  0.1812
 9042SOL    HW238056   8.982   8.102   2.567 -0.0442 -0.5097  0.8113
 9043SOL     OW38057   8.579   0.427   3.580 -0.5126  0.2677 -0.7216
 9043SOL    HW138058   8.613   0.511   3.537  1.1625 -1.0622 -2.0662
 9043SOL    HW238059   8.495   0.447   3.629  0.5355  3.0105  0.0619
 9044SOL     OW38060   0.371   0.652   1.728  0.0080 -0.1104 -0.7349
 9044SOL    HW138061   0.435   0.586   1.767  0.0640 -0.5980 -1.6490
 9044SOL    HW238062   0.395   0.744   1.760 -0.0071 -0.5095  0.4520
 9045SOL     OW38063   4.433   5.594   1.342 -0.8486 -0.4157 -0.2476
 9045SOL    HW138064   4.501   5.656   1.303 -1.7407  0.1557 -0.9236
 9045SOL    HW238065   4.341   5.627   1.320 -1.3437 -1.4679  0.1931
 9046SOL     OW38066   3.029   8.174   4.454 -0.0927 -0.4242  0.4416
 9046SOL    HW138067   2.957   8.112   4.482 -0.4099  0.5121  1.7621
 9046SOL    HW238068   3.114   8.150   4.502  0.6945 -1.9828 -1.6580
 9047SOL     OW38069   0.561   5.201   3.620 -0.3331  0.1627  0.5169
 9047SOL    HW138070   0.494   5.130   3.597 -0.4695 -0.0441  1.5347
 9047SOL    HW238071   0.596   5.242   3.535  0.9505 -2.2268 -0.1737
 9048SOL     OW38072   4.802   9.632   3.233  0.1486  0.1527  0.0547
 9048SOL    HW138073   4.831   9.565   3.301  1.7093  0.0915 -0.6514
 9048SOL    HW238074   4.755   9.586   3.158 -2.2994  0.3067  1.4355
 9049SOL     OW38075   0.327   5.928   4.868  0.3133 -0.5681  0.0560
 9049SOL    HW138076   0.271   6.009   4.887  0.2153 -0.3330 -1.1858
 9049SOL    HW238077   0.274   5.846   4.889  0.4727 -0.3132  1.4863
 9050SOL     OW38078   8.635   4.912   4.338  0.1925  0.4624  0.2495
 9050SOL    HW138079   8.618   4.889   4.243  0.2869  0.5486  0.2117
 9050SOL    HW238080   8.577   4.856   4.397  0.9237 -0.3549  0.1921
 9051SOL     OW38081   7.214   6.766   3.123 -0.0189 -0.2617  0.4572
 9051SOL    HW138082   7.262   6.774   3.036  0.2114 -1.3102  0.4831
 9051SOL    HW238083   7.264   6.817   3.194  0.7844 -0.9470  0.3797
 9052SOL     OW38084   3.045   0.992   3.773 -0.1339 -0.0692  0.1401
 9052SOL    HW138085   3.111   0.918   3.759  0.3549  0.4459 -0.3505
 9052SOL    HW238086   2.960   0.955   3.809  0.4796 -0.7239  0.9434
 9053SOL     OW38087   8.271   8.443   3.698 -0.0771 -0.4306  0.2108
 9053SOL    HW138088   8.316   8.456   3.610  0.7691 -1.9391  0.4050
 9053SOL    HW238089   8.198   8.375   3.688  0.6842 -1.3648  0.8735
 9054SOL     OW38090   7.909   1.069   2.478  0.5447 -0.0988  0.6165
 9054SOL    HW138091   7.875   1.162   2.495  0.5451 -0.1097  0.6802
 9054SOL    HW238092   8.002   1.074   2.442 -0.1421 -0.0092 -1.1963
 9055SOL     OW38093   0.498   3.031   3.955  0.7260  0.0699  0.7696
 9055SOL    HW138094   0.418   2.974   3.935  1.3525 -0.3278 -0.6692
 9055SOL    HW238095   0.468   3.126   3.966 -0.0589 -0.2106  1.1414
 9056SOL     OW38096   4.544   5.090   1.386 -0.6572 -0.7365 -0.4631
 9056SOL    HW138097   4.627   5.144   1.377 -0.3405 -1.2018 -0.3694
 9056SOL    HW238098   4.495   5.117   1.469 -0.4758 -0.6279 -0.3919
 9057SOL     OW38099   9.941   7.698   4.755  0.0344  0.6077 -0.1106
 9057SOL    HW138100   9.885   7.685   4.836 -1.2249 -0.4401 -1.1288
 9057SOL    HW238101  10.017   7.633   4.756 -1.3946 -1.1021 -0.9842
 9058SOL     OW38102   2.968   6.808   3.985  0.0013  0.1715  0.0382
 9058SOL    HW138103   2.997   6.789   3.891  0.5576  0.2034  0.2011
 9058SOL    HW238104   2.899   6.881   3.984  0.8367  0.9726 -0.2602
 9059SOL     OW38105   7.849   9.624   2.815 -0.0711 -0.2710  0.2393
 9059SOL    HW138106   7.827   9.577   2.901  0.0156  0.2256  0.5360
 9059SOL    HW238107   7.894   9.560   2.753  0.2255 -0.5355  0.7188
 9060SOL     OW38108   6.594   8.850   3.608 -0.6749  0.1056  0.1398
 9060SOL    HW138109   6.542   8.888   3.532  0.2407  0.8905 -0.1009
 9060SOL    HW238110   6.542   8.776   3.650 -0.5858 -1.3370 -2.1880
 9061SOL     OW38111   0.877   3.304   5.289 -0.3325  0.3384 -0.1661
 9061SOL    HW138112   0.888   3.329   5.385  0.6514 -0.9717  0.0766
 9061SOL    HW238113   0.802   3.357   5.249 -1.6880 -0.1252  1.6853
 9062SOL     OW38114   8.603   4.669   5.325  0.1275  0.7482 -0.4163
 9062SOL    HW138115   8.582   4.586   5.274  1.0746  0.4077 -0.2692
 9062SOL    HW238116   8.638   4.738   5.263 -0.9205  1.1389 -0.5818
 9063SOL     OW38117   2.171   5.651   1.587  0.8127 -0.3280 -0.3367
 9063SOL    HW138118   2.234   5.728   1.594 -0.3893  0.7825 -1.4541
 9063SOL    HW238119   2.120   5.658   1.501  0.1422 -1.9479 -0.0782
 9064SOL     OW38120   4.175   3.361   3.289 -0.1919  0.1887 -0.2199
 9064SOL    HW138121   4.225   3.276   3.308  0.4670  0.6721  0.2025
 9064SOL    HW238122   4.233   3.424   3.237 -0.1361  1.0024  0.8181
 9065SOL     OW38123   9.544   6.422   3.681  0.4036 -0.4137 -0.3566
 9065SOL    HW138124   9.553   6.522   3.682 -2.0665 -0.1781  0.4386
 9065SOL    HW238125   9.581   6.387   3.595  0.5815  1.2683 -0.9940
 9066SOL     OW38126   8.724   6.078   3.463  0.9477  0.4857  0.4389
 9066SOL    HW138127   8.701   6.154   3.523 -0.7698  2.1806 -2.2428
 9066SOL    HW238128   8.652   6.009   3.466  1.4529 -0.0191  1.2122
 9067SOL     OW38129   8.892   8.323   1.389  0.0531 -0.0296 -0.0568
 9067SOL    HW138130   8.817   8.303   1.452 -0.1782  1.1550  0.0564
 9067SOL    HW238131   8.950   8.393   1.429  0.8251 -0.4384 -0.4622
 9068SOL     OW38132   4.317   1.079   4.348  0.1534 -0.1429  0.1098
 9068SOL    HW138133   4.289   1.018   4.422 -1.6423  0.4275 -0.0883
 9068SOL    HW238134   4.253   1.155   4.340  2.9961  2.4828  1.1347
 9069SOL     OW38135   3.368   4.520   3.052 -0.2114 -0.5857  0.1612
 9069SOL    HW138136   3.312   4.594   3.089  1.3944  0.7120  0.0798
 9069SOL    HW238137   3.342   4.504   2.957 -0.8032 -0.3575  0.2803
 9070SOL     OW38138   8.434   9.657   5.309 -0.4731 -0.3779 -0.4257
 9070SOL    HW138139   8.466   9.739   5.357  0.8512 -0.8887 -0.3969
 9070SOL    HW238140   8.352   9.622   5.353 -0.8047  0.6946 -0.1783
 9071SOL     OW38141   7.525   0.919   3.566  0.1403  0.4049 -0.1097
 9071SOL    HW138142   7.531   0.956   3.473 -2.1188 -0.7879 -0.7678
 9071SOL    HW238143   7.554   0.989   3.632  2.5098  1.0039 -1.7358
 9072SOL     OW38144   9.867   7.804   3.340  0.3214 -0.1327 -0.1943
 9072SOL    HW138145   9.833   7.888   3.380  0.5813  0.6204 -1.5057
 9072SOL    HW238146   9.921   7.825   3.258 -0.9631 -1.6658 -1.4814
 9073SOL     OW38147   2.845   5.136   5.527 -0.5945  0.2515 -0.0124
 9073SOL    HW138148   2.898   5.105   5.606 -1.1224 -0.2339  0.1571
 9073SOL    HW238149   2.871   5.083   5.446 -1.7290 -0.8844  0.3473
 9074SOL     OW38150   1.338   3.449   3.233 -0.3753 -0.1910  0.5991
 9074SOL    HW138151   1.291   3.454   3.144  0.5633  0.4931  0.1279
 9074SOL    HW238152   1.425   3.401   3.221  0.7765  1.8310  0.6904
 9075SOL     OW38153   0.311   4.960   3.046  0.3333  0.0772  0.1097
 9075SOL    HW138154   0.256   5.043   3.042 -0.6930 -0.5264  1.3555
 9075SOL    HW238155   0.322   4.931   3.141  1.6822 -0.5555 -0.2247
 9076SOL     OW38156   3.545   3.412   5.527  0.4193 -0.4698 -0.6831
 9076SOL    HW138157   3.463   3.423   5.471  0.5526 -1.3456 -1.0653
 9076SOL    HW238158   3.610   3.354   5.479  1.8018  1.2568 -0.9311
 9077SOL     OW38159   6.683   1.233   2.585 -0.4698  0.0161  0.2827
 9077SOL    HW138160   6.639   1.255   2.672  0.7557 -1.1835  1.2396
 9077SOL    HW238161   6.623   1.175   2.531 -0.5107 -0.7613  1.1397
 9078SOL     OW38162   2.010   5.219   2.336 -0.2468  0.0140 -0.0387
 9078SOL    HW138163   2.006   5.133   2.284  0.0419 -0.0494  0.0442
 9078SOL    HW238164   2.058   5.204   2.422  0.5074  0.4290 -0.3722
 9079SOL     OW38165   8.049   8.936   2.031  0.1852 -0.0958  0.3817
 9079SOL    HW138166   8.078   8.973   1.942 -0.0542 -1.9609 -0.4839
 9079SOL    HW238167   7.949   8.933   2.034  0.1970 -0.2104  0.6599
 9080SOL     OW38168   2.216   1.221   4.849  0.6233  0.1763  0.7618
 9080SOL    HW138169   2.312   1.247   4.864  1.0148 -1.4827  1.2162
 9080SOL    HW238170   2.160   1.253   4.925  0.9551  0.4623  0.8857
 9081SOL     OW38171   1.170   5.312   3.192 -0.5330 -0.1364 -0.3686
 9081SOL    HW138172   1.146   5.353   3.104  0.1717  1.5827  0.2205
 9081SOL    HW238173   1.087   5.284   3.239 -1.1846  2.2596 -0.0183
 9082SOL     OW38174   4.574   9.506   5.582 -0.5055  0.2829 -0.1482
 9082SOL    HW138175   4.603   9.579   5.520  1.3225  2.5508  3.2515
 9082SOL    HW238176   4.509   9.542   5.648 -2.2801 -2.0517 -0.5633
 9083SOL     OW38177   8.476   7.232   0.898  0.1971 -0.6240  0.4697
 9083SOL    HW138178   8.573   7.212   0.882 -0.3924 -2.3310 -1.0005
 9083SOL    HW238179   8.430   7.248   0.811 -0.6668  1.1106  1.2249
 9084SOL     OW38180   9.821   7.687   3.968  0.2663 -0.0776 -0.1386
 9084SOL    HW138181   9.890   7.703   4.038  0.2768 -1.9572  0.2815
 9084SOL    HW238182   9.806   7.772   3.917 -0.1702  1.5036  2.5004
 9085SOL     OW38183   2.680   6.593   1.402  0.5227 -0.4043  0.1917
 9085SOL    HW138184   2.636   6.655   1.337  1.4651  0.3433  0.2507
 9085SOL    HW238185   2.695   6.504   1.359  2.1722  0.4285 -1.0084
 9086SOL     OW38186   3.993   4.238   2.784  0.1026 -0.0733  0.2512
 9086SOL    HW138187   4.008   4.288   2.699 -1.2132  0.3374  0.2506
 9086SOL    HW238188   4.004   4.301   2.861  3.8493 -0.9810  0.5726
 9087SOL     OW38189   3.304   0.541   5.422 -0.2314  0.7607 -0.3193
 9087SOL    HW138190   3.326   0.516   5.517 -1.3618  1.7486  0.2130
 9087SOL    HW238191   3.307   0.459   5.365 -1.4528 -0.2061  0.9515
 9088SOL     OW38192   1.876   2.847   4.681  0.0769 -0.1018 -0.1859
 9088SOL    HW138193   1.781   2.852   4.711  0.0636  1.2530 -0.3942
 9088SOL    HW238194   1.936   2.871   4.757  0.1752  0.5573 -0.4670
 9089SOL     OW38195   3.639   0.224   1.102 -0.1725  0.4142  0.1231
 9089SOL    HW138196   3.690   0.138   1.103 -2.1511 -0.8069  2.0302
 9089SOL    HW238197   3.647   0.268   1.191 -1.7181  0.6181  0.1714
 9090SOL     OW38198   5.608   3.165   0.496 -0.4491 -0.1572 -0.7671
 9090SOL    HW138199   5.556   3.138   0.416 -0.3297  1.1050 -1.2750
 9090SOL    HW238200   5.577   3.253   0.529  0.5664  0.0663 -0.3704
 9091SOL     OW38201   8.705   2.205   3.114  0.0522  0.3097 -0.3493
 9091SOL    HW138202   8.626   2.244   3.066 -1.6855 -1.9259  0.6022
 9091SOL    HW238203   8.734   2.121   3.067 -0.3740 -0.7848  1.3034
 9092SOL     OW38204   8.650   3.707   4.696 -0.0172  0.0803  0.4379
 9092SOL    HW138205   8.686   3.663   4.778  3.1660  0.5103 -0.6604
 9092SOL    HW238206   8.670   3.805   4.698 -1.3942  0.3842 -0.0843
 9093SOL     OW38207   2.601   5.997   4.736  0.4203 -0.0604  0.1025
 9093SOL    HW138208   2.628   5.911   4.692  2.4290 -0.0715  1.2767
 9093SOL    HW238209   2.520   5.982   4.793 -1.8986 -0.1638 -3.1011
 9094SOL     OW38210   1.504   0.910   4.796 -0.9214  0.4535  0.6255
 9094SOL    HW138211   1.514   0.915   4.697  0.5523 -0.9086  0.6815
 9094SOL    HW238212   1.557   0.985   4.838 -1.4396  0.9521  0.4005
 9095SOL     OW38213   4.049   6.319   2.329  0.4763 -0.2118  0.1147
 9095SOL    HW138214   4.097   6.313   2.242 -1.0884  3.3162 -1.0672
 9095SOL    HW238215   4.047   6.413   2.360 -2.8060 -0.7500  1.7517
 9096SOL     OW38216   9.263   7.350   4.763 -0.4628  0.3497  0.5652
 9096SOL    HW138217   9.295   7.442   4.782  1.5499 -0.3135  0.5063
 9096SOL    HW238218   9.269   7.295   4.847  0.1023 -0.2113  0.1633
 9097SOL     OW38219   3.866   0.499   0.495 -0.1090 -0.3437  0.1497
 9097SOL    HW138220   3.879   0.404   0.524 -1.0199 -0.6840 -0.5000
 9097SOL    HW238221   3.844   0.556   0.574 -2.6172 -1.2608  0.1690
 9098SOL     OW38222   5.433   0.851   2.646  0.9245 -0.0266 -0.0513
 9098SOL    HW138223   5.427   0.951   2.639 -1.2054 -0.2305 -1.7420
 9098SOL    HW238224   5.431   0.824   2.742  0.7480  1.5218  0.4037
 9099SOL     OW38225   8.814   3.256   2.226 -0.2856 -0.3275  0.1441
 9099SOL    HW138226   8.848   3.344   2.259  1.5135 -1.3733  1.1754
 9099SOL    HW238227   8.741   3.225   2.287 -0.1547 -0.0673  0.4386
 9100SOL     OW38228   4.297   3.492   3.074 -0.0506  0.4799 -0.1370
 9100SOL    HW138229   4.306   3.472   2.976 -0.7579  0.0886 -0.1303
 9100SOL    HW238230   4.236   3.570   3.087 -1.6293 -0.7474  0.0650
 9101SOL     OW38231   3.614   3.354   4.432 -0.0475 -0.3816  0.1707
 9101SOL    HW138232   3.628   3.453   4.424  2.0420 -0.8749 -3.3233
 9101SOL    HW238233   3.702   3.309   4.447 -0.5971 -1.9132 -1.0341
 9102SOL     OW38234   8.805   6.927   1.342 -0.9064  0.1075  0.0038
 9102SOL    HW138235   8.883   6.948   1.401 -1.4332  0.2671  0.6611
 9102SOL    HW238236   8.733   6.884   1.397 -0.7571 -1.2592 -0.8640
 9103SOL     OW38237   1.610   8.166   5.226  0.1801  0.0433  0.2439
 9103SOL    HW138238   1.546   8.090   5.241  0.3648 -0.1631 -0.0122
 9103SOL    HW238239   1.577   8.247   5.276  1.0320 -0.7522  2.1485
 9104SOL     OW38240   6.067   0.176   4.576  0.1533 -0.2196 -0.3791
 9104SOL    HW138241   5.971   0.148   4.571  0.0746 -0.1331  0.6318
 9104SOL    HW238242   6.091   0.225   4.492 -1.0460  0.9129 -0.0725
 9105SOL     OW38243   1.869   6.482   3.198 -0.0152 -0.0943  0.1406
 9105SOL    HW138244   1.796   6.452   3.260 -0.1438 -1.4158 -0.6362
 9105SOL    HW238245   1.879   6.416   3.124 -0.3183  1.8221 -1.6412
 9106SOL     OW38246   8.584   0.717   3.530 -0.2925  0.0502 -0.5713
 9106SOL    HW138247   8.660   0.762   3.484  1.0355 -0.9188  0.6556
 9106SOL    HW238248   8.541   0.781   3.593  1.3710 -0.2730  0.9060
 9107SOL     OW38249   7.440   8.328   2.483  0.0653  0.3239  0.4134
 9107SOL    HW138250   7.440   8.398   2.555  2.4893  0.8012  0.0165
 9107SOL    HW238251   7.426   8.372   2.395  2.3195  0.4774  0.0837
 9108SOL     OW38252   4.093   7.844   3.230  0.1753 -0.5526 -0.3712
 9108SOL    HW138253   4.095   7.844   3.330  0.5920  0.4572 -0.3757
 9108SOL    HW238254   4.032   7.771   3.198  3.0999 -3.5381  0.5511
 9109SOL     OW38255   1.383   0.618   2.896  0.0422  0.6866  0.5053
 9109SOL    HW138256   1.289   0.624   2.931 -0.3242 -0.7289 -0.1988
 9109SOL    HW238257   1.441   0.575   2.964 -0.2532 -0.2545  0.1759
 9110SOL     OW38258   4.798   8.924   5.301 -0.0151  0.4609  0.1108
 9110SOL    HW138259   4.745   8.841   5.322  0.4582  0.1357  0.0354
 9110SOL    HW238260   4.831   8.965   5.385 -0.6889  0.8693  0.1829
 9111SOL     OW38261   2.890   0.556   0.925 -0.3028 -0.2265 -0.0993
 9111SOL    HW138262   2.990   0.556   0.922 -0.3125  0.9068 -0.3732
 9111SOL    HW238263   2.857   0.648   0.946 -1.3052 -0.4955 -0.4774
 9112SOL     OW38264   2.673   4.703   5.241 -0.2929  0.3558 -0.1569
 9112SOL    HW138265   2.698   4.708   5.145 -0.1383 -1.4151 -0.2265
 9112SOL    HW238266   2.604   4.632   5.254 -0.8630  1.0935  0.9319
 9113SOL     OW38267   6.257   0.849   3.515  0.1114 -0.1083 -0.3890
 9113SOL    HW138268   6.345   0.893   3.533  0.8225 -1.6374  0.0250
 9113SOL    HW238269   6.184   0.916   3.519  1.2495  1.1606 -0.5899
 9114SOL     OW38270   9.779   7.006   3.710  0.2041  0.1927 -0.2986
 9114SOL    HW138271   9.711   6.939   3.682 -0.2246 -0.2090  1.6694
 9114SOL    HW238272   9.864   6.959   3.735  0.0661  0.4226  0.6055
 9115SOL     OW38273   3.778   1.666   1.037  0.7475  0.4250  0.4745
 9115SOL    HW138274   3.740   1.627   0.953  0.2044 -0.7215  1.2308
 9115SOL    HW238275   3.716   1.735   1.072  0.4892  0.2057  0.4549
 9116SOL     OW38276   7.236   8.860   1.820  0.0731  0.0911  0.1568
 9116SOL    HW138277   7.209   8.775   1.866 -1.1120 -0.3585 -1.3305
 9116SOL    HW238278   7.180   8.935   1.854 -0.1270 -0.0590  0.1595
 9117SOL     OW38279   2.309   5.508   3.685  0.3043  0.6114 -0.0332
 9117SOL    HW138280   2.396   5.515   3.637  0.4759  1.4453  0.3798
 9117SOL    HW238281   2.289   5.596   3.729 -0.9204  0.5335 -0.4356
 9118SOL     OW38282   8.040   0.688   2.145 -0.0500 -0.0194  0.1951
 9118SOL    HW138283   8.111   0.741   2.098  1.3757 -1.6063  0.5058
 9118SOL    HW238284   7.989   0.634   2.079 -2.5120  2.8360 -0.3138
 9119SOL     OW38285   0.200   6.066   4.306  0.5539 -0.0202 -0.1103
 9119SOL    HW138286   0.199   6.050   4.405 -1.4306  1.4251  0.1345
 9119SOL    HW238287   0.249   6.151   4.286  2.0394 -0.9484 -0.5018
 9120SOL     OW38288   8.006   5.489   2.850  0.0066  0.4510 -0.5372
 9120SOL    HW138289   8.045   5.444   2.769 -0.7938  2.5144 -2.1140
 9120SOL    HW238290   7.928   5.545   2.822 -0.9226  0.3716  1.8491
 9121SOL     OW38291   8.339   5.466   5.510 -0.9019  0.6684  0.0928
 9121SOL    HW138292   8.299   5.385   5.467 -2.9447  1.6911  0.0149
 9121SOL    HW238293   8.321   5.547   5.454  1.0687  1.1985  0.1934
 9122SOL     OW38294   9.101   3.964   5.073  0.0681  0.3375 -0.5424
 9122SOL    HW138295   9.171   3.926   5.133  0.6825 -0.3131 -1.6640
 9122SOL    HW238296   9.028   3.896   5.061  1.6940 -0.9702 -3.4342
 9123SOL     OW38297   2.108   3.582   2.349  0.0075  0.2921 -0.2072
 9123SOL    HW138298   2.176   3.534   2.294 -0.5912 -0.6883 -0.1094
 9123SOL    HW238299   2.016   3.562   2.315 -0.4696 -1.5096  2.0155
 9124SOL     OW38300   4.308   2.520   1.783 -0.8360 -0.1622 -0.4030
 9124SOL    HW138301   4.234   2.538   1.718 -1.3485 -0.4394  0.0974
 9124SOL    HW238302   4.392   2.564   1.752 -1.0103 -0.5319 -1.4014
 9125SOL     OW38303   3.211   1.910   3.890  0.3377 -0.2794 -0.4175
 9125SOL    HW138304   3.306   1.935   3.907  0.0070  0.9755 -0.3503
 9125SOL    HW238305   3.175   1.861   3.969  0.4757  0.5954  0.1919
 9126SOL     OW38306   3.457   9.437   2.266  0.8077  0.6878 -0.2440
 9126SOL    HW138307   3.445   9.367   2.195  0.8229  0.3553  0.0779
 9126SOL    HW238308   3.550   9.432   2.303  1.1213  1.5277 -0.9018
 9127SOL     OW38309   4.635   9.632   1.379 -0.1785 -0.3407  0.5545
 9127SOL    HW138310   4.543   9.647   1.342 -0.1996  0.7348  1.0211
 9127SOL    HW238311   4.660   9.536   1.367 -1.1127 -0.5113 -0.1411
 9128SOL     OW38312   3.533   4.208   4.131  0.5321  0.4152  0.3278
 9128SOL    HW138313   3.613   4.198   4.073  0.2138  1.1294 -0.2401
 9128SOL    HW238314   3.558   4.257   4.214  0.3935  1.8527 -0.4705
 9129SOL     OW38315   0.949   6.624   5.270  0.5089  0.0632  0.3305
 9129SOL    HW138316   0.943   6.665   5.360 -1.3094  2.4745 -0.8371
 9129SOL    HW238317   0.981   6.692   5.204  0.9759 -1.4157 -1.0081
 9130SOL     OW38318   0.233   1.291   1.886 -0.1384  0.4516  0.8339
 9130SOL    HW138319   0.146   1.257   1.922 -0.3505 -2.3559 -2.1347
 9130SOL    HW238320   0.216   1.373   1.831 -1.1979 -1.0786 -1.1706
 9131SOL     OW38321   8.284   0.685   3.475  0.1136 -0.1216 -0.2242
 9131SOL    HW138322   8.265   0.712   3.569 -0.4540 -1.2656  0.0060
 9131SOL    HW238323   8.367   0.729   3.443  1.2905 -1.0989  1.4229
 9132SOL     OW38324   7.854   9.696   4.908 -0.4095 -0.2699 -0.3537
 9132SOL    HW138325   7.892   9.699   4.816 -1.0094 -2.3644 -0.6898
 9132SOL    HW238326   7.768   9.645   4.907  0.2606 -1.5008  1.5824
 9133SOL     OW38327   1.218   7.934   3.520  0.0301  0.0219 -0.0774
 9133SOL    HW138328   1.289   7.870   3.491  0.0468 -0.2522  0.5536
 9133SOL    HW238329   1.132   7.885   3.533  0.1297  0.0662  0.7461
 9134SOL     OW38330   1.709   7.602   3.524  0.1564  0.3162  0.1458
 9134SOL    HW138331   1.684   7.612   3.621  0.2497 -1.4656  0.3694
 9134SOL    HW238332   1.805   7.626   3.512  0.6793 -1.3831  0.8553
 9135SOL     OW38333   1.706   6.221   5.341  0.4104 -0.5763 -0.1062
 9135SOL    HW138334   1.672   6.300   5.393 -0.1336 -0.8817 -0.0008
 9135SOL    HW238335   1.695   6.238   5.243  0.6057 -0.3799 -0.0954
 9136SOL     OW38336   3.168   0.924   4.780  0.0439 -0.2290  0.0608
 9136SOL    HW138337   3.263   0.897   4.764  0.1139 -0.2879  0.5499
 9136SOL    HW238338   3.145   0.907   4.876 -0.8201 -1.3203 -0.3230
 9137SOL     OW38339   0.479   3.221   5.274 -0.0177 -0.4959  0.3833
 9137SOL    HW138340   0.405   3.189   5.215  0.2210  1.6674 -1.1192
 9137SOL    HW238341   0.442   3.247   5.363 -0.8591 -0.6539  0.0816
 9138SOL     OW38342   2.678   5.381   1.745 -0.0238  0.4022  0.4462
 9138SOL    HW138343   2.624   5.316   1.692 -0.0653  0.3205  0.5890
 9138SOL    HW238344   2.685   5.467   1.695 -0.5043  0.4982  0.5438
 9139SOL     OW38345   1.462   8.390   1.321  0.3302  0.2704  0.5118
 9139SOL    HW138346   1.480   8.487   1.302  0.2193  0.2002  0.0213
 9139SOL    HW238347   1.363   8.375   1.319  0.3767  0.0162 -0.1041
 9140SOL     OW38348   9.968   1.545   5.015 -0.5893 -0.0735  0.0196
 9140SOL    HW138349   9.969   1.479   5.090 -0.4919 -0.5408 -0.3858
 9140SOL    HW238350   9.936   1.500   4.932 -0.9605  0.5105 -0.1544
 9141SOL     OW38351   3.614   5.881   1.408  0.1702 -0.0745 -0.1249
 9141SOL    HW138352   3.574   5.790   1.396  1.9592 -0.6825 -1.8274
 9141SOL    HW238353   3.671   5.882   1.491  0.1671 -0.5273 -0.1152
 9142SOL     OW38354   8.759   5.129   1.675 -0.5134 -0.0289 -0.3240
 9142SOL    HW138355   8.691   5.075   1.626 -0.6706 -1.0249  0.9853
 9142SOL    HW238356   8.779   5.087   1.763  0.6764  1.0841 -0.0379
 9143SOL     OW38357   9.243   3.039   0.391 -0.0118  0.5830 -0.5222
 9143SOL    HW138358   9.151   3.060   0.422  0.0858 -0.3195  0.3734
 9143SOL    HW238359   9.244   2.951   0.344  0.4790  0.3587 -0.1031
 9144SOL     OW38360   7.260   9.925   5.029 -0.3993 -0.4610 -0.9621
 9144SOL    HW138361   7.231   9.844   5.081  0.7404 -1.4768 -1.9123
 9144SOL    HW238362   7.359   9.927   5.023 -0.2056  2.6147  1.6040
 9145SOL     OW38363   8.346   2.990   0.944 -0.3349  0.2956  0.1497
 9145SOL    HW138364   8.386   3.011   1.033  1.1494  1.1380 -0.6867
 9145SOL    HW238365   8.247   3.007   0.947 -0.4771 -0.7020  1.9223
 9146SOL     OW38366   9.614   5.021   0.113 -0.0841  1.2253 -0.4776
 9146SOL    HW138367   9.631   5.065   0.025 -0.3427  0.7074 -0.7907
 9146SOL    HW238368   9.692   5.036   0.174  1.0524 -0.2703 -1.5472
 9147SOL     OW38369   5.708   0.929   3.195 -0.5982  0.5507 -0.7340
 9147SOL    HW138370   5.793   0.965   3.233 -0.6131  1.2746 -1.3703
 9147SOL    HW238371   5.664   0.869   3.262  0.4859  0.0560 -0.4620
 9148SOL     OW38372   2.736   2.680   1.335 -0.6179 -0.5390  0.4996
 9148SOL    HW138373   2.710   2.599   1.386  0.9373 -1.2637  0.1716
 9148SOL    HW238374   2.817   2.722   1.377  0.4941 -0.9720 -1.1361
 9149SOL     OW38375   2.218   2.151   2.423 -0.4478  0.3715 -0.1965
 9149SOL    HW138376   2.256   2.202   2.500  0.4890 -0.1493 -0.3055
 9149SOL    HW238377   2.209   2.211   2.344  3.2607 -0.2525 -1.1703
 9150SOL     OW38378   9.936   7.018   4.363 -0.6231 -0.0316 -0.2107
 9150SOL    HW138379   9.931   7.010   4.462 -2.0002  0.6178 -0.2187
 9150SOL    HW238380   9.978   7.105   4.338 -0.0113 -0.3217 -0.1992
 9151SOL     OW38381   8.859   3.982   0.455  0.1997 -0.4510 -0.3900
 9151SOL    HW138382   8.860   3.950   0.550  0.2771  1.3584  0.2282
 9151SOL    HW238383   8.829   3.908   0.396 -0.6085 -1.3654  1.1353
 9152SOL     OW38384   9.727   6.113   0.175 -0.1152 -0.3374 -0.1489
 9152SOL    HW138385   9.823   6.139   0.178 -0.1213 -0.3862  0.5640
 9152SOL    HW238386   9.677   6.177   0.116  0.1612  0.3255  0.3197
 9153SOL     OW38387   8.713   3.713   5.254 -0.5163  0.8901  0.4736
 9153SOL    HW138388   8.722   3.640   5.321 -1.3921  0.3103 -0.0338
 9153SOL    HW238389   8.803   3.753   5.236  0.1104 -0.6484  0.1099
 9154SOL     OW38390   1.124   0.893   4.570 -0.2058 -0.7181  0.2752
 9154SOL    HW138391   1.033   0.935   4.575  0.9519  2.0246 -0.3597
 9154SOL    HW238392   1.123   0.805   4.617 -2.8826 -0.1824  1.3226
 9155SOL     OW38393   9.996   2.164   2.043  0.1696 -0.1986 -0.1822
 9155SOL    HW138394  10.047   2.248   2.061 -1.8490  1.4307 -1.7522
 9155SOL    HW238395  10.013   2.134   1.949  0.4822 -1.2639  0.2073
 9156SOL     OW38396   0.547   3.638   1.243 -0.2948 -0.1069 -0.1731
 9156SOL    HW138397   0.530   3.549   1.287 -1.3511  0.5142  0.7168
 9156SOL    HW238398   0.541   3.628   1.144 -1.1589 -0.8826 -0.0511
 9157SOL     OW38399   0.130   3.603   4.447 -0.0372 -0.1028 -0.2831
 9157SOL    HW138400   0.145   3.599   4.348  1.4838 -1.3019 -0.0174
 9157SOL    HW238401   0.205   3.652   4.491 -0.9915  0.9329  0.2438
 9158SOL     OW38402   2.886   3.366   5.549  0.5807  0.3589 -0.1008
 9158SOL    HW138403   2.809   3.430   5.556 -0.5468 -1.0369  0.2816
 9158SOL    HW238404   2.890   3.328   5.457 -0.1861 -0.7925  0.3282
 9159SOL     OW38405   3.904   0.263   0.759 -0.1373 -0.0502  0.4686
 9159SOL    HW138406   3.880   0.173   0.798 -1.3897  0.5765  1.1954
 9159SOL    HW238407   3.875   0.335   0.823  0.4232  0.8870 -0.3302
 9160SOL     OW38408   0.869   6.100   5.501  0.1322  0.2294 -0.2295
 9160SOL    HW138409   0.846   6.100   5.404 -0.0773  2.3543 -0.2181
 9160SOL    HW238410   0.935   6.028   5.520  1.8820  1.2013 -2.3883
 9161SOL     OW38411   9.580   0.728   2.928  0.7504  0.3825  0.2741
 9161SOL    HW138412   9.676   0.742   2.904  0.0083  2.7174 -1.5492
 9161SOL    HW238413   9.528   0.703   2.845 -0.1403 -1.4970  1.3497
 9162SOL     OW38414   7.063   8.291   1.626  0.2827 -0.5551 -0.2885
 9162SOL    HW138415   7.000   8.326   1.696  0.7286 -0.3325  0.0058
 9162SOL    HW238416   7.145   8.348   1.625  0.6309 -1.0665 -0.4235
 9163SOL     OW38417   8.839   9.264   4.733  0.7587 -0.8165 -0.4643
 9163SOL    HW138418   8.881   9.346   4.693  2.3250 -0.6868  1.3703
 9163SOL    HW238419   8.897   9.185   4.716  1.8191 -0.6395  2.0698
 9164SOL     OW38420   2.620   4.264   3.115  0.1557 -0.0493  0.1907
 9164SOL    HW138421   2.633   4.224   3.024  0.1782  0.5733 -0.0899
 9164SOL    HW238422   2.709   4.289   3.154  0.1504 -0.3755  0.4098
 9165SOL     OW38423   4.137   7.819   3.492 -0.0495 -0.0401  0.1448
 9165SOL    HW138424   4.147   7.720   3.478 -1.8761 -0.0455 -1.2322
 9165SOL    HW238425   4.088   7.835   3.578 -0.1127 -0.3376  0.1658
 9166SOL     OW38426   4.677   9.756   1.612 -0.2914  0.2454 -0.2798
 9166SOL    HW138427   4.582   9.779   1.632  0.0514  0.8977  0.5813
 9166SOL    HW238428   4.682   9.719   1.519 -1.6326 -1.3451  0.2494
 9167SOL     OW38429   3.266   5.037   0.139  0.2451 -0.7724  0.1420
 9167SOL    HW138430   3.297   5.075   0.226  0.8940 -0.5587 -0.1769
 9167SOL    HW238431   3.323   4.957   0.116  0.3615 -0.5605 -0.3018
 9168SOL     OW38432   8.280   2.622   2.428  0.0024 -0.5317  0.0482
 9168SOL    HW138433   8.305   2.526   2.436  1.9808 -0.2136 -1.9321
 9168SOL    HW238434   8.239   2.639   2.338 -0.8128  0.3849  0.5779
 9169SOL     OW38435   2.398   9.191   4.928 -0.2306 -0.2001  0.0854
 9169SOL    HW138436   2.323   9.125   4.925 -0.4965  0.1512 -1.4944
 9169SOL    HW238437   2.364   9.281   4.899  0.4770  0.2881  0.7427
 9170SOL     OW38438   7.443   7.917   3.016 -0.3795  0.4885  0.2802
 9170SOL    HW138439   7.468   7.899   2.921  0.5350  1.7777  0.2617
 9170SOL    HW238440   7.500   7.991   3.052 -0.3657 -0.3246  1.9913
 9171SOL     OW38441   1.806   0.895   0.881 -0.3168  0.4411  0.5331
 9171SOL    HW138442   1.904   0.909   0.895 -0.4161  1.1923  0.4538
 9171SOL    HW238443   1.775   0.947   0.802 -0.5423 -0.7576 -0.1816
 9172SOL     OW38444   4.077   0.918   3.022 -0.0950 -0.0450 -0.0331
 9172SOL    HW138445   3.993   0.885   2.978  0.7001 -4.3241  1.4704
 9172SOL    HW238446   4.053   0.966   3.107 -1.0882 -0.6823  0.0611
 9173SOL     OW38447   9.199   5.000   5.344  0.0538  0.1677  0.0165
 9173SOL    HW138448   9.193   5.075   5.410 -1.0028 -0.1900  0.3321
 9173SOL    HW238449   9.185   4.913   5.392 -0.6298 -0.1003 -0.6706
 9174SOL     OW38450   7.450   6.859   2.487 -0.0919  0.3238 -0.1567
 9174SOL    HW138451   7.353   6.882   2.479 -0.1055  0.2052 -0.3422
 9174SOL    HW238452   7.502   6.915   2.422 -0.0719  0.1655 -0.2781
 9175SOL     OW38453   0.224   1.308   2.567 -0.0406 -0.0839  0.3028
 9175SOL    HW138454   0.303   1.247   2.570 -0.3086 -0.4513 -0.0311
 9175SOL    HW238455   0.244   1.385   2.506  0.0265 -0.2196  0.1527
 9176SOL     OW38456   9.782   8.625   2.095 -0.7387  0.4533 -0.3424
 9176SOL    HW138457   9.844   8.600   2.021  0.7847  1.4243  0.5791
 9176SOL    HW238458   9.696   8.575   2.085 -0.2092 -0.1008 -2.2372
 9177SOL     OW38459   3.571   2.923   2.007 -0.0881  0.1093  0.4097
 9177SOL    HW138460   3.660   2.928   1.962 -0.7115  1.9114 -0.6866
 9177SOL    HW238461   3.569   2.844   2.068  2.4465  0.3608  0.8719
 9178SOL     OW38462   9.553   5.807   5.270 -0.5873 -0.1748 -0.0587
 9178SOL    HW138463   9.466   5.832   5.228  0.3102  2.7705 -0.3580
 9178SOL    HW238464   9.547   5.814   5.369 -0.7954 -0.2830 -0.0652
 9179SOL     OW38465   0.451   3.238   2.773 -0.3298 -0.0047 -0.1718
 9179SOL    HW138466   0.516   3.210   2.844 -0.8297 -0.2986  0.1709
 9179SOL    HW238467   0.367   3.272   2.816 -0.4328  0.3053 -0.6132
 9180SOL     OW38468   4.855   3.222   1.223  0.0215  0.1719 -0.1592
 9180SOL    HW138469   4.903   3.151   1.172  1.0868  0.0447  1.0088
 9180SOL    HW238470   4.814   3.183   1.305  2.0412  1.1832  1.3825
 9181SOL     OW38471   8.679   2.751   4.459  0.4180  0.3616  0.4908
 9181SOL    HW138472   8.607   2.791   4.402  0.6987 -0.5818 -0.5648
 9181SOL    HW238473   8.760   2.810   4.458  0.3583  0.4418  0.0330
 9182SOL     OW38474   9.077   2.837   0.148  0.2241 -0.2080  0.1827
 9182SOL    HW138475   9.008   2.796   0.208  1.3594 -1.8050  0.4324
 9182SOL    HW238476   9.110   2.769   0.082 -1.0748  1.5647 -2.3516
 9183SOL     OW38477   7.156   9.948   3.454 -0.2227 -0.1788  0.4945
 9183SOL    HW138478   7.160  10.027   3.393 -0.5337 -0.0026  0.7033
 9183SOL    HW238479   7.200   9.870   3.410  3.6979  1.1270  1.8450
 9184SOL     OW38480   9.000   8.902   0.622 -0.1433  0.0062 -0.2118
 9184SOL    HW138481   8.914   8.939   0.658  0.2242  0.0353  0.6617
 9184SOL    HW238482   8.982   8.849   0.539 -0.8929  0.7263 -0.5130
 9185SOL     OW38483   3.342   3.445   5.347  0.0311  0.0745 -0.2841
 9185SOL    HW138484   3.392   3.504   5.284 -1.5178  0.9413 -0.6991
 9185SOL    HW238485   3.364   3.349   5.327 -1.2275  0.2868 -2.7890
 9186SOL     OW38486   2.762   6.005   2.848  0.1064 -0.0809  0.6660
 9186SOL    HW138487   2.809   6.038   2.766  2.4434 -1.6659  1.3260
 9186SOL    HW238488   2.807   6.043   2.929  0.4824 -1.8966  1.3217
 9187SOL     OW38489   9.667   0.618   0.235  0.0718  0.3862 -0.1867
 9187SOL    HW138490   9.633   0.691   0.175 -0.3161  0.0047 -0.4333
 9187SOL    HW238491   9.655   0.645   0.331  0.2404  0.7868 -0.2764
 9188SOL     OW38492   2.893   3.172   2.943  0.1393 -0.1544 -0.0921
 9188SOL    HW138493   2.845   3.255   2.972  0.4362  0.3812 -1.1074
 9188SOL    HW238494   2.882   3.101   3.012 -0.6959  0.5119  0.4649
 9189SOL     OW38495   1.607   1.141   0.794 -0.4035 -0.2430 -0.2766
 9189SOL    HW138496   1.633   1.186   0.880 -0.3902 -1.3297  0.2950
 9189SOL    HW238497   1.689   1.124   0.740 -0.0783 -2.1168  0.7655
 9190SOL     OW38498   3.230   2.803   4.015 -0.9122  0.6006 -0.0149
 9190SOL    HW138499   3.295   2.879   4.016 -0.0574 -0.1340  1.0190
 9190SOL    HW238500   3.188   2.795   4.105 -1.1584 -0.0228 -0.1845
 9191SOL     OW38501   3.280   5.856   1.983  0.0960  0.1688 -0.2281
 9191SOL    HW138502   3.360   5.805   1.951  1.8771  1.9062  1.3228
 9191SOL    HW238503   3.243   5.811   2.065 -0.2533 -0.3704 -0.6743
 9192SOL     OW38504   6.104   8.828   4.480  0.4465 -0.0574 -0.6096
 9192SOL    HW138505   6.020   8.882   4.489  0.6697  0.5174 -1.9126
 9192SOL    HW238506   6.175   8.869   4.537  0.2302  0.2479 -0.5551
 9193SOL     OW38507   7.576   0.838   2.777  0.2056 -0.3461 -0.1293
 9193SOL    HW138508   7.673   0.856   2.787  0.2244 -0.6394  0.2241
 9193SOL    HW238509   7.554   0.822   2.681  0.3068  0.8719 -0.3653
 9194SOL     OW38510   4.543   3.698   0.881 -0.1822  0.0276 -0.2034
 9194SOL    HW138511   4.546   3.602   0.909  0.7377 -0.4544 -1.8840
 9194SOL    HW238512   4.506   3.753   0.956 -0.1217 -1.5424  1.0154
 9195SOL     OW38513   7.906   1.572   3.791 -0.1017 -0.4067  0.0938
 9195SOL    HW138514   7.966   1.592   3.714  1.5029 -0.3549  1.3279
 9195SOL    HW238515   7.900   1.652   3.851 -1.6558 -0.3096 -0.1692
 9196SOL     OW38516   0.932   2.523   3.694 -0.2232 -0.3368  0.3674
 9196SOL    HW138517   0.906   2.594   3.628 -0.2563  0.3269  1.0883
 9196SOL    HW238518   0.854   2.462   3.710  0.0569 -1.0428 -0.8804
 9197SOL     OW38519   7.060   8.908   3.127  0.1185  0.1618 -0.1767
 9197SOL    HW138520   6.976   8.956   3.103  2.0345  2.5518 -2.3626
 9197SOL    HW238521   7.057   8.815   3.090 -0.6181  0.9840 -2.2772
 9198SOL     OW38522   3.683   2.877   2.614  0.6201 -0.2288 -0.6388
 9198SOL    HW138523   3.620   2.942   2.573  1.3471  1.1913  0.4234
 9198SOL    HW238524   3.671   2.787   2.572 -1.2374  0.3002 -1.2882
 9199SOL     OW38525   9.924   6.765   3.149  0.4167  0.2441 -0.1920
 9199SOL    HW138526   9.873   6.753   3.065  0.1580  2.6172 -0.4094
 9199SOL    HW238527  10.013   6.720   3.141  0.1089 -0.1502 -1.4598
 9200SOL     OW38528   2.153   4.720   1.218 -0.7028 -0.4418  0.0009
 9200SOL    HW138529   2.197   4.807   1.241  0.6004 -1.6633  2.2761
 9200SOL    HW238530   2.216   4.663   1.166 -1.7643  0.1415 -2.0208
 9201SOL     OW38531   3.187   4.735   2.910  0.1392 -0.1199 -0.3224
 9201SOL    HW138532   3.221   4.730   3.004 -1.5865 -2.1824  0.2364
 9201SOL    HW238533   3.155   4.827   2.890  1.1134  0.4912  0.8822
 9202SOL     OW38534   8.307   9.807   1.551  0.7755  0.4203  0.1371
 9202SOL    HW138535   8.333   9.860   1.632  1.6378 -2.0249  1.4883
 9202SOL    HW238536   8.389   9.779   1.502  0.2589  1.6543 -1.4520
 9203SOL     OW38537   0.231   0.949   4.398 -0.2450 -0.2033  0.0767
 9203SOL    HW138538   0.207   0.857   4.368  0.7495 -0.7225  0.8444
 9203SOL    HW238539   0.261   1.004   4.319 -0.0087 -0.8013 -0.2488
 9204SOL     OW38540   3.694   1.537   0.832  0.0117 -0.1526  0.1079
 9204SOL    HW138541   3.626   1.573   0.768 -0.1994  0.2717  0.5729
 9204SOL    HW238542   3.691   1.437   0.831  1.0401 -0.1913 -1.6696
 9205SOL     OW38543   3.036   5.025   1.524  0.1784  0.0598  0.3013
 9205SOL    HW138544   3.028   5.051   1.621  0.0820  0.2194  0.2503
 9205SOL    HW238545   3.036   4.926   1.516 -0.6877  0.0509  0.3901
 9206SOL     OW38546   7.464   0.356   1.123  0.2922  0.0066  0.0603
 9206SOL    HW138547   7.523   0.415   1.068  3.1841 -2.2485  0.5610
 9206SOL    HW238548   7.420   0.289   1.064  2.4714 -1.6647  0.2600
 9207SOL     OW38549   0.884   3.055   0.477  0.3114 -0.3208  0.3070
 9207SOL    HW138550   0.880   2.963   0.438  1.3381 -0.6418  0.9475
 9207SOL    HW238551   0.870   3.050   0.576  2.5703 -0.0367  0.6663
 9208SOL     OW38552   0.505   1.985   3.894  0.4998 -0.1048 -0.4811
 9208SOL    HW138553   0.489   1.938   3.981  1.5118  3.1101  1.5234
 9208SOL    HW238554   0.432   2.051   3.877  0.8909  0.0711 -1.5274
 9209SOL     OW38555   3.289   4.211   0.559 -0.5124  0.3735  0.1782
 9209SOL    HW138556   3.287   4.205   0.659  0.7922 -0.1773  0.1881
 9209SOL    HW238557   3.365   4.156   0.525 -0.7732  0.8070 -1.1017
 9210SOL     OW38558   3.622   9.402   3.388 -0.3161  0.2062  0.4230
 9210SOL    HW138559   3.562   9.429   3.464 -1.6819  2.1881 -1.2838
 9210SOL    HW238560   3.680   9.479   3.363 -1.2453  0.2033 -1.7888
 9211SOL     OW38561   2.238   0.153   0.304  0.4727 -0.0696 -0.3811
 9211SOL    HW138562   2.297   0.194   0.374 -0.1770  0.1379  0.0517
 9211SOL    HW238563   2.286   0.150   0.217  0.0683  2.8963 -0.7485
 9212SOL     OW38564   0.998   4.992   0.143 -0.2781  0.0690  0.2927
 9212SOL    HW138565   0.958   4.973   0.053 -1.9985 -0.0097  1.0543
 9212SOL    HW238566   1.002   5.091   0.157  1.0383  0.1083 -0.3220
 9213SOL     OW38567   2.136   5.724   2.609  0.1181  0.2616  0.0610
 9213SOL    HW138568   2.148   5.726   2.510 -1.7378  1.0517 -0.1716
 9213SOL    HW238569   2.212   5.771   2.653  0.9608 -0.1087 -0.9812
 9214SOL     OW38570   3.435   7.366   2.969 -0.8309 -0.5911  0.1114
 9214SOL    HW138571   3.496   7.394   2.895 -1.1695  1.1877  0.4983
 9214SOL    HW238572   3.357   7.428   2.974 -1.4608 -1.4423  1.1565
 9215SOL     OW38573   2.291   3.630   4.774 -0.1733  0.6842 -0.0275
 9215SOL    HW138574   2.339   3.690   4.710  1.4534  0.1833  0.6979
 9215SOL    HW238575   2.267   3.681   4.856  1.6147  0.2682  0.7823
 9216SOL     OW38576   0.428   4.230   0.804  0.2352  0.0871  0.7139
 9216SOL    HW138577   0.401   4.166   0.876 -0.5163 -1.5247 -0.9706
 9216SOL    HW238578   0.349   4.284   0.776  0.6738  1.1714  1.5175
 9217SOL     OW38579   9.499   5.880   4.791  0.0954  0.0740  0.2487
 9217SOL    HW138580   9.411   5.833   4.792  0.7607 -1.1721  0.3358
 9217SOL    HW238581   9.569   5.822   4.833  1.2753  0.4304 -1.1803
 9218SOL     OW38582   2.105   4.247   3.193  0.3814  0.2999 -0.0968
 9218SOL    HW138583   2.109   4.284   3.286  0.6069  0.1502 -0.0433
 9218SOL    HW238584   2.159   4.163   3.190 -0.8755 -0.5262  0.0140
 9219SOL     OW38585   7.745   3.914   0.743  0.3465  0.1779  0.0577
 9219SOL    HW138586   7.822   3.963   0.781  0.1872  0.0884  0.4992
 9219SOL    HW238587   7.661   3.967   0.755  0.5318  0.8693 -1.5959
 9220SOL     OW38588   6.861   9.135   1.859  0.1045 -0.4811  0.2364
 9220SOL    HW138589   6.770   9.148   1.900  0.1654 -1.9805  0.8849
 9220SOL    HW238590   6.852   9.081   1.775  0.1466  1.3775 -1.0044
 9221SOL     OW38591   9.215   7.880   2.144 -0.3797  0.3096  0.2946
 9221SOL    HW138592   9.251   7.911   2.056 -0.2654 -1.1750 -0.1906
 9221SOL    HW238593   9.151   7.948   2.180 -1.2201  0.4632 -1.4367
 9222SOL     OW38594   0.078   0.380   2.431 -0.1201 -0.2679  0.5363
 9222SOL    HW138595   0.172   0.349   2.419 -0.1328 -0.3082  0.5419
 9222SOL    HW238596   0.059   0.453   2.365  0.2264  0.4390  1.2057
 9223SOL     OW38597   4.705   5.293   1.085 -0.6160 -0.0900 -0.4757
 9223SOL    HW138598   4.787   5.332   1.042  0.5178 -1.9730 -0.0556
 9223SOL    HW238599   4.727   5.265   1.178 -1.5196 -1.3879 -0.6465
 9224SOL     OW38600   3.142   9.228   1.695  0.1326  0.0963 -0.2410
 9224SOL    HW138601   3.239   9.221   1.718  0.1047 -0.5943 -0.3146
 9224SOL    HW238602   3.088   9.220   1.779  0.0023 -3.1098 -0.5623
 9225SOL     OW38603   3.047   3.024   5.021  0.0454 -0.4103 -0.3649
 9225SOL    HW138604   2.967   2.966   5.004  1.4056 -2.4860  0.3135
 9225SOL    HW238605   3.080   3.061   4.934 -0.6906 -0.7928 -0.8117
 9226SOL     OW38606   4.100   9.348   5.071 -0.0623  0.0552 -0.4229
 9226SOL    HW138607   4.080   9.445   5.051 -1.6309  0.2216  1.7648
 9226SOL    HW238608   4.047   9.290   5.008  1.8582  0.5808 -2.6011
 9227SOL     OW38609   9.137   7.702   4.112 -0.2704 -0.1695  0.0314
 9227SOL    HW138610   9.227   7.688   4.072 -0.2771 -1.4827  0.4681
 9227SOL    HW238611   9.066   7.669   4.050 -0.3706 -0.6015  0.3783
 9228SOL     OW38612   0.528   6.764   3.188  0.2724  0.0304  0.4955
 9228SOL    HW138613   0.448   6.824   3.187 -0.3117 -0.7104  1.4026
 9228SOL    HW238614   0.597   6.799   3.124 -1.8516 -0.7770 -2.3735
 9229SOL     OW38615   6.628   0.490   2.552 -0.0142 -0.0751  0.0272
 9229SOL    HW138616   6.674   0.431   2.484  0.2373 -1.2086  1.1571
 9229SOL    HW238617   6.696   0.547   2.597 -0.0191 -0.1979  0.1870
 9230SOL     OW38618   7.770   1.635   1.228 -0.4392 -0.1357  0.3706
 9230SOL    HW138619   7.691   1.624   1.168  0.1167 -0.0523 -0.3822
 9230SOL    HW238620   7.787   1.732   1.244  0.3974 -0.1130 -0.6520
 9231SOL     OW38621   1.998   9.631   0.300 -0.8341  0.7841  0.0572
 9231SOL    HW138622   1.954   9.680   0.225  0.2730 -0.0076 -1.1350
 9231SOL    HW238623   2.079   9.681   0.330  0.5551 -0.4871 -1.4647
 9232SOL     OW38624   2.354   7.228   3.189 -0.1853 -0.2366  0.5286
 9232SOL    HW138625   2.389   7.173   3.113 -2.1293 -0.3062 -0.3382
 9232SOL    HW238626   2.387   7.322   3.179 -2.6904  0.4383 -2.0160
 9233SOL     OW38627   0.270   8.135   1.454 -0.1301 -0.0287 -0.5975
 9233SOL    HW138628   0.225   8.099   1.372 -1.9733 -1.7532  1.1007
 9233SOL    HW238629   0.356   8.086   1.469 -1.2931 -1.8801  0.1726
 9234SOL     OW38630   1.101   9.076   0.283 -0.1515  0.1996  0.0702
 9234SOL    HW138631   1.051   9.087   0.197 -1.0304  0.0728  0.5581
 9234SOL    HW238632   1.174   9.144   0.288  0.7885 -0.6998 -1.3960
 9235SOL     OW38633   9.853   7.841   4.545  0.0833 -0.0224  0.4599
 9235SOL    HW138634   9.845   7.934   4.580 -0.1966 -0.2568  1.0294
 9235SOL    HW238635   9.895   7.783   4.615  0.8231 -0.1891 -0.1223
 9236SOL     OW38636   1.953   1.980   1.006  0.1604 -0.5200 -0.4728
 9236SOL    HW138637   1.989   2.018   1.091 -0.2958  2.2402 -1.4562
 9236SOL    HW238638   2.014   2.003   0.930 -0.4953 -1.1619 -1.2023
 9237SOL     OW38639   5.138   5.303   1.246  0.2022 -0.1709  0.2647
 9237SOL    HW138640   5.079   5.242   1.300  2.1135  0.0678  2.6974
 9237SOL    HW238641   5.224   5.256   1.226 -0.5087 -0.3092 -2.7977
 9238SOL     OW38642   6.700   3.983   0.312  0.2260 -0.3705 -0.1998
 9238SOL    HW138643   6.733   4.071   0.347  0.6541  0.4103 -2.4709
 9238SOL    HW238644   6.762   3.950   0.241 -1.4773 -1.0642 -1.4079
 9239SOL     OW38645   7.796   7.905   2.539  0.2425  0.3618 -0.2551
 9239SOL    HW138646   7.700   7.876   2.546  0.4185 -0.4716 -1.0982
 9239SOL    HW238647   7.804   8.002   2.561 -0.8924  0.5876 -0.8244
 9240SOL     OW38648   5.353   1.116   3.953 -0.2785  0.2531 -0.4545
 9240SOL    HW138649   5.419   1.167   4.008 -1.0551 -0.8080  1.4984
 9240SOL    HW238650   5.291   1.180   3.908  1.6640  1.2363 -1.8251
 9241SOL     OW38651   1.997   5.444   3.020 -0.3790  0.4909 -0.2935
 9241SOL    HW138652   1.965   5.428   3.113  0.3591 -1.5458 -0.3695
 9241SOL    HW238653   1.920   5.439   2.956 -0.4582 -0.8457 -0.0955
 9242SOL     OW38654   4.228   3.969   1.783  0.3168 -0.4683  0.0672
 9242SOL    HW138655   4.191   3.935   1.869  2.8702 -0.9717  1.0047
 9242SOL    HW238656   4.195   3.912   1.708  0.0844 -1.5687  0.9865
 9243SOL     OW38657   0.268   6.206   0.212  0.1092 -0.0269  0.1511
 9243SOL    HW138658   0.277   6.292   0.262 -1.9789  0.7825 -0.7991
 9243SOL    HW238659   0.354   6.185   0.166 -0.1796  3.0290 -1.9203
 9244SOL     OW38660   4.970   1.729   2.016 -0.1693 -0.0594  0.3185
 9244SOL    HW138661   5.017   1.641   2.007  1.9869  1.3180 -2.5090
 9244SOL    HW238662   4.880   1.725   1.973 -0.0367 -0.8554  0.1232
 9245SOL     OW38663   0.371   9.768   0.269 -0.3209  0.4419  0.3299
 9245SOL    HW138664   0.276   9.791   0.290 -0.1712  0.3284  1.1593
 9245SOL    HW238665   0.419   9.745   0.354  0.4880  0.6543 -0.0668
 9246SOL     OW38666   9.550   4.818   4.592 -0.1444 -0.2127 -0.2119
 9246SOL    HW138667   9.648   4.808   4.612 -0.0789  0.5070 -0.1796
 9246SOL    HW238668   9.533   4.798   4.496  0.1235  0.2770 -0.3583
 9247SOL     OW38669   3.874   9.742   4.831 -0.4010  0.0358 -0.2810
 9247SOL    HW138670   3.951   9.678   4.836 -0.9422 -0.7786 -1.9357
 9247SOL    HW238671   3.856   9.765   4.735 -2.5679 -0.2287  0.0331
 9248SOL     OW38672   2.048   7.267   0.626 -0.9612  0.1338  0.4204
 9248SOL    HW138673   1.978   7.196   0.631 -1.1877  0.2145 -1.3516
 9248SOL    HW238674   2.125   7.234   0.572 -0.5613  0.8314  0.5564
 9249SOL     OW38675   0.193   9.371   5.259  0.5112  0.3292 -0.5501
 9249SOL    HW138676   0.225   9.363   5.165  1.1393  1.9199 -0.4790
 9249SOL    HW238677   0.203   9.283   5.305 -1.1219 -0.8480 -2.3668
 9250SOL     OW38678   2.851   3.592   5.284  0.2516  0.0126 -0.3667
 9250SOL    HW138679   2.864   3.507   5.335  0.9812  1.3348  1.6822
 9250SOL    HW238680   2.934   3.611   5.230  0.0664 -0.5831 -0.8709
 9251SOL     OW38681   7.319   9.927   5.376 -0.3945 -0.5253  0.0127
 9251SOL    HW138682   7.371   9.844   5.392 -0.3707 -0.5741 -0.3061
 9251SOL    HW238683   7.341   9.964   5.286 -1.3725 -0.8950 -0.3916
 9252SOL     OW38684   1.343   4.791   5.103 -0.2806  0.0434 -0.3795
 9252SOL    HW138685   1.390   4.761   5.020 -2.1402 -0.8151 -1.1609
 9252SOL    HW238686   1.397   4.768   5.183  0.4323 -1.2982 -1.2308
 9253SOL     OW38687   0.476   9.185   1.238 -0.2943 -0.0737  0.5449
 9253SOL    HW138688   0.450   9.127   1.160 -0.1890 -0.6860  0.9622
 9253SOL    HW238689   0.575   9.185   1.248 -0.2372  0.9093 -0.0107
 9254SOL     OW38690   8.413   9.264   4.899 -0.2743 -0.0900  0.0134
 9254SOL    HW138691   8.323   9.236   4.866  0.2918 -1.4726 -0.4032
 9254SOL    HW238692   8.412   9.270   4.999 -1.1570  1.1104 -0.0611
 9255SOL     OW38693   8.922   8.841   2.838 -0.2070  0.0509  0.1280
 9255SOL    HW138694   8.936   8.940   2.835  1.4616 -0.1556  0.5269
 9255SOL    HW238695   8.932   8.809   2.932 -2.7186 -0.2462  0.3203
 9256SOL     OW38696   7.464   7.829   2.022 -0.4725 -0.6719  0.2854
 9256SOL    HW138697   7.405   7.860   2.097  1.2082 -0.0953  1.3943
 9256SOL    HW238698   7.467   7.899   1.951 -0.1473 -0.1610  0.7968
 9257SOL     OW38699   3.073   9.230   1.106  0.0510  0.3783  0.8308
 9257SOL    HW138700   3.000   9.212   1.172 -1.2440  0.7360 -0.4661
 9257SOL    HW238701   3.113   9.144   1.075 -0.2517  0.1555  1.0560
 9258SOL     OW38702   0.273   5.574   3.015 -0.1018 -0.2805 -0.4573
 9258SOL    HW138703   0.254   5.667   3.048  0.0035 -0.2428 -0.5027
 9258SOL    HW238704   0.241   5.508   3.083 -0.2072 -0.2116 -0.4397
 9259SOL     OW38705   2.942   7.208   4.233 -0.9980  0.3619 -0.5849
 9259SOL    HW138706   2.992   7.124   4.253 -1.7880  0.3349  1.3482
 9259SOL    HW238707   2.845   7.187   4.222 -0.9120  0.7306 -2.1491
 9260SOL     OW38708   0.756   2.692   1.770  0.3142 -0.3133 -0.4233
 9260SOL    HW138709   0.772   2.673   1.673 -1.3174 -0.3641 -0.6829
 9260SOL    HW238710   0.839   2.669   1.822  0.5431 -2.0906 -1.5455
 9261SOL     OW38711   8.244   0.775   0.983 -0.1970 -0.6944  0.4646
 9261SOL    HW138712   8.299   0.857   0.968 -1.4606 -0.0599 -0.8372
 9261SOL    HW238713   8.212   0.773   1.078 -0.5057  0.5470  0.3933
 9262SOL     OW38714   0.988   6.884   1.020  0.1640  0.2817  0.1424
 9262SOL    HW138715   0.898   6.890   1.064 -0.6749 -2.3566 -1.0390
 9262SOL    HW238716   1.051   6.835   1.080  0.0283 -0.2133 -0.1125
 9263SOL     OW38717   2.956   9.267   5.169 -0.4152 -0.0280  0.0205
 9263SOL    HW138718   2.917   9.327   5.239  0.8037  1.0844 -0.2309
 9263SOL    HW238719   2.978   9.322   5.088  1.0145 -0.7597 -0.0963
 9264SOL     OW38720   1.427   6.181   5.001 -0.0141 -0.6437 -0.1300
 9264SOL    HW138721   1.499   6.237   5.044  0.0658  0.0712 -1.1680
 9264SOL    HW238722   1.455   6.085   5.003  1.7224 -0.2107 -1.9215
 9265SOL     OW38723   0.515   1.382   4.149 -0.5219 -0.4308  0.3906
 9265SOL    HW138724   0.493   1.447   4.221  0.7489  0.1530  0.2510
 9265SOL    HW238725   0.438   1.378   4.084 -0.4442  1.2143  0.1871
 9266SOL     OW38726   0.690   3.832   4.939  0.1621 -0.4850 -0.1200
 9266SOL    HW138727   0.749   3.910   4.921  0.3380 -1.1770 -2.6122
 9266SOL    HW238728   0.603   3.864   4.978  0.2905  0.9431 -0.9735
 9267SOL     OW38729   3.767   2.903   5.151  0.1136  0.4162  0.0743
 9267SOL    HW138730   3.760   2.805   5.135  0.1173  0.4460 -0.1063
 9267SOL    HW238731   3.692   2.932   5.211 -0.1535  0.3794 -0.2350
 9268SOL     OW38732   8.446   1.152   1.478 -0.0500  0.2556 -0.1312
 9268SOL    HW138733   8.454   1.059   1.516 -1.6556  0.0118 -0.3652
 9268SOL    HW238734   8.425   1.146   1.381 -0.8612  0.8546  0.0052
 9269SOL     OW38735   0.501   3.287   4.078 -0.2498  0.1961 -0.1685
 9269SOL    HW138736   0.589   3.278   4.123 -0.6482 -0.6957  0.4512
 9269SOL    HW238737   0.433   3.322   4.143 -0.2725  1.2241 -0.7367
 9270SOL     OW38738   2.806   1.169   3.311  0.0606 -0.6256 -0.1790
 9270SOL    HW138739   2.892   1.173   3.363  1.2203 -1.2821 -1.9901
 9270SOL    HW238740   2.752   1.251   3.329  2.0169  0.7952 -0.5802
 9271SOL     OW38741   8.243   0.966   0.641  0.5329  0.3023  0.9424
 9271SOL    HW138742   8.327   0.914   0.653  1.0396  1.0225  0.5747
 9271SOL    HW238743   8.242   1.005   0.548 -1.0418 -1.1984  0.3037
 9272SOL     OW38744   8.310   3.676   5.401 -0.2491  0.0517 -0.6268
 9272SOL    HW138745   8.277   3.765   5.433 -2.0213 -0.7754 -0.0875
 9272SOL    HW238746   8.407   3.667   5.422 -0.6789  0.7625  1.8673
 9273SOL     OW38747   4.596   0.836   4.067  0.1952  0.4662  0.1229
 9273SOL    HW138748   4.604   0.806   3.972 -0.6621  0.6365  0.0007
 9273SOL    HW238749   4.518   0.790   4.110  0.7079  0.2250  0.8044
 9274SOL     OW38750   4.627   8.809   4.979 -0.1447 -0.0770 -0.1776
 9274SOL    HW138751   4.719   8.776   4.955  0.1857 -0.9836  2.2263
 9274SOL    HW238752   4.583   8.742   5.038 -0.6584  2.3738  2.3064
 9275SOL     OW38753   0.491   1.237   1.978  0.7438  1.0291  0.5055
 9275SOL    HW138754   0.395   1.240   1.953  0.9867 -0.4382 -0.6593
 9275SOL    HW238755   0.501   1.195   2.069  0.4868 -1.3762 -0.5559
 9276SOL     OW38756   8.119   4.100   1.762 -0.4171  0.5686  0.5632
 9276SOL    HW138757   8.072   4.186   1.748 -2.4113 -0.0729  2.9352
 9276SOL    HW238758   8.053   4.027   1.779  1.2662 -1.2263 -0.3420
 9277SOL     OW38759   1.489   9.771   0.251  0.6142  0.4831  0.5998
 9277SOL    HW138760   1.490   9.673   0.233  0.7263  0.6143 -0.1347
 9277SOL    HW238761   1.536   9.819   0.177  1.6210  0.9897  1.5459
 9278SOL     OW38762   7.761   3.349   1.033 -0.3761 -0.5437 -0.0456
 9278SOL    HW138763   7.753   3.277   1.102  0.4576 -0.1978  0.4156
 9278SOL    HW238764   7.745   3.310   0.942 -4.5798 -0.4369  0.5352
 9279SOL     OW38765   2.822   7.099   2.930  0.5437  0.0458  0.3432
 9279SOL    HW138766   2.741   7.144   2.893  1.5131  1.0590 -0.6074
 9279SOL    HW238767   2.816   7.001   2.913  1.1233  0.4980 -2.9760
 9280SOL     OW38768   8.610   8.736   0.477  0.2896 -0.3487 -0.2469
 9280SOL    HW138769   8.637   8.742   0.381  1.9676  0.9516  0.2756
 9280SOL    HW238770   8.674   8.677   0.526  0.2084  0.0371  0.3297
 9281SOL     OW38771   6.540   9.710   3.532  0.0029 -0.0420 -0.0257
 9281SOL    HW138772   6.459   9.703   3.590 -0.8978  1.1314 -1.0970
 9281SOL    HW238773   6.617   9.664   3.576 -1.0524 -0.5229  1.3585
 9282SOL     OW38774   4.065   9.153   3.854  0.0142 -0.0054  0.0175
 9282SOL    HW138775   4.161   9.126   3.845 -0.3056 -0.8821 -0.8857
 9282SOL    HW238776   4.042   9.220   3.784 -0.0858  0.0661  0.1174
 9283SOL     OW38777   0.549   1.333   0.272 -0.2659  0.4696 -0.0159
 9283SOL    HW138778   0.580   1.357   0.363  2.4462 -0.0800 -0.7482
 9283SOL    HW238779   0.542   1.416   0.216 -1.3529  0.7357  0.5038
 9284SOL     OW38780   6.766   0.038   4.554  0.1331  0.1087 -0.3234
 9284SOL    HW138781   6.710   0.027   4.636  0.7284 -1.3708 -0.0991
 9284SOL    HW238782   6.716   0.003   4.475 -0.0008  0.5093 -0.4151
 9285SOL     OW38783   0.061   0.487   0.069 -0.1787 -0.0931 -0.5051
 9285SOL    HW138784   0.121   0.567   0.069  0.0438 -0.2345 -2.8223
 9285SOL    HW238785   0.102   0.415   0.125  0.8790  0.5063 -0.4959
 9286SOL     OW38786   1.916   6.900   0.344 -0.3903  0.5256 -0.2150
 9286SOL    HW138787   1.981   6.850   0.401  0.7078  1.7723 -0.3661
 9286SOL    HW238788   1.832   6.846   0.335  0.4826 -0.9396  0.2586
 9287SOL     OW38789   2.774   8.900   3.522  0.0924 -0.1053 -0.0498
 9287SOL    HW138790   2.798   8.859   3.610  1.0625  1.6356  0.5035
 9287SOL    HW238791   2.818   8.848   3.448  1.1765 -0.1650  0.6330
 9288SOL     OW38792   2.465   8.255   3.786 -0.4383 -0.3430 -0.0377
 9288SOL    HW138793   2.546   8.208   3.822  0.1089  0.9053  0.3826
 9288SOL    HW238794   2.383   8.207   3.815  0.1519 -1.7155 -0.5933
 9289SOL     OW38795   1.709   7.172   4.233  0.4014 -0.3350  0.1126
 9289SOL    HW138796   1.789   7.183   4.293  1.2816  0.8063 -1.2138
 9289SOL    HW238797   1.740   7.159   4.139 -0.9802 -0.7641 -0.2951
 9290SOL     OW38798   7.015   8.239   3.417 -0.4734  0.0910 -0.4082
 9290SOL    HW138799   6.987   8.325   3.461  0.2187  0.3037 -0.3759
 9290SOL    HW238800   7.111   8.245   3.392 -0.2781 -0.8907  0.0974
 9291SOL     OW38801   2.663   7.286   4.467 -0.2356  0.1823  0.4269
 9291SOL    HW138802   2.596   7.350   4.505 -0.1486  1.8476 -2.1189
 9291SOL    HW238803   2.755   7.319   4.486 -0.1833  0.3503 -0.1079
 9292SOL     OW38804   9.326   8.816   4.087 -0.5938  0.3150 -0.2883
 9292SOL    HW138805   9.408   8.862   4.053 -0.6081 -0.1569 -0.9819
 9292SOL    HW238806   9.327   8.815   4.187  0.0734  0.6183 -0.2873
 9293SOL     OW38807   1.925   6.602   0.737 -0.4601  0.4568 -0.7527
 9293SOL    HW138808   1.928   6.659   0.819  1.1015  1.9587 -1.8166
 9293SOL    HW238809   1.993   6.529   0.744  0.1616  1.0016 -0.9733
 9294SOL     OW38810   3.194   9.082   1.452  0.0496 -0.2900 -0.0165
 9294SOL    HW138811   3.294   9.080   1.456  0.0229  0.3697  1.6465
 9294SOL    HW238812   3.159   9.130   1.533 -1.6440 -1.2052 -0.1912
 9295SOL     OW38813   1.652   3.279   4.919 -0.0963  0.6575  0.7706
 9295SOL    HW138814   1.570   3.258   4.865  0.1688 -1.1010  1.0140
 9295SOL    HW238815   1.731   3.280   4.858 -0.3592  2.9634  0.4330
 9296SOL     OW38816   4.922   4.325   0.090 -0.6150  0.1839  0.4991
 9296SOL    HW138817   4.848   4.391   0.081 -1.0566 -0.1784  1.3791
 9296SOL    HW238818   4.919   4.259   0.015  0.8341  2.1324 -1.3279
 9297SOL     OW38819   8.820   0.616   3.081 -0.1643 -0.1299  0.2888
 9297SOL    HW138820   8.849   0.655   2.993  0.6859 -1.9393 -0.2471
 9297SOL    HW238821   8.874   0.656   3.154 -0.5504  1.0403 -0.0481
 9298SOL     OW38822   3.048   3.105   0.661  0.1977 -0.0004 -0.2541
 9298SOL    HW138823   2.992   3.024   0.639  1.5041 -0.7060 -1.0653
 9298SOL    HW238824   3.062   3.110   0.759  0.1057 -0.7734 -0.1953
 9299SOL     OW38825   4.538   8.904   1.412  0.0511 -0.2687  0.5064
 9299SOL    HW138826   4.496   8.834   1.354  1.7200 -0.5520 -0.3972
 9299SOL    HW238827   4.636   8.909   1.392  0.4265  0.4881  2.4466
 9300SOL     OW38828   6.079   7.954   2.222  0.1478  0.1862 -0.0444
 9300SOL    HW138829   6.161   7.897   2.211 -0.9219 -1.3468 -0.2395
 9300SOL    HW238830   6.063   8.006   2.139  2.4828  2.6596  0.9493
 9301SOL     OW38831   1.338   5.074   3.195  0.0308 -0.4129  0.5708
 9301SOL    HW138832   1.389   5.045   3.114 -0.9189 -1.8895  0.4820
 9301SOL    HW238833   1.290   5.159   3.176  0.8859 -0.0493  0.0251
 9302SOL     OW38834   7.460   6.087   4.379  0.1388  0.5429  0.0866
 9302SOL    HW138835   7.529   6.017   4.399 -0.2444  0.1265 -0.0179
 9302SOL    HW238836   7.504   6.177   4.373  0.4648  0.4742  1.3623
 9303SOL     OW38837   4.115   3.386   3.556  0.0474  0.2874  0.0122
 9303SOL    HW138838   4.125   3.404   3.458 -1.4826 -0.8864 -0.4038
 9303SOL    HW238839   4.181   3.316   3.584  1.8121  2.0361  0.2683
 9304SOL     OW38840   2.917   9.855   1.039 -0.2955  0.2328  0.0341
 9304SOL    HW138841   2.957   9.939   1.002  0.5869 -0.8240 -1.4750
 9304SOL    HW238842   2.833   9.834   0.987  0.2381 -0.5563 -0.5158
 9305SOL     OW38843   1.504   7.183   3.971  0.6030  0.3129 -0.1904
 9305SOL    HW138844   1.542   7.153   4.059  0.2740  1.3758  0.3211
 9305SOL    HW238845   1.404   7.179   3.975  0.5864  0.3372 -0.5359
 9306SOL     OW38846   2.590   5.664   2.971  0.1283  0.5536 -0.9849
 9306SOL    HW138847   2.499   5.642   3.007  0.4291  0.3010 -0.3609
 9306SOL    HW238848   2.633   5.732   3.031  1.3271 -1.1469  0.1515
 9307SOL     OW38849   0.054   4.503   3.640 -0.6827  0.2824  0.4546
 9307SOL    HW138850   0.070   4.601   3.648 -0.6005  0.1860  1.5814
 9307SOL    HW238851   0.110   4.466   3.567  0.9026  0.7232  1.4188
 9308SOL     OW38852   9.779   8.147   0.973  0.4540 -0.1594  0.0863
 9308SOL    HW138853   9.770   8.228   0.915 -0.3013  0.5249  1.1405
 9308SOL    HW238854   9.842   8.167   1.048  1.6885 -1.1498 -0.6647
 9309SOL     OW38855   4.930   3.461   3.230  0.0442  0.2967  0.2013
 9309SOL    HW138856   5.016   3.484   3.185 -0.7265  2.0001 -0.4591
 9309SOL    HW238857   4.898   3.372   3.197  0.3250  0.7621 -1.3738
 9310SOL     OW38858   8.460   9.869   0.385  0.4048  0.2120 -0.2753
 9310SOL    HW138859   8.523   9.944   0.403  2.5129 -0.9399 -2.4246
 9310SOL    HW238860   8.463   9.846   0.288 -0.8976 -2.0389  0.1752
 9311SOL     OW38861   6.054   4.408   0.116  0.1009  0.6008  0.3647
 9311SOL    HW138862   6.123   4.360   0.171  0.7126  0.1748 -0.7565
 9311SOL    HW238863   6.100   4.474   0.056 -0.3155 -0.6453 -1.3759
 9312SOL     OW38864   2.243   7.582   4.736  0.2878 -0.5148 -0.0850
 9312SOL    HW138865   2.251   7.586   4.836  0.8118  0.6644 -0.1744
 9312SOL    HW238866   2.199   7.496   4.711  3.9387 -2.8304  0.9357
 9313SOL     OW38867   5.956   0.633   2.033 -0.5769 -0.1876  0.1589
 9313SOL    HW138868   6.026   0.678   1.977  0.3144 -2.0555 -0.2723
 9313SOL    HW238869   5.980   0.643   2.130  0.5191 -1.1143  0.0064
 9314SOL     OW38870   1.053   2.376   1.333  0.0734  0.0936  0.1869
 9314SOL    HW138871   1.136   2.433   1.336  0.2580 -0.0740 -1.3057
 9314SOL    HW238872   1.063   2.300   1.396  1.0582  0.0923  0.0466
 9315SOL     OW38873   6.354   8.162   2.217 -0.2813  0.3529 -0.7653
 9315SOL    HW138874   6.326   8.169   2.122 -0.7917  0.4534 -0.6086
 9315SOL    HW238875   6.401   8.075   2.232 -1.3899 -0.2506 -0.7975
 9316SOL     OW38876   2.798   5.940   2.227  0.1815 -0.0080  0.1520
 9316SOL    HW138877   2.800   6.025   2.174 -2.0340  0.0578  0.1018
 9316SOL    HW238878   2.778   5.863   2.166 -1.1278 -0.0989  0.6750
 9317SOL     OW38879   1.995   2.448   2.992  0.1408 -0.5737 -0.0001
 9317SOL    HW138880   1.915   2.449   2.932  0.7199 -3.1185 -0.8577
 9317SOL    HW238881   2.022   2.354   3.011  1.0830  0.2001  2.8229
 9318SOL     OW38882   1.853   8.568   4.772 -0.8216 -0.0377 -0.1085
 9318SOL    HW138883   1.872   8.470   4.767  0.4839  0.2702 -1.3457
 9318SOL    HW238884   1.759   8.582   4.803 -1.0632 -1.6787 -0.0558
 9319SOL     OW38885   4.046   7.268   4.148 -0.0361 -0.6490  0.4703
 9319SOL    HW138886   3.948   7.253   4.167 -0.9770 -0.6081 -3.9510
 9319SOL    HW238887   4.069   7.363   4.169 -1.1311 -0.4223  0.7158
 9320SOL     OW38888   1.995   3.848   3.644 -0.2591 -0.7016  0.3773
 9320SOL    HW138889   1.917   3.909   3.629 -2.3132 -3.1266  0.9356
 9320SOL    HW238890   2.058   3.890   3.709 -0.0725  2.1363 -1.5134
 9321SOL     OW38891   0.191   7.671   0.726  0.4839 -0.4106  0.2203
 9321SOL    HW138892   0.124   7.745   0.719  0.6738 -0.2182  0.4257
 9321SOL    HW238893   0.147   7.584   0.705  0.4159 -0.1607 -0.6879
 9322SOL     OW38894   0.356   5.701   0.078 -0.2059 -0.6107 -0.2035
 9322SOL    HW138895   0.319   5.631   0.017 -1.0857 -0.0208 -0.3556
 9322SOL    HW238896   0.292   5.716   0.154  0.9790 -1.4973  0.9986
 9323SOL     OW38897   9.158   3.857   1.979  0.1347  0.0330 -0.1283
 9323SOL    HW138898   9.252   3.837   2.006  0.6941  2.2677 -0.3045
 9323SOL    HW238899   9.128   3.941   2.024 -1.5069 -0.2547 -0.6748
 9324SOL     OW38900   7.266   8.552   3.532 -0.0355  0.4332 -0.4931
 9324SOL    HW138901   7.329   8.538   3.455  1.3769  1.9953  0.3600
 9324SOL    HW238902   7.289   8.488   3.605 -0.4941 -0.1016 -0.8093
 9325SOL     OW38903   6.084   7.513   2.577 -0.5083 -0.2016  0.0422
 9325SOL    HW138904   6.175   7.475   2.597  0.5800  2.0219 -0.6125
 9325SOL    HW238905   6.073   7.523   2.478 -0.2211  2.4238  0.2347
 9326SOL     OW38906   0.720   0.307   3.494 -0.1469 -0.1791  0.5726
 9326SOL    HW138907   0.634   0.259   3.512 -1.8244  1.4822 -2.5639
 9326SOL    HW238908   0.714   0.400   3.529 -0.2467  0.4126 -0.9570
 9327SOL     OW38909   3.006   2.927   2.365  0.5095  0.2265  0.5107
 9327SOL    HW138910   2.911   2.934   2.396  0.6286 -0.6231  1.0783
 9327SOL    HW238911   3.008   2.914   2.266  0.0153 -0.2592  0.5642
 9328SOL     OW38912   1.703   9.059   0.905 -0.2002 -0.3184 -0.2082
 9328SOL    HW138913   1.754   8.981   0.868 -1.1511 -1.6694  1.2430
 9328SOL    HW238914   1.684   9.042   1.002 -1.0490  1.4131 -0.0682
 9329SOL     OW38915   7.610   0.611   2.323  0.2679  0.0223 -0.5908
 9329SOL    HW138916   7.631   0.704   2.353 -1.1234 -0.1309  0.8642
 9329SOL    HW238917   7.663   0.545   2.377 -0.2540 -0.1326 -0.2694
 9330SOL     OW38918   7.977   8.206   2.584 -0.5670  0.3605 -0.3829
 9330SOL    HW138919   8.077   8.211   2.579 -0.5225 -1.0748 -1.0364
 9330SOL    HW238920   7.949   8.182   2.676 -0.3635  1.6560  0.0384
 9331SOL     OW38921   4.090   0.372   4.635 -0.1674 -0.9236 -0.1381
 9331SOL    HW138922   4.064   0.380   4.731 -0.4449  0.5287 -0.3311
 9331SOL    HW238923   4.047   0.445   4.582  3.0663  0.6069 -0.7403
 9332SOL     OW38924   9.123   4.444   5.118  0.5927  0.5121 -0.1601
 9332SOL    HW138925   9.065   4.523   5.131  1.4519  1.0434  0.4991
 9332SOL    HW238926   9.067   4.361   5.110 -0.1995  0.9124  1.2456
 9333SOL     OW38927   8.304   7.761   3.059  0.2133  0.4916 -0.5297
 9333SOL    HW138928   8.246   7.830   3.102 -0.5481 -0.0049 -0.7569
 9333SOL    HW238929   8.249   7.681   3.033  0.9430  0.1267 -0.9948
 9334SOL     OW38930   3.544   8.214   4.852 -0.5687 -0.1334 -0.2065
 9334SOL    HW138931   3.627   8.181   4.898 -0.1832  1.4475  0.2469
 9334SOL    HW238932   3.549   8.313   4.840 -1.5218 -0.2632 -1.9485
 9335SOL     OW38933   5.007   8.826   2.697  0.3920 -0.0658  0.3253
 9335SOL    HW138934   5.103   8.817   2.671  0.0584 -1.0379 -0.5864
 9335SOL    HW238935   4.961   8.887   2.632 -0.0985 -1.3211 -0.5303
 9336SOL     OW38936   9.431   4.458   2.133 -0.1061  0.0284 -0.1432
 9336SOL    HW138937   9.337   4.486   2.151 -0.1816  0.7110 -1.5557
 9336SOL    HW238938   9.486   4.469   2.216 -1.5584 -1.6300  1.0713
 9337SOL     OW38939   9.421   9.989   5.520 -0.2402 -0.4149 -0.1019
 9337SOL    HW138940   9.433   9.897   5.481 -1.8986 -0.3518 -0.8025
 9337SOL    HW238941   9.371  10.046   5.455  0.2485  0.8128  0.5915
 9338SOL     OW38942   3.418   5.470   0.514  0.1293  0.4468  0.1633
 9338SOL    HW138943   3.470   5.517   0.586  0.0827  0.5401  0.1363
 9338SOL    HW238944   3.481   5.436   0.444  0.2817 -0.6220  0.8030
 9339SOL     OW38945   3.387   0.402   1.512 -0.2326  0.1883  0.0802
 9339SOL    HW138946   3.293   0.432   1.496 -0.4094 -0.7586 -0.7030
 9339SOL    HW238947   3.387   0.307   1.543  0.3676  0.7348  1.8202
 9340SOL     OW38948   0.769   1.201   3.850 -0.7516  0.3587 -0.2735
 9340SOL    HW138949   0.814   1.166   3.931 -1.8299  0.5865  0.4360
 9340SOL    HW238950   0.695   1.139   3.822 -0.5358  0.3947 -0.9446
 9341SOL     OW38951   9.373   1.231   5.470 -0.5300 -0.3744  0.0749
 9341SOL    HW138952   9.310   1.293   5.423 -0.7481 -0.5361  0.1556
 9341SOL    HW238953   9.364   1.139   5.433 -0.9770 -0.5836  0.6898
 9342SOL     OW38954   0.751   9.081   5.189  0.2934  0.1839  0.0029
 9342SOL    HW138955   0.821   9.130   5.137  0.8080 -1.2752 -0.7036
 9342SOL    HW238956   0.702   9.145   5.248  2.6389  1.1189  0.9815
 9343SOL     OW38957   6.833   8.869   2.869  0.6244  0.0262 -0.0477
 9343SOL    HW138958   6.859   8.961   2.838  1.2415  0.2496  1.1277
 9343SOL    HW238959   6.820   8.811   2.789  2.4480  0.5336 -0.7520
 9344SOL     OW38960   0.048   4.668   2.710 -0.4407 -0.5160  0.5135
 9344SOL    HW138961  -0.025   4.640   2.773 -0.3611  2.0733  1.7854
 9344SOL    HW238962   0.103   4.740   2.751  2.5034 -1.9885 -0.6936
 9345SOL     OW38963   3.009   4.789   5.090  0.1027 -0.0349 -0.2439
 9345SOL    HW138964   3.035   4.886   5.089  1.4999 -0.4153 -1.1093
 9345SOL    HW238965   2.929   4.776   5.031 -0.8069  0.7876  0.7970
 9346SOL     OW38966   2.857   0.669   2.696  0.2181 -0.3491  0.2447
 9346SOL    HW138967   2.833   0.762   2.667 -0.1558 -0.4884  0.1008
 9346SOL    HW238968   2.892   0.671   2.790 -1.3154 -0.2720  0.8268
 9347SOL     OW38969   9.077   2.703   4.764 -0.9791 -0.0242 -0.4761
 9347SOL    HW138970   9.044   2.754   4.843 -0.3343  0.7564 -0.7093
 9347SOL    HW238971   9.104   2.766   4.692  2.1255 -0.5372  0.1448
 9348SOL     OW38972   3.361   7.551   4.069  0.7566  0.0790  0.3021
 9348SOL    HW138973   3.392   7.525   3.978  0.5444  0.7477  0.0327
 9348SOL    HW238974   3.388   7.646   4.087  0.0756  0.2176  0.6089
 9349SOL     OW38975   2.465   4.848   3.939  0.3321  0.1194 -1.0251
 9349SOL    HW138976   2.555   4.812   3.911  1.5787 -0.1224  3.0010
 9349SOL    HW238977   2.474   4.898   4.025 -3.4574 -0.1023 -0.4151
 9350SOL     OW38978   8.492   9.324   1.776  0.0903 -0.5630 -0.6087
 9350SOL    HW138979   8.426   9.309   1.702 -0.1062  0.3332 -0.6217
 9350SOL    HW238980   8.507   9.239   1.825 -1.2488 -0.7291 -0.4741
 9351SOL     OW38981   2.979   5.962   1.591  0.5539 -0.0857  0.3644
 9351SOL    HW138982   3.070   6.003   1.587  0.9601 -0.9638  0.4342
 9351SOL    HW238983   2.961   5.912   1.506  0.3972 -0.4374  0.6024
 9352SOL     OW38984   2.560   7.442   5.287 -0.0116  0.6392 -0.0079
 9352SOL    HW138985   2.590   7.348   5.306  2.2687  1.3151 -0.1668
 9352SOL    HW238986   2.505   7.475   5.364  3.3703  0.8919  2.4134
 9353SOL     OW38987   7.005   9.292   2.929  0.6413 -0.6030  0.8572
 9353SOL    HW138988   7.067   9.219   2.958  0.5395 -0.5795  1.1399
 9353SOL    HW238989   6.945   9.257   2.857  2.1556 -0.1021 -0.6626
 9354SOL     OW38990   9.223   3.346   0.835 -0.3325 -0.3349 -0.1634
 9354SOL    HW138991   9.249   3.251   0.846  0.4488 -0.0194  0.8379
 9354SOL    HW238992   9.195   3.363   0.741  1.0640 -1.1803 -0.7473
 9355SOL     OW38993   4.715   5.873   1.442 -0.2396  0.1563 -0.1057
 9355SOL    HW138994   4.671   5.810   1.506  2.0612  0.0754  1.4544
 9355SOL    HW238995   4.667   5.871   1.354 -3.9528  0.8373  1.7937
 9356SOL     OW38996   3.609   0.220   3.347 -0.3642  0.0301  0.2205
 9356SOL    HW138997   3.621   0.213   3.248  0.5821  0.7979  0.2732
 9356SOL    HW238998   3.515   0.249   3.366 -0.5961 -0.2704 -0.4504
 9357SOL     OW38999   4.871   2.916   3.044 -0.4569 -0.0767 -0.6917
 9357SOL    HW139000   4.932   2.974   2.989 -1.4906  0.1455 -1.6225
 9357SOL    HW239001   4.880   2.940   3.140 -1.2469  2.0042 -1.1096
 9358SOL     OW39002   1.967   4.549   4.511 -0.1772 -0.0439 -0.5232
 9358SOL    HW139003   2.025   4.542   4.429  0.5588  0.7123 -0.0769
 9358SOL    HW239004   1.929   4.642   4.517 -2.8964 -1.0523 -1.7764
 9359SOL     OW39005   0.458   0.195   0.097 -0.2622 -0.2476  0.0881
 9359SOL    HW139006   0.488   0.142   0.018 -2.1158  0.3956 -1.1001
 9359SOL    HW239007   0.454   0.292   0.072 -2.8722 -0.2562  0.2751
 9360SOL     OW39008   1.893   4.594   1.171 -0.5115  0.1832  0.2329
 9360SOL    HW139009   1.980   4.638   1.188  0.2249 -1.0621 -0.2153
 9360SOL    HW239010   1.850   4.568   1.257 -0.1717  0.3066  0.4375
 9361SOL     OW39011   2.570   1.403   0.826  0.4683 -0.0205  0.0579
 9361SOL    HW139012   2.633   1.335   0.788 -0.4390 -0.3042 -0.9716
 9361SOL    HW239013   2.600   1.428   0.918  1.4470 -0.9865  0.0169
 9362SOL     OW39014   3.770   3.051   2.327 -0.2781 -0.2927 -0.1502
 9362SOL    HW139015   3.704   3.027   2.398  0.4847  0.3873  0.8180
 9362SOL    HW239016   3.831   3.123   2.362  1.8679 -1.9040 -0.5150
 9363SOL     OW39017   3.641   5.255   5.009  0.3057 -0.4769  0.5028
 9363SOL    HW139018   3.719   5.193   5.023  1.1798  0.0650 -1.7622
 9363SOL    HW239019   3.647   5.331   5.075  2.0531 -0.1051 -0.0507
 9364SOL     OW39020   3.289   2.496   0.353  0.3545  0.3981  0.7355
 9364SOL    HW139021   3.242   2.418   0.394  0.2188 -0.6566 -1.3627
 9364SOL    HW239022   3.233   2.578   0.362 -0.5657 -0.2423  0.8783
 9365SOL     OW39023   2.366   5.978   5.408 -0.7777 -0.5253  0.7919
 9365SOL    HW139024   2.364   5.879   5.392 -1.5350 -0.4531  0.4118
 9365SOL    HW239025   2.454   6.004   5.447 -0.0296 -1.1422 -0.4860
 9366SOL     OW39026   1.586   5.226   1.315  0.0544 -0.4711  0.1471
 9366SOL    HW139027   1.529   5.265   1.387  1.7942 -0.7565  1.7221
 9366SOL    HW239028   1.660   5.290   1.293  1.2975 -1.6734  0.7759
 9367SOL     OW39029   7.900   3.346   3.261  0.4353  0.3822  0.1169
 9367SOL    HW139030   7.847   3.284   3.318 -2.2404  1.0228 -1.5609
 9367SOL    HW239031   7.933   3.296   3.180 -0.5828  0.7681 -0.5578
 9368SOL     OW39032   8.764   0.947   3.035  0.1569 -0.1812  0.5668
 9368SOL    HW139033   8.831   0.882   2.999 -0.2172 -1.0066  1.3391
 9368SOL    HW239034   8.691   0.959   2.968  1.4400  1.2918 -0.5948
 9369SOL     OW39035   9.798   2.275   5.044 -0.1360 -0.1065 -0.1340
 9369SOL    HW139036   9.740   2.197   5.019 -0.7324  0.2950 -0.0124
 9369SOL    HW239037   9.751   2.360   5.023  0.9635  0.2309 -1.2998
 9370SOL     OW39038   2.854   2.259   1.390 -0.5761 -0.1283  0.0532
 9370SOL    HW139039   2.925   2.277   1.321 -1.2440  1.2151 -0.2940
 9370SOL    HW239040   2.774   2.314   1.370 -0.9582 -0.0927  1.6503
 9371SOL     OW39041   9.243   0.796   3.424 -0.1701 -0.7497  0.7614
 9371SOL    HW139042   9.171   0.838   3.479 -0.7689 -0.5569 -0.1756
 9371SOL    HW239043   9.212   0.708   3.389  0.2688 -0.9452  0.8595
 9372SOL     OW39044   1.685   3.335   1.061 -0.4194 -0.4243  0.2197
 9372SOL    HW139045   1.744   3.373   1.132  0.3988 -1.9359  0.3856
 9372SOL    HW239046   1.741   3.303   0.985 -1.1655 -0.2842 -0.3930
 9373SOL     OW39047   1.576   4.045   2.887  0.2658 -0.0997  0.1069
 9373SOL    HW139048   1.662   4.042   2.838  0.7008 -1.1099  0.9159
 9373SOL    HW239049   1.509   3.986   2.842 -0.0881  0.8884 -0.6703
 9374SOL     OW39050   7.328   0.452   0.643  0.1956  0.2658  0.0746
 9374SOL    HW139051   7.343   0.551   0.644 -0.1813  0.3227  0.1475
 9374SOL    HW239052   7.416   0.405   0.648  0.3722  0.5989  0.1070
 9375SOL     OW39053   1.545   2.535   5.083 -0.0882 -0.1043  0.4821
 9375SOL    HW139054   1.459   2.556   5.037 -0.5020 -0.1850  1.1978
 9375SOL    HW239055   1.525   2.502   5.175  0.7002 -0.4300  0.5352
 9376SOL     OW39056   1.991   0.603   2.081  0.2307  0.4399 -0.1895
 9376SOL    HW139057   2.008   0.556   2.168  0.1963 -0.0466 -0.4468
 9376SOL    HW239058   2.071   0.658   2.057  0.0003  1.0608  0.4582
 9377SOL     OW39059   9.715   6.887   1.383 -0.4699  0.3408 -0.3250
 9377SOL    HW139060   9.693   6.975   1.341 -0.8262  0.5781  0.3468
 9377SOL    HW239061   9.655   6.816   1.347 -0.4009  0.4347 -0.6252
 9378SOL     OW39062   2.814   5.763   1.762 -0.2803  0.0481 -0.4058
 9378SOL    HW139063   2.893   5.815   1.730  0.0740 -0.9725 -1.2243
 9378SOL    HW239064   2.792   5.691   1.695 -0.4901 -1.1305  0.8944
 9379SOL     OW39065   3.198   0.303   4.443  0.3308  0.1018  0.5022
 9379SOL    HW139066   3.293   0.272   4.446  0.8919  1.3749 -2.4487
 9379SOL    HW239067   3.144   0.239   4.389  0.6227  1.9627 -2.0842
 9380SOL     OW39068   3.403   8.805   5.176  0.5257  0.0411 -0.0533
 9380SOL    HW139069   3.364   8.889   5.138  0.9018 -0.4036 -1.4194
 9380SOL    HW239070   3.365   8.790   5.268 -0.8527  0.7835 -0.4848
 9381SOL     OW39071   4.525   9.300   3.062 -0.1684  0.1586  0.1467
 9381SOL    HW139072   4.526   9.243   3.144  1.5006  0.7309  0.5385
 9381SOL    HW239073   4.430   9.326   3.041 -0.6668 -0.4182  1.5935
 9382SOL     OW39074   1.522   2.727   2.927  0.2713 -0.3950 -0.0540
 9382SOL    HW139075   1.597   2.744   2.991  0.8953 -1.5541 -0.4747
 9382SOL    HW239076   1.481   2.638   2.946 -0.6566 -0.0065 -0.1775
 9383SOL     OW39077   9.326   7.375   4.141 -0.6118 -0.2215 -0.1266
 9383SOL    HW139078   9.366   7.434   4.212  1.2527 -0.1670 -1.1865
 9383SOL    HW239079   9.291   7.292   4.184  0.3048 -0.1014  0.9061
 9384SOL     OW39080   7.932   2.767   1.846  0.3852  0.4014  0.4575
 9384SOL    HW139081   7.940   2.734   1.940  1.0508  2.4588  1.1457
 9384SOL    HW239082   7.857   2.833   1.840 -0.0230 -0.1453 -0.5914
 9385SOL     OW39083   0.973   6.071   3.555  0.0095 -0.6352 -0.1247
 9385SOL    HW139084   0.978   6.102   3.650  0.2915  0.1577 -0.3956
 9385SOL    HW239085   1.053   6.016   3.533  1.7389  2.1069 -0.9280
 9386SOL     OW39086   1.405   1.391   3.278  0.3653 -0.4483  0.0282
 9386SOL    HW139087   1.401   1.311   3.217  1.1806 -0.9014  0.5762
 9386SOL    HW239088   1.411   1.360   3.373 -0.8641  0.2634  0.3460
 9387SOL     OW39089   9.842   9.084   5.601  0.1218  0.0075  0.3933
 9387SOL    HW139090   9.908   9.109   5.673  1.6191 -2.5183 -0.0425
 9387SOL    HW239091   9.883   9.099   5.511  0.0404 -1.3842  0.1147
 9388SOL     OW39092   8.684   6.191   2.074  0.1648 -0.4039  0.3460
 9388SOL    HW139093   8.706   6.230   2.163  3.5035 -1.5087  0.1014
 9388SOL    HW239094   8.761   6.206   2.011 -0.8237 -2.3673 -1.4090
 9389SOL     OW39095   3.969   0.679   4.056  0.1584  0.2765 -0.5613
 9389SOL    HW139096   4.033   0.755   4.070  2.3146 -1.6631  0.2608
 9389SOL    HW239097   3.889   0.691   4.115  0.8583  1.4722  0.1598
 9390SOL     OW39098   3.899   8.698   0.366  0.1792  0.4092 -0.6825
 9390SOL    HW139099   3.849   8.612   0.377  0.0921  0.5415 -0.0134
 9390SOL    HW239100   3.922   8.711   0.270 -1.9017  0.8174 -1.1372
 9391SOL     OW39101   8.738   3.647   1.854 -0.5220  0.1257 -0.3250
 9391SOL    HW139102   8.772   3.606   1.769  0.7051  0.4282  0.0045
 9391SOL    HW239103   8.809   3.641   1.924 -0.8809  1.4396  0.1706
 9392SOL     OW39104   9.191   5.768   3.014 -0.4957  0.1763  0.7751
 9392SOL    HW139105   9.238   5.856   3.013  0.0596 -0.0939 -1.6977
 9392SOL    HW239106   9.094   5.782   2.994 -0.2500  0.1853 -0.4820
 9393SOL     OW39107   0.615   5.740   0.586 -0.0906 -0.3125 -0.2544
 9393SOL    HW139108   0.693   5.678   0.584  0.3142  0.0832  2.2285
 9393SOL    HW239109   0.535   5.694   0.625  0.1181  0.5774  1.2782
 9394SOL     OW39110   3.064   4.836   3.394  0.2533 -0.1997 -0.0458
 9394SOL    HW139111   3.016   4.885   3.321  1.3041  0.1781 -0.4908
 9394SOL    HW239112   3.017   4.852   3.481 -0.0964  0.6192 -0.3808
 9395SOL     OW39113   3.304   9.211   5.073 -0.1659 -0.1843  0.4817
 9395SOL    HW139114   3.313   9.310   5.062  1.6618 -0.4008 -0.1444
 9395SOL    HW239115   3.303   9.168   4.983 -0.1649 -0.8043  0.7770
 9396SOL     OW39116   9.845   9.450   2.628  0.7265 -0.1969  0.0481
 9396SOL    HW139117   9.843   9.435   2.529  0.4121  1.2160 -0.1639
 9396SOL    HW239118   9.933   9.489   2.654  0.3365  0.6194  0.1500
 9397SOL     OW39119   4.239   5.081   4.788 -0.5403  0.0999 -0.4047
 9397SOL    HW139120   4.288   5.004   4.748 -1.8819  0.3825 -2.6912
 9397SOL    HW239121   4.152   5.049   4.826  0.1161  0.0677  1.1244
 9398SOL     OW39122   5.760   9.499   3.866 -0.2280 -0.4563 -0.4032
 9398SOL    HW139123   5.725   9.592   3.875  0.7498  0.0960 -2.1066
 9398SOL    HW239124   5.859   9.500   3.880 -0.3624 -1.4114  0.6467
 9399SOL     OW39125   3.011   2.924   3.605 -0.0999  0.1053  0.0514
 9399SOL    HW139126   3.059   3.003   3.568  0.5617 -0.4617 -0.3167
 9399SOL    HW239127   3.067   2.880   3.675 -0.8900  0.5377  0.9626
 9400SOL     OW39128   8.040   9.871   0.384 -0.2300  0.5218 -0.0578
 9400SOL    HW139129   7.969   9.816   0.339 -1.5855  1.3350  1.0537
 9400SOL    HW239130   8.083   9.817   0.456 -1.3460  0.7916  0.8226
 9401SOL     OW39131   3.426   4.873   1.682  0.2564  0.4398 -0.2857
 9401SOL    HW139132   3.356   4.816   1.726  0.2561 -0.2220 -1.1338
 9401SOL    HW239133   3.396   4.898   1.590  0.9823  0.4462 -0.5240
 9402SOL     OW39134   2.419   2.475   0.974 -0.0124  0.3623  0.2011
 9402SOL    HW139135   2.321   2.486   0.959  0.0179 -1.1434 -1.2401
 9402SOL    HW239136   2.460   2.564   0.991 -1.3845  1.1940 -0.7044
 9403SOL     OW39137   3.411   3.001   0.152 -0.7809  0.4329 -0.1675
 9403SOL    HW139138   3.398   3.100   0.144  2.9509  0.8760 -1.8290
 9403SOL    HW239139   3.397   2.958   0.063 -0.4891 -0.2791  0.1287
 9404SOL     OW39140   1.739   4.278   1.745 -0.3029 -0.1534  0.1347
 9404SOL    HW139141   1.822   4.244   1.701  0.5617  0.2827  1.3880
 9404SOL    HW239142   1.660   4.261   1.686  0.5403 -1.4599 -0.6411
 9405SOL     OW39143   3.941   9.641   0.113 -0.1036 -0.4174  0.3095
 9405SOL    HW139144   4.023   9.651   0.168  1.6993 -1.1923 -2.1800
 9405SOL    HW239145   3.943   9.554   0.064 -1.4583  0.4204 -1.3068
 9406SOL     OW39146   0.452   4.039   4.149 -0.2819 -0.0323  0.5460
 9406SOL    HW139147   0.542   4.014   4.185 -0.5450  0.5093  1.5968
 9406SOL    HW239148   0.463   4.095   4.067  0.3561  0.8105  1.1943
 9407SOL     OW39149   4.824   7.018   2.053  0.4826 -0.3870  0.5210
 9407SOL    HW139150   4.813   6.967   1.968 -0.3544 -0.6443  0.7818
 9407SOL    HW239151   4.860   6.957   2.124 -1.4680 -0.8921  1.1083
 9408SOL     OW39152   0.152   3.380   4.613 -0.4103  0.6588 -0.4640
 9408SOL    HW139153   0.120   3.444   4.543 -0.8105  1.2778  0.2639
 9408SOL    HW239154   0.206   3.431   4.681 -0.0896  0.0822 -0.2898
 9409SOL     OW39155   8.234   4.640   0.617  0.0005  0.1182 -0.5113
 9409SOL    HW139156   8.182   4.724   0.608  1.5636  1.2939  1.0278
 9409SOL    HW239157   8.311   4.655   0.680  0.5253 -2.3426 -0.5159
 9410SOL     OW39158   8.460   2.782   4.249 -0.0976  0.0959  0.2556
 9410SOL    HW139159   8.363   2.780   4.223  0.7330  0.8591 -3.2510
 9410SOL    HW239160   8.512   2.724   4.186  1.7782  0.0484  1.8306
 9411SOL     OW39161   1.918   3.093   0.009 -0.4887 -0.0109  0.3503
 9411SOL    HW139162   1.910   2.996  -0.015  2.3629  0.3726 -2.3903
 9411SOL    HW239163   2.013   3.114   0.031 -0.6091  2.6480 -1.4754
 9412SOL     OW39164   9.411   0.200   1.690 -0.2455  0.3980 -0.6611
 9412SOL    HW139165   9.364   0.277   1.735 -0.8475  1.2379 -2.6825
 9412SOL    HW239166   9.459   0.146   1.759 -1.6919  1.2709  1.0842
 9413SOL     OW39167   2.398   2.989   0.700 -0.0361  0.1429  0.5019
 9413SOL    HW139168   2.422   2.962   0.607  0.7496 -1.5899  1.1870
 9413SOL    HW239169   2.360   2.911   0.749 -2.2993  1.5249  1.0619
 9414SOL     OW39170   4.623   8.833   4.242 -0.6997  0.0166 -0.1859
 9414SOL    HW139171   4.661   8.775   4.170 -0.1043 -2.1113  1.7850
 9414SOL    HW239172   4.696   8.885   4.287 -0.5828 -1.2228  1.0991
 9415SOL     OW39173   1.851   5.701   2.101  0.9049 -0.6370 -0.2362
 9415SOL    HW139174   1.899   5.656   2.025 -0.0657 -2.9912  0.5337
 9415SOL    HW239175   1.775   5.644   2.132  0.8504  0.6355  2.0690
 9416SOL     OW39176   5.537   0.731   0.662 -0.2175 -0.4558  0.8153
 9416SOL    HW139177   5.631   0.711   0.689  0.1790 -0.1988 -0.3511
 9416SOL    HW239178   5.489   0.773   0.739  0.9312  0.3985  1.0825
 9417SOL     OW39179   3.915   8.174   2.136 -0.4900  0.2321 -0.1015
 9417SOL    HW139180   3.977   8.248   2.110 -0.4574  0.1560 -0.2381
 9417SOL    HW239181   3.968   8.095   2.165 -0.5287  0.3828  0.3755
 9418SOL     OW39182   3.433   7.517   5.242  0.0515  0.0850  0.2115
 9418SOL    HW139183   3.415   7.426   5.278  1.3795 -1.0204 -1.7840
 9418SOL    HW239184   3.441   7.512   5.142 -1.8713  2.7397 -0.1379
 9419SOL     OW39185   2.065   3.564   4.386  0.2021  0.1986  0.0006
 9419SOL    HW139186   2.127   3.531   4.458  0.3497  0.7173  0.1125
 9419SOL    HW239187   2.079   3.509   4.303  0.9235  0.4066 -0.0225
 9420SOL     OW39188   8.834   4.832   3.702  0.0112 -0.0372 -0.7440
 9420SOL    HW139189   8.757   4.787   3.656 -0.6800 -0.4496  0.8007
 9420SOL    HW239190   8.823   4.931   3.694 -0.2591 -0.0991 -1.2038
 9421SOL     OW39191   5.077   7.920   3.286  0.1704  0.3921  0.7562
 9421SOL    HW139192   5.134   7.896   3.207 -1.6286  0.2281 -0.5189
 9421SOL    HW239193   5.055   7.838   3.338  0.9798  0.4426  1.1958
 9422SOL     OW39194   8.873   6.399   3.212  0.0966  0.3068  0.0788
 9422SOL    HW139195   8.844   6.305   3.200 -0.8072  0.2636  2.2630
 9422SOL    HW239196   8.970   6.402   3.234 -0.0407 -0.1744  0.7450
 9423SOL     OW39197   2.266   6.513   1.167 -0.2341  0.5418 -0.1536
 9423SOL    HW139198   2.243   6.509   1.264 -1.5158  2.2284 -0.3473
 9423SOL    HW239199   2.365   6.520   1.156 -0.1163  1.0714  1.0773
 9424SOL     OW39200   2.239   1.235   4.429 -0.1906  0.0294 -0.3504
 9424SOL    HW139201   2.155   1.288   4.420  0.2250  0.7837  0.1190
 9424SOL    HW239202   2.227   1.165   4.499 -0.0444  0.9251  0.5840
 9425SOL     OW39203   1.581   6.996   2.762 -0.4968  0.2418 -0.3539
 9425SOL    HW139204   1.664   7.038   2.725 -1.7086  0.9901 -2.2978
 9425SOL    HW239205   1.561   6.912   2.712 -0.3557 -0.4779  0.7904
 9426SOL     OW39206   1.368   1.672   0.197  0.0860 -0.7995  0.5023
 9426SOL    HW139207   1.439   1.702   0.261 -0.8902  3.2725 -0.1645
 9426SOL    HW239208   1.278   1.692   0.236 -0.5685 -0.9221 -0.9294
 9427SOL     OW39209   2.587   8.337   4.381  0.4079 -0.3450 -0.3884
 9427SOL    HW139210   2.686   8.343   4.372  0.4497 -0.1757  0.1621
 9427SOL    HW239211   2.551   8.423   4.417  0.0253 -0.2942 -0.8881
 9428SOL     OW39212   4.527   4.936   1.152 -0.2113 -0.2216 -0.0372
 9428SOL    HW139213   4.512   4.990   1.235 -0.2400  0.3164 -0.3888
 9428SOL    HW239214   4.542   4.997   1.075  1.5863 -0.7388 -0.1125
 9429SOL     OW39215   2.490   9.964   3.954  0.1401 -0.3291 -0.0420
 9429SOL    HW139216   2.465   9.879   3.907 -2.6961  0.7787 -0.6393
 9429SOL    HW239217   2.421   9.986   4.023 -0.6214  2.8420 -1.7079
 9430SOL     OW39218   3.473   9.860   1.259 -0.0927  0.0945 -0.8110
 9430SOL    HW139219   3.514   9.791   1.200 -0.9725 -1.7428  0.6907
 9430SOL    HW239220   3.374   9.863   1.244 -0.2915 -0.2036  0.3493
 9431SOL     OW39221   0.147   2.699   3.798 -0.4132 -0.1534 -0.0349
 9431SOL    HW139222   0.223   2.678   3.736  0.2136  0.2291  0.5852
 9431SOL    HW239223   0.164   2.787   3.842  0.2345 -1.3733  2.2695
 9432SOL     OW39224   1.290   6.708   1.512  0.6797 -0.2800 -0.5554
 9432SOL    HW139225   1.217   6.647   1.482  0.2310 -0.5850  1.1315
 9432SOL    HW239226   1.265   6.751   1.598  1.9304  0.6314 -0.6274
 9433SOL     OW39227   0.122   7.262   2.227 -0.5377 -0.0331 -0.1953
 9433SOL    HW139228   0.189   7.193   2.201  2.3353  2.2284  0.9508
 9433SOL    HW239229   0.108   7.326   2.151 -0.0873  0.4994  0.1686
 9434SOL     OW39230   8.969   4.429   0.549 -0.3656 -0.0287 -0.2411
 9434SOL    HW139231   9.043   4.441   0.616 -0.1345  0.2507 -0.5454
 9434SOL    HW239232   8.975   4.337   0.510  0.4286  0.3277 -0.9834
 9435SOL     OW39233   1.118   5.722   3.167  0.3613  0.2738 -0.5991
 9435SOL    HW139234   1.079   5.710   3.258  1.2175 -3.2938 -0.6301
 9435SOL    HW239235   1.183   5.798   3.167 -0.5906  1.0972  1.4253
 9436SOL     OW39236   2.551   7.817   3.883 -0.3685 -0.3500 -0.8797
 9436SOL    HW139237   2.644   7.832   3.851 -0.2013 -1.3417 -0.8663
 9436SOL    HW239238   2.516   7.901   3.926  1.0873 -0.4582  0.5549
 9437SOL     OW39239   8.525   1.301   5.416  0.7826  0.3016 -0.2838
 9437SOL    HW139240   8.547   1.230   5.482 -0.9513  0.1544  0.1688
 9437SOL    HW239241   8.609   1.337   5.376  1.7522 -0.9076  0.6274
 9438SOL     OW39242   0.267   3.800   2.922 -0.4995 -0.3446  0.0319
 9438SOL    HW139243   0.317   3.860   2.986 -1.6878  0.4870  0.1981
 9438SOL    HW239244   0.258   3.709   2.963  0.5932 -0.4154  0.1368
 9439SOL     OW39245   2.560   8.607   4.491  0.1066  0.0824 -0.1828
 9439SOL    HW139246   2.633   8.591   4.559 -0.7230 -3.2862  0.0106
 9439SOL    HW239247   2.472   8.614   4.538  0.0829  2.6120 -0.5491
 9440SOL     OW39248   2.427   8.619   4.204 -0.0648  0.4947 -0.1344
 9440SOL    HW139249   2.485   8.624   4.285 -0.5555  1.7903  0.1412
 9440SOL    HW239250   2.334   8.647   4.227 -0.4880 -0.2696 -0.8824
 9441SOL     OW39251   6.601   0.375   4.601  0.2483  0.1165 -0.1968
 9441SOL    HW139252   6.611   0.437   4.679 -1.1673  0.7661 -0.5228
 9441SOL    HW239253   6.567   0.287   4.633 -1.2717  0.6966 -0.1962
 9442SOL     OW39254   8.967   8.804   4.365 -0.7274  0.4797 -0.2287
 9442SOL    HW139255   8.909   8.723   4.359 -1.4198  0.9391  0.2160
 9442SOL    HW239256   9.038   8.789   4.434  0.8687 -0.8143 -2.1047
 9443SOL     OW39257   5.888   0.552   2.781  0.2799  0.3374  0.2234
 9443SOL    HW139258   5.987   0.560   2.783  0.3492 -0.6258  0.9567
 9443SOL    HW239259   5.859   0.477   2.841 -0.9162  0.9265  0.4122
 9444SOL     OW39260   2.997   5.474   1.557 -0.0024 -0.7875  0.0109
 9444SOL    HW139261   3.057   5.540   1.512 -0.9107 -0.7293 -1.1344
 9444SOL    HW239262   2.975   5.401   1.493  0.0622 -1.6061  0.9094
 9445SOL     OW39263   8.553   4.590   4.333  0.8501  0.0274  0.4731
 9445SOL    HW139264   8.575   4.529   4.257  0.6849  0.1327  0.3387
 9445SOL    HW239265   8.469   4.640   4.311  0.3331 -0.5605  1.0794
 9446SOL     OW39266   7.236   4.838   0.187  0.1312 -0.4474 -0.1459
 9446SOL    HW139267   7.215   4.889   0.103 -0.0637 -0.7877 -0.3047
 9446SOL    HW239268   7.324   4.791   0.175  0.0768 -0.5400 -0.1776
 9447SOL     OW39269   2.237   2.708   3.312  0.6329 -0.3702  0.4333
 9447SOL    HW139270   2.186   2.728   3.228  0.1695  1.4703  1.1249
 9447SOL    HW239271   2.302   2.634   3.295 -0.4229 -0.9505 -1.1722
 9448SOL     OW39272   5.184   3.212   2.088 -0.5147 -0.3666  0.1295
 9448SOL    HW139273   5.134   3.298   2.097 -2.5852 -1.5891  0.6405
 9448SOL    HW239274   5.210   3.179   2.178 -0.1231 -0.5023 -0.0317
 9449SOL     OW39275   7.850   1.361   1.182 -0.4976 -0.4013  0.2515
 9449SOL    HW139276   7.807   1.448   1.205 -4.3815 -2.3875  0.9630
 9449SOL    HW239277   7.859   1.304   1.264 -1.6872 -2.1633 -0.7910
 9450SOL     OW39278   3.464   9.494   1.496  0.7738  0.4942 -0.3201
 9450SOL    HW139279   3.466   9.592   1.477  2.4874  0.1707 -1.9575
 9450SOL    HW239280   3.417   9.446   1.423  0.2818  0.0434  0.2854
 9451SOL     OW39281   9.144   5.360   2.430  0.6380  0.2180  0.1317
 9451SOL    HW139282   9.124   5.276   2.380 -0.4816 -0.2823  1.4019
 9451SOL    HW239283   9.190   5.338   2.516  0.7898  0.9441  0.2370
 9452SOL     OW39284   9.815   9.105   3.432 -0.5029 -0.1795 -0.5765
 9452SOL    HW139285   9.838   9.013   3.465  0.6670  0.5062  0.5922
 9452SOL    HW239286   9.731   9.136   3.476 -1.0649 -0.8088 -1.2038
 9453SOL     OW39287   2.068   8.757   5.181  0.2910  0.1691  0.1301
 9453SOL    HW139288   2.050   8.752   5.082 -2.1044 -1.2812  0.6026
 9453SOL    HW239289   2.068   8.852   5.210  0.4533  0.5794 -1.1635
 9454SOL     OW39290   8.044   3.258   0.831  0.1473  0.5344  0.1978
 9454SOL    HW139291   7.977   3.331   0.818 -1.7049 -1.3820 -1.3565
 9454SOL    HW239292   8.076   3.259   0.925 -2.3594  1.2559  1.0818
 9455SOL     OW39293   1.027   2.753   2.143  0.2855 -0.5730  0.2708
 9455SOL    HW139294   0.993   2.698   2.066  0.9543  0.5203 -0.8207
 9455SOL    HW239295   0.957   2.820   2.170  0.1926 -0.7112  0.3729
 9456SOL     OW39296   7.784   5.896   2.494  0.7507  0.3744  0.3247
 9456SOL    HW139297   7.776   5.990   2.462  1.1576  0.0099 -0.8646
 9456SOL    HW239298   7.694   5.863   2.522  0.3686  0.6859 -0.5128
 9457SOL     OW39299   4.280   4.708   0.430 -0.1623  0.8291  0.6219
 9457SOL    HW139300   4.274   4.783   0.364  0.9838  0.6708  0.3334
 9457SOL    HW239301   4.191   4.662   0.436 -0.2823  0.8617 -0.7907
 9458SOL     OW39302   3.315   5.338   3.708 -0.7653 -0.1636  0.1302
 9458SOL    HW139303   3.216   5.354   3.703 -0.8500 -1.0766 -1.2974
 9458SOL    HW239304   3.333   5.242   3.725 -0.1040 -0.3440 -1.4986
 9459SOL     OW39305   4.592   2.606   1.403  0.5408 -0.3602 -0.4014
 9459SOL    HW139306   4.690   2.603   1.383  0.2564  0.1331 -1.9146
 9459SOL    HW239307   4.542   2.556   1.332 -0.3650  0.1032 -0.0971
 9460SOL     OW39308   8.625   6.542   2.624 -0.6067  0.4313  0.1882
 9460SOL    HW139309   8.538   6.588   2.643 -0.8171  0.0080  0.2621
 9460SOL    HW239310   8.681   6.541   2.707 -0.1147  1.5935 -0.1271
 9461SOL     OW39311   9.227   5.658   2.155  0.0098  0.4388  0.3225
 9461SOL    HW139312   9.281   5.695   2.230  0.0394 -0.7516  0.9066
 9461SOL    HW239313   9.130   5.656   2.181  0.2208 -1.5599  0.9994
 9462SOL     OW39314   2.851   2.479   2.902  0.2926  0.4067 -0.1085
 9462SOL    HW139315   2.858   2.385   2.938 -0.9225 -0.2993 -1.6678
 9462SOL    HW239316   2.918   2.490   2.828  1.5820  1.3068  1.1752
 9463SOL     OW39317   3.819   4.517   2.756  0.2551  0.3545 -0.2638
 9463SOL    HW139318   3.833   4.614   2.737 -0.3023  0.6251  0.6588
 9463SOL    HW239319   3.886   4.485   2.823  0.9831 -0.1178 -1.2000
 9464SOL     OW39320   2.767   5.432   0.336  0.2376 -0.3959 -0.6080
 9464SOL    HW139321   2.723   5.460   0.251 -0.6916 -0.3249 -0.1105
 9464SOL    HW239322   2.854   5.389   0.316  0.4133  0.3765 -1.5524
 9465SOL     OW39323   4.226   3.316   1.344 -0.3015  0.0465 -0.2390
 9465SOL    HW139324   4.265   3.228   1.317 -0.7799  0.5805 -2.8456
 9465SOL    HW239325   4.299   3.376   1.377  0.8559  0.3205 -3.1320
 9466SOL     OW39326   7.117   0.498   3.114 -0.1304  0.2318  0.7065
 9466SOL    HW139327   7.163   0.531   3.032  0.3645 -0.6709  0.6108
 9466SOL    HW239328   7.019   0.488   3.096  0.1468 -1.1013 -0.1681
 9467SOL     OW39329   8.280   7.093   2.503 -0.2257  0.8816  0.0552
 9467SOL    HW139330   8.297   6.995   2.490 -0.4549  0.9885 -1.0638
 9467SOL    HW239331   8.184   7.114   2.485 -0.0295  1.4234 -0.3883
 9468SOL     OW39332   9.560   1.364   4.019 -0.2474  0.2022  0.0734
 9468SOL    HW139333   9.616   1.447   4.015 -0.3404  0.2538 -0.2128
 9468SOL    HW239334   9.615   1.288   4.055  0.0929  0.1845 -0.4783
 9469SOL     OW39335   3.112   1.512   2.011  0.3798  0.3687 -0.7506
 9469SOL    HW139336   3.103   1.610   1.997  2.4314  0.7174  0.2848
 9469SOL    HW239337   3.208   1.488   2.024 -0.0288 -1.8530 -1.5023
 9470SOL     OW39338   9.705   1.601   0.044 -0.1877 -0.0132  0.1320
 9470SOL    HW139339   9.763   1.538  -0.008 -1.9163 -2.2275  0.8060
 9470SOL    HW239340   9.688   1.564   0.135  0.1141  2.2639  1.1600
 9471SOL     OW39341   0.521   0.038   0.303  1.0259 -0.7130 -0.7879
 9471SOL    HW139342   0.486   0.062   0.393 -0.8012 -0.5276 -1.5242
 9471SOL    HW239343   0.470   0.088   0.233  1.2425 -2.1723 -2.0176
 9472SOL     OW39344   1.274   1.162   1.117 -0.0693 -0.2011  0.0851
 9472SOL    HW139345   1.298   1.084   1.059 -0.8978  0.4338 -1.1254
 9472SOL    HW239346   1.289   1.247   1.067 -0.1267  0.3867  1.0494
 9473SOL     OW39347   9.146   5.751   5.322 -0.7062  0.0022  0.1587
 9473SOL    HW139348   9.232   5.795   5.296 -2.1162  2.0648 -1.2265
 9473SOL    HW239349   9.134   5.757   5.421  0.2123  0.7207  0.2307
 9474SOL     OW39350   7.700   1.291   5.363 -0.2617 -0.6424 -0.6901
 9474SOL    HW139351   7.713   1.245   5.274 -0.6187 -1.2950 -0.4088
 9474SOL    HW239352   7.788   1.296   5.410 -0.5486 -2.8518  0.1452
 9475SOL     OW39353   3.961   2.929   3.001  0.0800 -0.1432  0.1522
 9475SOL    HW139354   3.966   3.003   3.068 -0.8907  1.0083 -1.0039
 9475SOL    HW239355   3.866   2.920   2.968 -0.2675 -3.3841  1.8801
 9476SOL     OW39356   2.246   4.500   3.849  0.7083  0.8992  0.3314
 9476SOL    HW139357   2.262   4.584   3.901 -0.9525  1.1196  0.5147
 9476SOL    HW239358   2.208   4.523   3.759 -0.1225  0.3470  0.5283
 9477SOL     OW39359   3.059   8.204   0.028  0.2772  0.1011  0.0329
 9477SOL    HW139360   3.046   8.241   0.120 -2.9664 -0.6047 -0.0750
 9477SOL    HW239361   3.102   8.114   0.034  0.6055  0.3134  0.8368
 9478SOL     OW39362   8.076   9.692   1.260 -0.1175 -0.6198  0.5666
 9478SOL    HW139363   8.028   9.758   1.203 -0.4017 -0.0817  1.4251
 9478SOL    HW239364   8.174   9.711   1.258 -0.1464 -0.4896  0.4052
 9479SOL     OW39365   2.535   4.069   4.529 -0.4130  0.0713  0.0891
 9479SOL    HW139366   2.564   3.975   4.509  1.0920  0.1124  2.0208
 9479SOL    HW239367   2.435   4.074   4.526 -0.6198 -2.1340  2.1819
 9480SOL     OW39368   0.203   4.777   1.214 -0.0941  0.4301  0.2092
 9480SOL    HW139369   0.289   4.817   1.246 -0.3025  1.2349 -0.2363
 9480SOL    HW239370   0.145   4.849   1.176 -0.4543 -0.2983 -0.6291
 9481SOL     OW39371   0.395   1.398   1.420 -0.2746  0.3505 -0.5331
 9481SOL    HW139372   0.387   1.347   1.506  1.1665 -0.9001 -1.1023
 9481SOL    HW239373   0.429   1.490   1.439  0.5018 -0.0776  0.1985
 9482SOL     OW39374   7.340   2.302   3.387 -0.1401 -0.0196 -0.3526
 9482SOL    HW139375   7.355   2.399   3.369 -1.0948  0.1461 -0.2601
 9482SOL    HW239376   7.338   2.287   3.486 -1.6361  0.1297 -0.3521
 9483SOL     OW39377   9.577   6.738   0.929  0.4474  0.4653  0.1204
 9483SOL    HW139378   9.567   6.800   1.007  1.1125 -0.0182  0.5989
 9483SOL    HW239379   9.622   6.654   0.959  1.3216  0.5492 -0.9140
 9484SOL     OW39380   9.497   1.540   1.513 -0.2741  0.1485  0.1325
 9484SOL    HW139381   9.416   1.591   1.543 -0.1047  0.0372  0.7880
 9484SOL    HW239382   9.569   1.549   1.582  0.1277 -0.0927 -0.2586
 9485SOL     OW39383   3.778   3.345   4.015  0.0019 -0.0108 -0.0388
 9485SOL    HW139384   3.851   3.346   4.084  1.6391  1.5080 -1.7598
 9485SOL    HW239385   3.740   3.437   4.005 -0.7801 -0.3909 -0.6255
 9486SOL     OW39386   4.862   4.145   2.285  0.4472  0.3125  0.2079
 9486SOL    HW139387   4.940   4.187   2.333  0.7916 -1.1796  0.9715
 9486SOL    HW239388   4.882   4.049   2.268 -0.5427  0.3378 -1.1039
 9487SOL     OW39389   2.269   5.967   0.722  0.4142 -0.5992  0.4484
 9487SOL    HW139390   2.212   5.959   0.641  0.4251 -0.0052  0.3835
 9487SOL    HW239391   2.362   5.995   0.696  0.6383 -1.1901  0.5903
 9488SOL     OW39392   8.392   4.616   1.125  0.4947  0.5616  0.6958
 9488SOL    HW139393   8.314   4.598   1.184  0.4490 -1.1646  0.1297
 9488SOL    HW239394   8.470   4.560   1.153  1.0123  1.0288  0.2151
 9489SOL     OW39395   2.026   2.721   2.596  0.2845  0.2413  0.1426
 9489SOL    HW139396   2.039   2.743   2.693  2.0452  0.1659 -0.0485
 9489SOL    HW239397   1.939   2.757   2.564 -1.6656 -2.2270  2.4801
 9490SOL     OW39398   5.191   3.870   1.589 -0.5655 -0.2307 -0.0979
 9490SOL    HW139399   5.154   3.957   1.557  1.3294  0.2535 -1.0545
 9490SOL    HW239400   5.180   3.800   1.518 -0.0323 -0.1903 -0.2233
 9491SOL     OW39401   9.181   5.790   4.310  0.0226 -0.0962  0.1690
 9491SOL    HW139402   9.240   5.710   4.297  2.7854  1.8854  0.1170
 9491SOL    HW239403   9.223   5.852   4.375 -2.1387  1.2940  0.2662
 9492SOL     OW39404   3.129   3.194   5.220  0.3558  0.5236 -0.2740
 9492SOL    HW139405   3.095   3.140   5.143 -1.2676 -1.0920  1.4990
 9492SOL    HW239406   3.221   3.163   5.243  0.5342  0.4539 -1.0601
 9493SOL     OW39407   4.791   5.192   0.367  0.1875  0.0322  0.8464
 9493SOL    HW139408   4.743   5.243   0.296 -0.4261 -1.7520 -0.0471
 9493SOL    HW239409   4.887   5.221   0.370  0.6344 -1.0388 -1.8681
 9494SOL     OW39410   7.927   7.291   3.266  0.5092  0.0628 -0.2717
 9494SOL    HW139411   7.958   7.217   3.326  0.7730 -0.5939 -1.2174
 9494SOL    HW239412   7.914   7.256   3.173 -1.6613  0.6531 -0.2245
 9495SOL     OW39413   2.586   2.359   1.392 -0.0285  0.1184  0.0023
 9495SOL    HW139414   2.603   2.413   1.474  1.3317 -0.8819  0.3958
 9495SOL    HW239415   2.525   2.409   1.330  4.0323  3.6947 -1.2865
 9496SOL     OW39416   8.306   0.181   4.245  0.6192  0.3860  0.1589
 9496SOL    HW139417   8.216   0.153   4.211  0.5882  0.7471 -0.0516
 9496SOL    HW239418   8.337   0.115   4.313  0.0506  0.4315  0.4660
 9497SOL     OW39419   1.503   7.455   4.015 -0.4444 -0.2328 -0.1223
 9497SOL    HW139420   1.408   7.482   3.995  0.0620 -0.2655 -2.7151
 9497SOL    HW239421   1.520   7.364   3.978  0.9634  0.3035 -0.8187
 9498SOL     OW39422   7.661   9.431   2.464  0.2030 -0.1993 -0.0127
 9498SOL    HW139423   7.736   9.442   2.529 -0.0437  1.5720  0.0078
 9498SOL    HW239424   7.612   9.518   2.455  0.9128 -0.0727 -3.3887
 9499SOL     OW39425   3.506   8.037   3.895  0.2584  0.3049 -0.0366
 9499SOL    HW139426   3.545   8.126   3.919  3.1852 -0.6551 -1.0270
 9499SOL    HW239427   3.459   8.043   3.807  0.8254  0.7649 -0.3079
 9500SOL     OW39428   0.842   3.022   1.706 -0.0021  0.5168 -0.1511
 9500SOL    HW139429   0.864   3.045   1.801  1.5892  0.6412 -0.5352
 9500SOL    HW239430   0.919   2.972   1.666 -0.8070  0.1765 -1.2751
 9501SOL     OW39431   0.373   4.111   2.077 -0.1812 -0.0840 -0.0824
 9501SOL    HW139432   0.332   4.019   2.074  1.4954 -0.8215 -0.8342
 9501SOL    HW239433   0.311   4.173   2.126 -1.8061 -1.3646 -0.4556
 9502SOL     OW39434   9.341   5.297   3.965  0.6963  0.0037 -0.3569
 9502SOL    HW139435   9.255   5.344   3.987 -0.4856 -1.5253 -1.6453
 9502SOL    HW239436   9.406   5.363   3.928 -1.0986  0.5762 -2.5740
 9503SOL     OW39437   7.002   9.843   3.644  0.4599 -0.3406 -0.0444
 9503SOL    HW139438   6.934   9.900   3.690  0.8692 -0.5594  0.8563
 9503SOL    HW239439   7.065   9.902   3.592  0.8430  0.0373  0.8324
 9504SOL     OW39440   7.848   1.923   3.114  0.0919  0.2293 -0.2197
 9504SOL    HW139441   7.835   1.935   3.015  0.3367 -0.8808 -0.3961
 9504SOL    HW239442   7.915   1.851   3.130 -0.9348 -0.5312  0.7662
 9505SOL     OW39443   0.961   4.086   1.289  0.2662 -0.2080  0.0053
 9505SOL    HW139444   0.904   4.095   1.371 -0.3318  0.4072 -0.4633
 9505SOL    HW239445   1.009   3.999   1.290 -2.4282 -1.7530 -0.6660
 9506SOL     OW39446   1.524   2.619   3.998 -0.3253 -0.1503 -0.7567
 9506SOL    HW139447   1.543   2.666   4.084  0.2000  1.3875 -1.6813
 9506SOL    HW239448   1.492   2.526   4.016  2.1876 -0.7086  1.0417
 9507SOL     OW39449   5.690   1.678   2.096 -0.4789  0.5704  0.2944
 9507SOL    HW139450   5.741   1.668   2.011  0.4451 -1.1071  1.0187
 9507SOL    HW239451   5.603   1.629   2.089 -0.8082  1.1921  0.0035
 9508SOL     OW39452   1.853   0.166   0.015  0.0756  0.1738 -0.3629
 9508SOL    HW139453   1.939   0.213   0.034 -0.6733  1.2424  0.4227
 9508SOL    HW239454   1.786   0.231  -0.020 -0.8551 -0.3627  0.3865
 9509SOL     OW39455   9.807   4.285   2.903 -0.3740  0.3457 -0.1263
 9509SOL    HW139456   9.793   4.244   2.994 -0.4953  0.2047 -0.2086
 9509SOL    HW239457   9.734   4.255   2.842  0.1612 -0.2151 -0.4966
 9510SOL     OW39458   2.413   1.489   0.473 -0.0591  0.5942  0.4507
 9510SOL    HW139459   2.428   1.392   0.492  0.9308  0.4549 -0.9687
 9510SOL    HW239460   2.396   1.538   0.559 -0.2315 -0.7741  1.2015
 9511SOL     OW39461   5.267   3.551   0.287 -0.6956  0.4296  0.2459
 9511SOL    HW139462   5.194   3.498   0.330 -1.0987  1.3841  0.7537
 9511SOL    HW239463   5.266   3.644   0.323 -0.2370  0.8890 -0.9127
 9512SOL     OW39464   8.068   7.720   3.849 -0.1839 -0.0378 -0.3568
 9512SOL    HW139465   8.138   7.659   3.887 -1.6549 -0.6563  1.4328
 9512SOL    HW239466   8.108   7.774   3.775  2.1679 -0.4324  0.5669
 9513SOL     OW39467   7.889   6.083   2.745  0.4320  0.1202  0.1539
 9513SOL    HW139468   7.976   6.107   2.788 -0.1072 -0.1151  1.3846
 9513SOL    HW239469   7.897   5.993   2.703  1.4914  1.0721 -1.7721
 9514SOL     OW39470   8.517   5.555   1.685  0.0137  0.3751 -0.1658
 9514SOL    HW139471   8.599   5.504   1.710 -0.1044 -0.0462 -0.6148
 9514SOL    HW239472   8.512   5.563   1.585 -0.2108  0.8668 -0.1150
 9515SOL     OW39473   4.376   2.822   2.815  0.4528  0.0475 -0.0970
 9515SOL    HW139474   4.291   2.769   2.820  1.7149 -2.0865 -0.6466
 9515SOL    HW239475   4.420   2.824   2.905  1.2316 -1.2711 -0.4357
 9516SOL     OW39476   3.561   6.894   4.309  0.2226 -0.1587  0.0886
 9516SOL    HW139477   3.475   6.859   4.273  1.4501 -0.8242 -2.2904
 9516SOL    HW239478   3.632   6.824   4.302  0.9970  0.4095  1.9330
 9517SOL     OW39479   4.036   5.961   1.488  0.1375 -0.1915 -0.6712
 9517SOL    HW139480   3.937   5.967   1.495  0.0786 -1.3712 -0.4335
 9517SOL    HW239481   4.067   6.005   1.404 -0.4373  1.5579  0.0038
 9518SOL     OW39482   4.783   0.512   4.685  0.2994  0.1282  0.1686
 9518SOL    HW139483   4.735   0.587   4.730 -0.3891 -0.1850 -0.0274
 9518SOL    HW239484   4.784   0.432   4.745  3.3093  1.0732  1.4400
 9519SOL     OW39485   1.169   7.210   5.169 -0.9643  0.6789  0.3882
 9519SOL    HW139486   1.081   7.173   5.139 -0.4823 -1.8052  1.8635
 9519SOL    HW239487   1.175   7.204   5.269  0.9830  0.5107  0.2880
 9520SOL     OW39488   9.630   7.221   4.654 -0.3459 -0.3916 -0.6686
 9520SOL    HW139489   9.619   7.296   4.588  3.2148  0.6357 -0.1968
 9520SOL    HW239490   9.697   7.155   4.619 -0.6421 -1.3906  0.6173
 9521SOL     OW39491   4.611   8.165   3.373 -0.2741  0.4224  0.0656
 9521SOL    HW139492   4.619   8.076   3.327 -0.8904  0.0382  0.6871
 9521SOL    HW239493   4.585   8.235   3.306 -0.2815  0.0432 -0.3352
 9522SOL     OW39494   2.775   9.421   3.744 -0.5044 -0.1994  0.5345
 9522SOL    HW139495   2.774   9.358   3.822 -0.2950  1.2174  1.7052
 9522SOL    HW239496   2.768   9.515   3.777  2.6673  0.6203 -0.9734
 9523SOL     OW39497   8.344   8.328   1.022  0.0110 -0.0389 -0.0487
 9523SOL    HW139498   8.295   8.242   1.033  0.1683 -0.1115  0.0953
 9523SOL    HW239499   8.424   8.314   0.964  2.0303 -0.7960  2.7684
 9524SOL     OW39500   1.414   2.426   2.617 -0.3231  0.3699 -0.0457
 9524SOL    HW139501   1.476   2.500   2.644  1.7932 -1.3903  0.1163
 9524SOL    HW239502   1.321   2.461   2.610  0.5030  2.8540  0.8038
 9525SOL     OW39503   1.267   2.647   2.092  0.4429  0.1412  0.4723
 9525SOL    HW139504   1.179   2.690   2.113 -0.4482 -2.5526  2.6683
 9525SOL    HW239505   1.254   2.579   2.020  0.8627  0.2072  0.3342
 9526SOL     OW39506   4.406   4.204   1.865  0.2516 -0.3042  0.0073
 9526SOL    HW139507   4.359   4.291   1.877  0.9798  0.0898  0.0155
 9526SOL    HW239508   4.339   4.130   1.857 -0.3592  0.2247  0.2568
 9527SOL     OW39509   0.630   3.855   0.133  0.3672 -0.0980  0.6689
 9527SOL    HW139510   0.705   3.888   0.075  0.5051 -0.3544  0.6993
 9527SOL    HW239511   0.662   3.847   0.227 -0.2045  1.4826  1.0061
 9528SOL     OW39512   8.506   2.223   0.700  0.0354 -0.0422  0.4404
 9528SOL    HW139513   8.536   2.297   0.640 -1.1154  0.1108  0.0535
 9528SOL    HW239514   8.586   2.173   0.733  0.6488 -0.3669 -1.5057
 9529SOL     OW39515   2.770   3.333   0.833 -0.1182 -0.0129 -0.1087
 9529SOL    HW139516   2.791   3.413   0.890 -1.5390  0.7765 -0.6780
 9529SOL    HW239517   2.845   3.317   0.769  0.3283  0.6546  0.2403
 9530SOL     OW39518   6.927   7.645   4.224  0.3578 -0.1880 -0.6187
 9530SOL    HW139519   6.852   7.641   4.158  0.7825  0.0517 -1.1180
 9530SOL    HW239520   6.980   7.561   4.220  0.3567 -0.1922 -0.5444
 9531SOL     OW39521   3.829   8.944   0.693  0.0261 -0.8764  0.4717
 9531SOL    HW139522   3.808   8.846   0.703  0.0605 -0.8523  0.7825
 9531SOL    HW239523   3.811   8.991   0.779 -0.4539 -0.5165  0.1729
 9532SOL     OW39524   1.105   1.149   2.065 -0.5500 -0.2156 -0.3280
 9532SOL    HW139525   1.097   1.091   1.985 -1.3053 -0.0739 -0.3613
 9532SOL    HW239526   1.036   1.222   2.061  0.3850  0.6893 -0.2952
 9533SOL     OW39527   8.842   1.953   4.512 -0.1291 -0.0623 -0.2375
 9533SOL    HW139528   8.864   1.994   4.423 -0.0609 -1.3170 -0.8061
 9533SOL    HW239529   8.752   1.985   4.541 -0.4341 -0.1431 -1.0708
 9534SOL     OW39530   7.697   7.226   3.989 -0.3238  0.3442 -0.0405
 9534SOL    HW139531   7.787   7.266   4.002 -0.1912 -0.1833  0.7098
 9534SOL    HW239532   7.681   7.212   3.891  0.3450  0.5826 -0.1871
 9535SOL     OW39533   8.318   8.347   2.128  0.2294 -0.0754  0.1278
 9535SOL    HW139534   8.399   8.288   2.134 -1.4870 -2.7604 -1.9410
 9535SOL    HW239535   8.242   8.303   2.175 -1.3588 -0.0169 -2.3129
 9536SOL     OW39536   7.603   1.000   0.836  0.2408  0.8535 -0.2504
 9536SOL    HW139537   7.664   0.931   0.877 -0.3752 -1.1304 -2.5424
 9536SOL    HW239538   7.570   1.062   0.907  2.2564 -0.1062  1.5831
 9537SOL     OW39539   9.311   6.741   0.590  0.0043 -0.0469 -0.3095
 9537SOL    HW139540   9.353   6.686   0.518 -1.7985 -2.0669  0.1315
 9537SOL    HW239541   9.272   6.824   0.551 -1.3577 -1.3449 -1.7827
 9538SOL     OW39542   5.165   5.427   0.557 -0.3475 -0.0657  0.6569
 9538SOL    HW139543   5.243   5.489   0.565  0.7020 -1.3342  0.5897
 9538SOL    HW239544   5.082   5.473   0.587  0.4383  1.2981  0.7857
 9539SOL     OW39545   5.202   1.609   3.950 -0.0314  0.1666 -0.8510
 9539SOL    HW139546   5.230   1.673   4.021 -0.6114 -0.1021 -0.3783
 9539SOL    HW239547   5.253   1.628   3.866  1.4195 -0.1837 -0.0704
 9540SOL     OW39548   4.715   3.915   5.027  0.1168 -0.0211  0.8135
 9540SOL    HW139549   4.632   3.956   5.065 -1.1536 -2.2251  0.5062
 9540SOL    HW239550   4.784   3.906   5.099 -0.1130  1.3121  1.2007
 9541SOL     OW39551   7.627   9.895   0.185  0.1349  0.3702  0.3312
 9541SOL    HW139552   7.629   9.845   0.271  1.3206  0.0039  0.0963
 9541SOL    HW239553   7.571   9.846   0.118 -0.0023  0.1755  0.5902
 9542SOL     OW39554   9.618   8.136   2.628 -0.3254  0.1621  0.4932
 9542SOL    HW139555   9.553   8.063   2.646 -1.9276  1.2131 -0.8238
 9542SOL    HW239556   9.588   8.188   2.547  2.2694  0.5284 -0.2914
 9543SOL     OW39557   0.307   2.444   5.232  0.3787  0.2272  0.2922
 9543SOL    HW139558   0.286   2.537   5.262 -1.2349  0.2492 -0.8091
 9543SOL    HW239559   0.330   2.445   5.134 -0.8545 -0.6710 -0.0277
 9544SOL     OW39560   5.521   7.742   2.740  0.4765 -0.3905 -0.4614
 9544SOL    HW139561   5.438   7.712   2.693  0.7117  1.0646 -1.8669
 9544SOL    HW239562   5.597   7.744   2.675  1.5507 -1.4102  0.7389
 9545SOL     OW39563   4.143   1.629   4.953  0.3793 -0.4206 -0.4399
 9545SOL    HW139564   4.107   1.700   4.893 -2.4049 -0.6172  0.9292
 9545SOL    HW239565   4.115   1.539   4.920 -2.2068 -0.4767  1.7185
 9546SOL     OW39566   7.471   6.986   3.831  0.2051  0.2286  0.7172
 9546SOL    HW139567   7.399   6.916   3.830 -0.8349  1.3019  0.0066
 9546SOL    HW239568   7.546   6.956   3.772 -0.6799  0.1583 -0.4055
 9547SOL     OW39569   7.103   1.183   1.693  0.0199 -0.2167 -0.1772
 9547SOL    HW139570   7.097   1.229   1.604 -1.7841  0.3479  0.2029
 9547SOL    HW239571   7.082   1.085   1.681  0.8663 -0.3530 -0.5376
 9548SOL     OW39572   4.887   8.026   2.140 -0.3221  0.0878 -0.2627
 9548SOL    HW139573   4.833   7.989   2.064 -0.8988  1.8559 -0.7340
 9548SOL    HW239574   4.826   8.055   2.214  0.1097  0.2496  0.0330
 9549SOL     OW39575   9.808   0.877   4.937  0.1292 -0.6184  0.0591
 9549SOL    HW139576   9.734   0.818   4.906  0.9845 -1.1596 -0.9559
 9549SOL    HW239577   9.873   0.824   4.991 -0.1683 -0.1637  0.8717
 9550SOL     OW39578   6.508   4.586   5.627 -0.2781 -0.1023  0.5322
 9550SOL    HW139579   6.551   4.554   5.712 -2.9542 -0.3626  1.8614
 9550SOL    HW239580   6.523   4.519   5.555 -0.2976 -1.2195  1.5474
 9551SOL     OW39581   7.300   0.593   4.610 -0.1017 -0.4419  0.7222
 9551SOL    HW139582   7.393   0.603   4.573  0.0137 -0.9066  0.8909
 9551SOL    HW239583   7.265   0.683   4.636 -0.0390 -0.1482 -0.1665
 9552SOL     OW39584   5.712   9.712   3.070 -0.1567 -0.4939 -0.2664
 9552SOL    HW139585   5.811   9.720   3.054  0.2628 -1.7468  1.5127
 9552SOL    HW239586   5.696   9.676   3.162 -2.3153  0.8128 -0.0888
 9553SOL     OW39587   5.067   7.831   1.934 -0.0677 -0.0322  0.4609
 9553SOL    HW139588   5.088   7.772   1.856 -1.4363  0.0308  0.0462
 9553SOL    HW239589   4.976   7.810   1.969 -0.2049  1.2065  0.8803
 9554SOL     OW39590   2.187   3.838   2.422  0.3468 -0.0813 -0.2139
 9554SOL    HW139591   2.148   3.750   2.394 -0.0908  0.2663 -0.6945
 9554SOL    HW239592   2.121   3.911   2.405  0.8181  0.3809 -0.0805
 9555SOL     OW39593   1.786   4.149   2.195 -0.1167 -0.3404  0.5870
 9555SOL    HW139594   1.776   4.188   2.103  1.7499 -0.3937  0.3226
 9555SOL    HW239595   1.795   4.050   2.188  1.8094 -0.1902  0.6441
 9556SOL     OW39596   1.011   8.766   0.980 -0.4178 -0.0891 -0.5469
 9556SOL    HW139597   1.073   8.734   1.051  1.2882  0.1319 -1.8859
 9556SOL    HW239598   1.001   8.695   0.910 -1.5399 -0.0493 -0.4307
 9557SOL     OW39599   0.953   6.817   2.261  0.1626  0.2471 -0.1242
 9557SOL    HW139600   0.905   6.757   2.325  0.2759  1.4571  1.1254
 9557SOL    HW239601   1.031   6.858   2.307 -0.1070  1.6059 -0.8527
 9558SOL     OW39602   0.457   6.464   0.968 -0.0858 -0.1225 -0.1916
 9558SOL    HW139603   0.530   6.514   0.922  1.1682 -0.6821  1.1280
 9558SOL    HW239604   0.426   6.518   1.047  2.5015 -2.0958  2.3034
 9559SOL     OW39605   3.164   0.765   2.918  0.3895  0.7522 -0.7293
 9559SOL    HW139606   3.177   0.828   2.995  0.0258 -0.7296  0.5818
 9559SOL    HW239607   3.072   0.726   2.923  0.6753 -0.0053 -1.4324
 9560SOL     OW39608   1.726   7.802   4.807  0.2986 -0.2260  0.2186
 9560SOL    HW139609   1.728   7.871   4.879  1.1306  0.5461 -0.5298
 9560SOL    HW239610   1.728   7.711   4.848 -0.7885  0.1820  1.2088
 9561SOL     OW39611   5.631   8.846   2.159  0.1396  0.2941  0.3848
 9561SOL    HW139612   5.623   8.934   2.114  1.5709  0.1162 -0.2501
 9561SOL    HW239613   5.551   8.830   2.217 -1.4028  0.8086 -1.5708
 9562SOL     OW39614   0.154   5.799   0.542  0.2967  0.5656 -0.7098
 9562SOL    HW139615   0.188   5.879   0.492 -1.7998  1.1200 -1.3117
 9562SOL    HW239616   0.078   5.827   0.601 -0.8706 -1.0864 -1.3891
 9563SOL     OW39617   7.357   9.582   3.940 -0.2693 -0.5945 -0.4593
 9563SOL    HW139618   7.362   9.565   3.841  0.6351 -2.3634 -0.1279
 9563SOL    HW239619   7.443   9.624   3.970 -0.9500  0.9348 -0.5811
 9564SOL     OW39620   5.908   8.986   2.630 -0.2939 -0.2291 -0.3722
 9564SOL    HW139621   5.839   9.004   2.700  0.4207  0.4702  0.1721
 9564SOL    HW239622   5.997   9.019   2.662  0.0695 -0.0306 -1.5504
 9565SOL     OW39623   4.651   7.425   3.321  0.1552  0.0193 -0.1681
 9565SOL    HW139624   4.707   7.459   3.245  0.9506  0.3630  0.5592
 9565SOL    HW239625   4.682   7.334   3.348  0.3766  0.2128  0.2412
 9566SOL     OW39626   3.259   6.763   4.357  0.0056  0.0379 -0.2905
 9566SOL    HW139627   3.184   6.829   4.358 -1.2213 -1.2816 -1.7804
 9566SOL    HW239628   3.262   6.715   4.444 -0.1288  0.9088  0.2029
 9567SOL     OW39629   8.723   3.625   3.909  0.1880  0.2026  0.0923
 9567SOL    HW139630   8.795   3.693   3.896  1.0089 -0.4581  1.0441
 9567SOL    HW239631   8.670   3.615   3.825  1.6501  0.2131 -0.8380
 9568SOL     OW39632   7.661   0.128   0.602  0.3839 -0.5102 -0.7643
 9568SOL    HW139633   7.752   0.142   0.564  0.8691 -1.3293  0.0514
 9568SOL    HW239634   7.646   0.192   0.678 -0.2599  0.5532 -1.7644
 9569SOL     OW39635   3.737   9.338   4.875  0.1503  0.2233 -0.0979
 9569SOL    HW139636   3.753   9.265   4.941 -1.7284 -0.4644 -0.3792
 9569SOL    HW239637   3.788   9.319   4.791  1.1329  0.1922  0.4975
 9570SOL     OW39638   3.582   9.179   3.190  0.7106  0.3408 -0.1689
 9570SOL    HW139639   3.670   9.134   3.203  1.0590  0.5951 -1.5430
 9570SOL    HW239640   3.563   9.239   3.268  0.6647 -1.4670  1.2356
 9571SOL     OW39641   2.117   2.987   2.118 -0.5866 -0.2986  0.1804
 9571SOL    HW139642   2.129   3.048   2.197  1.5303  0.0719 -0.4085
 9571SOL    HW239643   2.119   2.892   2.149 -0.1606 -0.1450  0.6255
 9572SOL     OW39644   7.869   0.240   1.771 -0.0792  0.4622 -0.0132
 9572SOL    HW139645   7.814   0.164   1.807  0.1457  0.1059 -0.4081
 9572SOL    HW239646   7.965   0.212   1.766  0.3185  1.4723  1.7381
 9573SOL     OW39647   0.239   1.235   4.257 -0.2524 -0.2396 -0.4485
 9573SOL    HW139648   0.288   1.169   4.201  0.6717  0.1921 -0.1682
 9573SOL    HW239649   0.304   1.285   4.314 -1.0842 -0.0479  0.3501
 9574SOL     OW39650   4.902   9.510   4.066  0.3700 -0.7202 -0.4562
 9574SOL    HW139651   4.805   9.535   4.069  0.4676 -0.3918 -0.0104
 9574SOL    HW239652   4.930   9.500   3.971  0.5781  1.8973 -0.7013
 9575SOL     OW39653   3.461   8.713   4.573 -0.2930  0.8588  0.4628
 9575SOL    HW139654   3.422   8.778   4.507  2.2038  0.0212 -1.9436
 9575SOL    HW239655   3.550   8.747   4.605 -0.7078  0.4282  2.1397
 9576SOL     OW39656   8.485   5.250   3.495  0.0192 -0.3187  0.3928
 9576SOL    HW139657   8.477   5.316   3.570  2.4320  0.9263 -0.3818
 9576SOL    HW239658   8.497   5.158   3.533 -0.1479  0.1018  1.5036
 9577SOL     OW39659   2.417   8.696   0.396 -0.2112 -0.0324  0.4319
 9577SOL    HW139660   2.514   8.698   0.373 -0.1572 -1.3861  0.4852
 9577SOL    HW239661   2.366   8.749   0.329  0.8778  3.2066  2.0923
 9578SOL     OW39662   1.131   6.540   1.328  0.3134 -0.0205 -0.1591
 9578SOL    HW139663   1.202   6.472   1.308  1.1407  0.9326 -0.5247
 9578SOL    HW239664   1.051   6.494   1.366  0.5644 -1.2942 -1.1117
 9579SOL     OW39665   2.921   9.930   0.484 -0.0156  0.1536  0.4976
 9579SOL    HW139666   2.930   9.856   0.418 -1.4749 -0.7171  1.2348
 9579SOL    HW239667   3.000   9.990   0.478  2.0757 -2.4392  1.0774
 9580SOL     OW39668   5.598   8.261   2.058  0.0201 -0.7482 -0.1562
 9580SOL    HW139669   5.648   8.191   2.110 -3.3730 -1.8047  1.8045
 9580SOL    HW239670   5.568   8.334   2.120  0.8265  0.9326 -1.6715
 9581SOL     OW39671   6.626   0.687   3.393  0.7274  0.3408 -0.0803
 9581SOL    HW139672   6.712   0.635   3.390  0.0849 -0.6759 -1.3694
 9581SOL    HW239673   6.564   0.644   3.457  0.2253 -0.4624 -1.0880
 9582SOL     OW39674   0.681   6.035   2.711 -0.1247 -0.4566  0.2413
 9582SOL    HW139675   0.744   6.113   2.723  0.9035 -1.2828  0.3028
 9582SOL    HW239676   0.615   6.057   2.639 -1.0046  1.1920  1.5067
 9583SOL     OW39677   2.426   7.664   3.679 -0.2248  0.0284 -0.1357
 9583SOL    HW139678   2.420   7.718   3.595  3.2393 -0.0624 -0.5251
 9583SOL    HW239679   2.476   7.716   3.748 -0.6218 -1.0043  0.9442
 9584SOL     OW39680   3.246   1.608   0.906  0.3069 -1.0207 -0.3267
 9584SOL    HW139681   3.183   1.554   0.852 -1.3882  0.4957  0.1074
 9584SOL    HW239682   3.323   1.638   0.849  0.3751 -2.4118 -0.9765
 9585SOL     OW39683   9.283   4.070   4.895 -0.1404 -0.3342  0.5739
 9585SOL    HW139684   9.325   4.150   4.939 -0.8879 -0.1471  0.9546
 9585SOL    HW239685   9.215   4.030   4.956  0.7014 -1.6768  0.6570
 9586SOL     OW39686   0.049   2.424   5.422  0.6160 -0.4181 -0.2658
 9586SOL    HW139687   0.140   2.464   5.441  1.1453 -1.7403  0.0210
 9586SOL    HW239688   0.059   2.346   5.361 -0.2633 -1.0103  0.3484
 9587SOL     OW39689   3.390   9.550   2.946 -0.1951 -0.7048  0.1901
 9587SOL    HW139690   3.307   9.591   2.907 -0.6782 -1.3831  0.5136
 9587SOL    HW239691   3.431   9.614   3.011  1.2415  0.9350 -2.2072
 9588SOL     OW39692   1.654   2.856   3.168  0.0756 -0.0066 -0.5822
 9588SOL    HW139693   1.748   2.834   3.193  0.7249 -0.8282 -3.5374
 9588SOL    HW239694   1.646   2.954   3.151  0.3751  0.0781 -0.2214
 9589SOL     OW39695   9.995   8.282   4.307  0.2467 -0.2361 -0.5095
 9589SOL    HW139696  10.005   8.381   4.305 -0.3960 -0.0101  2.9307
 9589SOL    HW239697  10.051   8.244   4.382 -1.0470 -2.2161 -0.4928
 9590SOL     OW39698   0.039   0.661   2.365  0.0507  0.3815  0.1644
 9590SOL    HW139699  -0.056   0.671   2.394  0.3138  0.4165  1.0202
 9590SOL    HW239700   0.059   0.727   2.293 -0.3788  0.8317  0.4603
 9591SOL     OW39701   5.456   0.051   1.562 -0.2410 -0.6999 -0.1921
 9591SOL    HW139702   5.421   0.037   1.654 -0.5432  0.5075 -0.1160
 9591SOL    HW239703   5.384   0.030   1.495 -0.1087 -1.3037 -0.1466
 9592SOL     OW39704   4.490   8.450   2.656 -0.2440  0.3056 -0.2814
 9592SOL    HW139705   4.445   8.361   2.650  0.2531  0.1024 -1.0339
 9592SOL    HW239706   4.519   8.479   2.565 -0.3473  1.2119 -0.0319
 9593SOL     OW39707   1.729   0.686   5.006 -0.1310 -0.0561  0.2788
 9593SOL    HW139708   1.640   0.669   5.047 -0.8164  1.9622 -0.2959
 9593SOL    HW239709   1.729   0.652   4.912 -0.7864  1.2016 -0.1848
 9594SOL     OW39710   1.287   7.785   1.854 -0.1775 -0.5544  0.3818
 9594SOL    HW139711   1.270   7.695   1.895 -0.4005 -0.9394 -0.5541
 9594SOL    HW239712   1.249   7.787   1.762 -0.0757  0.4683  0.3608
 9595SOL     OW39713   0.797   3.113   2.598 -0.2722  0.1144 -0.1784
 9595SOL    HW139714   0.876   3.160   2.559  0.2842  0.5547  1.4600
 9595SOL    HW239715   0.825   3.060   2.678 -1.9036  1.6107  1.4176
 9596SOL     OW39716   7.808   7.556   1.819  0.0832  0.5289  0.2917
 9596SOL    HW139717   7.752   7.489   1.866  0.2146 -0.0934 -0.4378
 9596SOL    HW239718   7.751   7.634   1.793  0.0257  0.9181  1.5410
 9597SOL     OW39719   8.739   3.293   1.945  0.1382  0.3853  0.1557
 9597SOL    HW139720   8.779   3.270   2.034  0.0435  0.7020  0.2815
 9597SOL    HW239721   8.811   3.315   1.881  0.1758  0.7151  0.3136
 9598SOL     OW39722   2.037   4.685   2.991 -0.0865  0.5961 -0.3920
 9598SOL    HW139723   2.082   4.598   3.011  1.4680  0.8411 -2.7310
 9598SOL    HW239724   2.057   4.750   3.065  0.6742 -0.2946  0.2049
 9599SOL     OW39725   9.513   4.072   4.092  0.4513 -0.2440 -0.3202
 9599SOL    HW139726   9.476   4.158   4.056 -1.8277 -0.2448  1.8450
 9599SOL    HW239727   9.443   4.001   4.084  1.5972 -1.3968 -0.1997
 9600SOL     OW39728   2.190   2.148   1.726  0.2885 -0.3518 -0.2653
 9600SOL    HW139729   2.287   2.169   1.740  0.7826 -2.0235 -1.0559
 9600SOL    HW239730   2.152   2.108   1.809  0.7972 -1.5025 -0.5690
 9601SOL     OW39731   0.367   8.398   2.342  0.0353 -0.4297 -0.2627
 9601SOL    HW139732   0.293   8.447   2.296 -0.0306  1.0160  1.3299
 9601SOL    HW239733   0.366   8.301   2.315 -2.5101 -0.4467 -0.1655
 9602SOL     OW39734   7.036   1.137   4.377  0.2180  0.3038  0.2095
 9602SOL    HW139735   6.991   1.097   4.456  1.5875 -0.6147  0.5462
 9602SOL    HW239736   7.131   1.159   4.400  0.8209 -0.5595 -1.3503
 9603SOL     OW39737   1.717   5.685   0.186  0.1097 -0.0939  0.4062
 9603SOL    HW139738   1.708   5.750   0.262  2.3884  2.0535 -1.0938
 9603SOL    HW239739   1.813   5.677   0.160 -0.3628 -2.6641 -0.6833
 9604SOL     OW39740   7.797   6.744   2.833  0.2918 -0.0103 -0.3531
 9604SOL    HW139741   7.740   6.714   2.910  0.3528  0.0196 -0.2967
 9604SOL    HW239742   7.737   6.768   2.756  0.2025  0.4602 -0.1407
 9605SOL     OW39743   4.100   3.622   0.163  0.4902  0.2647 -0.4242
 9605SOL    HW139744   4.067   3.581   0.078 -1.2101 -1.3196  0.9520
 9605SOL    HW239745   4.160   3.557   0.210 -1.1982 -0.2118  1.1554
 9606SOL     OW39746   0.519   4.079   5.599 -0.4455 -0.2303  0.2604
 9606SOL    HW139747   0.549   4.170   5.628 -2.1231  1.2842 -2.5290
 9606SOL    HW239748   0.577   4.010   5.642  0.7130  2.1208  2.6301
 9607SOL     OW39749   7.153   6.109   4.212 -0.1754 -0.2182  0.0185
 9607SOL    HW139750   7.148   6.022   4.261 -0.2330 -0.0771  0.2610
 9607SOL    HW239751   7.156   6.184   4.277  0.3548 -0.0600 -0.1849
 9608SOL     OW39752   4.953   1.047   3.218 -0.0153  0.3133 -0.3639
 9608SOL    HW139753   5.026   1.116   3.215  0.5489 -0.2580  0.2064
 9608SOL    HW239754   4.984   0.963   3.175 -1.1369  0.7865 -2.1970
 9609SOL     OW39755   2.659   8.181   2.038  0.0440  0.0376  0.1048
 9609SOL    HW139756   2.635   8.156   2.131 -0.3851  1.3001  0.3515
 9609SOL    HW239757   2.753   8.214   2.035  0.1810 -0.3599  0.0201
 9610SOL     OW39758   8.893   7.571   2.804 -0.2875 -0.3571 -0.3049
 9610SOL    HW139759   8.951   7.536   2.731  0.9394 -0.0684  0.5254
 9610SOL    HW239760   8.800   7.586   2.769 -0.4044 -2.8217 -1.0887
 9611SOL     OW39761   3.681   1.257   2.704  0.5272 -0.2953  0.9342
 9611SOL    HW139762   3.581   1.250   2.704  0.5837 -1.2960 -0.5303
 9611SOL    HW239763   3.719   1.194   2.637  2.0695  1.2224  0.3276
 9612SOL     OW39764   7.847   8.797   3.171 -0.4453  0.3201  0.1505
 9612SOL    HW139765   7.760   8.778   3.216 -0.5780  2.8759  1.0167
 9612SOL    HW239766   7.831   8.814   3.074 -0.8136  0.0427  0.1600
 9613SOL     OW39767   1.330   2.406   1.016 -0.2444 -0.2736 -0.0087
 9613SOL    HW139768   1.403   2.386   0.952 -1.0568 -1.4730 -0.5904
 9613SOL    HW239769   1.347   2.494   1.061  1.1997 -0.2416 -0.6069
 9614SOL     OW39770   9.665   5.662   4.901 -0.1946 -0.2757 -0.0625
 9614SOL    HW139771   9.664   5.601   4.821 -0.8815 -1.3212  0.7198
 9614SOL    HW239772   9.595   5.632   4.966  0.1931  0.7119  0.8286
 9615SOL     OW39773   3.726   3.508   0.406 -0.0143  0.4610  0.5210
 9615SOL    HW139774   3.781   3.590   0.416 -0.7530  0.6026  4.0533
 9615SOL    HW239775   3.766   3.433   0.459 -0.2087 -1.0289 -1.3750
 9616SOL     OW39776   0.583   9.519   4.979  0.3093  0.0742  0.2029
 9616SOL    HW139777   0.527   9.564   5.049 -0.5766  1.3699 -1.3052
 9616SOL    HW239778   0.590   9.578   4.899  0.1131 -1.9947 -1.3853
 9617SOL     OW39779   8.748   1.712   4.325 -0.3876 -0.1017  0.0359
 9617SOL    HW139780   8.808   1.632   4.321 -0.2367 -0.1161  2.3828
 9617SOL    HW239781   8.799   1.792   4.294  0.7640 -0.1723  1.7171
 9618SOL     OW39782   0.745   9.100   4.847  0.4236 -0.1216 -0.2621
 9618SOL    HW139783   0.712   9.046   4.926 -1.4831 -1.1562 -1.7132
 9618SOL    HW239784   0.742   9.043   4.765 -0.2656  1.7857 -1.5748
 9619SOL     OW39785   8.129   9.728   0.592 -0.2427 -0.1139  0.6304
 9619SOL    HW139786   8.104   9.768   0.680 -2.4543 -0.4231  0.1673
 9619SOL    HW239787   8.201   9.661   0.606 -0.0190  0.4006  2.0920
 9620SOL     OW39788   0.395   4.652   1.485  0.1538 -0.6582 -0.4355
 9620SOL    HW139789   0.306   4.615   1.455  0.3996 -0.4853 -1.3972
 9620SOL    HW239790   0.422   4.726   1.424  0.7232 -0.3712  0.1645
 9621SOL     OW39791   0.853   3.519   0.661  0.3864  0.1049  0.6236
 9621SOL    HW139792   0.944   3.560   0.652 -0.5569  1.8252 -1.6869
 9621SOL    HW239793   0.845   3.441   0.599 -0.6312  1.7460 -1.3721
 9622SOL     OW39794   1.224   0.894   1.526  0.0702 -0.0715  0.5750
 9622SOL    HW139795   1.297   0.876   1.592  1.0192  1.8224  0.0809
 9622SOL    HW239796   1.263   0.934   1.443 -1.7269  2.9029  1.0867
 9623SOL     OW39797   3.043   0.922   4.381  0.3028  0.0680 -0.5056
 9623SOL    HW139798   2.964   0.917   4.319  0.5739 -0.4221 -0.8072
 9623SOL    HW239799   3.094   0.837   4.378  0.4719  0.1414  0.1968
 9624SOL     OW39800   1.883   7.851   4.586 -0.0259 -0.0187  0.6691
 9624SOL    HW139801   1.842   7.799   4.660  1.9175 -0.9923  1.0871
 9624SOL    HW239802   1.967   7.895   4.618  0.8559 -0.4779 -0.9437
 9625SOL     OW39803   1.795   6.221   0.618  0.6239 -0.4580  0.1107
 9625SOL    HW139804   1.871   6.274   0.655  0.7494  1.0620 -2.2554
 9625SOL    HW239805   1.718   6.282   0.599 -1.2275 -1.9745  2.4660
 9626SOL     OW39806   9.980   4.249   4.963 -0.5609 -0.0662 -0.5631
 9626SOL    HW139807   9.985   4.169   5.023  2.1643 -1.9031 -3.0909
 9626SOL    HW239808   9.894   4.246   4.912 -1.8927  0.3267  1.6085
 9627SOL     OW39809   0.260   2.948   5.395 -0.0601  0.1578 -0.6349
 9627SOL    HW139810   0.203   3.004   5.335 -0.8385 -0.1692 -0.1984
 9627SOL    HW239811   0.294   3.003   5.471 -0.9159  0.0225 -0.1443
 9628SOL     OW39812   8.894   8.880   3.582 -0.0121  0.1623 -0.3238
 9628SOL    HW139813   8.860   8.859   3.674  0.6019 -0.4216 -0.2288
 9628SOL    HW239814   8.988   8.912   3.587 -0.0203  0.2576 -0.7364
 9629SOL     OW39815   1.785   3.672   0.067 -0.2184  0.5001  0.2170
 9629SOL    HW139816   1.795   3.696   0.164  0.8586  0.2305  0.1807
 9629SOL    HW239817   1.795   3.754   0.011 -1.5294  0.7674  0.3722
 9630SOL     OW39818   5.890   0.400   1.480 -0.0009  0.3988 -0.1554
 9630SOL    HW139819   5.908   0.450   1.565 -0.0766 -0.6282  0.4703
 9630SOL    HW239820   5.811   0.340   1.493  0.0619  0.1478 -0.9230
 9631SOL     OW39821   2.922   9.399   5.580  0.7388 -0.0415  0.4266
 9631SOL    HW139822   2.999   9.337   5.597  0.7972 -0.3284 -0.8173
 9631SOL    HW239823   2.838   9.346   5.571  0.5714  0.1767  0.7153
 9632SOL     OW39824   2.782   0.938   3.861  0.2887  0.4208  0.4047
 9632SOL    HW139825   2.833   0.907   3.941  2.3036 -0.0274 -1.0020
 9632SOL    HW239826   2.696   0.888   3.855  0.1757  0.3646  2.2072
 9633SOL     OW39827   8.004   0.154   1.441  0.0548 -0.1329  0.5824
 9633SOL    HW139828   7.937   0.083   1.421 -1.9496  2.0180 -0.5681
 9633SOL    HW239829   8.038   0.193   1.356  0.8448  0.5735  1.2045
 9634SOL     OW39830   6.357   9.565   2.907 -0.2591  0.0606 -0.7953
 9634SOL    HW139831   6.271   9.557   2.957  1.5382 -1.6928  2.1651
 9634SOL    HW239832   6.391   9.474   2.885  0.8116  0.7458 -2.0154
 9635SOL     OW39833   0.659   4.074   0.756  0.6268  0.4177  0.6433
 9635SOL    HW139834   0.573   4.125   0.769  0.2164 -0.0865 -0.0677
 9635SOL    HW239835   0.647   4.006   0.683  0.8198 -1.5098  2.3764
 9636SOL     OW39836   1.616   6.402   5.107 -0.1998 -0.2305  0.1764
 9636SOL    HW139837   1.528   6.450   5.111 -0.8474 -1.3921 -0.1753
 9636SOL    HW239838   1.665   6.429   5.024 -0.5798 -0.2331 -0.0453
 9637SOL     OW39839   0.547   6.169   0.211 -0.2835 -0.0593  0.2264
 9637SOL    HW139840   0.635   6.121   0.212 -1.1303 -1.6470  0.6248
 9637SOL    HW239841   0.557   6.260   0.251  0.6677 -1.1388  2.4946
 9638SOL     OW39842   0.525   9.591   3.883 -0.1667 -0.2471 -0.1598
 9638SOL    HW139843   0.536   9.517   3.817 -0.6910 -1.1335  0.7408
 9638SOL    HW239844   0.441   9.641   3.864  0.2906  0.2660 -0.8938
 9639SOL     OW39845   8.106   6.103   3.912 -0.1727 -0.6506  0.4456
 9639SOL    HW139846   8.090   6.019   3.861 -0.2037  1.6103 -3.4767
 9639SOL    HW239847   8.204   6.124   3.913 -0.5159  1.3658 -2.2726
 9640SOL     OW39848   9.162   1.177   2.657 -0.1526 -0.1026 -0.1630
 9640SOL    HW139849   9.173   1.275   2.678 -1.3198  0.2622 -1.1572
 9640SOL    HW239850   9.199   1.158   2.566 -1.9789 -0.1127 -0.9193
 9641SOL     OW39851   7.568   4.562   0.405  0.4056 -0.3198  1.1423
 9641SOL    HW139852   7.656   4.605   0.429  1.0489 -0.5945 -0.6757
 9641SOL    HW239853   7.538   4.595   0.316  0.1503 -2.4910  0.3928
 9642SOL     OW39854   2.798   3.674   0.075 -0.3119  0.1739 -0.1541
 9642SOL    HW139855   2.857   3.690   0.154  2.1666  3.0035 -2.4449
 9642SOL    HW239856   2.742   3.755   0.058 -0.4723 -0.2165 -1.5666
 9643SOL     OW39857   2.500   1.089   3.987 -0.3364  0.2708 -0.1703
 9643SOL    HW139858   2.422   1.137   4.027 -1.2409 -0.2172 -1.3177
 9643SOL    HW239859   2.562   1.155   3.945 -0.4512  0.6109  0.1905
 9644SOL     OW39860   9.450   6.115   0.583 -0.0102 -0.1736  0.4349
 9644SOL    HW139861   9.447   6.108   0.683  2.0471  1.1658  0.6038
 9644SOL    HW239862   9.356   6.120   0.548 -0.8684 -3.5392  2.0463
 9645SOL     OW39863   7.690   8.922   2.973  0.1544 -0.0285  0.3686
 9645SOL    HW139864   7.618   8.867   3.015 -0.5602  1.3369  0.9842
 9645SOL    HW239865   7.649   8.994   2.917  1.0420  0.4459  0.3094
 9646SOL     OW39866   1.655   3.526   5.486  0.0905 -0.4848 -0.1294
 9646SOL    HW139867   1.695   3.564   5.569  3.2632 -1.2641 -1.2023
 9646SOL    HW239868   1.632   3.430   5.501  0.9395 -0.7057 -0.2240
 9647SOL     OW39869   9.516   4.305   4.513 -0.2927 -0.1200 -0.3848
 9647SOL    HW139870   9.487   4.365   4.438  0.4552  1.6562  0.6956
 9647SOL    HW239871   9.445   4.303   4.583 -0.3773 -0.6207 -0.4839
 9648SOL     OW39872   8.589   5.771   5.224  0.0714 -0.1058 -0.4456
 9648SOL    HW139873   8.637   5.771   5.312 -0.5562 -0.7293 -0.0982
 9648SOL    HW239874   8.648   5.731   5.154  0.2937 -0.3011 -0.1463
 9649SOL     OW39875   3.959   1.774   4.801  0.1765 -0.7656 -0.1870
 9649SOL    HW139876   4.024   1.818   4.739 -1.8228  1.4012 -0.8188
 9649SOL    HW239877   3.941   1.681   4.771  2.3600 -1.1303 -0.4521
 9650SOL     OW39878   8.891   2.176   1.566 -0.4528  0.2592  0.4592
 9650SOL    HW139879   8.883   2.134   1.475 -0.6601  1.2672 -0.0008
 9650SOL    HW239880   8.885   2.275   1.557 -0.5803  0.3612  1.5946
 9651SOL     OW39881   3.399   3.892   2.248 -0.0390 -0.2112  0.3078
 9651SOL    HW139882   3.498   3.886   2.240 -0.1611 -0.9386 -0.9039
 9651SOL    HW239883   3.374   3.922   2.340  1.2324 -2.3464  1.4041
 9652SOL     OW39884   1.207   1.556   3.427 -0.4973 -0.4850 -0.5593
 9652SOL    HW139885   1.167   1.532   3.339  1.2770 -1.2879 -1.1818
 9652SOL    HW239886   1.280   1.623   3.412  0.1890 -1.0494  0.2128
 9653SOL     OW39887   0.307   5.324   0.602 -0.1905  0.2223 -0.7087
 9653SOL    HW139888   0.288   5.239   0.552  2.2613 -0.9533  0.2951
 9653SOL    HW239889   0.361   5.303   0.683  1.2691  2.8485 -0.9534
 9654SOL     OW39890   9.587   4.398   3.426  0.5071 -0.0522 -0.3245
 9654SOL    HW139891   9.626   4.313   3.460  0.2479  0.2766  0.8239
 9654SOL    HW239892   9.657   4.469   3.426  0.1820  0.2738  0.7512
 9655SOL     OW39893   8.928   4.105   3.306  0.2358 -0.9120  0.3931
 9655SOL    HW139894   8.852   4.102   3.241 -0.3238  0.2689  0.9691
 9655SOL    HW239895   9.014   4.094   3.257 -0.1880 -0.1414 -0.5379
 9656SOL     OW39896   1.479   2.163   5.446  0.2776  0.1630 -0.3243
 9656SOL    HW139897   1.380   2.152   5.435 -0.0756  0.1091  2.5508
 9656SOL    HW239898   1.502   2.260   5.444 -0.3242  0.4026  2.4341
 9657SOL     OW39899   8.303   5.599   2.665  0.2405  0.1542 -0.1655
 9657SOL    HW139900   8.216   5.569   2.628  0.5198  0.0636 -0.7485
 9657SOL    HW239901   8.377   5.573   2.603  0.7177 -0.0764  0.4913
 9658SOL     OW39902   9.259   8.169   4.553 -0.2648  0.5083 -0.4153
 9658SOL    HW139903   9.210   8.093   4.511 -0.6142  0.8337 -0.6054
 9658SOL    HW239904   9.232   8.255   4.508 -0.6051  0.8566  0.4359
 9659SOL     OW39905   9.548   1.201   2.919 -0.2308 -0.2092  0.6291
 9659SOL    HW139906   9.579   1.226   2.827  2.3468  1.4797  1.8906
 9659SOL    HW239907   9.493   1.276   2.956 -3.1463 -1.8144 -0.3342
 9660SOL     OW39908   0.140   5.811   1.940 -0.6637  0.3867  0.6775
 9660SOL    HW139909   0.141   5.835   1.843 -2.2267  0.0309  0.5507
 9660SOL    HW239910   0.132   5.895   1.995 -2.4659  0.4471  0.3741
 9661SOL     OW39911   0.274   0.142   4.956  0.7864 -0.1338  0.0761
 9661SOL    HW139912   0.289   0.183   4.866  1.2215  2.1081  1.1210
 9661SOL    HW239913   0.361   0.132   5.003  0.7721 -3.0635 -0.4481
 9662SOL     OW39914   2.502   9.808   5.115 -0.2043 -0.0501  0.3978
 9662SOL    HW139915   2.422   9.866   5.104  0.8020  1.3424  0.2678
 9662SOL    HW239916   2.544   9.792   5.026  2.2291  2.9840  0.9141
 9663SOL     OW39917   1.696   6.750   0.369 -0.4400 -0.1319  0.3788
 9663SOL    HW139918   1.649   6.715   0.450  1.0534  0.9839  1.7518
 9663SOL    HW239919   1.734   6.673   0.317 -0.6245 -0.7997  1.2205
 9664SOL     OW39920   2.603   6.850   5.642 -0.2879  0.6215 -0.1443
 9664SOL    HW139921   2.659   6.770   5.622  0.2297  1.2827 -1.4291
 9664SOL    HW239922   2.617   6.878   5.737  0.5663 -0.0011 -0.0874
 9665SOL     OW39923   2.778   4.737   0.725  0.1130 -0.0365 -0.3537
 9665SOL    HW139924   2.789   4.701   0.632  0.6436  2.4401 -1.2862
 9665SOL    HW239925   2.686   4.715   0.758  0.5017 -2.4349 -0.7632
 9666SOL     OW39926   5.011   8.676   4.275 -0.0953 -0.6910 -0.1076
 9666SOL    HW139927   4.946   8.678   4.198 -0.5515 -0.8797  0.2658
 9666SOL    HW239928   4.988   8.599   4.335  0.8385 -1.1160 -0.2821
 9667SOL     OW39929   9.976   7.360   4.068 -0.4014 -0.3279 -0.3416
 9667SOL    HW139930   9.991   7.352   4.166 -0.4479  1.8314 -0.1526
 9667SOL    HW239931   9.880   7.384   4.051 -0.2479 -0.0940 -0.8923
 9668SOL     OW39932   9.950   5.442   4.827 -0.0328 -0.5197  0.3092
 9668SOL    HW139933   9.951   5.499   4.908  0.1807  0.8184 -0.6215
 9668SOL    HW239934   9.862   5.449   4.781  0.5193  0.3009 -0.6568
 9669SOL     OW39935   3.991   9.622   0.479  0.0014  1.1365 -0.4153
 9669SOL    HW139936   3.964   9.529   0.502  2.0047  0.6328 -0.0335
 9669SOL    HW239937   3.909   9.675   0.454 -1.1198 -0.7911 -0.9631
 9670SOL     OW39938   9.927   4.499   5.102  0.0130 -0.2480 -0.3753
 9670SOL    HW139939   9.918   4.466   5.196 -1.3399  2.8901  0.6685
 9670SOL    HW239940   9.933   4.421   5.039 -0.3106 -2.3885  2.1925
 9671SOL     OW39941   9.731   2.021   3.569 -0.1553 -0.4369  0.9716
 9671SOL    HW139942   9.749   1.923   3.560  1.5131 -0.0176 -0.4381
 9671SOL    HW239943   9.716   2.043   3.665 -0.5172 -2.0650  1.3037
 9672SOL     OW39944   8.738   7.946   1.563 -0.5849 -0.8196  0.5511
 9672SOL    HW139945   8.672   7.871   1.572 -1.0944 -0.2861  1.3113
 9672SOL    HW239946   8.764   7.956   1.467 -3.2409  0.3606 -0.0959
 9673SOL     OW39947   4.100   2.812   0.527  0.3712 -0.4256 -0.0389
 9673SOL    HW139948   4.092   2.880   0.599 -0.3934 -0.2129 -0.3136
 9673SOL    HW239949   4.076   2.722   0.563 -0.4306 -0.2528 -0.1239
 9674SOL     OW39950   0.067   5.577   2.083  0.1724 -0.2323 -0.4487
 9674SOL    HW139951   0.121   5.577   2.167 -1.7374  1.7723  0.8343
 9674SOL    HW239952   0.080   5.663   2.034 -0.0343 -0.7035 -1.3569
 9675SOL     OW39953   4.827   1.164   3.414  0.0173 -0.3150 -0.0531
 9675SOL    HW139954   4.859   1.118   3.332 -1.2094 -0.3785 -0.5026
 9675SOL    HW239955   4.867   1.256   3.419 -0.3124 -0.1167 -0.9956
 9676SOL     OW39956   5.675   2.044   1.734  0.2521  0.3563  0.4716
 9676SOL    HW139957   5.697   2.142   1.727 -2.5380  1.1064  1.7380
 9676SOL    HW239958   5.610   2.030   1.809  0.0027 -2.3827 -0.2291
 9677SOL     OW39959   8.680   2.926   3.722 -0.3108 -0.5788 -0.4898
 9677SOL    HW139960   8.747   2.896   3.790  1.7557 -2.0302 -3.0924
 9677SOL    HW239961   8.722   2.994   3.662 -1.8854  0.1186 -0.8399
 9678SOL     OW39962   8.608   0.795   4.574  0.0253  0.1806 -0.4423
 9678SOL    HW139963   8.637   0.888   4.555 -0.5101  0.5144  0.3298
 9678SOL    HW239964   8.656   0.760   4.654 -1.3176  0.5684  0.5555
 9679SOL     OW39965   8.328   4.730   4.291  0.1445 -0.4020 -0.4790
 9679SOL    HW139966   8.343   4.765   4.383 -1.5054 -2.8804  0.8053
 9679SOL    HW239967   8.334   4.805   4.225  1.2633  1.4276  1.6328
 9680SOL     OW39968   0.563   4.660   4.675  0.2073 -0.2135  0.4513
 9680SOL    HW139969   0.501   4.673   4.752  1.6321 -0.5679  1.6870
 9680SOL    HW239970   0.641   4.722   4.685  1.0600 -1.2006  0.0114
 9681SOL     OW39971   3.315   4.690   4.162 -0.3309 -0.1812 -0.6388
 9681SOL    HW139972   3.215   4.694   4.164 -0.3381 -0.7973  0.5298
 9681SOL    HW239973   3.344   4.618   4.098 -0.5570  2.1867 -3.5111
 9682SOL     OW39974   8.712   7.736   0.380  0.1280 -0.3147  0.7641
 9682SOL    HW139975   8.766   7.819   0.394 -0.1753  0.2069 -1.0594
 9682SOL    HW239976   8.702   7.688   0.467  0.0017  1.7415  1.9150
 9683SOL     OW39977   0.592   2.670   2.931 -0.1638  0.0946 -0.2343
 9683SOL    HW139978   0.654   2.617   2.873  0.3631 -0.1732  0.5531
 9683SOL    HW239979   0.643   2.744   2.975 -0.5448  0.2627 -0.0725
 9684SOL     OW39980   6.227   0.932   1.256  0.0043  0.2996  0.1293
 9684SOL    HW139981   6.145   0.878   1.236  0.9909 -1.3221  0.4078
 9684SOL    HW239982   6.226   1.015   1.201 -1.7638  0.2284  0.0258
 9685SOL     OW39983   1.693   2.161   0.601 -0.2104  0.0559  0.5413
 9685SOL    HW139984   1.710   2.095   0.674 -0.2500 -0.1680  0.3456
 9685SOL    HW239985   1.595   2.164   0.582 -0.3414  0.9501  1.2904
 9686SOL     OW39986   3.002   3.370   3.941  0.2206  0.6770 -0.5416
 9686SOL    HW139987   3.081   3.325   3.900 -0.0005  0.6909 -0.9871
 9686SOL    HW239988   2.918   3.338   3.897 -0.0369  0.5294  0.0493
 9687SOL     OW39989   0.395   2.027   2.336 -0.1921  0.3835  0.2557
 9687SOL    HW139990   0.392   1.961   2.411  1.0460  1.1765  1.0260
 9687SOL    HW239991   0.368   2.117   2.370 -1.0390  0.4581 -0.5944
 9688SOL     OW39992   3.713   9.006   3.683 -0.2030 -0.5336  0.0900
 9688SOL    HW139993   3.789   8.959   3.639 -0.5369  0.6675 -1.8162
 9688SOL    HW239994   3.644   9.029   3.614 -1.8330 -0.7220  1.6311
 9689SOL     OW39995   9.339   4.274   5.447  0.4048  0.1802  0.0506
 9689SOL    HW139996   9.261   4.245   5.503 -0.2777  0.7465 -0.5886
 9689SOL    HW239997   9.350   4.212   5.370  2.1234 -1.3344  1.4686
 9690SOL     OW39998   9.701   6.310   0.657 -0.3490 -0.3532  0.1582
 9690SOL    HW139999   9.666   6.399   0.686  0.5652  0.4687 -1.2160
 9690SOL    HW240000   9.679   6.295   0.561  3.9597  0.7125 -1.1068
 9691SOL     OW40001   3.753   7.526   2.950 -0.1447  0.7662 -0.1469
 9691SOL    HW140002   3.688   7.530   2.875 -0.2344 -0.4025 -0.1390
 9691SOL    HW240003   3.720   7.462   3.020  1.2176 -0.1943 -0.3509
 9692SOL     OW40004   8.723   0.894   2.650  0.1084  0.5863  0.1578
 9692SOL    HW140005   8.760   0.944   2.571 -0.6489  0.6588 -0.1537
 9692SOL    HW240006   8.766   0.804   2.656 -2.0382 -0.6180 -2.1323
 9693SOL     OW40007   1.699   9.541   2.320  0.4731 -0.1016  0.6713
 9693SOL    HW140008   1.654   9.517   2.406 -0.9937 -0.2616 -0.1293
 9693SOL    HW240009   1.686   9.638   2.301 -2.5874 -0.8310 -1.2923
 9694SOL     OW40010   0.939   6.473   2.641 -0.5255  0.6538 -0.0583
 9694SOL    HW140011   0.921   6.545   2.708  0.0270  0.6899  0.0491
 9694SOL    HW240012   1.033   6.440   2.651 -1.4097 -1.6008  1.3823
 9695SOL     OW40013   3.229   8.649   0.800 -0.1611  0.2117 -1.0232
 9695SOL    HW140014   3.212   8.596   0.884  3.7469  1.3185  0.5634
 9695SOL    HW240015   3.148   8.703   0.778 -1.9737 -1.6221  0.9008
 9696SOL     OW40016   9.312   0.595   4.436 -0.0592  0.3788 -0.4555
 9696SOL    HW140017   9.225   0.592   4.485 -0.6283 -0.7977 -1.5124
 9696SOL    HW240018   9.379   0.538   4.483 -1.3349 -2.8456 -2.3480
 9697SOL     OW40019   0.959   0.521   3.207  0.5334 -0.4605  0.6477
 9697SOL    HW140020   0.944   0.619   3.222  1.4006 -0.0425 -1.0387
 9697SOL    HW240021   0.873   0.478   3.179  0.4676  0.1225 -0.0682
 9698SOL     OW40022   1.795   5.938   0.665  0.0777 -0.4374 -0.6368
 9698SOL    HW140023   1.734   6.017   0.665  1.4848  0.6746 -0.1285
 9698SOL    HW240024   1.889   5.968   0.685  0.5966 -2.2670 -0.2126
 9699SOL     OW40025   8.812   0.296   5.367  0.0133 -0.0631  0.0042
 9699SOL    HW140026   8.833   0.328   5.275  0.7763 -0.9425 -0.1251
 9699SOL    HW240027   8.895   0.263   5.411 -0.0954  1.5447  1.4927
 9700SOL     OW40028   9.220   7.637   2.035 -0.1344  0.6689 -0.5387
 9700SOL    HW140029   9.243   7.573   2.109  2.9312  0.7751 -1.3306
 9700SOL    HW240030   9.231   7.730   2.067 -0.6504  0.7471 -0.5830
 9701SOL     OW40031   8.814   5.346   0.615 -0.4559 -0.1643 -0.0524
 9701SOL    HW140032   8.834   5.429   0.564 -1.9829  0.7649  0.7857
 9701SOL    HW240033   8.881   5.334   0.688 -0.2844  0.3910 -0.1195
 9702SOL     OW40034   0.429   1.837   3.647  0.2082 -0.0379  0.1789
 9702SOL    HW140035   0.487   1.831   3.566 -0.6086 -2.0566 -0.2872
 9702SOL    HW240036   0.483   1.870   3.724  1.6315 -0.5300 -0.5894
 9703SOL     OW40037   2.577   9.179   0.340 -0.0218 -0.3270 -0.0770
 9703SOL    HW140038   2.484   9.174   0.377  0.6362 -1.2781  1.5369
 9703SOL    HW240039   2.642   9.188   0.415  1.3175 -1.4915 -1.0660
 9704SOL     OW40040   5.692   9.015   4.164 -0.0486  0.3980  0.3573
 9704SOL    HW140041   5.660   8.925   4.137 -2.1638  1.3451 -0.4439
 9704SOL    HW240042   5.615   9.070   4.194  1.2204  1.9160  0.9102
 9705SOL     OW40043   5.223   2.135   2.645  0.6463 -0.2946 -0.2912
 9705SOL    HW140044   5.154   2.185   2.593 -0.9958  2.0003  3.8123
 9705SOL    HW240045   5.198   2.038   2.647 -1.7750  0.2921 -0.0133
 9706SOL     OW40046   7.414   1.727   5.545  0.1142  0.2702  0.0754
 9706SOL    HW140047   7.415   1.731   5.445 -0.1327 -0.3975  0.0439
 9706SOL    HW240048   7.341   1.665   5.575 -0.2030  0.9208  0.6833
 9707SOL     OW40049   1.393   3.619   0.045 -0.5658  0.5612 -0.1161
 9707SOL    HW140050   1.408   3.521   0.055  1.2243  0.9316  0.9394
 9707SOL    HW240051   1.313   3.646   0.099 -0.7404 -0.2157  0.0171
 9708SOL     OW40052   9.889   7.834   0.735  0.1931  0.0174 -0.5462
 9708SOL    HW140053   9.921   7.911   0.680  1.6645 -0.2606 -0.0915
 9708SOL    HW240054   9.799   7.856   0.773  1.3804  2.2710  1.0764
 9709SOL     OW40055   3.642   2.114   0.251  0.3768 -0.0933  0.1463
 9709SOL    HW140056   3.636   2.087   0.155 -2.1330  0.7637  0.0164
 9709SOL    HW240057   3.731   2.156   0.268  0.2225  1.2821 -2.2140
 9710SOL     OW40058   3.284   3.329   3.928 -0.6924  0.0264 -0.1375
 9710SOL    HW140059   3.296   3.261   4.000  3.0934  0.8312  0.0666
 9710SOL    HW240060   3.293   3.421   3.967 -0.5640  0.5158 -1.3025
 9711SOL     OW40061   2.007   4.222   0.151 -0.8038  0.3067 -0.1952
 9711SOL    HW140062   1.956   4.247   0.234 -1.8143  0.5941 -0.8838
 9711SOL    HW240063   2.062   4.300   0.122 -2.1450  0.9708 -1.0182
 9712SOL     OW40064   1.894   6.526   5.433 -0.2711  0.0605 -0.4302
 9712SOL    HW140065   1.962   6.589   5.470 -0.2873 -1.1010  1.7070
 9712SOL    HW240066   1.941   6.450   5.387 -0.1866  0.4122 -0.9263
 9713SOL     OW40067   0.085   4.479   4.449 -0.5578  0.3225  0.0033
 9713SOL    HW140068   0.058   4.565   4.404 -0.0483  0.3219 -0.3001
 9713SOL    HW240069   0.014   4.410   4.434  0.2756 -0.1095 -2.0152
 9714SOL     OW40070   5.664   8.083   3.300 -0.4640 -0.1704 -0.1986
 9714SOL    HW140071   5.653   8.135   3.216  3.3922 -1.6530 -1.7197
 9714SOL    HW240072   5.668   7.985   3.279  3.1726 -0.4214  1.3345
 9715SOL     OW40073   8.833   1.019   5.091  0.4755 -0.0713  0.5745
 9715SOL    HW140074   8.736   1.007   5.116  0.8720 -1.3079  1.6109
 9715SOL    HW240075   8.883   1.055   5.170  0.9623  0.0931  0.1944
 9716SOL     OW40076   4.804   4.443   2.737  0.2332 -0.1535  0.6963
 9716SOL    HW140077   4.898   4.477   2.731 -0.1826  0.7356 -1.1210
 9716SOL    HW240078   4.740   4.519   2.725 -0.7614 -0.6176  2.6590
 9717SOL     OW40079   7.497   8.950   1.266  0.3047  0.5417  0.0909
 9717SOL    HW140080   7.485   9.005   1.184 -0.7873  1.6891  1.0001
 9717SOL    HW240081   7.492   9.010   1.347 -0.7181 -0.8525  1.0801
 9718SOL     OW40082   7.198   8.994   4.719 -0.3133  0.1264  0.5668
 9718SOL    HW140083   7.153   8.919   4.670 -0.7273 -1.3194  3.0496
 9718SOL    HW240084   7.135   9.072   4.725 -1.0199 -0.4295  0.5344
 9719SOL     OW40085   3.216   7.055   0.504 -0.6492  0.0070 -0.0131
 9719SOL    HW140086   3.257   6.994   0.572 -0.4129  0.7253  0.4991
 9719SOL    HW240087   3.146   7.112   0.549 -2.5079 -1.4822 -0.9566
 9720SOL     OW40088   5.786   9.651   3.344  0.3095 -0.3849  0.0175
 9720SOL    HW140089   5.762   9.704   3.426  0.2074 -1.0778  0.4443
 9720SOL    HW240090   5.879   9.615   3.354  0.1697 -0.7577 -0.0177
 9721SOL     OW40091   3.539   9.946   4.958 -0.6047 -0.2811 -0.1548
 9721SOL    HW140092   3.543   9.988   5.048 -0.9690  0.4479 -0.4748
 9721SOL    HW240093   3.525  10.016   4.889 -2.9228 -1.0687 -0.5449
 9722SOL     OW40094   8.180   0.236   3.097  0.2621  0.5519 -0.0324
 9722SOL    HW140095   8.270   0.278   3.108  0.2205  0.4475  0.7194
 9722SOL    HW240096   8.174   0.193   3.006  0.4434  1.8209 -0.6543
 9723SOL     OW40097   0.035   9.755   4.019 -0.3929  0.0256  0.0846
 9723SOL    HW140098   0.035   9.847   3.981 -1.0405 -0.4643 -1.1094
 9723SOL    HW240099   0.002   9.759   4.114 -0.4448  1.0143  0.0331
 9724SOL     OW40100   9.474   3.739   3.411 -0.3211 -0.4318 -0.0298
 9724SOL    HW140101   9.462   3.668   3.480 -0.8989 -0.2592  0.0551
 9724SOL    HW240102   9.423   3.713   3.328  0.9730 -0.9971 -0.6665
 9725SOL     OW40103   8.583   3.378   0.235 -0.0268  0.8321 -0.0197
 9725SOL    HW140104   8.553   3.369   0.330 -0.2982  3.5106  0.1777
 9725SOL    HW240105   8.679   3.352   0.228 -0.1008  0.2799  0.9208
 9726SOL     OW40106   2.645   7.176   5.284 -0.1691  0.6404  0.4663
 9726SOL    HW140107   2.734   7.154   5.323 -0.9383 -0.4375  1.6782
 9726SOL    HW240108   2.647   7.159   5.185  0.2910 -1.7594  0.8358
 9727SOL     OW40109   1.617   7.821   0.498  0.5837 -0.0942  0.3038
 9727SOL    HW140110   1.648   7.729   0.476 -0.0468 -0.6466  1.6450
 9727SOL    HW240111   1.696   7.881   0.513  0.9942 -0.6966  0.5569
 9728SOL     OW40112   3.671   0.284   5.387  0.9176  0.0490  0.0574
 9728SOL    HW140113   3.737   0.326   5.449  0.4720  1.2052 -0.2432
 9728SOL    HW240114   3.719   0.248   5.306  1.1733  0.9015 -0.1683
 9729SOL     OW40115   9.203   6.107   3.966 -0.6272 -0.0459  0.3940
 9729SOL    HW140116   9.279   6.161   4.002 -1.1300  1.5800 -0.9289
 9729SOL    HW240117   9.239   6.038   3.903 -0.3230  1.4048 -1.0390
 9730SOL     OW40118   0.693   7.820   4.483 -0.3123  0.1084  0.0266
 9730SOL    HW140119   0.616   7.759   4.467  1.9182 -3.0580  0.7096
 9730SOL    HW240120   0.766   7.799   4.418  0.9754  1.2291  1.0761
 9731SOL     OW40121   7.554   6.392   3.453 -0.1844 -0.1843 -0.0733
 9731SOL    HW140122   7.611   6.310   3.464 -1.3108 -1.0154 -0.3922
 9731SOL    HW240123   7.532   6.428   3.544 -1.5685 -1.5619  0.1671
 9732SOL     OW40124   8.854   3.368   3.413  0.3090 -0.1196 -0.2316
 9732SOL    HW140125   8.825   3.463   3.427 -0.1722 -0.4202  0.8308
 9732SOL    HW240126   8.782   3.319   3.363  0.8322  0.2257 -1.3568
 9733SOL     OW40127   2.372   1.908   4.109 -0.0188 -0.1923  0.3765
 9733SOL    HW140128   2.390   1.822   4.060 -1.1139  0.5521 -1.4136
 9733SOL    HW240129   2.456   1.941   4.151  0.7550 -1.3692 -0.2215
 9734SOL     OW40130   9.909   3.898   5.181 -0.2791 -0.0800  0.1130
 9734SOL    HW140131   9.992   3.854   5.148 -0.6832 -0.6498 -0.1539
 9734SOL    HW240132   9.932   3.987   5.221  0.4507 -0.2241  0.0220
 9735SOL     OW40133   6.687   8.673   3.939  0.6922 -0.0334  0.1794
 9735SOL    HW140134   6.710   8.599   3.876  0.4638 -0.3992  0.5139
 9735SOL    HW240135   6.724   8.759   3.906  0.3588 -0.1817 -0.5742
 9736SOL     OW40136   0.970   2.154   3.997  0.3842  0.5153 -0.0927
 9736SOL    HW140137   1.016   2.084   3.942 -0.0932 -0.1272  0.3155
 9736SOL    HW240138   0.872   2.151   3.980  0.6743  3.4635 -2.7495
 9737SOL     OW40139   8.134   3.574   0.373  0.0314  0.1308  0.2964
 9737SOL    HW140140   8.046   3.551   0.416  0.9856 -1.2370  1.5872
 9737SOL    HW240141   8.203   3.589   0.444  0.9238  0.8874 -0.7078
 9738SOL     OW40142   9.628   4.839   5.359 -0.2154 -0.8039 -0.3274
 9738SOL    HW140143   9.614   4.844   5.260  0.1826 -1.2542 -0.4067
 9738SOL    HW240144   9.707   4.895   5.385 -0.0964 -0.9828 -0.3084
 9739SOL     OW40145   5.197   3.205   1.164  0.6630  0.4326 -0.0407
 9739SOL    HW140146   5.214   3.158   1.251  0.1039 -0.1364 -0.2297
 9739SOL    HW240147   5.249   3.290   1.161 -0.3583  1.1093  1.4049
 9740SOL     OW40148   4.385   3.824   4.135 -0.2482 -0.2136 -0.4489
 9740SOL    HW140149   4.400   3.914   4.093 -2.0900 -0.9290 -2.7406
 9740SOL    HW240150   4.386   3.833   4.235  0.7473  2.1366 -0.6448
 9741SOL     OW40151   0.727   9.141   4.552 -0.0212 -0.2222  0.2465
 9741SOL    HW140152   0.732   9.238   4.575  0.0148 -0.1365 -0.1178
 9741SOL    HW240153   0.631   9.115   4.540 -0.1050 -0.4823  1.3977
 9742SOL     OW40154   0.880   1.665   4.457  0.2901  0.2397 -0.1329
 9742SOL    HW140155   0.943   1.592   4.429  1.0061  0.7442  0.1627
 9742SOL    HW240156   0.901   1.694   4.550 -0.7640  0.0058  0.1878
 9743SOL     OW40157   1.700   2.137   4.288 -0.3686  0.3092  0.4652
 9743SOL    HW140158   1.780   2.189   4.258 -0.9585  0.4796 -0.8259
 9743SOL    HW240159   1.706   2.122   4.387  0.5442  1.5432  0.6118
 9744SOL     OW40160   2.807   3.266   2.327 -0.7504 -0.6457  0.2508
 9744SOL    HW140161   2.778   3.172   2.313 -0.0364 -0.6070 -1.5819
 9744SOL    HW240162   2.904   3.276   2.303 -0.9640  0.6662 -0.1286
 9745SOL     OW40163   4.014   4.046   0.934 -0.0908  0.4334 -0.5468
 9745SOL    HW140164   3.971   3.974   0.880  0.1729 -0.1423 -0.0071
 9745SOL    HW240165   3.993   4.032   1.031  1.8852 -0.3094 -0.1796
 9746SOL     OW40166   7.097   1.741   3.490  0.0169 -0.0907 -0.5960
 9746SOL    HW140167   7.102   1.654   3.441 -0.0308  0.4495 -1.5776
 9746SOL    HW240168   7.189   1.770   3.515  0.0221 -0.4892 -0.1584
 9747SOL     OW40169   3.628   6.077   1.768  0.1018  0.1355  0.0122
 9747SOL    HW140170   3.549   6.137   1.778 -0.3612 -0.5584  0.6330
 9747SOL    HW240171   3.635   6.018   1.848  2.5831  1.7320  1.0601
 9748SOL     OW40172   2.638   9.493   0.085 -0.0573 -0.5253 -0.2005
 9748SOL    HW140173   2.626   9.558   0.160 -0.3944  1.1850 -1.7153
 9748SOL    HW240174   2.718   9.435   0.104 -1.5051 -1.7195  2.5706
 9749SOL     OW40175   2.056   0.134   3.453  0.1390 -0.3143 -0.2915
 9749SOL    HW140176   2.060   0.035   3.440 -0.9804 -0.5107  0.7417
 9749SOL    HW240177   2.019   0.177   3.371  1.1354 -0.6850 -0.9506
 9750SOL     OW40178   2.889   7.115   3.201  0.1264  0.6605 -0.5785
 9750SOL    HW140179   2.987   7.124   3.214  0.1337  2.0398 -1.4365
 9750SOL    HW240180   2.867   7.126   3.104 -1.0089  1.9181 -0.2041
 9751SOL     OW40181   2.717   5.178   3.286  0.3899  0.3543 -0.0104
 9751SOL    HW140182   2.745   5.266   3.323 -1.8998  0.1581  2.3635
 9751SOL    HW240183   2.645   5.192   3.218 -0.0463  0.3182  0.4420
 9752SOL     OW40184   2.028   1.780   3.030 -0.3930  0.2765  0.2354
 9752SOL    HW140185   2.021   1.861   2.972  0.1140  2.2378  2.8134
 9752SOL    HW240186   1.958   1.784   3.101  1.6559  0.0930  2.3213
 9753SOL     OW40187   9.881   6.352   4.470  0.6044  0.0153  0.4325
 9753SOL    HW140188   9.830   6.421   4.521 -1.0175 -1.4777  0.8548
 9753SOL    HW240189   9.971   6.389   4.445 -0.3727  2.4163  0.3057
 9754SOL     OW40190   1.341   0.296   0.352  0.5985  0.5662 -0.2280
 9754SOL    HW140191   1.396   0.372   0.387  1.2288 -0.3618  0.7996
 9754SOL    HW240192   1.250   0.299   0.392  0.5609  0.8785 -0.3314
 9755SOL     OW40193   2.341   5.327   2.990  0.6535  0.4062  0.5495
 9755SOL    HW140194   2.294   5.248   3.029  0.4817  0.3976  0.3304
 9755SOL    HW240195   2.286   5.409   3.006  0.3786  0.3419 -0.0275
 9756SOL     OW40196   2.199   0.758   2.019 -0.2231 -0.1092 -0.2871
 9756SOL    HW140197   2.273   0.767   2.086  0.2834  0.3550 -0.9017
 9756SOL    HW240198   2.221   0.812   1.938 -0.3662 -1.4809 -1.2546
 9757SOL     OW40199   3.651   5.852   3.960 -0.1407  0.0636  0.0408
 9757SOL    HW140200   3.556   5.884   3.969 -0.8106 -1.5055 -1.1621
 9757SOL    HW240201   3.656   5.756   3.990  0.8869 -0.1286 -0.7216
 9758SOL     OW40202   0.446   3.906   1.083 -0.2100  0.1996 -0.4000
 9758SOL    HW140203   0.524   3.850   1.054 -0.9468 -0.6562 -0.7736
 9758SOL    HW240204   0.382   3.850   1.135 -0.5493  0.9141 -0.0368
 9759SOL     OW40205   1.712   3.847   1.795 -0.3977  0.3870 -0.6966
 9759SOL    HW140206   1.620   3.870   1.762 -1.2243 -1.3837  0.3006
 9759SOL    HW240207   1.720   3.748   1.805  0.1219  0.7736  3.5285
 9760SOL     OW40208   2.075   1.955   5.190  0.2671  0.4234  0.2834
 9760SOL    HW140209   2.015   1.983   5.116  1.7945 -1.6143 -1.7943
 9760SOL    HW240210   2.097   1.858   5.180  0.5918  0.1353  3.3557
 9761SOL     OW40211   7.993   9.990   5.009 -0.5141 -0.1060  0.0930
 9761SOL    HW140212   7.951  10.058   5.069 -0.7791  0.5934 -0.8693
 9761SOL    HW240213   7.958   9.899   5.032  0.4241 -0.0337  1.8948
 9762SOL     OW40214   2.074   1.258   3.340  0.1938 -0.2002  0.1243
 9762SOL    HW140215   2.099   1.170   3.380  0.7050  0.4695  1.3085
 9762SOL    HW240216   2.135   1.278   3.263  0.2481 -0.7656  0.0200
 9763SOL     OW40217   1.444   1.681   2.107  0.0732  0.3271  0.2831
 9763SOL    HW140218   1.485   1.602   2.061  1.4685  0.6883  0.8937
 9763SOL    HW240219   1.398   1.651   2.190  1.1400  0.2415  0.8440
 9764SOL     OW40220   9.217   4.001   5.595 -0.2684 -0.4550 -0.1969
 9764SOL    HW140221   9.187   3.992   5.690 -1.2559 -0.3645 -0.4992
 9764SOL    HW240222   9.316   4.014   5.593 -0.2777 -0.1583  0.8404
 9765SOL     OW40223   0.327   3.668   3.613 -0.0862  0.2050  0.2707
 9765SOL    HW140224   0.416   3.642   3.575 -0.2293  0.2202 -0.0789
 9765SOL    HW240225   0.323   3.767   3.625 -0.5593  0.3661 -1.0317
 9766SOL     OW40226   7.992   3.548   4.812 -0.1366 -0.3713 -0.2240
 9766SOL    HW140227   7.937   3.564   4.894 -0.9795  0.9214 -1.0210
 9766SOL    HW240228   8.020   3.452   4.808 -0.3214 -0.5051  1.4254
 9767SOL     OW40229   3.725   0.135   4.632  0.8981  0.1436  0.3642
 9767SOL    HW140230   3.786   0.140   4.710  1.1486  2.3478  0.0711
 9767SOL    HW240231   3.738   0.216   4.575 -0.3414 -0.7062 -1.1658
 9768SOL     OW40232   8.899   1.077   0.359 -0.0026 -0.7643  0.1051
 9768SOL    HW140233   8.930   0.987   0.389 -0.8538 -1.1165 -0.0616
 9768SOL    HW240234   8.975   1.142   0.364  1.6048 -2.2508 -3.0695
 9769SOL     OW40235   3.640   0.686   5.103 -0.5310  0.0460 -0.4616
 9769SOL    HW140236   3.609   0.780   5.121 -0.8762  0.2667 -2.1710
 9769SOL    HW240237   3.657   0.674   5.005 -1.5831 -2.0235 -0.4130
 9770SOL     OW40238   1.815   0.479   0.897 -0.1812  0.9749  0.0847
 9770SOL    HW140239   1.800   0.388   0.937 -1.6852  0.5282 -1.4495
 9770SOL    HW240240   1.826   0.470   0.798  2.7823  2.1583  0.2531
 9771SOL     OW40241   1.141   2.377   4.998  0.0611 -0.4560  0.1087
 9771SOL    HW140242   1.104   2.324   4.921  1.2998 -0.3548 -0.5576
 9771SOL    HW240243   1.209   2.442   4.965 -1.0928  1.2630  0.9781
 9772SOL     OW40244   3.693   3.604   3.862  0.3958  0.1889  0.3815
 9772SOL    HW140245   3.714   3.700   3.843  0.8653  0.2211  1.0797
 9772SOL    HW240246   3.752   3.545   3.806  0.0062  0.3001 -0.1575
 9773SOL     OW40247   1.626   5.019   2.513 -0.6463 -0.3506  0.4172
 9773SOL    HW140248   1.681   5.052   2.437 -0.5481  0.2392  0.7449
 9773SOL    HW240249   1.533   5.000   2.481 -0.3945 -0.8469 -0.0177
 9774SOL     OW40250   0.096   2.339   0.497 -0.1253  0.2124  0.2101
 9774SOL    HW140251   0.024   2.325   0.564  0.0582 -1.2907  0.1089
 9774SOL    HW240252   0.055   2.344   0.405 -0.0786 -1.0410  0.1117
 9775SOL     OW40253   0.322   1.427   5.342  0.1396 -0.2332 -0.5147
 9775SOL    HW140254   0.371   1.504   5.302  1.4292 -0.7346  0.0420
 9775SOL    HW240255   0.369   1.342   5.318 -0.2599 -0.6995  0.3320
 9776SOL     OW40256   1.733   9.797   0.729  0.1311 -0.5006  0.1591
 9776SOL    HW140257   1.682   9.766   0.648 -0.3608  1.7347 -0.4135
 9776SOL    HW240258   1.780   9.882   0.708  0.4502 -0.1880  2.0740
 9777SOL     OW40259   9.414   8.681   5.375 -0.1574  0.3735 -0.0270
 9777SOL    HW140260   9.462   8.753   5.324 -0.3628 -0.7431 -1.8733
 9777SOL    HW240261   9.475   8.604   5.389 -0.6653 -0.0661 -0.2253
 9778SOL     OW40262   1.151   9.527   3.993  0.1664 -0.8086  0.5114
 9778SOL    HW140263   1.092   9.475   4.055  1.3711 -2.1012  0.6042
 9778SOL    HW240264   1.182   9.468   3.919  1.1553 -0.0714  0.3282
 9779SOL     OW40265   9.195   0.919   5.513 -0.6013 -0.0205  0.1811
 9779SOL    HW140266   9.170   1.015   5.521  0.5283  0.3177 -0.2145
 9779SOL    HW240267   9.169   0.884   5.423  0.2142  0.2943 -0.1819
 9780SOL     OW40268   1.885   3.860   2.632 -0.2442 -0.4570  0.0596
 9780SOL    HW140269   1.884   3.945   2.579 -1.2098 -0.6477 -0.2458
 9780SOL    HW240270   1.882   3.881   2.729 -0.8600 -0.1401 -0.0244
 9781SOL     OW40271   3.058   9.614   3.739  0.0110  0.2679 -0.5536
 9781SOL    HW140272   2.985   9.671   3.703 -0.0433  0.1876 -0.5719
 9781SOL    HW240273   3.018   9.534   3.785  0.0449  0.9078  0.6043
 9782SOL     OW40274   3.746   5.311   3.331 -0.1110  0.0955 -0.1345
 9782SOL    HW140275   3.687   5.304   3.412  0.1211  0.0350  0.0311
 9782SOL    HW240276   3.718   5.390   3.277  0.9473  1.2915  1.0128
 9783SOL     OW40277   4.083   9.346   0.188 -0.2297  0.5532  0.2893
 9783SOL    HW140278   4.029   9.423   0.155 -0.0048  0.9148  0.7534
 9783SOL    HW240279   4.130   9.302   0.112  1.3038  2.1538  0.2683
 9784SOL     OW40280   1.238   5.548   5.494  0.4462 -0.3848  0.0124
 9784SOL    HW140281   1.303   5.473   5.485  2.2712  0.9939  1.2773
 9784SOL    HW240282   1.236   5.579   5.589 -0.7400  0.7625 -0.3733
 9785SOL     OW40283   0.649   3.918   3.785 -0.3088  0.0558 -0.1873
 9785SOL    HW140284   0.648   4.018   3.779 -0.8546 -0.0137 -1.4086
 9785SOL    HW240285   0.715   3.890   3.854 -1.5835  1.3289  1.5991
 9786SOL     OW40286   7.908   1.801   4.810  0.2776 -0.7152  0.2120
 9786SOL    HW140287   7.882   1.888   4.852 -1.4060 -0.6071 -0.9709
 9786SOL    HW240288   7.855   1.727   4.852  0.1386 -0.8806 -0.2479
 9787SOL     OW40289   3.408   0.219   5.420  0.5141 -0.7222  0.4561
 9787SOL    HW140290   3.381   0.177   5.333 -0.1560  0.5361  0.0441
 9787SOL    HW240291   3.506   0.241   5.418  0.1450  0.9103 -0.6769
 9788SOL     OW40292   7.888   7.309   2.362  0.1494  0.2996  0.1572
 9788SOL    HW140293   7.800   7.296   2.317 -0.1574  1.4442  0.4080
 9788SOL    HW240294   7.935   7.389   2.323  1.1600 -0.4133 -0.1027
 9789SOL     OW40295   5.721   1.119   4.344  0.5519 -0.0144  0.1774
 9789SOL    HW140296   5.816   1.087   4.340  0.3773 -0.4129 -1.1029
 9789SOL    HW240297   5.694   1.132   4.439  1.3195 -1.6309  0.6335
 9790SOL     OW40298   2.592   5.712   2.529  0.1994 -0.1104 -0.2474
 9790SOL    HW140299   2.631   5.655   2.456  1.1981 -1.8700  1.6264
 9790SOL    HW240300   2.521   5.661   2.577 -0.7285  1.1896 -0.1793
 9791SOL     OW40301   2.901   4.555   0.133 -0.6735 -0.0320  0.0258
 9791SOL    HW140302   2.838   4.600   0.069 -0.3407  0.4424  0.0364
 9791SOL    HW240303   2.963   4.622   0.172 -0.5335 -0.4116  0.4578
 9792SOL     OW40304   6.034   8.558   3.318  0.4908 -0.0350  0.3528
 9792SOL    HW140305   5.943   8.517   3.329  0.7135 -0.7964 -0.5958
 9792SOL    HW240306   6.075   8.573   3.408  0.6775 -2.5224  0.7361
 9793SOL     OW40307   1.171   8.465   4.135 -0.0387  0.3564  0.4695
 9793SOL    HW140308   1.097   8.532   4.136 -0.2800  0.1035 -0.0423
 9793SOL    HW240309   1.256   8.510   4.107 -0.4546  0.2084 -1.0917
 9794SOL     OW40310   7.019   9.375   1.164  0.0964 -0.1393 -0.1614
 9794SOL    HW140311   7.061   9.296   1.118 -0.0665 -0.4049  0.1389
 9794SOL    HW240312   7.063   9.459   1.134 -0.0289 -0.3123 -0.8206
 9795SOL     OW40313   3.989   7.882   4.909  0.2794  0.1253  0.0112
 9795SOL    HW140314   3.896   7.917   4.920 -0.0736 -0.9115  0.4401
 9795SOL    HW240315   4.047   7.953   4.870 -0.9699  0.3935 -1.3939
 9796SOL     OW40316   8.657   8.366   4.348 -0.1743  0.4118 -0.2462
 9796SOL    HW140317   8.581   8.432   4.353  1.5067  2.5369 -1.8863
 9796SOL    HW240318   8.705   8.364   4.436  1.7249  3.8378 -1.1258
 9797SOL     OW40319   3.777   7.111   3.577 -0.3224 -0.0789 -0.0212
 9797SOL    HW140320   3.782   7.198   3.625  1.6504 -1.2305  1.9725
 9797SOL    HW240321   3.714   7.050   3.625 -0.3198 -0.3666 -0.3769
 9798SOL     OW40322   0.676   2.181   3.997  0.1265 -0.4366  0.1868
 9798SOL    HW140323   0.634   2.234   4.070  0.7859  1.1237 -0.5371
 9798SOL    HW240324   0.623   2.098   3.981 -1.8326  0.7776  0.2673
 9799SOL     OW40325   2.498   9.160   1.961 -0.2110 -0.1007  0.4290
 9799SOL    HW140326   2.466   9.166   1.867 -1.9639  0.4852  1.0335
 9799SOL    HW240327   2.491   9.065   1.993 -2.1955  0.1428  0.8083
 9800SOL     OW40328   9.061   2.407   3.138  0.3500  0.1376  0.2512
 9800SOL    HW140329   9.017   2.329   3.094 -0.1706  1.6071 -1.8934
 9800SOL    HW240330   8.998   2.451   3.202 -0.3476  0.5134 -0.6840
 9801SOL     OW40331   3.869   5.319   5.625 -0.1511  0.3139 -0.3528
 9801SOL    HW140332   3.787   5.372   5.603 -0.6572 -0.8517 -1.3911
 9801SOL    HW240333   3.907   5.282   5.540  0.2017 -0.9481  0.3440
 9802SOL     OW40334   5.092   3.357   2.899  0.6310 -0.1517 -0.0632
 9802SOL    HW140335   5.040   3.430   2.854 -0.6342  0.1845  1.8784
 9802SOL    HW240336   5.102   3.281   2.836 -1.0160  0.3479 -0.9779
 9803SOL     OW40337   9.507   2.260   5.401 -0.3142  0.2625 -0.5470
 9803SOL    HW140338   9.590   2.215   5.368 -0.6946 -0.3477 -0.6913
 9803SOL    HW240339   9.427   2.210   5.367 -0.7145 -0.3525  1.2650
 9804SOL     OW40340   1.031   0.236   4.087  0.5984 -0.2490  0.7904
 9804SOL    HW140341   1.035   0.320   4.141  0.2999  0.6290 -0.5431
 9804SOL    HW240342   1.096   0.241   4.012 -0.1841 -0.7481  0.0663
 9805SOL     OW40343   6.097   0.019   1.407 -0.4526 -0.3368  0.3459
 9805SOL    HW140344   6.072  -0.076   1.386  1.8315 -0.8142 -0.3286
 9805SOL    HW240345   6.191   0.022   1.442 -0.8657  1.5736  1.3246
 9806SOL     OW40346   5.258   7.576   2.577 -0.3590 -0.1569  0.4334
 9806SOL    HW140347   5.202   7.628   2.641 -0.4094  1.1459 -0.6489
 9806SOL    HW240348   5.251   7.479   2.598 -3.7983 -0.1339 -0.2793
 9807SOL     OW40349   8.059   1.693   4.471 -0.9347  0.0569  1.1957
 9807SOL    HW140350   8.136   1.707   4.533 -1.5658 -0.1229  2.0300
 9807SOL    HW240351   7.981   1.748   4.502 -1.0572  0.4666  0.1948
 9808SOL     OW40352   1.604   4.887   2.037 -0.2227 -0.5105  0.2629
 9808SOL    HW140353   1.696   4.862   2.009 -0.6221 -0.4760 -1.1265
 9808SOL    HW240354   1.542   4.809   2.020 -1.0426  0.5520 -1.9221
 9809SOL     OW40355   1.392   1.388   3.545  0.4830  0.3447 -0.5544
 9809SOL    HW140356   1.448   1.430   3.617 -0.6224 -1.1393  1.2015
 9809SOL    HW240357   1.332   1.458   3.506  0.0687  0.8672  0.9658
 9810SOL     OW40358   5.011   1.841   1.129 -0.0218  0.4915  0.0269
 9810SOL    HW140359   4.913   1.860   1.120 -0.6274 -2.4586 -0.2468
 9810SOL    HW240360   5.031   1.817   1.224  0.5385  1.5797  0.1859
 9811SOL     OW40361   2.079   6.285   1.140  0.2482  0.0774 -0.0109
 9811SOL    HW140362   2.134   6.369   1.146 -0.5499  0.5417  1.0298
 9811SOL    HW240363   2.035   6.269   1.228  2.7351 -3.0724  0.7486
 9812SOL     OW40364   8.106   5.342   4.624 -0.2367 -0.4809  0.1772
 9812SOL    HW140365   8.018   5.387   4.638 -0.4458 -0.7552 -0.2249
 9812SOL    HW240366   8.177   5.390   4.675 -0.6590 -0.3925  0.6792
 9813SOL     OW40367   0.335   7.105   3.976  0.0008  0.6756 -0.5131
 9813SOL    HW140368   0.365   7.138   3.886  1.3190  1.5276  0.2210
 9813SOL    HW240369   0.330   7.182   4.040 -0.4828  0.0038  0.2738
 9814SOL     OW40370   0.396   8.691   4.687 -0.0162  0.3273 -0.1926
 9814SOL    HW140371   0.353   8.743   4.760 -0.2424 -2.2026  1.5274
 9814SOL    HW240372   0.385   8.740   4.600 -0.1114  3.1646  1.3588
 9815SOL     OW40373   9.584   9.200   2.575 -0.0006  0.6219  0.2500
 9815SOL    HW140374   9.678   9.166   2.580 -0.0810  0.3637  0.0235
 9815SOL    HW240375   9.572   9.252   2.490 -0.2846 -0.0144 -0.1003
 9816SOL     OW40376   3.083   3.317   4.688 -0.0838 -0.0175  0.0136
 9816SOL    HW140377   3.165   3.351   4.642 -0.0646 -0.1622 -0.0567
 9816SOL    HW240378   3.102   3.229   4.730  0.2762  0.6971  1.3873
 9817SOL     OW40379   5.585   0.590   3.131 -0.3917  0.1637 -0.1697
 9817SOL    HW140380   5.637   0.507   3.152 -1.3919 -0.8864 -1.7530
 9817SOL    HW240381   5.566   0.639   3.216 -0.0572 -1.3877  0.8254
 9818SOL     OW40382   0.144   4.604   1.433  0.5393  0.0011  0.2828
 9818SOL    HW140383   0.151   4.657   1.348  0.4576 -0.5236 -0.0529
 9818SOL    HW240384   0.048   4.596   1.459  0.0507 -4.0470 -2.2750
 9819SOL     OW40385   1.537   0.533   1.666  0.1441 -0.3517  0.4264
 9819SOL    HW140386   1.534   0.493   1.757  1.4163  0.1661  0.7116
 9819SOL    HW240387   1.618   0.500   1.617  0.6316  1.0264  0.2752
 9820SOL     OW40388   9.677   3.327   1.338  0.2817  0.3676 -0.3225
 9820SOL    HW140389   9.651   3.400   1.275  0.2639 -0.0494 -0.8014
 9820SOL    HW240390   9.653   3.354   1.431 -1.4637  0.1959 -0.6988
 9821SOL     OW40391   3.219   5.662   2.451  0.1530 -0.3166  0.9521
 9821SOL    HW140392   3.267   5.587   2.497 -1.7359 -1.5944  0.9371
 9821SOL    HW240393   3.178   5.722   2.520  2.4834  1.2783  0.9752
 9822SOL     OW40394   8.814   1.767   1.054 -0.7980  0.1453  0.3489
 9822SOL    HW140395   8.860   1.735   1.137 -1.0252 -0.4652  0.2400
 9822SOL    HW240396   8.717   1.745   1.058 -0.7328 -0.2992 -0.2669
 9823SOL     OW40397   1.802   9.134   2.522 -0.3561 -0.4298 -0.0029
 9823SOL    HW140398   1.731   9.064   2.518  0.1092 -1.0143  1.7120
 9823SOL    HW240399   1.759   9.225   2.524 -1.0003 -0.7165 -0.6451
 9824SOL     OW40400   3.687   1.979   3.412  0.5197  0.9792  0.0224
 9824SOL    HW140401   3.614   1.984   3.481 -1.1963  1.8606 -1.7903
 9824SOL    HW240402   3.749   2.056   3.425 -0.1934  1.5419  0.1686
 9825SOL     OW40403   9.110   6.150   0.762  0.3242  0.4554  0.1622
 9825SOL    HW140404   9.127   6.138   0.664  0.5745  1.6675  0.0544
 9825SOL    HW240405   9.135   6.066   0.810  0.9728  0.1350 -0.7214
 9826SOL     OW40406   0.920   6.232   2.138 -0.2545  0.5974  0.4468
 9826SOL    HW140407   0.875   6.248   2.226  0.2866  0.9371  0.6654
 9826SOL    HW240408   0.854   6.193   2.074 -0.9200  1.3069  0.6934
 9827SOL     OW40409   2.665   0.345   2.506 -0.2979  0.3109  0.1582
 9827SOL    HW140410   2.693   0.368   2.413 -2.4219  0.4771 -0.4725
 9827SOL    HW240411   2.606   0.264   2.505  1.8075 -1.3330  1.6796
 9828SOL     OW40412   7.141   8.173   1.995  0.0276 -0.2543  0.4490
 9828SOL    HW140413   7.044   8.193   1.986  0.1779  0.1472 -0.3356
 9828SOL    HW240414   7.172   8.117   1.919  0.8720  1.4593 -0.5079
 9829SOL     OW40415   8.125   6.107   4.187 -0.5632 -0.3074 -0.0175
 9829SOL    HW140416   8.027   6.106   4.209 -0.3981 -1.5282  0.6548
 9829SOL    HW240417   8.137   6.091   4.089 -0.9876 -1.1582  0.0678
 9830SOL     OW40418   5.073   0.875   3.460 -0.3454  0.1466 -0.0025
 9830SOL    HW140419   5.041   0.913   3.547 -0.0974 -1.1737  0.6793
 9830SOL    HW240420   5.020   0.915   3.385  0.3643  2.3258  0.6260
 9831SOL     OW40421   0.943   0.929   0.089  0.3387  0.6851 -0.1071
 9831SOL    HW140422   0.877   0.971   0.152  1.7817  0.9745  1.2639
 9831SOL    HW240423   0.989   0.853   0.135  1.4743  0.9564 -0.7786
 9832SOL     OW40424   1.355   4.238   1.391 -0.3025  0.1051  0.0433
 9832SOL    HW140425   1.446   4.230   1.351 -0.5000 -0.3091 -0.3170
 9832SOL    HW240426   1.331   4.153   1.437  0.1367  0.7467  1.5056
 9833SOL     OW40427   7.180   1.579   2.292 -0.3855  0.2952 -0.0004
 9833SOL    HW140428   7.189   1.503   2.357  0.1782  0.4376  0.0830
 9833SOL    HW240429   7.130   1.547   2.211 -1.5341  0.2483  0.7140
 9834SOL     OW40430   9.842   0.402   0.472 -0.2358  0.5169 -0.2475
 9834SOL    HW140431   9.932   0.394   0.513 -0.2602  1.0730 -0.0852
 9834SOL    HW240432   9.851   0.433   0.377 -0.1993 -0.4278 -0.5550
 9835SOL     OW40433   0.948   0.609   5.087  0.5496  0.0986 -0.0951
 9835SOL    HW140434   0.965   0.692   5.139  0.2509 -0.4128  0.8274
 9835SOL    HW240435   1.007   0.536   5.121 -0.4723 -0.5500  0.3030
 9836SOL     OW40436   4.185   9.980   2.957  0.6921 -0.1656  0.2431
 9836SOL    HW140437   4.249   9.923   2.906  0.3341 -0.8005  0.4918
 9836SOL    HW240438   4.148   9.927   3.034 -0.2465  0.1442  0.0044
 9837SOL     OW40439   0.259   2.705   5.267 -0.0993  0.1274  0.0015
 9837SOL    HW140440   0.247   2.804   5.277 -0.9256  0.1873 -1.3982
 9837SOL    HW240441   0.216   2.675   5.182  0.5751 -1.3647  0.1700
 9838SOL     OW40442   8.063   0.054   4.072  0.1091 -0.1789 -0.1968
 9838SOL    HW140443   8.139   0.036   4.008 -0.5595 -0.2411 -0.9847
 9838SOL    HW240444   8.054  -0.022   4.135  0.8546 -0.0685  0.0533
 9839SOL     OW40445   2.267   7.814   4.218  0.0346 -0.1975  0.5223
 9839SOL    HW140446   2.243   7.837   4.313  1.4860 -0.3533  0.9335
 9839SOL    HW240447   2.236   7.722   4.197 -2.0381  0.5454  0.2137
 9840SOL     OW40448   8.569   1.181   2.021 -1.0173 -0.2093  0.3497
 9840SOL    HW140449   8.666   1.200   2.030 -1.0493  0.0750  0.1244
 9840SOL    HW240450   8.543   1.184   1.924 -1.6159  1.5755  0.5358
 9841SOL     OW40451   3.343   7.405   0.259 -0.1687 -0.0906 -0.2197
 9841SOL    HW140452   3.410   7.464   0.306  1.2195 -1.0051 -1.0052
 9841SOL    HW240453   3.334   7.435   0.164  2.0287 -2.3105 -1.1776
 9842SOL     OW40454   1.094   2.464   0.616 -0.1118  0.1545 -1.1807
 9842SOL    HW140455   1.093   2.494   0.711 -1.1401 -0.7751 -0.8839
 9842SOL    HW240456   1.172   2.403   0.601  0.9034  1.4571 -1.3199
 9843SOL     OW40457   9.917   4.331   2.154  0.2714 -0.1251  0.5329
 9843SOL    HW140458   9.829   4.318   2.108  0.6609 -1.7206  0.2068
 9843SOL    HW240459   9.941   4.248   2.204 -0.0740  1.5238  3.5488
 9844SOL     OW40460   6.180   7.276   3.424 -1.0162 -0.1529  0.3695
 9844SOL    HW140461   6.226   7.188   3.422 -0.2270  0.2783 -1.5665
 9844SOL    HW240462   6.085   7.263   3.452 -0.9626 -1.6489 -0.0767
 9845SOL     OW40463   1.130   0.480   2.421 -0.1732 -0.2211 -0.6596
 9845SOL    HW140464   1.188   0.531   2.358  0.9273 -0.0597  0.4601
 9845SOL    HW240465   1.158   0.500   2.516 -0.4123 -2.0704 -0.1803
 9846SOL     OW40466   2.199   6.418   2.880 -0.3423  0.0079  0.3742
 9846SOL    HW140467   2.101   6.399   2.875  0.1097 -2.4760  0.1431
 9846SOL    HW240468   2.244   6.350   2.939  1.3475  0.6184 -0.1576
 9847SOL     OW40469   3.043   3.929   0.486 -0.0126  0.2962 -0.2400
 9847SOL    HW140470   3.022   3.851   0.544  0.7629  0.1137 -0.2049
 9847SOL    HW240471   3.134   3.918   0.446 -0.4951  0.4543 -1.4311
 9848SOL     OW40472   0.670   4.055   4.325 -0.5878  0.1154 -0.0405
 9848SOL    HW140473   0.757   4.105   4.334 -1.1454  0.8762  1.1114
 9848SOL    HW240474   0.681   3.963   4.362 -0.0649 -0.0425 -0.5684
 9849SOL     OW40475   2.009   5.919   5.557 -0.0598 -0.4169 -0.1662
 9849SOL    HW140476   2.099   5.954   5.581 -0.2440  0.0483 -0.1503
 9849SOL    HW240477   1.984   5.845   5.620  0.1079 -0.2241  0.1270
 9850SOL     OW40478   5.664   7.639   4.168 -0.5521  0.5496  0.3103
 9850SOL    HW140479   5.670   7.550   4.124  0.4695  1.1179 -0.7436
 9850SOL    HW240480   5.582   7.687   4.136 -0.0512  0.7783 -0.6500
 9851SOL     OW40481   9.537   2.279   4.574  0.7804 -0.4625  0.1326
 9851SOL    HW140482   9.610   2.324   4.626  0.7777 -1.6465  1.1869
 9851SOL    HW240483   9.576   2.201   4.525  0.3312 -0.7747  0.2698
 9852SOL     OW40484   4.247   2.176   2.442 -0.4810 -0.2111  0.0176
 9852SOL    HW140485   4.311   2.124   2.499 -0.6617 -1.0287 -0.5068
 9852SOL    HW240486   4.293   2.255   2.403 -0.2393  0.1108  0.9568
 9853SOL     OW40487   3.414   2.536   2.600  0.1269  0.4447  0.3217
 9853SOL    HW140488   3.366   2.477   2.664 -2.3324 -2.3662 -3.8539
 9853SOL    HW240489   3.353   2.610   2.570  0.3447  0.2170 -0.7002
 9854SOL     OW40490   9.975   9.393   0.861 -0.1572 -0.0735 -0.0933
 9854SOL    HW140491   9.962   9.490   0.840 -0.1328 -0.1813 -0.6269
 9854SOL    HW240492  10.007   9.345   0.778 -1.1491 -0.7282 -0.1040
 9855SOL     OW40493   1.006   9.523   1.629 -0.1634  0.7545  0.0599
 9855SOL    HW140494   0.964   9.591   1.690  1.4124  0.4550  1.5167
 9855SOL    HW240495   1.087   9.562   1.586 -0.6481  0.5929 -1.0064
 9856SOL     OW40496   3.667   3.617   4.468 -0.6742  0.4832  0.3597
 9856SOL    HW140497   3.635   3.709   4.489 -1.8705  0.0470  0.4469
 9856SOL    HW240498   3.749   3.624   4.410 -1.3532  1.5934 -0.5050
 9857SOL     OW40499   2.041   1.534   1.693 -0.0956  0.5535 -0.4525
 9857SOL    HW140500   1.995   1.574   1.772  1.1286  2.5128 -0.6772
 9857SOL    HW240501   2.095   1.455   1.722  0.2478  1.1857  0.6729
 9858SOL     OW40502   3.047   5.865   3.879  0.0541 -0.4441  0.1113
 9858SOL    HW140503   3.064   5.890   3.783 -1.4378  2.5892  0.5587
 9858SOL    HW240504   3.023   5.947   3.931 -0.1375 -2.1887  2.8910
 9859SOL     OW40505   4.400   5.587   0.947  0.0466 -0.2316  0.2443
 9859SOL    HW140506   4.407   5.515   1.016  0.2827  0.6028  1.0968
 9859SOL    HW240507   4.304   5.601   0.923 -0.0767 -0.1825  0.7666
 9860SOL     OW40508   5.750   9.445   2.601 -0.0169 -0.2921  0.0522
 9860SOL    HW140509   5.724   9.462   2.696 -2.8502  0.4268 -0.8130
 9860SOL    HW240510   5.710   9.359   2.569 -0.5943  0.3643 -1.0304
 9861SOL     OW40511   6.837   1.306   3.965 -0.5673 -0.4086 -0.1320
 9861SOL    HW140512   6.861   1.394   4.006 -1.2388  0.9553 -2.5555
 9861SOL    HW240513   6.839   1.235   4.036  0.0458  1.5169  1.8614
 9862SOL     OW40514   1.532   7.408   5.344  0.5581  0.0540 -0.0563
 9862SOL    HW140515   1.448   7.447   5.384  1.5116 -1.5466  3.7408
 9862SOL    HW240516   1.509   7.324   5.295 -0.2669  0.4088 -0.2860
 9863SOL     OW40517   1.489   6.941   3.010 -0.5964  0.5351 -0.0368
 9863SOL    HW140518   1.513   6.961   2.915  2.6546  0.8458  0.7755
 9863SOL    HW240519   1.466   6.844   3.018 -1.2188  0.5715 -1.1854
 9864SOL     OW40520   4.127   8.113   2.813  0.1015  0.1232  0.0882
 9864SOL    HW140521   4.142   8.104   2.911 -2.7027  0.7223  0.6059
 9864SOL    HW240522   4.034   8.086   2.790  0.1881  1.5420 -2.1923
 9865SOL     OW40523   6.803   8.693   2.631 -0.3169  0.3498 -0.0894
 9865SOL    HW140524   6.902   8.683   2.623 -0.0522  2.2671  0.4703
 9865SOL    HW240525   6.768   8.742   2.550 -1.0513 -1.7894 -1.0916
 9866SOL     OW40526   2.247   9.826   4.583 -0.2339  0.2853  0.0338
 9866SOL    HW140527   2.187   9.854   4.508 -1.2928 -0.1378  0.7100
 9866SOL    HW240528   2.342   9.843   4.557 -0.7185  2.6464 -0.3711
 9867SOL     OW40529   3.351   4.029   2.514  0.4475  0.8804 -0.6841
 9867SOL    HW140530   3.448   4.021   2.536  0.2427  0.1024 -0.0148
 9867SOL    HW240531   3.327   4.125   2.503  1.1334  1.1243 -0.0867
 9868SOL     OW40532   7.263   0.032   1.081  0.7773  0.0333 -0.1640
 9868SOL    HW140533   7.223  -0.052   1.047  0.9134 -0.1781  0.1939
 9868SOL    HW240534   7.232   0.048   1.175  0.7784  0.3628 -0.2184
 9869SOL     OW40535   8.318   9.534   1.089 -0.1877 -0.2247  0.1970
 9869SOL    HW140536   8.326   9.447   1.138  0.2847  0.5881  1.6012
 9869SOL    HW240537   8.286   9.605   1.152 -1.6506  0.3791 -1.2151
 9870SOL     OW40538   2.964   5.484   2.424  0.0671  0.2555 -0.2649
 9870SOL    HW140539   3.062   5.494   2.406 -0.0627 -0.7970 -1.6220
 9870SOL    HW240540   2.950   5.461   2.520  1.2592 -1.1886 -0.4181
 9871SOL     OW40541   2.383   3.840   1.672  0.1151  0.4918  0.1547
 9871SOL    HW140542   2.354   3.848   1.767 -0.8162  1.8277 -0.2245
 9871SOL    HW240543   2.407   3.931   1.637  0.8358 -0.0397 -0.7705
 9872SOL     OW40544   0.958   2.726   4.926 -0.4047  0.0650  0.1080
 9872SOL    HW140545   1.002   2.655   4.981  0.2834  0.3807 -0.0309
 9872SOL    HW240546   0.902   2.683   4.854  0.9050 -0.3400 -0.6870
 9873SOL     OW40547   8.831   4.658   3.321  0.1613 -0.3378 -0.5175
 9873SOL    HW140548   8.900   4.613   3.264  1.8886  0.3268  1.0291
 9873SOL    HW240549   8.875   4.721   3.384 -2.1036  2.4828 -1.6230
 9874SOL     OW40550   2.469   6.808   2.680  0.0187  0.1518 -0.6047
 9874SOL    HW140551   2.378   6.770   2.696 -0.3167  0.8833 -0.7229
 9874SOL    HW240552   2.526   6.793   2.760 -0.4985  0.5084 -0.1659
 9875SOL     OW40553   3.434   2.039   1.764 -0.1246  0.4087  0.0048
 9875SOL    HW140554   3.371   2.058   1.688 -0.9497  0.6301  0.7294
 9875SOL    HW240555   3.511   1.985   1.731 -1.2439 -0.7955 -0.7007
 9876SOL     OW40556   2.659   7.761   2.320 -0.6821  0.3254 -0.3903
 9876SOL    HW140557   2.628   7.771   2.226  2.2259 -1.8088 -1.6394
 9876SOL    HW240558   2.745   7.812   2.332 -0.0482 -0.9529  0.5808
 9877SOL     OW40559   2.858   2.230   4.993  0.0489  0.4490  0.1674
 9877SOL    HW140560   2.808   2.308   4.955  0.0673 -0.1221 -1.0580
 9877SOL    HW240561   2.910   2.185   4.920  0.6150 -0.2726  1.0068
 9878SOL     OW40562   2.488   2.620   5.592  0.1425 -0.3068  0.1368
 9878SOL    HW140563   2.516   2.531   5.556  1.0618 -0.4208  1.1177
 9878SOL    HW240564   2.424   2.663   5.528 -1.2534 -2.1809  0.2242
 9879SOL     OW40565   0.334   5.191   3.213  0.2150  0.3446  0.4323
 9879SOL    HW140566   0.411   5.128   3.204 -1.0173 -0.8839 -1.8277
 9879SOL    HW240567   0.282   5.168   3.296  1.3785  0.2175  1.1461
 9880SOL     OW40568   0.675   7.566   0.843 -0.5473  0.2463 -0.4686
 9880SOL    HW140569   0.687   7.505   0.921  0.3769  1.2313  0.1688
 9880SOL    HW240570   0.583   7.553   0.805 -0.9572 -0.3263  0.6986
 9881SOL     OW40571   8.955   0.616   0.948  0.4414 -0.0839 -0.2460
 9881SOL    HW140572   8.883   0.670   0.992  2.4257  3.1959 -0.8221
 9881SOL    HW240573   8.937   0.610   0.850  1.3700  1.4900 -0.5256
 9882SOL     OW40574   9.402   3.774   3.811 -0.4561 -0.5288  0.0707
 9882SOL    HW140575   9.418   3.839   3.737 -0.4405 -1.0010 -0.3452
 9882SOL    HW240576   9.392   3.682   3.773 -1.0719 -0.6850  0.6001
 9883SOL     OW40577   4.697   7.572   2.248 -0.4033  0.5874  0.1742
 9883SOL    HW140578   4.690   7.618   2.337 -1.8488  2.8624 -1.0462
 9883SOL    HW240579   4.753   7.628   2.187 -0.9129 -0.0427 -0.8793
 9884SOL     OW40580   1.690   5.002   4.800  0.4507  0.4857 -0.4768
 9884SOL    HW140581   1.774   5.055   4.811  0.1626  1.2485 -1.7440
 9884SOL    HW240582   1.611   5.063   4.809  0.0125 -0.2635  0.9296
 9885SOL     OW40583   4.294   1.002   0.945 -0.1732  0.3297  0.6363
 9885SOL    HW140584   4.339   0.916   0.921  0.9739  1.2538 -0.6627
 9885SOL    HW240585   4.353   1.053   1.008 -0.1129  0.8582  0.1567
 9886SOL     OW40586   0.027   0.323   4.921 -0.3607 -0.0608 -0.5493
 9886SOL    HW140587   0.028   0.411   4.968  0.1732 -0.1266 -0.4390
 9886SOL    HW240588   0.107   0.270   4.947  0.0483 -0.0207 -1.6705
 9887SOL     OW40589   4.056   8.866   1.179 -0.0476 -0.1373  0.0299
 9887SOL    HW140590   4.000   8.788   1.205 -1.6338  1.3995  1.4291
 9887SOL    HW240591   4.118   8.889   1.254 -0.6926  0.8767  0.2715
 9888SOL     OW40592   8.525   1.743   4.477  0.1927  0.7969 -0.2870
 9888SOL    HW140593   8.525   1.700   4.568 -0.3131 -1.3556 -1.2697
 9888SOL    HW240594   8.617   1.742   4.439  0.0507 -0.1516 -0.6236
 9889SOL     OW40595   4.717   7.078   1.716 -0.0661 -0.3560  0.5349
 9889SOL    HW140596   4.640   7.026   1.754 -0.6093 -0.6942 -0.9947
 9889SOL    HW240597   4.695   7.106   1.623  1.1739  0.6348  0.5276
 9890SOL     OW40598   9.991   6.420   5.483 -0.0344  0.3482 -0.4486
 9890SOL    HW140599   9.960   6.364   5.406  0.1469  0.1408 -0.3695
 9890SOL    HW240600  10.075   6.382   5.521 -1.1853 -0.6965  1.1159
 9891SOL     OW40601   2.245   7.940   3.051  0.6627 -0.9620  0.1832
 9891SOL    HW140602   2.286   7.983   2.970 -2.9971  0.8458 -0.8223
 9891SOL    HW240603   2.197   7.857   3.023 -3.5186  1.4499 -0.2443
 9892SOL     OW40604   9.607   8.574   0.361  0.1262  0.0395 -0.1091
 9892SOL    HW140605   9.587   8.643   0.292 -1.3042 -0.3941 -0.1508
 9892SOL    HW240606   9.583   8.484   0.326 -0.4272 -0.2025  0.8857
 9893SOL     OW40607   7.522   9.225   4.474  0.0064 -0.0633  0.0833
 9893SOL    HW140608   7.581   9.144   4.468 -0.6184 -0.4858 -0.4065
 9893SOL    HW240609   7.438   9.210   4.421  1.1430  1.9887 -2.4416
 9894SOL     OW40610   4.048   0.569   3.016 -0.3069 -0.5455  0.4062
 9894SOL    HW140611   4.042   0.650   3.074  1.9852  0.1200 -0.2227
 9894SOL    HW240612   4.030   0.487   3.070 -1.8673  0.3358  1.2155
 9895SOL     OW40613   5.814   0.828   4.370 -0.4493  0.1014 -0.0677
 9895SOL    HW140614   5.853   0.737   4.382  1.9400  1.2958  1.5256
 9895SOL    HW240615   5.883   0.889   4.330 -1.3456  1.7388  0.8297
 9896SOL     OW40616   4.743   3.741   3.782 -0.0625 -0.1600 -0.0678
 9896SOL    HW140617   4.777   3.830   3.752 -1.4470  0.5262  0.3418
 9896SOL    HW240618   4.820   3.683   3.808  0.9197  0.5315 -1.3600
 9897SOL     OW40619   2.484   3.918   5.375  0.3579  0.0899  0.3901
 9897SOL    HW140620   2.493   4.016   5.356  0.7977  0.3583  1.9363
 9897SOL    HW240621   2.567   3.871   5.345 -0.7197 -0.1392 -2.3277
 9898SOL     OW40622   1.392   7.589   0.798 -0.3671 -0.1234  0.4334
 9898SOL    HW140623   1.349   7.583   0.889 -2.6974  0.3276 -0.5906
 9898SOL    HW240624   1.423   7.683   0.783 -0.5504 -0.0448  0.5330
 9899SOL     OW40625   9.151   2.313   2.712 -0.6395  0.2865  0.1319
 9899SOL    HW140626   9.069   2.275   2.756 -1.8063  1.4119 -1.0186
 9899SOL    HW240627   9.217   2.340   2.782 -2.0945  1.2095  1.1836
 9900SOL     OW40628   1.908   3.093   3.347  0.3018  0.2154  0.3479
 9900SOL    HW140629   1.872   3.153   3.275  0.1196 -0.3482 -0.0360
 9900SOL    HW240630   2.006   3.081   3.333  0.3212  0.3462  0.3680
 9901SOL     OW40631   6.985   0.512   0.901 -0.2917  0.1167 -0.0465
 9901SOL    HW140632   7.080   0.540   0.915  0.1522 -1.4725  0.2569
 9901SOL    HW240633   6.969   0.425   0.947 -2.4501  1.3379  1.5935
 9902SOL     OW40634   0.901   6.635   2.873  0.7360 -0.0226 -0.8520
 9902SOL    HW140635   0.915   6.715   2.815  0.4095  0.2597 -0.5433
 9902SOL    HW240636   0.806   6.603   2.864  0.5791  0.2464 -0.1963
 9903SOL     OW40637   2.417   9.158   1.683  0.3198 -0.5680  0.5824
 9903SOL    HW140638   2.406   9.257   1.670 -0.9339 -0.4566  2.2621
 9903SOL    HW240639   2.368   9.109   1.611  1.2674  0.0238 -0.4778
 9904SOL     OW40640   3.900   9.024   1.862  0.8046 -0.0708 -0.3327
 9904SOL    HW140641   3.813   9.053   1.822  0.4413 -1.5747 -0.6483
 9904SOL    HW240642   3.884   8.981   1.951  1.3951  1.1121  0.3706
 9905SOL     OW40643   8.509   3.716   0.457 -0.3391  0.0483  0.1454
 9905SOL    HW140644   8.586   3.669   0.499  1.0108  3.2931  1.4014
 9905SOL    HW240645   8.429   3.708   0.517  0.1320  0.1553  0.7950
 9906SOL     OW40646   7.428   7.197   3.397 -0.0225  0.3234  0.2906
 9906SOL    HW140647   7.466   7.251   3.471  0.8161  1.2899 -0.8272
 9906SOL    HW240648   7.398   7.257   3.323 -0.5355 -0.6409 -0.3079
 9907SOL     OW40649   5.676   9.217   3.514  0.2611  0.2416  0.7176
 9907SOL    HW140650   5.734   9.241   3.436  0.3899 -1.5935  0.2426
 9907SOL    HW240651   5.657   9.300   3.567  2.4016  1.0577  0.2710
 9908SOL     OW40652   3.586   5.068   2.518 -0.9092 -0.6002  0.3247
 9908SOL    HW140653   3.507   5.035   2.570 -3.1229  0.9033 -1.9283
 9908SOL    HW240654   3.570   5.050   2.420  1.3421  0.1516 -0.2020
 9909SOL     OW40655   2.983   8.880   5.370  0.0138  0.3212 -0.1072
 9909SOL    HW140656   2.947   8.812   5.434 -1.9711  1.7267  0.3116
 9909SOL    HW240657   2.969   8.971   5.408  0.8760  1.0605 -1.5429
 9910SOL     OW40658   1.166   4.944   3.390 -0.5120  0.1515 -0.3168
 9910SOL    HW140659   1.197   4.854   3.359 -0.4368 -0.2326  0.8522
 9910SOL    HW240660   1.226   5.014   3.354  1.9991 -0.6082  2.2512
 9911SOL     OW40661   3.894   4.243   4.939  0.2834 -0.5479 -0.2621
 9911SOL    HW140662   3.808   4.291   4.958  0.2629 -1.2999  1.6126
 9911SOL    HW240663   3.873   4.156   4.894  0.3234  1.1464 -3.6978
 9912SOL     OW40664   4.507   1.562   2.626 -0.5826  0.7741 -0.2732
 9912SOL    HW140665   4.517   1.621   2.546  1.3490 -0.9348 -1.3465
 9912SOL    HW240666   4.576   1.586   2.695  0.3206 -0.3190 -0.7843
 9913SOL     OW40667   3.431   3.201   4.967 -0.6118  0.1849 -0.0742
 9913SOL    HW140668   3.509   3.174   4.911 -0.1040  1.3174  0.0959
 9913SOL    HW240669   3.416   3.299   4.959 -2.1455 -0.0454 -0.2641
 9914SOL     OW40670   9.986   0.928   3.310  0.3520  0.0595 -0.8218
 9914SOL    HW140671   9.997   1.018   3.268 -0.0728  1.0051  1.0299
 9914SOL    HW240672   9.888   0.908   3.321  0.4580  0.0850  0.2283
 9915SOL     OW40673   8.562   5.150   0.516  0.4741  0.4845 -0.2176
 9915SOL    HW140674   8.626   5.205   0.570  0.6030  0.7268 -0.6188
 9915SOL    HW240675   8.545   5.194   0.428 -1.4093  1.1676  0.4741
 9916SOL     OW40676   7.782   5.428   0.616 -0.0428  0.2048 -0.3205
 9916SOL    HW140677   7.711   5.423   0.546 -0.4082  1.8195 -0.0721
 9916SOL    HW240678   7.765   5.506   0.676  2.2759  0.9857 -0.6218
 9917SOL     OW40679   9.190   1.277   4.457 -0.0275  0.0092  0.0075
 9917SOL    HW140680   9.238   1.313   4.377  0.1563 -0.1277  0.0551
 9917SOL    HW240681   9.202   1.339   4.534 -3.1499  1.9812 -0.9921
 9918SOL     OW40682   6.307   8.133   4.133 -0.4697 -0.4597 -0.0511
 9918SOL    HW140683   6.276   8.078   4.056  0.4584  1.4269 -1.8106
 9918SOL    HW240684   6.406   8.124   4.143 -0.1509  1.6148 -0.9939
 9919SOL     OW40685   9.064   1.510   2.143  0.3864  0.1226  0.0335
 9919SOL    HW140686   8.991   1.514   2.075  1.5183 -0.6040 -1.2523
 9919SOL    HW240687   9.077   1.601   2.183  0.0248  0.6681 -1.0585
 9920SOL     OW40688   3.471   8.807   4.111  0.1575 -0.7231  0.2939
 9920SOL    HW140689   3.531   8.863   4.055 -0.4759 -0.5534 -0.2205
 9920SOL    HW240690   3.403   8.865   4.156  0.0651 -0.9715  0.4747
 9921SOL     OW40691   0.071   9.937   2.298 -0.1636 -0.0768  0.0734
 9921SOL    HW140692   0.161   9.893   2.294 -0.6426 -1.0595 -0.1337
 9921SOL    HW240693   0.022   9.905   2.379 -0.8102 -0.4988 -0.4835
 9922SOL     OW40694   0.478   3.102   0.852  0.3605  0.1641  0.4121
 9922SOL    HW140695   0.483   3.006   0.826 -1.4315  0.1486  0.0447
 9922SOL    HW240696   0.516   3.158   0.778 -0.7352 -0.1412 -0.4038
 9923SOL     OW40697   4.139   1.800   1.975  0.3563 -0.9174 -0.2261
 9923SOL    HW140698   4.176   1.748   2.052  0.8274 -0.6341 -0.2626
 9923SOL    HW240699   4.092   1.881   2.010 -1.5072 -2.0282 -0.0800
 9924SOL     OW40700   8.168   8.290   4.973 -0.6656  0.6421  0.0224
 9924SOL    HW140701   8.125   8.379   4.957 -2.5478 -0.2565 -0.0985
 9924SOL    HW240702   8.215   8.291   5.061 -1.3176  1.5322  0.3705
 9925SOL     OW40703   2.857   3.814   4.804  0.3359  0.3197 -0.3304
 9925SOL    HW140704   2.812   3.785   4.888  0.6816  1.5517  0.2943
 9925SOL    HW240705   2.815   3.899   4.771  1.1635  0.6329 -0.5969
 9926SOL     OW40706   3.386   5.967   4.010  0.5459 -0.0020 -0.2145
 9926SOL    HW140707   3.326   6.031   3.963 -1.6931 -0.2822  2.1318
 9926SOL    HW240708   3.345   5.876   4.012  2.2605 -0.8152 -0.8233
 9927SOL     OW40709   1.818   9.006   1.958  0.2141  0.0661 -0.3403
 9927SOL    HW140710   1.746   9.033   1.894 -1.1675 -0.3603  1.0022
 9927SOL    HW240711   1.885   9.080   1.966  1.3413 -0.5319 -3.5457
 9928SOL     OW40712   3.701   0.039   4.265  0.0122 -0.2176 -0.7392
 9928SOL    HW140713   3.712   0.122   4.319  0.9757 -0.9385  0.1972
 9928SOL    HW240714   3.790  -0.002   4.248 -0.5538 -1.9108  0.1970
 9929SOL     OW40715   9.503   2.689   4.802 -0.6069  0.3868 -0.2189
 9929SOL    HW140716   9.424   2.628   4.804 -0.3886  0.1122  0.0109
 9929SOL    HW240717   9.472   2.782   4.783 -1.0087  0.3196  0.0897
 9930SOL     OW40718   9.764   8.301   2.210 -0.1112 -0.2203 -0.0904
 9930SOL    HW140719   9.707   8.360   2.268 -0.9245 -1.0238 -0.0575
 9930SOL    HW240720   9.859   8.308   2.239 -0.2332  0.8740  0.0816
 9931SOL     OW40721   2.671   7.768   1.584 -0.5211 -0.1357  0.2905
 9931SOL    HW140722   2.617   7.801   1.661 -0.1062 -0.1559  0.5895
 9931SOL    HW240723   2.768   7.785   1.601 -0.5551  1.4662 -1.0169
 9932SOL     OW40724   4.527   3.339   1.614 -0.6783  0.0978  0.3021
 9932SOL    HW140725   4.492   3.269   1.677  2.1028  0.1258  1.9465
 9932SOL    HW240726   4.527   3.428   1.659  1.7885  0.0369  0.4467
 9933SOL     OW40727   2.998   7.424   4.942 -0.1291  0.1528  0.1741
 9933SOL    HW140728   3.091   7.444   4.911 -0.0060 -0.2141  0.3044
 9933SOL    HW240729   2.934   7.484   4.895  0.3046  1.3525  1.0751
 9934SOL     OW40730   2.142   6.636   0.963 -0.6835  0.3617 -0.4477
 9934SOL    HW140731   2.065   6.692   0.994 -1.0328 -0.8331  0.8884
 9934SOL    HW240732   2.196   6.607   1.042  0.9626  0.9150 -1.3517
 9935SOL     OW40733   0.837   1.299   2.114  0.0176 -0.4148  0.2901
 9935SOL    HW140734   0.850   1.355   2.196 -0.5735 -1.5102  1.1548
 9935SOL    HW240735   0.795   1.354   2.042 -0.3256  0.3135  1.0414
 9936SOL     OW40736   9.549   5.794   5.540  0.2529  0.6746 -0.7481
 9936SOL    HW140737   9.461   5.841   5.536  0.1599  0.4910 -0.8757
 9936SOL    HW240738   9.609   5.841   5.604 -0.3827  0.0674  0.3194
 9937SOL     OW40739   0.319   8.302   0.905 -0.4647 -0.7810 -0.3331
 9937SOL    HW140740   0.254   8.351   0.963  0.0529 -0.7237  0.2097
 9937SOL    HW240741   0.375   8.241   0.962 -0.5281 -1.3703 -0.8883
 9938SOL     OW40742   7.155   6.690   4.074  0.7775 -0.1067 -0.5229
 9938SOL    HW140743   7.134   6.594   4.093 -1.2349  0.6163  1.2032
 9938SOL    HW240744   7.082   6.748   4.112  1.3969  2.0516 -2.4725
 9939SOL     OW40745   2.953   6.504   5.006  0.1527 -0.1375 -0.3051
 9939SOL    HW140746   3.010   6.531   5.084 -1.4595 -0.0689  0.8601
 9939SOL    HW240747   2.857   6.508   5.031 -0.5054  1.8471 -2.9224
 9940SOL     OW40748   9.382   0.700   0.471  0.2108 -0.1916 -0.0733
 9940SOL    HW140749   9.482   0.698   0.468  0.2143  0.6513 -0.9408
 9940SOL    HW240750   9.345   0.651   0.393 -0.0226  0.7010 -0.5382
 9941SOL     OW40751   7.690   8.545   1.821 -0.4886 -0.3216 -0.3760
 9941SOL    HW140752   7.719   8.571   1.729 -2.3781  1.1488 -0.5819
 9941SOL    HW240753   7.677   8.627   1.877  2.5106 -1.2413  1.8512
 9942SOL     OW40754   9.354   9.108   4.521 -0.0468  0.0646  0.5997
 9942SOL    HW140755   9.453   9.092   4.521 -0.0109  0.2650 -0.3122
 9942SOL    HW240756   9.327   9.152   4.435 -1.1055 -1.1437  0.2919
 9943SOL     OW40757   7.877   3.235   0.102  0.8318  0.7317 -0.3029
 9943SOL    HW140758   7.910   3.298   0.031  2.4345 -0.1108 -0.3280
 9943SOL    HW240759   7.930   3.150   0.098  0.1069  0.2089  1.1106
 9944SOL     OW40760   0.864   2.977   2.174  0.2753 -0.0500  0.0042
 9944SOL    HW140761   0.915   3.001   2.092  3.0763  3.6126  2.6413
 9944SOL    HW240762   0.768   3.005   2.163  0.7421  0.9378 -1.7716
 9945SOL     OW40763   0.054   9.341   4.830  0.0941  0.2033 -0.7476
 9945SOL    HW140764  -0.039   9.377   4.831 -0.5942 -1.4794  0.6744
 9945SOL    HW240765   0.062   9.272   4.759 -0.5151 -1.4394  0.7273
 9946SOL     OW40766   9.448   9.841   1.116  0.4341  0.1442 -0.2854
 9946SOL    HW140767   9.443   9.764   1.179  0.5461  0.2072 -0.1968
 9946SOL    HW240768   9.361   9.889   1.115  0.4799  0.2343 -0.0578
 9947SOL     OW40769   1.803   6.103   3.122  0.3340  0.7070  0.3470
 9947SOL    HW140770   1.766   6.014   3.096 -0.4618  1.4289 -1.0739
 9947SOL    HW240771   1.732   6.173   3.109  0.4473  1.3402  2.9218
 9948SOL     OW40772   8.742   4.552   0.977 -0.1980 -0.0411  0.2940
 9948SOL    HW140773   8.710   4.628   0.920 -2.3685 -0.0772  1.3789
 9948SOL    HW240774   8.782   4.482   0.919 -0.9358  0.6078 -1.0444
 9949SOL     OW40775   0.501   2.272   1.765 -0.2157 -0.6534 -0.1313
 9949SOL    HW140776   0.560   2.191   1.764  0.6469 -0.0328 -1.3285
 9949SOL    HW240777   0.407   2.245   1.745  0.4884 -1.0753 -3.1038
 9950SOL     OW40778   6.162   0.526   2.790 -0.1199  0.1838  0.3054
 9950SOL    HW140779   6.231   0.484   2.730  0.7010 -1.9756  2.6723
 9950SOL    HW240780   6.203   0.603   2.838 -0.4406  1.1757 -0.9706
 9951SOL     OW40781   9.350   4.269   5.089  0.4327  0.3286 -0.4363
 9951SOL    HW140782   9.259   4.310   5.096  0.5208  0.8362 -2.0135
 9951SOL    HW240783   9.420   4.340   5.096  0.6484  0.1808 -1.0110
 9952SOL     OW40784   9.550   9.478   0.155  0.7717  0.2704 -0.2576
 9952SOL    HW140785   9.570   9.391   0.111  0.9155  0.4793 -0.6057
 9952SOL    HW240786   9.606   9.550   0.113  1.4164  0.3517  0.7209
 9953SOL     OW40787   8.071   2.314   5.297  0.0199 -0.8007 -0.7948
 9953SOL    HW140788   8.056   2.311   5.198 -0.8635  1.3513 -0.7387
 9953SOL    HW240789   7.986   2.290   5.345 -0.3577  0.9940 -0.5501
 9954SOL     OW40790   0.154   4.597   0.501 -0.2568 -0.1403 -0.0194
 9954SOL    HW140791   0.167   4.637   0.411  1.4543  0.4134  0.4502
 9954SOL    HW240792   0.083   4.526   0.497 -0.2651 -0.0434 -1.7603
 9955SOL     OW40793   0.632   2.643   4.668  0.2444  0.9196 -0.7641
 9955SOL    HW140794   0.687   2.718   4.706  0.5375  0.4663 -0.2782
 9955SOL    HW240795   0.673   2.555   4.695  0.3083  0.5888 -1.9304
 9956SOL     OW40796   3.348   2.353   2.000  0.3814 -0.0305 -0.3836
 9956SOL    HW140797   3.426   2.304   1.961  0.4090 -0.1587 -0.1662
 9956SOL    HW240798   3.326   2.315   2.090  1.1791  1.1481  0.3193
 9957SOL     OW40799   3.866   2.390   1.781  0.0837  0.3375 -0.2947
 9957SOL    HW140800   3.842   2.454   1.708 -0.7880 -0.1560 -0.4451
 9957SOL    HW240801   3.843   2.431   1.870 -1.6525 -0.2599 -0.4514
 9958SOL     OW40802   0.332   6.295   0.812  0.2565  0.0977 -0.4833
 9958SOL    HW140803   0.364   6.215   0.762  0.8370  0.3979 -0.5894
 9958SOL    HW240804   0.396   6.317   0.885  0.1823  0.5629 -0.5568
 9959SOL     OW40805   0.317   8.809   4.011 -0.2664  0.0540  0.0041
 9959SOL    HW140806   0.288   8.755   3.932 -2.0654  0.0513  0.6424
 9959SOL    HW240807   0.237   8.834   4.066  0.9416  0.1933  1.7422
 9960SOL     OW40808   8.417   6.537   5.109  0.1965  0.3159 -0.1144
 9960SOL    HW140809   8.504   6.584   5.113 -0.1411  0.8652  1.0914
 9960SOL    HW240810   8.383   6.521   5.202 -0.7547 -0.3179 -0.5528
 9961SOL     OW40811   9.872   6.355   0.860  0.4445  0.0750 -0.1959
 9961SOL    HW140812   9.821   6.320   0.782  0.7296  0.9799 -0.7952
 9961SOL    HW240813   9.965   6.319   0.858 -0.5407 -2.7734  1.7151
 9962SOL     OW40814   4.089   4.979   2.071  0.0059  0.0854 -0.5025
 9962SOL    HW140815   4.034   5.062   2.063  0.7388  0.4893 -1.4413
 9962SOL    HW240816   4.089   4.931   1.983  0.0501 -0.6185 -0.1222
 9963SOL     OW40817   3.651   1.905   4.448 -0.2478  0.2154 -0.2154
 9963SOL    HW140818   3.566   1.882   4.493  0.1436 -1.6218 -0.3827
 9963SOL    HW240819   3.664   1.846   4.368  2.1050 -0.9261  0.9380
 9964SOL     OW40820   2.232   3.216   2.609 -0.4202  0.4625  0.5161
 9964SOL    HW140821   2.321   3.231   2.566  0.4075 -2.1071  1.2356
 9964SOL    HW240822   2.243   3.224   2.709 -1.1532  0.8418  0.5651
 9965SOL     OW40823   4.241   9.267   5.602 -0.1528 -0.6098 -0.5241
 9965SOL    HW140824   4.228   9.171   5.627 -1.5285 -0.1882  0.4407
 9965SOL    HW240825   4.210   9.282   5.509 -0.1224 -1.0619 -0.6083
 9966SOL     OW40826   4.149   4.791   4.340  0.1382 -0.8437  0.0261
 9966SOL    HW140827   4.155   4.861   4.410 -0.6300 -0.0001 -0.7413
 9966SOL    HW240828   4.188   4.825   4.255 -1.2100 -0.9468 -0.6500
 9967SOL     OW40829   2.867   4.524   1.043  0.3997  0.4091  0.2323
 9967SOL    HW140830   2.925   4.553   1.120  0.7569  0.9344 -0.2360
 9967SOL    HW240831   2.920   4.466   0.981  0.2040  0.2626  0.2003
 9968SOL     OW40832   5.696   0.730   1.427 -0.3316  0.2929 -0.0769
 9968SOL    HW140833   5.628   0.735   1.500 -2.7648  1.7399 -2.3328
 9968SOL    HW240834   5.663   0.670   1.355  1.5788 -0.3118 -0.4870
 9969SOL     OW40835   9.712   4.775   2.936  0.0891 -0.0278  0.5653
 9969SOL    HW140836   9.787   4.801   2.997  0.3601 -0.2189  0.3181
 9969SOL    HW240837   9.644   4.848   2.934  0.3625  0.2308  0.6451
 9970SOL     OW40838   0.110   4.798   3.650 -0.3219 -0.3456  0.5412
 9970SOL    HW140839   0.016   4.823   3.628 -0.1500 -1.1245 -1.1840
 9970SOL    HW240840   0.130   4.823   3.745 -1.8353  1.0451  0.5174
 9971SOL     OW40841   2.239   5.172   5.569  0.5310  0.1898 -0.5173
 9971SOL    HW140842   2.298   5.111   5.516  2.4835  0.5604  1.2159
 9971SOL    HW240843   2.239   5.144   5.665  0.3180  2.0462  0.0418
 9972SOL     OW40844   8.754   8.516   3.684  0.4531 -0.6262 -0.4568
 9972SOL    HW140845   8.847   8.554   3.687 -0.4337  1.6585 -0.9249
 9972SOL    HW240846   8.758   8.417   3.699  2.8585 -0.4024  0.6088
 9973SOL     OW40847   1.042   1.759   1.048 -0.1953  0.5389  0.3531
 9973SOL    HW140848   1.027   1.857   1.062  0.8881  0.7809 -0.1220
 9973SOL    HW240849   1.075   1.744   0.955 -1.4012 -0.4050  0.0648
 9974SOL     OW40850   4.682   4.934   4.977  0.2819  0.1259 -0.0736
 9974SOL    HW140851   4.766   4.966   5.021  0.8450  0.5809 -1.4330
 9974SOL    HW240852   4.635   4.870   5.037  0.5145  1.4775  1.5883
 9975SOL     OW40853   1.578   0.250   0.974  0.9859  0.3687  0.6583
 9975SOL    HW140854   1.549   0.166   1.021  0.1180  0.7077  0.7435
 9975SOL    HW240855   1.498   0.296   0.936  1.6565  0.1934 -1.0247
 9976SOL     OW40856   3.897   8.799   3.035  0.1511  0.2677 -0.0157
 9976SOL    HW140857   3.843   8.715   3.038  0.8646 -0.1822  0.1541
 9976SOL    HW240858   3.864   8.857   2.960 -0.0076 -0.3821 -0.4495
 9977SOL     OW40859   1.620   5.773   4.118  0.3968 -0.0590 -0.0112
 9977SOL    HW140860   1.717   5.787   4.137  0.3704  0.4744 -0.2731
 9977SOL    HW240861   1.597   5.809   4.027 -0.2610  0.7512  0.4657
 9978SOL     OW40862   8.568   1.146   4.738 -0.2394  0.6084 -0.4191
 9978SOL    HW140863   8.651   1.173   4.688 -0.7983  0.0650 -1.6675
 9978SOL    HW240864   8.549   1.050   4.721 -0.0467  0.2284  1.4533
 9979SOL     OW40865   8.672   6.636   3.497 -0.1819  0.2216  0.6615
 9979SOL    HW140866   8.770   6.625   3.513  0.0169 -0.2775 -0.8525
 9979SOL    HW240867   8.623   6.630   3.584  0.8767 -2.1831  1.1094
 9980SOL     OW40868   3.838   7.689   0.527 -0.2954 -0.2776  0.8090
 9980SOL    HW140869   3.922   7.653   0.486 -0.7734 -0.6327  0.1416
 9980SOL    HW240870   3.856   7.780   0.564  0.3069 -0.2221  0.3963
 9981SOL     OW40871   1.726   9.882   4.240  0.1776 -0.3277 -0.7540
 9981SOL    HW140872   1.724   9.857   4.144 -0.0963 -2.0808 -0.3072
 9981SOL    HW240873   1.778   9.814   4.292 -0.1897  0.2670  0.4287
 9982SOL     OW40874   2.668   9.340   4.500 -0.3682  0.1224  0.2737
 9982SOL    HW140875   2.632   9.386   4.581  1.1776  1.5540  0.1655
 9982SOL    HW240876   2.765   9.321   4.512 -0.0172  0.7753 -1.4230
 9983SOL     OW40877   8.301   8.193   4.575  0.0241  0.1516 -0.3856
 9983SOL    HW140878   8.210   8.174   4.538  0.1415  0.0158 -0.6016
 9983SOL    HW240879   8.320   8.129   4.650 -0.0946  0.2376 -0.2794
 9984SOL     OW40880   1.089   7.518   2.557 -0.2988 -0.0303  0.1093
 9984SOL    HW140881   1.109   7.451   2.630  0.0254  1.2427  1.2018
 9984SOL    HW240882   1.150   7.596   2.567 -0.2439  0.1430 -1.5670
 9985SOL     OW40883   1.321   7.005   5.472  0.2029 -0.2477  0.0481
 9985SOL    HW140884   1.369   7.032   5.555 -0.6621 -0.5819  0.6510
 9985SOL    HW240885   1.387   6.969   5.406  0.8542 -0.2068  0.6744
 9986SOL     OW40886   2.022   4.171   1.724 -0.0156 -0.1298 -0.1974
 9986SOL    HW140887   2.002   4.097   1.660  3.4103 -1.4725  0.1825
 9986SOL    HW240888   2.064   4.248   1.674 -0.1787  0.0596 -0.0424
 9987SOL     OW40889   0.764   7.889   1.130 -0.4521 -0.1105 -0.2895
 9987SOL    HW140890   0.789   7.967   1.072  0.2477 -0.8113 -0.9296
 9987SOL    HW240891   0.825   7.812   1.111 -0.7697 -0.6235  0.7657
 9988SOL     OW40892   3.075   8.510   1.086 -0.0296  0.1147 -0.0960
 9988SOL    HW140893   3.152   8.556   1.129  0.7003 -1.3398  0.1855
 9988SOL    HW240894   3.029   8.451   1.152 -1.8917  1.5735 -0.0468
 9989SOL     OW40895   0.371   7.766   4.324 -0.2785  0.4444 -0.5092
 9989SOL    HW140896   0.272   7.774   4.319 -0.3156 -0.3924 -1.2971
 9989SOL    HW240897   0.409   7.844   4.374 -1.2672  1.1186 -0.8022
 9990SOL     OW40898   0.542   7.725   2.814 -0.4135 -0.4241 -0.6302
 9990SOL    HW140899   0.626   7.772   2.784 -0.2234  1.2062  2.2487
 9990SOL    HW240900   0.566   7.634   2.849 -0.2808 -1.2232 -2.7776
 9991SOL     OW40901   0.107   8.502   2.302 -0.5415  0.2361 -0.1605
 9991SOL    HW140902   0.053   8.586   2.289 -1.3337 -0.3134 -0.4323
 9991SOL    HW240903   0.098   8.443   2.222  0.5370  0.1690 -0.2455
 9992SOL     OW40904   7.272   9.564   1.809  0.0578  0.5912  0.2681
 9992SOL    HW140905   7.209   9.509   1.755 -0.9100  0.0949  1.8823
 9992SOL    HW240906   7.321   9.506   1.874  1.4763  1.1263 -0.2821
 9993SOL     OW40907   9.558   7.815   0.222 -0.3225  0.3842  0.1995
 9993SOL    HW140908   9.549   7.853   0.314 -2.7761 -0.9323  0.5395
 9993SOL    HW240909   9.515   7.877   0.156 -0.1502  0.4732  0.1721
 9994SOL     OW40910   3.289   1.921   1.942  0.3322  0.0114  0.0970
 9994SOL    HW140911   3.338   1.985   1.883 -2.5272  1.3995 -0.8477
 9994SOL    HW240912   3.236   1.858   1.886 -1.2386  0.3919  1.1444
 9995SOL     OW40913   5.419   8.474   1.771  0.1212  0.1123  0.4375
 9995SOL    HW140914   5.407   8.573   1.777  0.6219  0.0655  2.3654
 9995SOL    HW240915   5.500   8.447   1.823  1.7985 -0.9736 -2.5967
 9996SOL     OW40916   2.672   5.754   4.599 -0.0213 -0.2258 -0.1280
 9996SOL    HW140917   2.685   5.764   4.501  1.4145  1.1479  0.1755
 9996SOL    HW240918   2.761   5.747   4.644 -0.6947 -3.0126  0.8876
 9997SOL     OW40919   9.820   6.744   4.719 -0.2841 -0.1894  0.4780
 9997SOL    HW140920   9.815   6.706   4.811  2.3052 -0.3842  0.5608
 9997SOL    HW240921   9.915   6.747   4.689 -0.9347  1.4926 -1.5245
 9998SOL     OW40922   0.576   2.533   1.906 -0.2018 -0.5163  0.2239
 9998SOL    HW140923   0.567   2.438   1.877  0.1050 -0.5846  0.3520
 9998SOL    HW240924   0.635   2.583   1.843 -0.2052 -0.4584  0.2657
 9999SOL     OW40925   2.182   0.929   3.850 -0.4098  0.0412  0.9825
 9999SOL    HW140926   2.186   0.832   3.827  0.3523  0.2746  0.0846
 9999SOL    HW240927   2.198   0.941   3.948  1.5696 -0.5930  0.7512
10000SOL     OW40928   3.598   3.497   2.085  0.8967 -0.2343  0.1023
10000SOL    HW140929   3.588   3.437   2.006  1.0234 -0.3754  0.1938
10000SOL    HW240930   3.517   3.491   2.143 -0.3285  1.7752 -1.3253
10001SOL     OW40931   4.681   1.771   3.035  0.6136  0.2711  0.3358
10001SOL    HW140932   4.608   1.753   2.969  1.1139  0.9476 -0.4169
10001SOL    HW240933   4.747   1.834   2.994  0.5892  1.2205  1.7312
10002SOL     OW40934   1.606   9.323   0.396  0.2152 -0.2934 -0.1975
10002SOL    HW140935   1.537   9.353   0.462 -0.5971  1.8190 -1.9318
10002SOL    HW240936   1.681   9.388   0.394  0.3391 -0.4570 -1.1777
10003SOL     OW40937   8.008   7.280   1.783 -0.5132  0.1382 -0.2638
10003SOL    HW140938   7.990   7.292   1.685 -2.2693 -0.3209 -0.0210
10003SOL    HW240939   7.979   7.362   1.832 -2.9258 -0.9617  0.2371
10004SOL     OW40940   1.719   1.305   4.130 -0.3492  0.4753 -0.0826
10004SOL    HW140941   1.732   1.319   4.229  0.8877 -0.9144 -0.0406
10004SOL    HW240942   1.775   1.370   4.080 -1.0308  1.2298  0.1225
10005SOL     OW40943   7.154   0.540   5.112 -0.3763  0.0540  0.4900
10005SOL    HW140944   7.236   0.483   5.100  1.1669  2.5930 -1.5686
10005SOL    HW240945   7.140   0.560   5.209  0.8300 -1.2584  0.9437
10006SOL     OW40946   1.125   4.831   1.460 -0.1195 -0.4668  0.3276
10006SOL    HW140947   1.082   4.913   1.423 -0.4478  0.2576  2.2547
10006SOL    HW240948   1.143   4.766   1.386 -0.6325  0.9847 -1.0910
10007SOL     OW40949   9.755   3.466   0.412  0.3449  0.3504  0.2108
10007SOL    HW140950   9.762   3.467   0.312 -0.0193 -0.3681  0.1731
10007SOL    HW240951   9.670   3.420   0.439  1.1534 -0.7843  0.8791
10008SOL     OW40952   4.063   4.126   3.556  0.6566 -0.3991 -0.5108
10008SOL    HW140953   4.108   4.067   3.489  0.4122 -3.0615  1.5633
10008SOL    HW240954   3.964   4.113   3.551  0.5715  0.2191 -0.3989
10009SOL     OW40955   4.071   7.869   4.121  0.1532  0.0080 -0.2227
10009SOL    HW140956   4.018   7.919   4.189 -0.7838 -0.2098 -0.7758
10009SOL    HW240957   4.008   7.815   4.064  0.9210  0.2536 -1.3062
10010SOL     OW40958   2.068   0.896   1.065  0.1659 -0.1633  0.6405
10010SOL    HW140959   1.997   0.892   1.136 -0.3399 -0.1404  0.1367
10010SOL    HW240960   2.052   0.824   0.998  1.6730 -1.3306  1.5014
10011SOL     OW40961   1.943   0.018   3.065  0.0696 -0.2383  0.2108
10011SOL    HW140962   1.852  -0.020   3.053 -0.1184  0.1335  0.4268
10011SOL    HW240963   1.964   0.024   3.162  0.4737 -0.6687  0.1514
10012SOL     OW40964   0.481   3.957   4.658 -0.4378  0.0743 -0.0518
10012SOL    HW140965   0.450   4.048   4.631 -2.4143 -1.0832 -1.9334
10012SOL    HW240966   0.562   3.932   4.605  0.3557  0.8922  0.7690
10013SOL     OW40967   1.046   9.017   1.776  0.0888  0.7747  0.5006
10013SOL    HW140968   1.120   9.083   1.768  1.1759 -0.3944  0.7365
10013SOL    HW240969   1.084   8.925   1.791 -1.4236  0.3825  2.2306
10014SOL     OW40970   5.795   1.930   2.002 -0.4076 -0.6224  0.6204
10014SOL    HW140971   5.770   1.953   1.908 -1.4830  2.9527  1.7149
10014SOL    HW240972   5.750   1.845   2.029 -0.0730 -1.7020 -2.0486
10015SOL     OW40973   2.176   3.147   4.710  0.1624  0.1523  0.0750
10015SOL    HW140974   2.206   3.221   4.649 -0.8317  1.7256  1.4417
10015SOL    HW240975   2.256   3.107   4.755  0.8598 -0.7038 -1.8673
10016SOL     OW40976   1.354   4.331   4.021  0.2769  0.3012 -0.3973
10016SOL    HW140977   1.312   4.377   3.942  0.8667  2.9433  0.7595
10016SOL    HW240978   1.346   4.390   4.101  2.6208 -0.9111  0.7726
10017SOL     OW40979   1.888   3.247   4.773  0.2343 -0.1294 -0.1671
10017SOL    HW140980   1.985   3.228   4.787 -0.0837 -1.2222  0.6477
10017SOL    HW240981   1.873   3.285   4.682  1.4898  0.5313 -0.0998
10018SOL     OW40982   1.702   9.295   1.375  0.2283  0.1910  0.2839
10018SOL    HW140983   1.713   9.334   1.466 -0.0568 -1.0937  0.8845
10018SOL    HW240984   1.632   9.223   1.378 -0.2272  0.5537 -1.0778
10019SOL     OW40985   2.491   7.481   4.592  0.3285  0.2093  0.5471
10019SOL    HW140986   2.412   7.528   4.553 -0.3460 -0.2740  1.3274
10019SOL    HW240987   2.514   7.521   4.681  0.1932 -0.4742  0.8894
10020SOL     OW40988   2.219   5.098   2.009 -0.0787  0.0209 -0.0029
10020SOL    HW140989   2.313   5.077   2.034 -0.0227 -0.4898 -0.6541
10020SOL    HW240990   2.209   5.097   1.910 -1.0186 -0.9891  0.0921
10021SOL     OW40991   9.256   7.693   0.301 -0.4128  0.2520  0.6637
10021SOL    HW140992   9.189   7.632   0.259 -1.0864  1.2432  0.2678
10021SOL    HW240993   9.347   7.652   0.295 -0.3341  0.7636 -2.6139
10022SOL     OW40994   2.595   2.725   3.424 -0.1205 -0.0344  0.3371
10022SOL    HW140995   2.570   2.688   3.514  1.4591 -1.2162  0.3170
10022SOL    HW240996   2.682   2.775   3.432  0.7544 -1.3426 -0.7865
10023SOL     OW40997   0.818   4.899   3.655 -0.1555  0.1452 -0.4573
10023SOL    HW140998   0.784   4.973   3.713 -2.6697 -0.5747 -0.9337
10023SOL    HW240999   0.766   4.815   3.675  2.1821 -1.3323 -0.3945
10024SOL     OW41000   0.779   8.585   2.096 -0.4982  0.3284  0.2265
10024SOL    HW141001   0.778   8.685   2.100  0.5252  0.3570 -0.2163
10024SOL    HW241002   0.729   8.548   2.175 -2.6828  1.2030 -0.6927
10025SOL     OW41003   2.428   3.311   4.364 -0.6408  0.8211 -0.0137
10025SOL    HW141004   2.351   3.316   4.300 -1.2877  0.6050  0.7325
10025SOL    HW241005   2.511   3.346   4.320 -1.2959  1.6299 -0.6250
10026SOL     OW41006   8.597   3.357   3.013  0.5763 -0.5775  0.0592
10026SOL    HW141007   8.587   3.291   2.939 -0.2354  0.6779 -0.9480
10026SOL    HW241008   8.694   3.364   3.038  0.5441 -3.1328  1.1069
10027SOL     OW41009   0.896   5.958   1.543  0.0120  0.0424 -0.0047
10027SOL    HW141010   0.967   5.888   1.539 -0.2322 -0.1353 -1.7249
10027SOL    HW241011   0.928   6.040   1.496 -0.6900  0.1710 -0.2674
10028SOL     OW41012   0.457   3.639   4.195  0.3298 -0.1973  0.2354
10028SOL    HW141013   0.460   3.653   4.096 -0.5367  0.7704  0.3368
10028SOL    HW241014   0.548   3.613   4.228  0.1890 -2.3948 -1.0802
10029SOL     OW41015   4.036   1.558   4.091  0.3146 -0.0078  0.3128
10029SOL    HW141016   3.994   1.541   4.181  3.3422 -4.9973  0.9713
10029SOL    HW241017   4.115   1.618   4.102 -0.2819  0.7123  0.7202
10030SOL     OW41018   7.684   5.714   4.708 -0.3096 -0.4487  0.5090
10030SOL    HW141019   7.670   5.748   4.801 -0.2745  0.3151  0.2362
10030SOL    HW241020   7.606   5.738   4.651  0.8300  1.4087 -0.3194
10031SOL     OW41021   3.146   8.560   0.344  0.1380  0.2311  0.4807
10031SOL    HW141022   3.199   8.541   0.427  1.5194  0.5902 -0.3059
10031SOL    HW241023   3.119   8.474   0.301 -1.3685  0.0394  1.7897
10032SOL     OW41024   2.217   6.561   2.211 -0.1162 -0.3423  0.2428
10032SOL    HW141025   2.268   6.646   2.196 -0.3786 -0.0651  0.9086
10032SOL    HW241026   2.165   6.539   2.128  1.3110 -0.7923 -0.5417
10033SOL     OW41027   8.576   9.095   2.967 -0.6981  0.1731 -0.5695
10033SOL    HW141028   8.524   9.117   3.050 -0.4809  0.5339 -0.5255
10033SOL    HW241029   8.639   9.170   2.947  0.4985 -0.6945 -0.0814
10034SOL     OW41030   7.235   9.095   2.986 -0.1745 -0.0807  0.4876
10034SOL    HW141031   7.319   9.109   3.039 -0.6145  1.9479  0.6869
10034SOL    HW241032   7.188   9.013   3.018  1.4714 -0.9725  0.7014
10035SOL     OW41033   8.263   5.875   5.427  0.0704  0.9605 -0.0962
10035SOL    HW141034   8.251   5.963   5.382  0.5043  1.3514  0.5435
10035SOL    HW241035   8.262   5.887   5.526  3.3423  0.7275  0.0360
10036SOL     OW41036   0.771   2.029   3.613 -0.1159 -0.7993  0.4685
10036SOL    HW141037   0.845   2.082   3.571  1.0425 -1.8208  1.1594
10036SOL    HW241038   0.794   2.010   3.708 -2.5403  1.1851  1.5055
10037SOL     OW41039   3.888   2.441   5.400  0.0664 -0.7275 -0.0466
10037SOL    HW141040   3.791   2.423   5.383 -0.2377  0.8892 -0.1452
10037SOL    HW241041   3.921   2.511   5.337  1.1533 -0.8501  0.3709
10038SOL     OW41042   2.568   9.433   3.074 -0.0366  0.3662  0.6755
10038SOL    HW141043   2.595   9.352   3.022  0.3877  0.4463  0.7686
10038SOL    HW241044   2.515   9.406   3.154  2.7732 -0.0514  2.4593
10039SOL     OW41045   1.609   0.131   3.321  0.3965  0.2692  0.3930
10039SOL    HW141046   1.650   0.220   3.343  1.7267 -0.0992 -0.5963
10039SOL    HW241047   1.654   0.092   3.242 -0.7156 -0.9522  0.3501
10040SOL     OW41048   1.287   3.150   3.995 -0.1795  0.0966  0.3150
10040SOL    HW141049   1.378   3.171   4.031 -0.6141 -0.0078  1.4901
10040SOL    HW241050   1.254   3.065   4.036 -1.3919  0.8733  0.9522
10041SOL     OW41051   0.552   4.277   5.027  0.2534 -0.8913  0.6777
10041SOL    HW141052   0.598   4.313   4.946 -0.4567 -1.1975  0.1303
10041SOL    HW241053   0.455   4.302   5.024  0.1168 -1.3521  1.1627
10042SOL     OW41054   4.846   2.664   1.273  0.0711 -0.2614 -0.6985
10042SOL    HW141055   4.881   2.757   1.285 -0.5200  0.0082 -1.0360
10042SOL    HW241056   4.899   2.600   1.330  0.1574  0.3507 -0.0904
10043SOL     OW41057   3.356   4.331   2.169  0.0907  0.3108  0.9172
10043SOL    HW141058   3.417   4.276   2.226  0.3555 -0.2815  0.0681
10043SOL    HW241059   3.409   4.376   2.097 -0.4605 -0.1317  0.2341
10044SOL     OW41060   8.948   9.520   1.939  0.1267 -0.1810  0.0147
10044SOL    HW141061   8.932   9.423   1.924 -0.2659 -0.1558  0.2535
10044SOL    HW241062   8.860   9.569   1.941  0.2902  0.0994  0.4103
10045SOL     OW41063   8.955   6.990   0.447  0.2313  0.1325 -0.3761
10045SOL    HW141064   8.950   6.973   0.545  0.5342  1.1800 -0.1690
10045SOL    HW241065   9.048   7.017   0.422 -0.5331  2.9018 -0.4116
10046SOL     OW41066   9.136   2.949   4.651  0.5111 -0.5020 -0.8426
10046SOL    HW141067   9.054   3.001   4.676 -0.0682 -1.5934 -0.4784
10046SOL    HW241068   9.171   2.983   4.563  0.1394  0.5024 -0.6110
10047SOL     OW41069   2.625   4.875   0.118  0.8459 -0.3804  0.3096
10047SOL    HW141070   2.628   4.975   0.118 -1.7699 -0.2709  1.1786
10047SOL    HW241071   2.664   4.840   0.033 -0.0120  1.4595 -0.8527
10048SOL     OW41072   7.951   9.426   1.688 -0.2263  0.9612 -0.1403
10048SOL    HW141073   8.036   9.404   1.735 -1.2421 -2.2354  0.2784
10048SOL    HW241074   7.890   9.476   1.750  1.0693  2.7939 -0.2821
10049SOL     OW41075   3.168   4.864   1.901  0.5331  0.1765  0.2857
10049SOL    HW141076   3.188   4.772   1.868 -0.0253  0.2541 -0.2753
10049SOL    HW241077   3.196   4.872   1.996  2.4190  0.0348 -0.2437
10050SOL     OW41078   0.447   6.057   2.508  0.4382  0.0732  0.4388
10050SOL    HW141079   0.429   6.073   2.411  0.3863 -1.3990  0.1939
10050SOL    HW241080   0.366   6.079   2.562  0.2976  0.4041  0.0878
10051SOL     OW41081   4.004   2.340   2.964 -0.5221 -0.6307  0.0004
10051SOL    HW141082   4.060   2.390   2.898  0.1050 -1.1671  0.1208
10051SOL    HW241083   4.048   2.343   3.054 -0.9481 -0.6236  0.2105
10052SOL     OW41084   5.496   1.877   2.447  0.0184  0.7130  0.4788
10052SOL    HW141085   5.547   1.798   2.481  0.0739 -0.1850 -1.6136
10052SOL    HW241086   5.557   1.934   2.391 -0.1848  1.9063  1.4528
10053SOL     OW41087   9.149   4.165   2.913 -0.0758  0.0418  0.0554
10053SOL    HW141088   9.149   4.253   2.961  1.5777 -0.6580  1.3580
10053SOL    HW241089   9.193   4.176   2.823 -1.1491  0.8473 -0.3783
10054SOL     OW41090   3.515   0.317   3.815 -0.1936 -0.0974  0.4307
10054SOL    HW141091   3.546   0.360   3.730  0.1898 -1.0058  0.1013
10054SOL    HW241092   3.517   0.218   3.804  0.1841 -0.2236  1.6130
10055SOL     OW41093   5.077   9.468   4.674 -0.2741 -0.4366 -0.1478
10055SOL    HW141094   5.133   9.518   4.607 -1.5394  0.2260 -0.7111
10055SOL    HW241095   5.044   9.383   4.633  1.3696 -1.4822  0.6133
10056SOL     OW41096   4.248   3.868   4.691  0.0986  0.1857  0.4856
10056SOL    HW141097   4.286   3.923   4.765 -0.2562 -0.4526  1.1413
10056SOL    HW241098   4.258   3.771   4.712  0.1932 -0.0075 -0.4031
10057SOL     OW41099   4.302   0.568   2.905  0.2704  0.0083  0.1515
10057SOL    HW141100   4.211   0.579   2.947  0.8393  1.3988  1.0586
10057SOL    HW241101   4.348   0.489   2.947 -1.0218 -1.5632 -1.2799
10058SOL     OW41102   3.372   1.113   2.439  0.7554  0.1091 -0.0905
10058SOL    HW141103   3.284   1.080   2.472  1.0619 -1.3803 -0.7183
10058SOL    HW241104   3.365   1.135   2.341  1.4862 -1.6182 -0.5585
10059SOL     OW41105   0.046   8.235   2.652 -0.8416 -0.1409 -0.4537
10059SOL    HW141106   0.041   8.136   2.642 -0.7830 -0.2970  0.9576
10059SOL    HW241107   0.132   8.261   2.695 -1.8201  0.3226  1.2921
10060SOL     OW41108   2.755   4.724   1.789  0.1894 -0.7807 -0.0913
10060SOL    HW141109   2.706   4.780   1.723  0.2414 -0.5639  0.0528
10060SOL    HW241110   2.733   4.627   1.774  0.4094 -0.7546 -0.5950
10061SOL     OW41111   4.645   8.634   2.811 -0.5027 -0.2829 -0.0634
10061SOL    HW141112   4.704   8.644   2.730  0.2800 -0.3823  0.4859
10061SOL    HW241113   4.568   8.574   2.789 -0.8088  0.4419 -1.0079
10062SOL     OW41114   3.749   0.003   2.255  0.2015  0.3001 -0.1816
10062SOL    HW141115   3.777  -0.055   2.331 -0.8979  0.3111  0.2432
10062SOL    HW241116   3.652  -0.011   2.237 -0.3128  2.6620  0.5269
10063SOL     OW41117   3.323   9.395   0.529 -0.7311 -0.1290  0.1412
10063SOL    HW141118   3.315   9.459   0.453  1.6363  0.3303  0.2496
10063SOL    HW241119   3.284   9.436   0.611 -1.7981  0.0169 -0.4196
10064SOL     OW41120   8.354   8.932   5.179 -0.2169 -0.1127  0.6741
10064SOL    HW141121   8.396   8.985   5.105  0.6153  0.8031  1.7956
10064SOL    HW241122   8.426   8.884   5.230 -0.8254 -1.0674  0.6579
10065SOL     OW41123   8.859   0.056   2.292 -0.1047  0.2476 -0.4785
10065SOL    HW141124   8.920   0.036   2.216 -0.5750 -0.6506 -0.6285
10065SOL    HW241125   8.764   0.038   2.264 -0.3109  0.2579  0.2025
10066SOL     OW41126   0.564   5.439   1.586 -0.1583  0.4194 -0.2021
10066SOL    HW141127   0.540   5.353   1.631 -2.3483  1.0504 -0.1370
10066SOL    HW241128   0.655   5.430   1.545 -0.3539 -1.9203 -0.2087
10067SOL     OW41129   9.055   8.555   4.555 -0.0499 -0.1860  0.0059
10067SOL    HW141130   9.121   8.591   4.621  0.1910 -1.1889  0.3208
10067SOL    HW241131   9.103   8.499   4.487 -0.4171  0.0853 -0.4721
10068SOL     OW41132   3.482   6.961   3.311  1.0206  0.1936 -0.2449
10068SOL    HW141133   3.560   6.900   3.299  2.3046  1.9519 -1.1291
10068SOL    HW241134   3.477   6.990   3.407  0.3926 -1.2888  0.1812
10069SOL     OW41135   1.410   3.436   2.825 -0.6324 -0.4516 -0.0351
10069SOL    HW141136   1.345   3.490   2.879 -0.6213 -2.0189  1.6043
10069SOL    HW241137   1.414   3.342   2.861  1.5369 -0.7525 -0.9532
10070SOL     OW41138   0.377   1.483   0.571 -0.1568 -0.7189  0.3731
10070SOL    HW141139   0.475   1.503   0.579 -0.3822  0.4523  0.4294
10070SOL    HW241140   0.334   1.553   0.514 -1.1174 -0.6795  1.1345
10071SOL     OW41141   0.415   4.540   0.072 -0.0284  0.5202 -0.4112
10071SOL    HW141142   0.395   4.637   0.054  0.2131  0.5785 -0.3652
10071SOL    HW241143   0.441   4.529   0.168  1.7706  0.7095 -0.8575
10072SOL     OW41144   8.985   3.706   0.535 -0.0349  0.1129  0.0596
10072SOL    HW141145   9.072   3.668   0.502 -0.1806  0.0324 -0.2325
10072SOL    HW241146   8.930   3.633   0.575 -0.6836 -0.1542 -1.2941
10073SOL     OW41147   3.318   7.298   5.357  0.6570  0.4342  0.1922
10073SOL    HW141148   3.297   7.268   5.450 -1.0504 -0.3358 -0.4379
10073SOL    HW241149   3.253   7.257   5.293  2.0086  0.7138 -1.3843
10074SOL     OW41150   5.660   8.166   3.038 -0.1389  0.9218  0.3901
10074SOL    HW141151   5.704   8.254   3.023 -1.2649  1.3797 -0.3111
10074SOL    HW241152   5.686   8.103   2.964 -0.6795  1.2011 -0.0403
10075SOL     OW41153   9.574   9.708   4.300 -0.2456 -0.1619  0.6494
10075SOL    HW141154   9.604   9.633   4.357 -0.6112 -1.1893 -0.4820
10075SOL    HW241155   9.528   9.672   4.219 -0.4838  1.2772  0.1246
10076SOL     OW41156   4.551   8.240   2.335  0.4616 -0.0929  0.2025
10076SOL    HW141157   4.487   8.315   2.315 -0.7430 -1.2167 -0.2117
10076SOL    HW241158   4.603   8.262   2.417 -1.2081  0.3899  1.1634
10077SOL     OW41159   2.349   1.434   1.109 -0.2053  0.1957 -0.9663
10077SOL    HW141160   2.296   1.516   1.129  0.4506 -0.2664  3.1320
10077SOL    HW241161   2.447   1.454   1.115 -0.0143 -1.4936  3.5240
10078SOL     OW41162   1.230   5.126   1.464  0.0738 -0.3529 -0.4174
10078SOL    HW141163   1.242   5.104   1.367  0.0494 -1.5134 -0.1573
10078SOL    HW241164   1.133   5.148   1.481 -0.1413 -1.2922 -0.4246
10079SOL     OW41165   9.343   2.075   3.571 -0.2211  0.2092 -0.0816
10079SOL    HW141166   9.347   1.986   3.526 -1.1456 -0.3328  0.9182
10079SOL    HW241167   9.329   2.063   3.669 -0.8820  1.4684 -0.0176
10080SOL     OW41168   2.977   9.122   3.172  0.2167  0.1307 -0.0561
10080SOL    HW141169   3.029   9.187   3.117 -0.7694 -0.1376 -1.3314
10080SOL    HW241170   2.901   9.169   3.216  0.6617  0.2303  0.6055
10081SOL     OW41171   8.768   8.604   0.714 -0.3465 -0.2474  0.2870
10081SOL    HW141172   8.743   8.605   0.811 -1.1458 -2.0610  0.1131
10081SOL    HW241173   8.859   8.566   0.704 -0.1914  0.1044  0.3251
10082SOL     OW41174   0.148   4.890   2.835  0.0742 -0.5614 -0.3335
10082SOL    HW141175   0.179   4.915   2.743  2.2562 -1.3368  0.1584
10082SOL    HW241176   0.222   4.905   2.900 -1.3601 -0.2941  1.2668
10083SOL     OW41177   1.584   6.288   3.079 -0.1677 -0.1205  0.0677
10083SOL    HW141178   1.516   6.286   3.152 -1.3603 -0.8913 -1.0498
10083SOL    HW241179   1.577   6.374   3.029 -0.9059 -0.5351 -0.5662
10084SOL     OW41180   3.449   6.202   4.450  0.7189 -0.1814  0.1836
10084SOL    HW141181   3.441   6.149   4.535  0.1172  0.6011  0.6131
10084SOL    HW241182   3.461   6.139   4.373  0.4211 -0.9282  0.7431
10085SOL     OW41183   0.827   1.781   3.078 -0.4126  0.7085  0.2380
10085SOL    HW141184   0.817   1.837   3.160 -0.2770  1.7490 -0.4477
10085SOL    HW241185   0.794   1.832   2.999  2.7768  1.1130 -0.8922
10086SOL     OW41186   1.148   9.208   1.157  0.1942 -0.0085 -0.0165
10086SOL    HW141187   1.071   9.151   1.128  1.0508 -0.3632 -1.7061
10086SOL    HW241188   1.227   9.188   1.098  1.2904  1.0267  1.0831
10087SOL     OW41189   1.988   1.283   3.616  0.4348 -0.5315  0.3990
10087SOL    HW141190   1.992   1.287   3.516  0.9638 -1.6052  0.3751
10087SOL    HW241191   1.968   1.189   3.645 -0.7163 -0.0369  1.2794
10088SOL     OW41192   5.417   2.390   2.947  0.1505 -0.1367 -0.9162
10088SOL    HW141193   5.511   2.402   2.917 -0.2260  1.1273 -1.6058
10088SOL    HW241194   5.397   2.454   3.021 -0.5744  0.5740 -1.7089
10089SOL     OW41195   4.006   9.231   2.936 -0.6517  0.6661 -0.0472
10089SOL    HW141196   4.045   9.240   3.028 -0.0805  0.2899 -0.2442
10089SOL    HW241197   3.908   9.215   2.943 -0.9516  2.6414  0.4224
10090SOL     OW41198   7.538   0.241   4.010 -0.2450  0.4047  0.0558
10090SOL    HW141199   7.573   0.224   4.102  0.9102  0.6224 -0.3343
10090SOL    HW241200   7.468   0.173   3.988  0.5618 -0.6024  0.5261
10091SOL     OW41201   6.664   1.126   1.210  0.0152  0.1663  0.0627
10091SOL    HW141202   6.623   1.042   1.174  1.7891  0.2962 -2.3798
10091SOL    HW241203   6.592   1.183   1.252 -1.4054 -1.9417  0.5598
10092SOL     OW41204   1.441   0.207   2.990 -0.2664  0.1457 -0.1718
10092SOL    HW141205   1.432   0.141   3.064 -1.8414  0.9344  0.3534
10092SOL    HW241206   1.352   0.221   2.946  0.4488  0.4363 -1.5620
10093SOL     OW41207   4.540   8.344   3.180  0.2529 -0.2290  0.1349
10093SOL    HW141208   4.506   8.305   3.094  1.7814  0.0006 -0.5815
10093SOL    HW241209   4.535   8.444   3.175  0.2245 -0.2193  0.3702
10094SOL     OW41210   3.837   5.442   0.300 -0.5404 -0.7454 -0.1931
10094SOL    HW141211   3.765   5.374   0.315 -0.1749 -0.8975  0.9783
10094SOL    HW241212   3.922   5.396   0.272 -0.1752 -0.8244  1.0135
10095SOL     OW41213   9.012   6.180   2.235 -0.6590 -0.1166  0.4914
10095SOL    HW141214   9.068   6.114   2.185 -1.6711 -0.0234 -0.8046
10095SOL    HW241215   8.923   6.139   2.256 -0.5749  0.1643  1.4143
10096SOL     OW41216   1.617   5.989   1.699  0.4621 -0.1235 -0.1322
10096SOL    HW141217   1.636   5.912   1.761 -0.2337 -0.4631 -0.3373
10096SOL    HW241218   1.554   5.959   1.627  0.0499  0.6868 -0.1135
10097SOL     OW41219   5.608   3.337   0.096 -0.2887  0.2587 -0.1226
10097SOL    HW141220   5.679   3.340   0.166  1.0390 -1.0285 -1.3859
10097SOL    HW241221   5.638   3.386   0.015 -1.5318  1.1347 -0.0617
10098SOL     OW41222   5.253   1.878   2.137 -0.9408 -0.6470  0.2557
10098SOL    HW141223   5.200   1.956   2.169 -0.6754 -0.1691 -0.4498
10098SOL    HW241224   5.279   1.821   2.215  1.1725  1.4241  1.1402
10099SOL     OW41225   2.968   9.964   2.638  0.0956  0.0800  0.0244
10099SOL    HW141226   2.988  10.053   2.599  1.5849 -0.5637 -0.7288
10099SOL    HW241227   3.008   9.957   2.729  1.0122 -0.2435 -0.3996
10100SOL     OW41228   0.231   5.076   3.429  0.5622  0.2588  0.1473
10100SOL    HW141229   0.251   5.069   3.527  0.3499  0.2139  0.1883
10100SOL    HW241230   0.234   4.985   3.388 -0.1966  0.1702  0.2816
10101SOL     OW41231   8.654   2.238   4.172 -0.7526 -0.3572 -0.2286
10101SOL    HW141232   8.568   2.199   4.141 -1.4741  0.1595  1.0879
10101SOL    HW241233   8.638   2.295   4.252  1.2733 -2.9113  2.0927
10102SOL     OW41234   1.217   3.336   0.699 -0.2946 -0.0217 -0.2928
10102SOL    HW141235   1.211   3.237   0.707 -0.7888  0.0790  0.6995
10102SOL    HW241236   1.308   3.362   0.667  0.4022 -0.7082  1.0732
10103SOL     OW41237   4.265   4.618   4.554 -0.1903 -0.1394  0.2262
10103SOL    HW141238   4.307   4.703   4.585 -0.8048  1.1735 -2.4261
10103SOL    HW241239   4.209   4.635   4.473 -0.6046 -3.0115 -0.1619
10104SOL     OW41240   9.448   9.024   0.338 -0.2405  0.4949  0.1892
10104SOL    HW141241   9.526   9.053   0.394  0.3132 -0.1513 -0.2263
10104SOL    HW241242   9.365   9.070   0.369  0.0112 -0.0281  1.6926
10105SOL     OW41243   3.489   8.854   4.902  0.4393  0.5927 -0.0050
10105SOL    HW141244   3.585   8.878   4.894  1.2475 -1.9855  1.3489
10105SOL    HW241245   3.470   8.817   4.993 -1.5706  0.0535 -0.5978
10106SOL     OW41246   8.520   0.095   3.099 -0.9744  0.5003 -0.6102
10106SOL    HW141247   8.507   0.182   3.052  1.2432  0.8211 -0.6651
10106SOL    HW241248   8.488   0.104   3.194 -1.4432  1.1290 -0.8217
10107SOL     OW41249   8.803   3.558   2.252 -0.4316  0.5341  0.4531
10107SOL    HW141250   8.760   3.593   2.169 -0.3997 -2.3456 -0.8203
10107SOL    HW241251   8.733   3.516   2.310  0.2853 -2.3105 -0.6685
10108SOL     OW41252   5.422   4.081   0.770  0.3737 -0.1542 -0.3396
10108SOL    HW141253   5.434   4.102   0.867 -0.1398  2.9483 -0.8934
10108SOL    HW241254   5.325   4.080   0.748  0.4385 -2.2814 -0.5375
10109SOL     OW41255   7.934   0.931   5.297  0.0288  0.2606  0.7728
10109SOL    HW141256   7.959   1.020   5.258 -2.5226  0.6002 -0.2275
10109SOL    HW241257   8.016   0.878   5.317  1.5644 -0.0037 -5.3222
10110SOL     OW41258   2.418   2.511   1.260  0.7702 -0.2262  0.4965
10110SOL    HW141259   2.399   2.461   1.175  0.8077 -0.6385  0.7295
10110SOL    HW241260   2.351   2.585   1.271  0.2064 -0.7493  0.5685
10111SOL     OW41261   4.148   2.583   3.730 -0.3445  0.0581 -0.2702
10111SOL    HW141262   4.054   2.555   3.709  0.0678 -0.2236 -1.8065
10111SOL    HW241263   4.208   2.504   3.725 -0.3744 -0.2168  3.0698
10112SOL     OW41264   4.392   1.573   3.842 -0.8995  0.3398  0.7143
10112SOL    HW141265   4.488   1.593   3.864 -0.4282  1.1560 -1.9030
10112SOL    HW241266   4.351   1.521   3.917  2.2003 -1.8804  0.9863
10113SOL     OW41267   0.867   5.932   0.606  0.3151  0.0287 -0.2862
10113SOL    HW141268   0.795   5.863   0.617  0.2179 -0.0323 -1.2889
10113SOL    HW241269   0.825   6.022   0.598  0.4733  0.3244  1.8378
10114SOL     OW41270   2.814   9.492   5.311 -0.4702  0.1237  0.5430
10114SOL    HW141271   2.833   9.588   5.290 -0.1170  0.2575  1.4483
10114SOL    HW241272   2.860   9.467   5.396 -0.7486 -0.7866  0.4295
10115SOL     OW41273   1.862   3.881   1.169  0.2727  0.3949 -0.7481
10115SOL    HW141274   1.842   3.933   1.252  1.6193 -1.9413  1.1164
10115SOL    HW241275   1.779   3.836   1.136  0.3693 -1.4714  1.3965
10116SOL     OW41276   0.975   8.316   1.669  0.8559 -0.0072  0.0519
10116SOL    HW141277   0.909   8.257   1.621  1.3279 -0.7088  0.2521
10116SOL    HW241278   0.943   8.332   1.762  1.5310 -1.3291  0.5349
10117SOL     OW41279   2.491   7.844   4.605 -0.1903  0.3830  0.0834
10117SOL    HW141280   2.542   7.878   4.684  0.4792 -0.9172  0.2331
10117SOL    HW241281   2.540   7.868   4.521 -0.3531  0.8429  0.1191
10118SOL     OW41282   3.419   5.101   4.502 -0.2914 -0.2878  0.3239
10118SOL    HW141283   3.515   5.114   4.475 -0.7225 -0.7449 -1.4065
10118SOL    HW241284   3.361   5.097   4.421 -1.8468  0.4180  1.3785
10119SOL     OW41285   0.736   6.222   2.983  0.7813  0.4746  0.4210
10119SOL    HW141286   0.774   6.266   2.901  1.6550 -0.6298  0.2326
10119SOL    HW241287   0.801   6.155   3.019 -0.8199 -1.1810  0.3168
10120SOL     OW41288   8.619   0.078   0.405 -0.0430 -0.7743 -0.2540
10120SOL    HW141289   8.690   0.138   0.441 -1.3736  0.7165 -0.0779
10120SOL    HW241290   8.581   0.118   0.321 -1.1952 -1.1718  0.0673
10121SOL     OW41291   9.959   0.179   2.586  0.5356  0.2170  0.1817
10121SOL    HW141292   9.999   0.257   2.537 -0.1603  1.2314  1.2016
10121SOL    HW241293   9.892   0.212   2.652 -2.0128 -1.4513 -1.4673
10122SOL     OW41294   8.445   3.088   2.251  0.2741  0.2593  0.0899
10122SOL    HW141295   8.367   3.080   2.313 -0.0334  0.2528 -0.2925
10122SOL    HW241296   8.529   3.058   2.297 -0.1856 -1.1698  0.0135
10123SOL     OW41297   2.386   0.880   4.329  0.3625 -0.0081  0.2021
10123SOL    HW141298   2.430   0.969   4.333  0.4933  0.0599 -2.3463
10123SOL    HW241299   2.435   0.821   4.264 -0.1295 -1.7106  1.3286
10124SOL     OW41300   3.591   9.795   0.544 -0.0724  0.4416 -0.5197
10124SOL    HW141301   3.523   9.858   0.506  0.6366  0.5961 -1.5308
10124SOL    HW241302   3.682   9.837   0.540  0.4709 -0.8113 -1.5979
10125SOL     OW41303   9.993   7.802   3.711  0.1907  0.5001  0.7104
10125SOL    HW141304  10.052   7.751   3.649  1.9331  1.6369  1.4176
10125SOL    HW241305   9.900   7.763   3.708  0.8853 -1.1017 -0.6199
10126SOL     OW41306   3.727   5.957   3.314  0.3014 -0.7921 -0.1657
10126SOL    HW141307   3.638   5.988   3.349  0.8601 -0.1186  0.6864
10126SOL    HW241308   3.739   5.860   3.335 -1.3367 -1.5795 -2.5896
10127SOL     OW41309   4.855   8.914   3.155  0.3406  0.4045  0.0621
10127SOL    HW141310   4.849   8.855   3.075 -2.4766  1.4270 -0.5148
10127SOL    HW241311   4.891   8.861   3.232 -0.6896 -1.6683 -0.8477
10128SOL     OW41312   2.247   8.200   4.071 -0.5078  0.4368  0.3699
10128SOL    HW141313   2.165   8.147   4.050 -0.3952  1.5806 -3.2067
10128SOL    HW241314   2.328   8.147   4.049 -0.3007  0.2099  1.6449
10129SOL     OW41315   2.077   8.858   1.413 -0.2646 -0.1526 -0.1925
10129SOL    HW141316   2.075   8.788   1.341 -0.9607 -0.4637  0.1211
10129SOL    HW241317   1.984   8.890   1.431 -0.3584 -1.4768  1.8941
10130SOL     OW41318   9.653   4.167   5.220  0.4150 -0.2224  0.7498
10130SOL    HW141319   9.564   4.133   5.252  0.2273 -0.2874  0.1577
10130SOL    HW241320   9.639   4.249   5.165  0.4887 -1.7119 -1.5528
10131SOL     OW41321   8.703   7.599   5.585  0.0588 -0.6517  0.3501
10131SOL    HW141322   8.744   7.662   5.652  2.1418  0.4578 -1.8819
10131SOL    HW241323   8.747   7.510   5.593 -0.1038 -0.6887  0.8559
10132SOL     OW41324   1.498   2.947   4.147  0.4380  0.2782 -0.0517
10132SOL    HW141325   1.515   3.037   4.186 -3.0236  1.3351 -0.7816
10132SOL    HW241326   1.421   2.904   4.194  1.3761 -1.8413 -0.4063
10133SOL     OW41327   1.472   3.832   0.431 -0.3763 -0.4828  0.8007
10133SOL    HW141328   1.482   3.739   0.394 -1.3291  0.8976 -3.1948
10133SOL    HW241329   1.518   3.897   0.371  0.4855  1.6408  3.6848
10134SOL     OW41330   2.839   1.105   5.080 -0.0498  0.4017  0.3584
10134SOL    HW141331   2.904   1.180   5.067  1.1619 -0.7893 -0.5714
10134SOL    HW241332   2.771   1.108   5.007 -0.1780  0.7694  0.4898
10135SOL     OW41333   8.983   7.273   4.877  0.5202 -0.2410 -0.1358
10135SOL    HW141334   9.083   7.270   4.884  0.4601  0.1051  1.0915
10135SOL    HW241335   8.947   7.325   4.954 -0.5045  1.3395 -1.6573
10136SOL     OW41336   9.808   0.981   2.399  0.3783 -0.2041 -0.6294
10136SOL    HW141337   9.882   0.917   2.378  0.6422  0.0903 -0.5919
10136SOL    HW241338   9.820   1.066   2.348  1.7938  1.0668  1.7102
10137SOL     OW41339   9.897   8.461   1.915 -0.3789  0.2387  0.4393
10137SOL    HW141340   9.958   8.502   1.847 -1.1056 -0.1671 -0.4635
10137SOL    HW241341   9.950   8.400   1.974  0.0137 -0.4950 -0.6488
10138SOL     OW41342   5.044   7.020   2.551 -0.1701 -0.2284  0.6867
10138SOL    HW141343   4.954   7.012   2.594 -0.2005 -0.2885  0.6100
10138SOL    HW241344   5.115   7.012   2.622 -0.2167 -0.4862  0.7037
10139SOL     OW41345   1.100   7.325   2.065 -0.0800 -0.1040 -0.2328
10139SOL    HW141346   1.144   7.283   2.145 -0.0181 -0.0395 -0.2334
10139SOL    HW241347   1.022   7.380   2.095  1.4871  2.0293  0.0296
10140SOL     OW41348   9.130   6.047   4.664 -0.2634  0.8462 -0.1822
10140SOL    HW141349   9.068   6.066   4.588  0.5443 -0.0500 -1.0815
10140SOL    HW241350   9.118   5.953   4.695  0.5113  0.7128 -0.2557
10141SOL     OW41351   1.472   4.212   1.664 -0.4612 -0.9387  0.4773
10141SOL    HW141352   1.378   4.247   1.664 -1.0313 -2.4047 -1.1858
10141SOL    HW241353   1.474   4.122   1.707 -0.0660 -1.5261 -0.7603
10142SOL     OW41354   8.499   1.898   2.053 -0.1072  0.0270 -0.2720
10142SOL    HW141355   8.509   1.855   1.963 -2.2862  0.0147 -0.5261
10142SOL    HW241356   8.440   1.978   2.045 -1.2908 -0.6661  1.3718
10143SOL     OW41357   6.582   8.092   2.727 -0.4246 -0.1480 -0.3027
10143SOL    HW141358   6.573   8.136   2.817 -0.3017  1.4652 -1.0628
10143SOL    HW241359   6.551   7.997   2.733 -1.2042  0.1876  1.2495
10144SOL     OW41360   1.304   5.042   1.894 -0.2548  0.5894 -0.4921
10144SOL    HW141361   1.263   5.131   1.919  1.1869  0.9043  0.8221
10144SOL    HW241362   1.305   4.983   1.974  3.1687  1.1050 -0.0822
10145SOL     OW41363   7.016   4.619   0.486 -0.2200  0.3950  0.0301
10145SOL    HW141364   7.052   4.571   0.406  0.4756  1.3929 -0.2720
10145SOL    HW241365   7.093   4.659   0.537 -0.7178  0.3939  0.7804
10146SOL     OW41366   9.633   4.521   1.966  0.2105 -0.3960 -0.5467
10146SOL    HW141367   9.596   4.601   1.919  1.7958  2.2980  2.5812
10146SOL    HW241368   9.571   4.494   2.040  0.7355 -0.7275 -0.2283
10147SOL     OW41369   7.609   8.121   2.095 -0.7260  0.0444 -0.1678
10147SOL    HW141370   7.560   8.104   2.009 -0.5109 -0.4655 -0.1909
10147SOL    HW241371   7.676   8.194   2.081 -0.6255 -0.1035 -0.4572
10148SOL     OW41372   1.973   0.024   0.288  0.4681  0.1357  0.1214
10148SOL    HW141373   1.920   0.050   0.207  1.5888 -1.2708 -1.1110
10148SOL    HW241374   2.063   0.068   0.284  0.4142  0.3029  0.7565
10149SOL     OW41375   7.985   4.990   4.166  0.5266  0.3119  0.3232
10149SOL    HW141376   7.891   4.986   4.130  0.6533 -1.0693  0.1476
10149SOL    HW241377   7.982   5.007   4.264  0.0771 -0.5953  0.4676
10150SOL     OW41378   1.826   2.385   2.759 -0.4917  0.2046 -0.5100
10150SOL    HW141379   1.743   2.438   2.746 -0.8252  0.2623  1.6311
10150SOL    HW241380   1.809   2.312   2.826  1.0621 -0.0297 -0.3444
10151SOL     OW41381   2.847   5.123   4.668 -0.1258  0.0419 -0.1735
10151SOL    HW141382   2.816   5.213   4.698  2.3088  0.6708  0.5721
10151SOL    HW241383   2.883   5.129   4.575 -0.8147 -0.3641 -0.4714
10152SOL     OW41384   0.898   2.117   4.264 -0.3968 -0.0782 -0.4430
10152SOL    HW141385   0.870   2.203   4.307  0.6774 -0.7515  1.6979
10152SOL    HW241386   0.919   2.133   4.168  0.8064  2.2685  0.1716
10153SOL     OW41387   3.724   5.631   4.678 -0.3792 -0.3667 -0.2980
10153SOL    HW141388   3.679   5.675   4.756  0.9711  2.1974 -0.8993
10153SOL    HW241389   3.790   5.563   4.712  0.0918  0.6130  0.8108
10154SOL     OW41390   7.845   3.284   0.548 -0.0797  0.3102 -0.3047
10154SOL    HW141391   7.867   3.195   0.588  0.5119 -0.1406 -1.6039
10154SOL    HW241392   7.816   3.347   0.620 -3.1189 -1.7259  0.3102
10155SOL     OW41393   2.822   5.898   3.661  0.3080  0.3301 -0.6274
10155SOL    HW141394   2.917   5.918   3.684 -0.0937 -0.7725  2.1572
10155SOL    HW241395   2.762   5.939   3.729 -1.1226 -0.3230 -1.4723
10156SOL     OW41396   9.392   2.098   4.764 -0.2182 -0.1949 -0.4084
10156SOL    HW141397   9.462   2.087   4.835 -1.3671 -0.8121  0.6654
10156SOL    HW241398   9.428   2.154   4.690  1.7395 -1.3206 -0.3499
10157SOL     OW41399   6.097   7.848   2.594 -0.2146 -0.6236 -0.0744
10157SOL    HW141400   6.197   7.856   2.585 -0.0492 -2.3203  0.0877
10157SOL    HW241401   6.056   7.850   2.503 -0.0921  0.6367 -0.1150
10158SOL     OW41402   1.751   9.109   1.588 -0.5145  0.4323 -0.2255
10158SOL    HW141403   1.843   9.147   1.587 -0.4754  0.3273 -0.5618
10158SOL    HW241404   1.750   9.020   1.542 -0.5036 -0.2182  1.0084
10159SOL     OW41405   9.799   0.131   0.189  0.1761 -0.3713  0.2442
10159SOL    HW141406   9.803   0.231   0.189  0.9554 -0.4006  0.3107
10159SOL    HW241407   9.728   0.100   0.126  0.0798  0.2155  0.0652
10160SOL     OW41408   8.820   6.540   2.429  0.5988 -0.2923 -0.0207
10160SOL    HW141409   8.743   6.544   2.492 -0.0087 -1.0117 -0.6999
10160SOL    HW241410   8.906   6.540   2.480  0.1440  0.4925  0.7399
10161SOL     OW41411   1.249   3.045   0.398  0.3050 -0.1707 -0.0234
10161SOL    HW141412   1.251   2.949   0.369 -0.0632 -1.1319  2.9807
10161SOL    HW241413   1.261   3.050   0.497 -2.4312  2.7155  0.2256
10162SOL     OW41414   0.811   0.134   2.638  0.5485  0.9650 -0.3198
10162SOL    HW141415   0.735   0.190   2.672  1.2695  2.5264 -1.2194
10162SOL    HW241416   0.782   0.039   2.629 -1.3144  1.5676 -0.7241
10163SOL     OW41417   0.819   8.066   3.761 -0.4734 -1.0238 -0.2427
10163SOL    HW141418   0.835   8.155   3.719 -1.2670 -0.7681 -0.0167
10163SOL    HW241419   0.778   8.078   3.851 -2.1915 -1.6438 -0.9072
10164SOL     OW41420   9.616   5.903   0.359 -0.2659  0.3677 -0.2462
10164SOL    HW141421   9.661   5.946   0.280 -0.8900  0.3917 -0.5950
10164SOL    HW241422   9.523   5.940   0.369 -0.7244 -0.7170 -0.4087
10165SOL     OW41423   8.587   3.082   5.393 -0.1955 -0.4419  0.2511
10165SOL    HW141424   8.643   3.133   5.328 -0.9533  1.3862  0.9889
10165SOL    HW241425   8.501   3.056   5.350 -0.2360 -0.1896  0.1769
10166SOL     OW41426   4.578   5.171   0.542  0.1194 -0.0062 -0.2521
10166SOL    HW141427   4.628   5.202   0.460  0.1511 -0.8883 -0.5677
10166SOL    HW241428   4.603   5.077   0.563  0.3526  0.3130  0.9718
10167SOL     OW41429   1.179   9.001   5.495  0.4455  0.5900  0.1998
10167SOL    HW141430   1.140   8.988   5.404 -1.4102 -1.7639  1.2834
10167SOL    HW241431   1.109   9.034   5.558  1.8595  2.7903  0.6944
10168SOL     OW41432   2.578   1.467   1.840  0.1288  0.2843 -0.1484
10168SOL    HW141433   2.518   1.456   1.920  0.6808 -1.7007  0.0084
10168SOL    HW241434   2.643   1.391   1.836  0.7890  0.9190 -1.9215
10169SOL     OW41435   3.548   0.762   4.348 -0.3787 -0.9271  0.9418
10169SOL    HW141436   3.549   0.860   4.367  1.7036 -0.6482 -0.4740
10169SOL    HW241437   3.453   0.732   4.335 -1.0814  0.7446  2.0759
10170SOL     OW41438   3.441   6.024   2.683 -0.0407  0.1403 -0.8330
10170SOL    HW141439   3.397   6.113   2.693  0.5048  0.4570 -1.2059
10170SOL    HW241440   3.468   6.011   2.587 -0.0569 -0.3986 -0.7679
10171SOL     OW41441   9.792   3.071   3.351  0.6455 -0.1712  0.0363
10171SOL    HW141442   9.723   3.142   3.336  0.7661 -0.0838 -0.0994
10171SOL    HW241443   9.815   3.066   3.448  1.3170  0.5957 -0.0781
10172SOL     OW41444   4.926   4.146   2.662 -0.6465  0.2685 -0.2716
10172SOL    HW141445   4.840   4.104   2.631  0.0252 -1.2813 -0.0774
10172SOL    HW241446   4.913   4.183   2.754 -0.9469 -0.4972 -0.0023
10173SOL     OW41447   2.608   6.582   4.059  0.6208  0.4675  0.2723
10173SOL    HW141448   2.641   6.639   4.134  0.9308 -0.5647  0.9183
10173SOL    HW241449   2.610   6.486   4.086 -0.9324  0.2263 -0.4320
10174SOL     OW41450   9.454   6.358   0.843  0.9951  0.7730  0.0491
10174SOL    HW141451   9.475   6.261   0.853 -1.1070  0.1339 -1.3724
10174SOL    HW241452   9.364   6.369   0.801  1.3747  3.3425 -0.2056
10175SOL     OW41453   9.613   3.365   1.949 -0.6266  0.1081 -0.3773
10175SOL    HW141454   9.519   3.376   1.981  0.4433  1.5720  2.4071
10175SOL    HW241455   9.633   3.434   1.880 -1.1508  0.7351  0.0925
10176SOL     OW41456   1.143   3.707   4.314 -0.1699  0.4414  0.8579
10176SOL    HW141457   1.237   3.678   4.334 -0.6168 -1.9480 -0.3423
10176SOL    HW241458   1.079   3.646   4.361 -1.1294  0.2251 -0.6975
10177SOL     OW41459   1.274   6.647   5.358  0.5879  0.2170 -0.6245
10177SOL    HW141460   1.327   6.726   5.387 -0.8255  0.9305  0.0569
10177SOL    HW241461   1.177   6.663   5.376  0.4740 -2.6350  1.7389
10178SOL     OW41462   5.175   0.622   4.344  0.6550 -0.1884 -0.2015
10178SOL    HW141463   5.080   0.625   4.372  1.0381  0.5808  1.0498
10178SOL    HW241464   5.226   0.562   4.406  1.2335  0.4226 -0.0822
10179SOL     OW41465   0.749   8.496   1.156 -0.0037  0.1643 -0.2523
10179SOL    HW141466   0.830   8.455   1.113  0.8263  0.9120  0.5713
10179SOL    HW241467   0.690   8.535   1.085 -0.1687 -1.2764 -0.9430
10180SOL     OW41468   1.490   5.842   0.416  0.1074  0.7856  0.1737
10180SOL    HW141469   1.435   5.829   0.499 -0.3895 -0.7242 -0.3732
10180SOL    HW241470   1.562   5.772   0.413  0.2363  0.9466 -0.5702
10181SOL     OW41471   2.888   6.536   3.471 -0.1821  0.1724 -0.2145
10181SOL    HW141472   2.818   6.562   3.537 -1.1951 -1.4989 -0.6233
10181SOL    HW241473   2.871   6.444   3.437  2.2041 -0.2640 -0.3372
10182SOL     OW41474   3.185   1.767   0.179 -0.4644 -0.7685 -0.1988
10182SOL    HW141475   3.122   1.731   0.110 -1.5018 -0.9963  0.8322
10182SOL    HW241476   3.222   1.692   0.233 -0.1290 -0.5480 -0.1197
10183SOL     OW41477   0.642   0.825   5.013 -0.0442 -0.0507 -0.4281
10183SOL    HW141478   0.627   0.879   4.930 -0.6117 -1.0023 -0.9555
10183SOL    HW241479   0.663   0.731   4.988 -0.8692 -0.5049  0.5213
10184SOL     OW41480   1.968   3.584   2.740 -0.1965  0.2205 -0.0447
10184SOL    HW141481   2.060   3.562   2.708 -0.2023 -0.2233  0.2372
10184SOL    HW241482   1.940   3.673   2.704 -0.3334 -0.4258 -1.5517
10185SOL     OW41483   7.819   6.328   4.187 -0.0227  0.0043  0.4729
10185SOL    HW141484   7.820   6.266   4.109 -0.9248 -1.2184  1.4060
10185SOL    HW241485   7.829   6.422   4.156  1.3997 -0.6007 -0.9696
10186SOL     OW41486   3.395   3.082   3.551  0.1865  0.4015  0.0070
10186SOL    HW141487   3.374   3.023   3.474 -1.7197  0.2817  0.5979
10186SOL    HW241488   3.312   3.098   3.605  0.9790  2.3775  0.7105
10187SOL     OW41489   2.877   6.819   2.913 -0.1183 -0.3036  0.0625
10187SOL    HW141490   2.913   6.833   3.005 -0.3970  0.0176  0.1255
10187SOL    HW241491   2.952   6.798   2.851  0.0426 -0.7929  0.4126
10188SOL     OW41492   5.177   9.802   1.923  0.1365  0.6018 -0.1743
10188SOL    HW141493   5.186   9.890   1.970  1.1280 -0.9739  2.6818
10188SOL    HW241494   5.267   9.761   1.912 -0.5439 -1.2766  0.9638
10189SOL     OW41495   2.987   0.089   0.890  0.1220  0.0117  0.7551
10189SOL    HW141496   2.922   0.161   0.912 -1.1600 -0.2171 -2.0069
10189SOL    HW241497   3.068   0.128   0.845 -0.2950 -0.1852 -0.1808
10190SOL     OW41498   4.865   1.214   2.846 -0.2322 -0.7842 -0.7759
10190SOL    HW141499   4.773   1.185   2.873 -0.0693 -0.4864  0.1207
10190SOL    HW241500   4.893   1.163   2.765 -0.8019 -1.5842 -0.4797
10191SOL     OW41501   8.502   8.113   3.252 -0.0268 -0.7116 -0.0489
10191SOL    HW141502   8.499   8.016   3.226  0.6875 -0.6545 -0.3783
10191SOL    HW241503   8.596   8.138   3.273 -0.4333 -0.4707  1.5595
10192SOL     OW41504   1.393   5.924   2.860 -0.7218  0.5703  0.0265
10192SOL    HW141505   1.324   5.923   2.932 -2.8739  2.3702 -1.9478
10192SOL    HW241506   1.351   5.899   2.773  1.4014  0.4437 -1.0006
10193SOL     OW41507   9.522   0.160   3.671  0.0887 -0.0510  0.3844
10193SOL    HW141508   9.572   0.085   3.628  2.2929  0.6743  1.6264
10193SOL    HW241509   9.501   0.229   3.602  4.3308  1.5060  0.4990
10194SOL     OW41510   0.498   7.753   3.267  0.4232 -0.2857 -0.3177
10194SOL    HW141511   0.517   7.677   3.329 -1.5030  0.6857  1.5222
10194SOL    HW241512   0.405   7.745   3.232  0.3012  1.0432 -0.3380
10195SOL     OW41513   1.255   5.590   0.151 -0.1200 -0.4196  0.2622
10195SOL    HW141514   1.343   5.551   0.124  0.1324  0.0970  0.3359
10195SOL    HW241515   1.269   5.682   0.186 -1.0601  0.9943 -2.8926
10196SOL     OW41516   1.103   4.462   0.594 -0.0104  0.1239  0.1491
10196SOL    HW141517   1.047   4.431   0.671  0.0574  0.0255  0.1581
10196SOL    HW241518   1.051   4.530   0.541 -1.0453 -1.7010 -1.2038
10197SOL     OW41519   0.588   6.928   0.606 -0.2868  0.1308  0.2338
10197SOL    HW141520   0.643   6.991   0.659 -0.9228  0.4811  0.4881
10197SOL    HW241521   0.572   6.966   0.515  0.2733 -0.1792  0.0057
10198SOL     OW41522   4.699   2.475   0.309 -0.6526 -0.6843  0.3528
10198SOL    HW141523   4.764   2.454   0.383 -0.5018  0.2528  0.4880
10198SOL    HW241524   4.666   2.389   0.269  0.9185 -1.1768  0.0645
10199SOL     OW41525   4.473   6.245   1.365 -0.5308 -0.3100  0.3130
10199SOL    HW141526   4.560   6.288   1.389 -0.1751 -0.4994 -0.6124
10199SOL    HW241527   4.488   6.178   1.292 -1.3681 -0.7215  0.5122
10200SOL     OW41528   8.128   1.804   5.142  0.3848 -0.1619  0.0508
10200SOL    HW141529   8.146   1.769   5.234 -0.9577 -2.4716 -0.5422
10200SOL    HW241530   8.030   1.819   5.131  0.6739  1.3157 -0.5993
10201SOL     OW41531   2.829   2.987   3.190 -0.0238  0.2763 -0.1907
10201SOL    HW141532   2.808   2.976   3.287 -1.2765  0.3687 -0.4331
10201SOL    HW241533   2.804   2.903   3.141  1.2957 -0.0396 -0.3233
10202SOL     OW41534   3.666   9.845   0.898  0.1526 -0.4838 -0.0396
10202SOL    HW141535   3.587   9.896   0.865 -0.8933 -1.0013  1.5976
10202SOL    HW241536   3.636   9.754   0.929  1.0946 -0.0556  2.2026
10203SOL     OW41537   4.291   9.852   5.232 -0.2840  0.2324  0.6752
10203SOL    HW141538   4.204   9.894   5.205  0.6092  0.6212 -1.7487
10203SOL    HW241539   4.312   9.775   5.171  1.5151  0.7509  0.5990
10204SOL     OW41540   9.325   6.334   2.537  0.1784  0.0198 -0.0386
10204SOL    HW141541   9.283   6.407   2.483 -0.7677 -0.4956 -0.0287
10204SOL    HW241542   9.409   6.367   2.579 -0.3481  1.1672  0.1330
10205SOL     OW41543   7.479   1.335   0.316  0.3048 -0.0675  0.0028
10205SOL    HW141544   7.562   1.280   0.309 -0.5104 -1.5092  1.3192
10205SOL    HW241545   7.422   1.320   0.235  0.1399 -1.1131  0.2981
10206SOL     OW41546   8.413   1.656   4.227 -0.1488 -0.2901  0.0007
10206SOL    HW141547   8.426   1.742   4.177 -2.4127  0.4050  0.5405
10206SOL    HW241548   8.446   1.666   4.321  0.1778 -0.2328 -0.1183
10207SOL     OW41549   3.362   2.251   3.806  0.5808  0.5286  0.2936
10207SOL    HW141550   3.307   2.247   3.889  0.4047  2.2506  0.2790
10207SOL    HW241551   3.452   2.288   3.828  0.4890  1.1136 -0.2903
10208SOL     OW41552   2.871   0.999   5.546  0.3869  0.3166 -0.0268
10208SOL    HW141553   2.915   1.088   5.539  2.1788 -0.4701  1.0405
10208SOL    HW241554   2.934   0.927   5.517 -0.3964 -0.7758  0.9206
10209SOL     OW41555   1.906   3.640   3.851 -0.4579  0.2339  0.4015
10209SOL    HW141556   1.937   3.679   3.764 -1.1837  0.9897  0.4762
10209SOL    HW241557   1.924   3.705   3.925  1.3980 -0.9605  1.0241
10210SOL     OW41558   9.090   3.902   2.502  0.0331 -0.5725  1.2436
10210SOL    HW141559   9.111   3.992   2.466 -1.4982  0.1565  2.0886
10210SOL    HW241560   9.028   3.854   2.440 -1.6084  0.1923  2.2556
10211SOL     OW41561   6.992   0.453   1.851 -0.5306  0.9456 -0.6656
10211SOL    HW141562   7.082   0.435   1.891 -1.2244  0.6442  0.7890
10211SOL    HW241563   6.950   0.532   1.896 -1.8929 -0.2178  0.1404
10212SOL     OW41564   0.954   0.409   0.400  0.1725  0.4450 -0.8562
10212SOL    HW141565   1.009   0.331   0.432 -1.9447 -0.6809  0.0946
10212SOL    HW241566   0.931   0.467   0.478  2.2938  2.4427 -1.6487
10213SOL     OW41567   2.987   6.386   3.107 -0.1625 -0.2454 -0.6347
10213SOL    HW141568   3.046   6.415   3.031  1.1962  0.3916  0.6357
10213SOL    HW241569   2.896   6.425   3.095  0.6489  1.6408 -0.8217
10214SOL     OW41570   3.835   2.308   5.636  0.0033 -0.2802  0.0106
10214SOL    HW141571   3.805   2.213   5.625 -2.4952  0.4214  0.5427
10214SOL    HW241572   3.872   2.341   5.549 -1.6663 -0.8784 -0.9443
10215SOL     OW41573   6.189   9.739   1.778  0.4681  0.4546 -0.0504
10215SOL    HW141574   6.215   9.694   1.693  0.2733  1.0337 -0.4213
10215SOL    HW241575   6.200   9.838   1.768 -0.5047  0.6028  0.2580
10216SOL     OW41576   9.063   8.441   3.556 -0.7543 -0.3694  0.2128
10216SOL    HW141577   9.085   8.476   3.465  1.2668  2.2809  1.6515
10216SOL    HW241578   9.039   8.517   3.616 -1.5367 -2.0140  2.0489
10217SOL     OW41579   4.148   4.233   1.582  0.3990 -0.3333  0.0161
10217SOL    HW141580   4.096   4.149   1.569 -1.6497  0.9460 -0.4455
10217SOL    HW241581   4.136   4.265   1.676  1.2896 -0.6214  0.2326
10218SOL     OW41582   4.551   2.068   2.846  0.3539 -0.0260  0.0900
10218SOL    HW141583   4.517   2.153   2.885  0.0044 -0.8157  1.5444
10218SOL    HW241584   4.636   2.042   2.891  2.0599  1.0827 -2.4018
10219SOL     OW41585   3.119   9.867   5.517 -0.1962  0.2677 -0.5074
10219SOL    HW141586   3.197   9.838   5.461 -0.5723  1.6534 -1.7889
10219SOL    HW241587   3.067   9.787   5.547  2.4305 -0.7549  1.4444
10220SOL     OW41588   3.824   6.912   2.167  0.0829 -0.4939 -0.2913
10220SOL    HW141589   3.922   6.895   2.179 -0.0170 -0.3482  0.7656
10220SOL    HW241590   3.806   7.010   2.176 -0.2137 -0.5683 -0.0841
10221SOL     OW41591   3.160   5.087   0.841  0.1615 -1.0435  0.0579
10221SOL    HW141592   3.148   5.184   0.860 -0.9957 -1.2889  0.6657
10221SOL    HW241593   3.230   5.048   0.900  2.1861 -0.1280 -1.6847
10222SOL     OW41594   4.298   2.222   4.456  0.8139  0.0718  0.2080
10222SOL    HW141595   4.361   2.146   4.471 -0.2566 -0.6585  1.0568
10222SOL    HW241596   4.285   2.272   4.541 -0.4107 -0.3080  0.2642
10223SOL     OW41597   7.317   9.664   0.676  0.6444  0.0757 -0.0406
10223SOL    HW141598   7.352   9.757   0.667 -0.7343  0.4759 -1.4393
10223SOL    HW241599   7.343   9.610   0.596  0.0232 -0.2715 -0.0142
10224SOL     OW41600   2.647   6.523   0.564  0.2228 -0.3416  0.6068
10224SOL    HW141601   2.577   6.594   0.556  1.1637  0.7288  1.6265
10224SOL    HW241602   2.675   6.514   0.660  0.6929 -1.5350  0.3716
10225SOL     OW41603   1.073   4.102   5.374  0.1860  0.2376 -0.1272
10225SOL    HW141604   1.074   4.177   5.440  0.8174 -0.9099  1.1799
10225SOL    HW241605   1.147   4.038   5.394  0.7040  0.1332 -2.2597
10226SOL     OW41606   1.288   7.388   4.791  0.2778  0.3002  0.4661
10226SOL    HW141607   1.316   7.325   4.864 -1.5018  0.2512  1.1257
10226SOL    HW241608   1.327   7.358   4.704  1.6347 -0.1823  1.2381
10227SOL     OW41609   1.756   1.014   2.553 -0.5926 -0.2562  0.0496
10227SOL    HW141610   1.768   0.985   2.458 -1.7301  0.2363 -0.2529
10227SOL    HW241611   1.665   1.055   2.564 -0.1949  0.3291  1.1862
10228SOL     OW41612   6.941   9.597   3.784  0.5588 -0.0620  0.0279
10228SOL    HW141613   6.998   9.673   3.753 -0.2291 -0.6369 -3.0506
10228SOL    HW241614   6.848   9.608   3.747  0.1532 -1.9575  0.4143
10229SOL     OW41615   0.633   3.150   2.966 -0.1668 -0.3726  0.0788
10229SOL    HW141616   0.702   3.080   2.984 -0.7934 -1.3915 -1.3790
10229SOL    HW241617   0.673   3.241   2.981  0.8192 -1.0242  1.4191
10230SOL     OW41618   1.736   7.707   1.242  0.1392 -0.0670  0.0701
10230SOL    HW141619   1.683   7.694   1.326  0.1830 -0.5076  0.0288
10230SOL    HW241620   1.684   7.764   1.179 -0.5341 -0.9615 -0.1955
10231SOL     OW41621   9.949   7.022   0.492  0.7485 -0.1754 -0.3956
10231SOL    HW141622   9.928   6.935   0.538 -0.3152  0.1092 -0.3234
10231SOL    HW241623   9.865   7.075   0.481  1.5551  1.3638  0.6181
10232SOL     OW41624   2.453   4.219   2.213 -0.6632  0.7295  0.3590
10232SOL    HW141625   2.397   4.188   2.290 -2.8550  2.1207 -0.6003
10232SOL    HW241626   2.400   4.209   2.128  0.4378  2.3796 -0.5487
10233SOL     OW41627   1.494   9.199   3.829 -0.3030 -0.0841 -0.8559
10233SOL    HW141628   1.552   9.139   3.775 -0.7616 -0.9704 -0.3826
10233SOL    HW241629   1.516   9.188   3.926  0.1600  1.1057 -0.8234
10234SOL     OW41630   3.097   5.980   5.079 -0.1715  0.3516 -0.5794
10234SOL    HW141631   3.072   5.984   5.175 -0.0548  3.1186 -0.6151
10234SOL    HW241632   3.026   5.931   5.028 -0.8931  0.0413  0.6984
10235SOL     OW41633   2.312   6.597   0.768  0.2782 -0.1755  0.4235
10235SOL    HW141634   2.258   6.619   0.849  0.8142  1.3755  0.3812
10235SOL    HW241635   2.294   6.502   0.741 -2.2488  0.2229  0.5372
10236SOL     OW41636   2.115   7.672   0.443  0.1328  0.2214 -0.7563
10236SOL    HW141637   2.099   7.649   0.538  1.3358  0.8160 -0.4062
10236SOL    HW241638   2.211   7.697   0.429 -0.2326  1.0528 -1.9228
10237SOL     OW41639   8.789   0.109   1.947 -0.1097 -0.1077  0.2259
10237SOL    HW141640   8.808   0.179   2.015  0.2892  2.9244 -2.8721
10237SOL    HW241641   8.871   0.053   1.934 -0.2263 -0.7884  2.2637
10238SOL     OW41642   2.611   1.109   2.582 -0.2360 -0.1492  0.3196
10238SOL    HW141643   2.701   1.094   2.542 -1.2774 -1.0406 -1.7284
10238SOL    HW241644   2.622   1.138   2.677  2.1882 -0.6230  0.2205
10239SOL     OW41645   6.824   4.975   5.403 -0.0344  0.4044  0.4666
10239SOL    HW141646   6.779   4.892   5.436  0.0637  0.9902  2.1476
10239SOL    HW241647   6.776   5.010   5.323 -0.8919 -0.5167  0.5730
10240SOL     OW41648   0.830   0.045   3.536 -0.5148  0.2300 -0.5301
10240SOL    HW141649   0.809   0.135   3.498  0.4725  0.5795 -0.2746
10240SOL    HW241650   0.884   0.056   3.619 -1.4128 -0.5722  0.1577
10241SOL     OW41651   6.325   9.659   3.728  0.1691  0.1934 -0.2929
10241SOL    HW141652   6.306   9.753   3.757  1.2082  0.2107  0.3457
10241SOL    HW241653   6.350   9.603   3.807 -2.7945 -1.2480 -0.2965
10242SOL     OW41654   1.673   9.944   3.120 -0.1960 -0.5994  0.3161
10242SOL    HW141655   1.659   9.854   3.159 -1.0117  0.0813  1.6363
10242SOL    HW241656   1.627   9.950   3.031  0.8706 -1.8467 -0.3457
10243SOL     OW41657   3.006   1.881   4.600  0.0447 -0.3199 -0.2458
10243SOL    HW141658   2.952   1.798   4.596  0.9545 -0.9878  0.8631
10243SOL    HW241659   3.063   1.889   4.518  0.0574 -0.8601 -0.2880
10244SOL     OW41660   8.052   3.404   1.671 -0.2381 -0.4850 -0.1972
10244SOL    HW141661   8.045   3.319   1.621  1.7073  0.5344 -2.2930
10244SOL    HW241662   8.125   3.398   1.739  1.4709  0.2435 -1.9367
10245SOL     OW41663   1.785   0.430   0.616 -0.0935 -0.4279  0.0716
10245SOL    HW141664   1.803   0.397   0.524 -0.9650 -0.3595 -0.1223
10245SOL    HW241665   1.736   0.359   0.668  0.8741 -0.6817  0.6546
10246SOL     OW41666   6.907   4.715   0.084  0.0435 -0.1167 -0.2335
10246SOL    HW141667   6.966   4.734   0.005  0.4138  0.8032  0.2593
10246SOL    HW241668   6.949   4.752   0.166  0.0324 -1.7416  0.5232
10247SOL     OW41669   8.541   7.065   1.703  0.0704 -0.2438  0.7791
10247SOL    HW141670   8.576   7.153   1.734  0.5712 -0.1363 -0.0657
10247SOL    HW241671   8.445   7.075   1.677  0.7364  0.6283 -1.5202
10248SOL     OW41672   8.075   9.545   4.448  0.0007 -0.0223  0.1786
10248SOL    HW141673   8.168   9.561   4.417  0.3035 -0.7565  0.7080
10248SOL    HW241674   8.054   9.447   4.445 -0.6731  0.1139  0.2883
10249SOL     OW41675   7.548   6.937   2.729 -0.0367  0.3876 -0.6274
10249SOL    HW141676   7.620   6.996   2.693 -0.8895  1.5776 -0.4297
10249SOL    HW241677   7.485   6.912   2.655 -0.1651  0.4447 -0.5379
10250SOL     OW41678   5.349   3.284   1.627 -0.3434  0.3489 -0.2521
10250SOL    HW141679   5.369   3.223   1.550 -1.0468  2.0375 -1.8171
10250SOL    HW241680   5.327   3.375   1.592  1.7632  1.8152  2.0822
10251SOL     OW41681   8.451   4.815   5.526  0.0260 -0.1629  0.6194
10251SOL    HW141682   8.525   4.792   5.462 -0.6373 -0.0663 -0.1958
10251SOL    HW241683   8.366   4.772   5.495 -1.3156  3.5519 -1.0696
10252SOL     OW41684   7.563   6.336   4.332 -0.0572 -0.0586  0.2397
10252SOL    HW141685   7.642   6.328   4.271  0.5927 -0.9927  1.1883
10252SOL    HW241686   7.542   6.433   4.345 -0.5685  0.1391 -1.9025
10253SOL     OW41687   1.066   1.023   5.091  0.0568  1.3895 -0.0274
10253SOL    HW141688   0.990   1.067   5.043 -0.7424 -0.4090 -0.4757
10253SOL    HW241689   1.134   0.993   5.025  0.0990  1.0344  0.1768
10254SOL     OW41690   5.113   5.880   0.998 -0.0853  0.0398  0.3573
10254SOL    HW141691   5.100   5.803   1.060  0.3579  0.0103  0.4172
10254SOL    HW241692   5.198   5.929   1.022  0.9455 -0.9304 -1.2219
10255SOL     OW41693   6.173   9.530   1.355  0.0835 -0.4710  0.4210
10255SOL    HW141694   6.124   9.615   1.337  0.6546 -0.4349 -1.0744
10255SOL    HW241695   6.243   9.517   1.285  1.2888 -1.2164  1.7405
10256SOL     OW41696   0.125   0.759   0.148  0.3171 -0.6293 -0.0073
10256SOL    HW141697   0.093   0.796   0.060  0.7114 -0.4793 -0.0898
10256SOL    HW241698   0.224   0.771   0.155  0.0104  1.3031  1.3869
10257SOL     OW41699   8.653   5.393   4.620 -0.6313  0.3720  0.1410
10257SOL    HW141700   8.725   5.329   4.647 -0.1023  0.3166 -1.3793
10257SOL    HW241701   8.652   5.470   4.683  0.8101  0.4095  0.1346
10258SOL     OW41702   5.209   7.288   2.560 -0.3488 -0.0699 -0.1053
10258SOL    HW141703   5.130   7.248   2.514 -0.5632 -1.1310  1.1744
10258SOL    HW241704   5.293   7.252   2.519 -0.5355 -0.8229  0.1698
10259SOL     OW41705   1.274   9.739   4.143 -0.4896 -0.0951 -0.3957
10259SOL    HW141706   1.205   9.669   4.122  0.1635 -0.6448 -0.7100
10259SOL    HW241707   1.335   9.750   4.065  1.3101 -1.3915  0.8195
10260SOL     OW41708   6.412   8.260   3.147 -0.2736 -0.9810 -0.1181
10260SOL    HW141709   6.318   8.287   3.167 -0.6849 -3.7163  1.9046
10260SOL    HW241710   6.454   8.221   3.229  3.0123  1.1530 -0.6776
10261SOL     OW41711   4.460   2.702   5.367 -0.2295 -0.4875  1.0627
10261SOL    HW141712   4.389   2.747   5.314  0.7461 -0.8476 -0.5867
10261SOL    HW241713   4.489   2.618   5.320  2.6989  0.6966  0.6691
10262SOL     OW41714   1.891   8.715   0.421 -0.2064  0.0376  0.1528
10262SOL    HW141715   1.856   8.631   0.462 -1.5805  0.5383  0.0318
10262SOL    HW241716   1.818   8.761   0.371  0.4693  1.4274  0.4022
10263SOL     OW41717   0.809   8.219   3.246 -0.6762 -0.5058  0.2434
10263SOL    HW141718   0.809   8.238   3.344  0.8876 -2.7772  0.7286
10263SOL    HW241719   0.894   8.250   3.206 -0.4995 -1.3036 -0.0178
10264SOL     OW41720   3.978   3.990   2.349  0.0030  0.0227  0.5576
10264SOL    HW141721   4.077   3.990   2.334  0.7138 -1.8373  4.5192
10264SOL    HW241722   3.934   3.930   2.283  1.8877 -1.2610  0.4301
10265SOL     OW41723   8.930   8.472   0.449  0.6096  0.2089 -0.0845
10265SOL    HW141724   8.978   8.435   0.528  0.2149 -0.5760 -0.2122
10265SOL    HW241725   8.934   8.407   0.373 -1.1979 -0.1560  0.1038
10266SOL     OW41726   3.515   9.638   0.326  0.1253  0.1100 -0.3572
10266SOL    HW141727   3.424   9.667   0.298 -0.8343 -0.4395  2.0540
10266SOL    HW241728   3.540   9.684   0.411  1.2833 -1.1950  0.0365
10267SOL     OW41729   8.231   6.006   4.390 -0.2675 -0.0537  0.2953
10267SOL    HW141730   8.325   5.983   4.365  0.9255  1.9673  2.8068
10267SOL    HW241731   8.191   6.063   4.318  0.3056 -1.1313 -0.9064
10268SOL     OW41732   1.841   5.270   2.081  0.6698  0.5089  0.2023
10268SOL    HW141733   1.879   5.209   2.011  1.6321  0.9798  0.2940
10268SOL    HW241734   1.888   5.254   2.168 -0.0295  0.4169  0.5634
10269SOL     OW41735   4.300   9.888   3.877  0.0945  0.0774  0.0431
10269SOL    HW141736   4.216   9.839   3.853 -0.4944  0.4049  1.3876
10269SOL    HW241737   4.352   9.908   3.794 -0.3619 -1.5591 -0.6573
10270SOL     OW41738   3.900   3.503   5.343 -0.4583  0.2691  0.2966
10270SOL    HW141739   3.862   3.580   5.291 -0.9804 -1.3029 -1.6930
10270SOL    HW241740   3.829   3.464   5.402 -0.1448  1.3929  1.4467
10271SOL     OW41741   1.075   3.689   1.156  0.2385 -0.0338 -0.1735
10271SOL    HW141742   1.169   3.682   1.122 -0.1927  0.2367 -1.4438
10271SOL    HW241743   1.028   3.602   1.144  0.4717 -0.3109  0.9056
10272SOL     OW41744   3.831   4.903   3.723 -0.2938 -0.1912 -0.3382
10272SOL    HW141745   3.897   4.979   3.731 -0.5432 -0.0999  1.0390
10272SOL    HW241746   3.818   4.880   3.627  0.6349  0.7781 -0.7083
10273SOL     OW41747   3.691   2.182   4.026  0.4200 -0.2648 -0.3857
10273SOL    HW141748   3.747   2.223   3.955  0.7015  0.2281  0.1140
10273SOL    HW241749   3.744   2.112   4.074  1.6748  2.2419  2.0550
10274SOL     OW41750   6.037   1.740   3.115 -0.7172 -0.0515 -0.1982
10274SOL    HW141751   6.084   1.766   3.031  0.7531  0.6143  0.8071
10274SOL    HW241752   5.942   1.717   3.094 -0.1336 -0.8210 -2.1712
10275SOL     OW41753   8.481   4.572   3.919 -0.0604 -0.5241  0.6033
10275SOL    HW141754   8.523   4.506   3.857 -0.9457  1.8264 -2.6224
10275SOL    HW241755   8.386   4.548   3.934 -0.1529 -0.4835  0.1000
10276SOL     OW41756   3.281   4.279   2.437  1.0743 -0.0813  0.5231
10276SOL    HW141757   3.261   4.373   2.463  1.0907  0.5176 -1.5566
10276SOL    HW241758   3.373   4.273   2.400  1.7768 -1.2966  2.3991
10277SOL     OW41759   0.340   8.524   2.609 -0.0822  0.4255 -0.5088
10277SOL    HW141760   0.325   8.476   2.522 -0.6095 -0.8142  0.2587
10277SOL    HW241761   0.255   8.568   2.638 -0.6661 -1.5108  0.7791
10278SOL     OW41762   3.893   3.273   5.104  0.4190 -0.0259  0.0561
10278SOL    HW141763   3.878   3.371   5.110 -1.4793 -0.3244  0.2456
10278SOL    HW241764   3.839   3.235   5.030  1.4816 -0.8748 -0.3016
10279SOL     OW41765   3.126   4.644   2.662  0.6456 -0.0156 -0.0005
10279SOL    HW141766   3.198   4.592   2.616 -0.0920 -0.0952 -1.0906
10279SOL    HW241767   3.166   4.698   2.736  1.4981 -1.7367  0.8120
10280SOL     OW41768   1.178   6.706   1.123  0.4341  0.0349  0.4053
10280SOL    HW141769   1.151   6.645   1.197 -0.1666 -0.6416 -0.3689
10280SOL    HW241770   1.230   6.655   1.055  1.1657  0.7016  0.4604
10281SOL     OW41771   8.859   2.591   5.383 -0.5334 -0.5149 -0.0540
10281SOL    HW141772   8.785   2.655   5.403  1.3374  2.4478 -2.2274
10281SOL    HW241773   8.839   2.542   5.298  1.0827  2.1555 -2.0451
10282SOL     OW41774   8.235   9.267   3.115 -0.3078 -0.0589 -0.0655
10282SOL    HW141775   8.279   9.328   3.049  0.1176  2.6072  2.5267
10282SOL    HW241776   8.302   9.204   3.153 -0.3326 -0.9053 -1.4355
10283SOL     OW41777   0.352   6.983   4.519 -0.1436  0.8175  0.1880
10283SOL    HW141778   0.446   6.956   4.542 -0.2852 -1.1197 -1.3056
10283SOL    HW241779   0.342   6.983   4.419 -1.9727  0.1155  0.3605
10284SOL     OW41780   9.813   9.405   5.419  0.3562  0.0449  0.1222
10284SOL    HW141781   9.858   9.316   5.409 -1.0590 -0.6735 -0.0094
10284SOL    HW241782   9.822   9.437   5.513  2.2666  0.5373 -0.2096
10285SOL     OW41783   4.944   1.564   1.210 -0.3666 -0.1983 -0.8005
10285SOL    HW141784   5.044   1.575   1.210 -0.2903 -0.7887  0.5076
10285SOL    HW241785   4.909   1.580   1.118  0.8612  0.6917 -1.1318
10286SOL     OW41786   3.258   0.580   0.610 -0.1503 -0.2464 -0.2933
10286SOL    HW141787   3.351   0.590   0.645  0.3276 -2.8013 -0.7468
10286SOL    HW241788   3.260   0.533   0.522 -1.9303 -0.9732  0.0277
10287SOL     OW41789   9.906   6.619   3.934  0.5119  0.3220  0.5143
10287SOL    HW141790   9.965   6.580   3.864 -1.6312 -0.9521 -0.6661
10287SOL    HW241791   9.901   6.718   3.923 -0.1553  0.0981 -1.4841
10288SOL     OW41792   5.856   9.900   4.594  0.2458 -0.3024  0.1517
10288SOL    HW141793   5.826   9.898   4.498 -0.9833 -1.0821  0.5489
10288SOL    HW241794   5.776   9.899   4.654  1.0083  0.5471  1.1881
10289SOL     OW41795   9.683   0.086   0.602 -0.1510 -0.1489 -0.4383
10289SOL    HW141796   9.724   0.100   0.692  0.8354  1.3293 -1.0957
10289SOL    HW241797   9.754   0.064   0.536 -1.0512 -2.8464 -0.5653
10290SOL     OW41798   0.929   4.542   1.497  0.2801 -0.5647  0.2981
10290SOL    HW141799   1.023   4.570   1.478  0.0176  1.4496  1.6727
10290SOL    HW241800   0.919   4.444   1.484  1.8453 -0.3784 -2.6589
10291SOL     OW41801   2.895   2.249   5.307 -0.2182 -0.2802 -0.4085
10291SOL    HW141802   2.936   2.248   5.215 -1.2467 -1.2560 -0.8689
10291SOL    HW241803   2.802   2.213   5.302 -0.9000  1.2669  0.7448
10292SOL     OW41804   8.270   4.243   4.327  0.0399  0.1155  0.2525
10292SOL    HW141805   8.205   4.318   4.314  0.9692  0.9304  0.2528
10292SOL    HW241806   8.221   4.157   4.334 -0.9635  0.5811 -0.9847
10293SOL     OW41807   8.003   1.105   1.833 -0.2259  0.6099  0.1713
10293SOL    HW141808   8.021   1.013   1.798 -0.4964 -0.1703  2.0110
10293SOL    HW241809   8.016   1.106   1.932 -1.6195  2.2259  0.3618
10294SOL     OW41810   2.734   4.639   5.592  0.3255 -0.4819  0.3107
10294SOL    HW141811   2.640   4.605   5.598  0.6080 -1.0264  1.9434
10294SOL    HW241812   2.760   4.649   5.496 -1.6531  0.3910 -0.1612
10295SOL     OW41813   9.689   7.771   3.098  0.0970 -0.7129 -0.0873
10295SOL    HW141814   9.617   7.761   3.030 -0.4256  2.3732 -0.0537
10295SOL    HW241815   9.745   7.851   3.076  1.4971 -1.1615  1.6991
10296SOL     OW41816   4.846   0.730   0.765 -0.2929  0.2966 -0.1748
10296SOL    HW141817   4.776   0.731   0.694  0.3694  0.0880 -0.8398
10296SOL    HW241818   4.886   0.821   0.774  1.1017 -0.1620 -1.5643
10297SOL     OW41819   1.575   3.496   3.677  0.8193  0.2034 -0.1958
10297SOL    HW141820   1.557   3.553   3.597  0.5780  0.0126 -0.2809
10297SOL    HW241821   1.598   3.554   3.755 -2.4598  0.6413  0.5254
10298SOL     OW41822   0.032   1.682   0.612  0.0240  0.0797 -0.0275
10298SOL    HW141823   0.016   1.780   0.611  0.4235  0.1517  0.5825
10298SOL    HW241824   0.077   1.654   0.527 -0.2296  0.3938 -0.2664
10299SOL     OW41825   6.505   8.735   3.167  0.0685  0.8311  0.4141
10299SOL    HW141826   6.457   8.785   3.239  0.4986  1.9514 -0.0479
10299SOL    HW241827   6.442   8.676   3.118 -0.8319  2.1874 -0.0989
10300SOL     OW41828   1.533   2.095   2.033 -0.3834  0.1789 -0.5004
10300SOL    HW141829   1.461   2.164   2.039  0.9554  1.4467  1.1973
10300SOL    HW241830   1.620   2.134   2.061  0.4158 -2.1585  0.4165
10301SOL     OW41831   3.465   6.624   3.020 -0.1388  0.7933 -0.1343
10301SOL    HW141832   3.469   6.585   2.928 -1.7343 -0.1923  0.1977
10301SOL    HW241833   3.373   6.656   3.039 -0.5135 -1.3851  2.0695
10302SOL     OW41834   1.998   5.637   5.231  0.1829  0.1348 -0.5550
10302SOL    HW141835   2.034   5.729   5.241 -1.8692  0.9699 -0.4798
10302SOL    HW241836   1.960   5.606   5.318  1.0865 -0.8972 -0.5131
10303SOL     OW41837   8.909   2.912   3.387  0.1657 -0.4172 -0.2057
10303SOL    HW141838   8.856   2.840   3.342  0.1904 -0.8361  0.4284
10303SOL    HW241839   8.959   2.873   3.464  1.2963  0.0006 -0.7218
10304SOL     OW41840   4.001   7.637   5.008 -0.1007  0.1271 -0.3878
10304SOL    HW141841   4.059   7.641   5.089 -0.6414  0.0862  0.0003
10304SOL    HW241842   3.992   7.729   4.969 -0.0192  0.1792 -0.2827
10305SOL     OW41843   4.065   3.950   4.012 -0.2362  0.3499  0.0144
10305SOL    HW141844   4.017   3.914   3.933  0.3144  0.6206 -0.4448
10305SOL    HW241845   4.031   3.905   4.095 -0.2198 -0.5439 -0.4548
10306SOL     OW41846   3.139   0.562   3.413 -0.5855 -0.3811 -0.3515
10306SOL    HW141847   3.140   0.566   3.513 -0.0524  2.2424 -0.4175
10306SOL    HW241848   3.050   0.593   3.379 -0.4503 -0.3806 -0.7093
10307SOL     OW41849   7.396   0.445   0.089  0.1538 -0.1727  0.4155
10307SOL    HW141850   7.461   0.466   0.017  0.6272  0.7354  1.0904
10307SOL    HW241851   7.304   0.474   0.061 -0.1370 -2.2576 -0.8980
10308SOL     OW41852   2.994   2.691   0.292  0.4240  0.0446 -0.0679
10308SOL    HW141853   3.074   2.750   0.282  0.9209  0.0254  3.2504
10308SOL    HW241854   2.950   2.678   0.203  3.1594  1.3709 -1.6512
10309SOL     OW41855   3.408   1.950   0.114 -0.1636 -0.2089 -0.4230
10309SOL    HW141856   3.479   1.903   0.166  0.3263  1.6976  0.6427
10309SOL    HW241857   3.320   1.904   0.129  0.3288 -0.8495  0.5201
10310SOL     OW41858   2.496   9.634   0.274  0.5239  0.2486 -0.5435
10310SOL    HW141859   2.446   9.622   0.188  0.0104  1.0339 -0.3653
10310SOL    HW241860   2.443   9.594   0.349  0.0283  1.2941 -0.3198
10311SOL     OW41861   9.230   0.802   0.814 -0.6157 -0.4870  0.1480
10311SOL    HW141862   9.172   0.783   0.735  0.8000 -0.0761 -1.0091
10311SOL    HW241863   9.263   0.715   0.853 -2.3747 -0.7417  1.1174
10312SOL     OW41864   8.810   1.643   2.834  0.2648 -0.1368 -0.0763
10312SOL    HW141865   8.889   1.698   2.860  0.1975 -0.3710  0.6144
10312SOL    HW241866   8.801   1.644   2.734 -0.1308  1.6722 -0.0461
10313SOL     OW41867   6.268   7.520   3.303  0.6847 -0.4384  0.1949
10313SOL    HW141868   6.234   7.430   3.330 -0.6031  0.2589  0.9544
10313SOL    HW241869   6.225   7.590   3.360  0.6383  0.7720 -1.3107
10314SOL     OW41870   8.915   9.586   1.193 -0.0170  0.2578  0.1277
10314SOL    HW141871   8.954   9.557   1.280  0.7271  0.1121 -0.2481
10314SOL    HW241872   8.873   9.508   1.148 -0.6776  0.3988  0.4967
10315SOL     OW41873   1.771   3.600   1.674  0.4166 -0.3451  0.5073
10315SOL    HW141874   1.821   3.542   1.609  1.5883  0.8502  0.3156
10315SOL    HW241875   1.829   3.618   1.753 -0.5059 -0.6792  1.2676
10316SOL     OW41876   2.638   2.058   1.848  0.1136 -0.6042 -0.5227
10316SOL    HW141877   2.599   2.039   1.939 -0.6044 -1.1310 -0.9341
10316SOL    HW241878   2.665   2.154   1.843 -1.0666 -0.2487 -0.1983
10317SOL     OW41879   4.029   7.259   3.332 -0.1914  0.5595  0.1271
10317SOL    HW141880   4.038   7.272   3.431  0.6702  1.5286 -0.0715
10317SOL    HW241881   4.058   7.166   3.308 -1.5211 -0.0712  0.9227
10318SOL     OW41882   9.884   7.816   1.511  0.9004 -0.4741 -0.0562
10318SOL    HW141883   9.837   7.902   1.495 -0.5909 -1.5816 -1.8428
10318SOL    HW241884   9.900   7.804   1.609  1.0277  1.7538  0.2161
10319SOL     OW41885   7.107   0.885   2.635  0.7446 -0.1771 -0.2475
10319SOL    HW141886   7.066   0.880   2.726  0.6799  1.6730 -0.1700
10319SOL    HW241887   7.174   0.959   2.633 -1.3927  1.7757 -2.5343
10320SOL     OW41888   8.438   3.717   4.065 -0.2378 -0.5401 -0.0478
10320SOL    HW141889   8.507   3.650   4.090 -0.0477  0.2494  1.6113
10320SOL    HW241890   8.436   3.790   4.133 -2.3032 -0.2577 -0.3683
10321SOL     OW41891   4.254   2.049   0.565  0.6661  0.7479 -0.9225
10321SOL    HW141892   4.175   2.101   0.596  0.6471  0.9880 -1.3686
10321SOL    HW241893   4.223   1.973   0.507  0.8910  2.0772 -2.8101
10322SOL     OW41894   4.964   3.501   1.421  0.0097 -0.0897 -0.1320
10322SOL    HW141895   4.906   3.490   1.341 -0.2665 -0.3308  0.1048
10322SOL    HW241896   4.995   3.412   1.453 -1.1616 -0.0959  0.9807
10323SOL     OW41897   0.244   6.977   3.547  0.3951 -0.8943 -0.3181
10323SOL    HW141898   0.257   6.878   3.561 -1.6149 -1.2211 -0.5701
10323SOL    HW241899   0.317   7.027   3.593  1.8544 -2.5223 -0.7755
10324SOL     OW41900   0.963   7.571   0.234  0.2131 -0.2313  0.4038
10324SOL    HW141901   1.001   7.536   0.319  0.3418 -0.8301  0.1030
10324SOL    HW241902   0.925   7.496   0.180 -0.5413  0.2311  0.2664
10325SOL     OW41903   1.072   5.391   4.850 -0.0581  0.6044 -0.2513
10325SOL    HW141904   1.107   5.438   4.931 -0.2455  1.9524 -0.9485
10325SOL    HW241905   1.003   5.325   4.878 -0.0271  0.9634  0.7066
10326SOL     OW41906   8.115   9.849   5.453  0.7676 -0.3974  0.0763
10326SOL    HW141907   8.134   9.898   5.368 -0.5804 -1.3788 -0.8030
10326SOL    HW241908   8.062   9.907   5.514 -0.0473 -0.4174 -0.5997
10327SOL     OW41909   3.769   8.073   0.820 -0.0900  0.1978  0.1498
10327SOL    HW141910   3.725   8.148   0.870 -0.4547 -0.6211  1.0661
10327SOL    HW241911   3.731   8.070   0.727  1.1107  2.1676 -0.4297
10328SOL     OW41912   2.259   1.731   5.225  0.1900 -0.0136 -0.2348
10328SOL    HW141913   2.226   1.655   5.282  1.2321  1.0117  1.8021
10328SOL    HW241914   2.306   1.695   5.145 -0.0401 -1.5071  0.2864
10329SOL     OW41915   9.551   4.780   4.091 -0.0526 -0.0909 -0.2218
10329SOL    HW141916   9.521   4.744   4.003  0.2867 -0.1743 -0.3060
10329SOL    HW241917   9.563   4.879   4.084  0.7257 -0.2025 -0.4881
10330SOL     OW41918   0.555   5.876   0.359 -0.1655 -0.2861  0.0255
10330SOL    HW141919   0.591   5.826   0.438 -1.0036  2.2337  2.0615
10330SOL    HW241920   0.623   5.942   0.327 -1.0117  0.8856  0.6271
10331SOL     OW41921   2.332   4.774   5.000 -0.3643  0.1784 -0.0185
10331SOL    HW141922   2.381   4.707   5.057 -0.9944  0.6295  1.0630
10331SOL    HW241923   2.265   4.822   5.056  0.9790  2.6443 -0.4651
10332SOL     OW41924   2.375   2.144   0.117  0.2367  0.5012  0.4056
10332SOL    HW141925   2.421   2.078   0.058 -0.5805  1.0873 -0.9153
10332SOL    HW241926   2.441   2.184   0.180  1.2355  0.2707 -0.4867
10333SOL     OW41927   4.429   4.910   1.927 -0.3694 -0.6672 -0.1410
10333SOL    HW141928   4.487   4.840   1.885  0.8122 -0.7493  1.6066
10333SOL    HW241929   4.479   4.997   1.931 -0.8928 -0.3749  0.0636
10334SOL     OW41930   1.587   7.836   0.782  0.6979 -0.2206 -0.7258
10334SOL    HW141931   1.629   7.835   0.691  2.0505  3.1076 -0.1964
10334SOL    HW241932   1.604   7.924   0.825 -2.5007 -0.6821  1.5930
10335SOL     OW41933   0.990   6.470   3.834  0.1274 -0.3100  0.5142
10335SOL    HW141934   0.919   6.423   3.885 -0.6024  1.0275  0.7597
10335SOL    HW241935   1.050   6.403   3.790 -1.0805 -1.4515  0.5783
10336SOL     OW41936   8.476   1.256   0.739 -0.4139 -0.4929 -0.4137
10336SOL    HW141937   8.544   1.191   0.705 -1.0260 -0.9563 -0.7706
10336SOL    HW241938   8.488   1.268   0.838  1.8179  1.3906 -0.8676
10337SOL     OW41939   0.140   1.031   2.928  0.6751  0.2197  0.8024
10337SOL    HW141940   0.196   0.950   2.908 -0.6742 -0.6674  0.5774
10337SOL    HW241941   0.171   1.073   3.013  2.8959  0.8254 -0.2533
10338SOL     OW41942   0.968   9.612   3.625  0.2234 -0.0944  0.1256
10338SOL    HW141943   1.015   9.533   3.584  1.3896  0.8074 -0.2943
10338SOL    HW241944   0.905   9.651   3.557  0.0963 -0.2897  0.1296
10339SOL     OW41945   1.775   3.084   3.831 -0.0928  0.6451  0.0875
10339SOL    HW141946   1.768   3.172   3.878  0.2856  1.4980 -1.4122
10339SOL    HW241947   1.690   3.032   3.844  0.3135  0.5362  2.3358
10340SOL     OW41948   5.054   4.395   0.441  0.3177 -0.6927 -0.7591
10340SOL    HW141949   5.111   4.362   0.366  1.7884  0.0480  0.0007
10340SOL    HW241950   4.992   4.323   0.472  0.5978 -1.3913 -1.8411
10341SOL     OW41951   1.611   7.054   1.707 -0.6101 -0.2773 -0.0223
10341SOL    HW141952   1.605   7.034   1.609  1.0439 -0.4732 -0.1060
10341SOL    HW241953   1.702   7.030   1.740  0.2227  3.5033  0.7083
10342SOL     OW41954   3.711   4.745   5.119 -0.5921  0.1746  0.6336
10342SOL    HW141955   3.627   4.757   5.171 -0.8494 -0.1646  0.3009
10342SOL    HW241956   3.697   4.674   5.049  0.0458 -0.0650  0.7455
10343SOL     OW41957   3.238   6.217   4.234  0.2638 -0.1162  0.3154
10343SOL    HW141958   3.212   6.121   4.241 -1.2173  0.2696  0.1839
10343SOL    HW241959   3.311   6.237   4.300 -0.5702 -0.9277  1.4943
10344SOL     OW41960   4.906   0.133   3.513  0.2602  1.0288 -0.5189
10344SOL    HW141961   4.912   0.167   3.606  0.9036  0.8762 -0.5028
10344SOL    HW241962   4.895   0.034   3.514 -1.2536  1.1820 -0.5743
10345SOL     OW41963   1.884   4.871   4.115 -0.1715 -0.1702  0.0432
10345SOL    HW141964   1.809   4.832   4.169  0.3756  0.3194  1.1803
10345SOL    HW241965   1.968   4.820   4.133  0.0412  0.0810 -0.2462
10346SOL     OW41966   3.412   0.288   5.091  0.1076  0.5738  0.6524
10346SOL    HW141967   3.396   0.199   5.133  0.4525 -0.1793 -0.7568
10346SOL    HW241968   3.333   0.312   5.034  0.9699  0.0652 -0.8033
10347SOL     OW41969   9.543   8.055   1.151  0.3799  0.5661 -0.5335
10347SOL    HW141970   9.619   8.110   1.117  1.2820 -0.6319 -0.4742
10347SOL    HW241971   9.575   7.963   1.171 -1.3211 -0.2831 -1.5840
10348SOL     OW41972   1.699   3.382   3.915  0.1166  0.0825 -0.0716
10348SOL    HW141973   1.680   3.365   3.818  1.9628  0.7514 -0.5713
10348SOL    HW241974   1.677   3.477   3.937  0.8330  0.2645 -0.1327
10349SOL     OW41975   2.317   7.821   4.873  0.1049 -0.1301  0.1484
10349SOL    HW141976   2.295   7.772   4.788 -0.1014 -1.6894  1.0758
10349SOL    HW241977   2.259   7.903   4.880  0.5791  0.3694 -1.5139
10350SOL     OW41978   9.489   2.754   3.057  0.2467  0.5838 -0.2164
10350SOL    HW141979   9.566   2.790   3.109 -0.7619  2.5640 -0.0118
10350SOL    HW241980   9.411   2.740   3.118  0.0889 -0.3107 -0.6171
10351SOL     OW41981   7.540   9.162   1.876 -0.9303 -0.3567  0.0434
10351SOL    HW141982   7.601   9.188   1.801 -1.4146  2.9717  0.7339
10351SOL    HW241983   7.578   9.083   1.924  0.8002 -0.7838 -1.9710
10352SOL     OW41984   6.191   0.142   1.871  0.3037  0.0640  0.4193
10352SOL    HW141985   6.174   0.077   1.797 -1.1239  1.7729 -0.7757
10352SOL    HW241986   6.169   0.234   1.840  2.4468  1.1658  2.0421
10353SOL     OW41987   9.339   8.247   1.102 -0.4803  0.2894 -0.3232
10353SOL    HW141988   9.384   8.269   1.016 -0.0818 -2.5803 -0.9090
10353SOL    HW241989   9.403   8.200   1.163 -1.8116 -1.2635 -0.0537
10354SOL     OW41990   0.642   8.422   0.104  0.2819  0.3532  0.2920
10354SOL    HW141991   0.586   8.475   0.168  1.8230  0.9182  1.2078
10354SOL    HW241992   0.726   8.472   0.084  0.8892 -0.8897 -0.3411
10355SOL     OW41993   0.324   8.937   0.782  0.0877  0.3041  0.7671
10355SOL    HW141994   0.295   8.887   0.701 -0.9985  2.2890 -0.1154
10355SOL    HW241995   0.417   8.911   0.807  0.2831 -0.5964 -0.8996
10356SOL     OW41996   4.954   1.107   2.631  0.0951 -0.0826 -0.2556
10356SOL    HW141997   5.030   1.138   2.574 -0.6364 -0.0653 -1.2423
10356SOL    HW241998   4.951   1.007   2.631 -0.8680 -0.0820 -1.5958
10357SOL     OW41999   4.111   1.272   1.031 -0.1412 -0.1312  0.0762
10357SOL    HW142000   4.198   1.262   0.982  0.8218 -0.4884  1.8165
10357SOL    HW242001   4.059   1.186   1.025  0.4001 -0.4867  0.4942
10358SOL     OW42002   2.480   7.510   1.726 -0.6503  0.2093 -0.1655
10358SOL    HW142003   2.414   7.436   1.710 -0.0171 -0.3954  0.0192
10358SOL    HW242004   2.531   7.527   1.642  0.9643 -1.2979  0.4690
10359SOL     OW42005   2.402   9.434   1.651 -0.0849  0.2369  0.1894
10359SOL    HW142006   2.457   9.507   1.692  0.2421  0.4137 -0.5564
10359SOL    HW242007   2.434   9.417   1.558 -0.1603 -0.8592  0.3618
10360SOL     OW42008   4.657   4.951   0.672  0.4553 -0.2846  0.8063
10360SOL    HW142009   4.669   4.852   0.678  0.1936 -0.2936  1.1547
10360SOL    HW242010   4.663   4.992   0.763 -1.5060 -0.2153  0.9244
10361SOL     OW42011   3.705   9.346   4.158 -0.0289 -0.5521 -0.1988
10361SOL    HW142012   3.670   9.365   4.067  0.4803 -0.7792 -0.4406
10361SOL    HW242013   3.666   9.412   4.223 -1.8930 -1.6060 -0.2382
10362SOL     OW42014   4.074   1.296   2.054  0.0639  0.4782 -0.2705
10362SOL    HW142015   4.059   1.380   2.106 -0.1870  0.6016 -0.5375
10362SOL    HW242016   4.108   1.224   2.115 -2.2373 -0.0017  0.4617
10363SOL     OW42017   2.830   5.608   0.869 -0.2273 -0.1170  0.1289
10363SOL    HW142018   2.829   5.547   0.790  1.4097 -0.5465  0.4065
10363SOL    HW242019   2.769   5.685   0.853 -0.2213 -0.4141 -1.3905
10364SOL     OW42020   4.467   4.459   5.390 -0.0815  0.5991  0.6935
10364SOL    HW142021   4.497   4.396   5.318  0.2841  1.2555  0.2725
10364SOL    HW242022   4.401   4.412   5.449 -0.9430  0.2827 -0.4918
10365SOL     OW42023   4.840   7.752   2.736  0.5275 -0.3892  0.6575
10365SOL    HW142024   4.841   7.697   2.652 -0.8013  0.6320 -0.0462
10365SOL    HW242025   4.748   7.787   2.751  0.9191 -0.0062  2.1906
10366SOL     OW42026   8.901   5.592   5.539 -0.4122  0.2235  0.2012
10366SOL    HW142027   8.894   5.494   5.522  1.4019  0.0923  0.1131
10366SOL    HW242028   8.997   5.616   5.555 -0.6767  2.1699 -0.9562
10367SOL     OW42029   0.658   1.612   0.564 -0.6574 -0.2820  0.4287
10367SOL    HW142030   0.632   1.658   0.650 -1.3495 -1.3204  0.7842
10367SOL    HW242031   0.755   1.591   0.566 -0.1451  1.8527 -0.0665
10368SOL     OW42032   6.372   7.715   4.109  0.3101 -0.6205 -0.3294
10368SOL    HW142033   6.335   7.703   4.017 -0.4389 -0.1039 -0.1001
10368SOL    HW242034   6.297   7.736   4.173  1.0630  1.0512  0.0270
10369SOL     OW42035   5.799   1.703   2.339 -0.0697  0.0734 -0.0517
10369SOL    HW142036   5.755   1.692   2.250  0.3413  0.7522 -0.3376
10369SOL    HW242037   5.863   1.627   2.354 -1.3850 -0.9771  0.4109
10370SOL     OW42038   9.521   6.350   1.783 -0.3835 -0.0305 -0.3976
10370SOL    HW142039   9.583   6.418   1.744 -0.6278  0.5123  0.1640
10370SOL    HW242040   9.459   6.394   1.848  0.6226 -1.0792  1.3203
10371SOL     OW42041   4.456   0.197   2.201 -0.2333  0.0892 -0.2132
10371SOL    HW142042   4.368   0.243   2.218  0.7275  1.6492  0.6116
10371SOL    HW242043   4.511   0.199   2.284  1.1428  0.3513 -1.1108
10372SOL     OW42044   3.476   8.815   2.246  0.4486  0.1642 -0.2098
10372SOL    HW142045   3.544   8.775   2.307  0.2593 -2.3204 -1.5444
10372SOL    HW242046   3.392   8.833   2.297  1.3773  1.1997  0.9705
10373SOL     OW42047   2.878   8.721   2.653  0.6926 -0.3494  0.0679
10373SOL    HW142048   2.877   8.762   2.562  0.4739 -0.8159 -0.1435
10373SOL    HW242049   2.940   8.642   2.654  0.7041 -0.3385  0.3227
10374SOL     OW42050   1.029   5.593   5.221 -0.4074 -0.2660  0.0264
10374SOL    HW142051   1.065   5.534   5.293 -1.5239  0.6916  1.3858
10374SOL    HW242052   1.063   5.686   5.233 -0.1513 -0.2092 -1.0265
10375SOL     OW42053   1.438   3.269   3.605  0.8185  0.5445 -0.2488
10375SOL    HW142054   1.357   3.277   3.664  0.8800 -0.5408 -0.0055
10375SOL    HW242055   1.497   3.348   3.620 -1.2580  2.5245 -2.0984
10376SOL     OW42056   4.959   6.468   2.618  0.2811 -0.3224 -0.0992
10376SOL    HW142057   4.932   6.437   2.709 -0.2990 -1.0273 -0.5144
10376SOL    HW242058   4.899   6.543   2.590 -0.2711 -0.8616 -0.3734
10377SOL     OW42059   1.964   4.616   0.896  0.0777 -0.4298  0.0544
10377SOL    HW142060   1.881   4.633   0.842  1.4930  3.1086 -1.1736
10377SOL    HW242061   1.940   4.614   0.993 -1.4929  0.1711 -0.3006
10378SOL     OW42062   9.638   4.939   0.613  0.1712 -0.1435  0.2676
10378SOL    HW142063   9.650   4.869   0.683  0.0827 -0.4262  0.0015
10378SOL    HW242064   9.645   4.897   0.523 -1.4897 -0.1119  0.1000
10379SOL     OW42065   3.784   6.895   3.162  0.6798 -0.4073  0.5639
10379SOL    HW142066   3.792   6.910   3.064  0.9158 -0.9872  0.4884
10379SOL    HW242067   3.799   6.980   3.211  1.4537 -0.2971  0.1372
10380SOL     OW42068   8.365   3.447   4.366  0.0040  0.3362  0.0223
10380SOL    HW142069   8.267   3.432   4.377  0.0152  1.4682  2.0128
10380SOL    HW242070   8.384   3.546   4.365  1.0695  0.1336 -0.8182
10381SOL     OW42071   9.438   3.180   2.300  0.0635 -0.0975 -0.0658
10381SOL    HW142072   9.480   3.208   2.386 -1.3165  1.6604  0.0386
10381SOL    HW242073   9.346   3.218   2.292 -0.9697 -2.6370 -1.0022
10382SOL     OW42074   7.612   0.059   4.569 -0.1669  0.2770  0.6815
10382SOL    HW142075   7.582  -0.030   4.603 -1.1397 -0.1402 -1.1734
10382SOL    HW242076   7.700   0.050   4.523  0.2558  0.4826  1.4492
10383SOL     OW42077   4.334   3.818   4.422 -0.4297 -0.0349 -0.2920
10383SOL    HW142078   4.291   3.844   4.509  0.1622 -0.7372  0.2256
10383SOL    HW242079   4.337   3.718   4.416  1.3768 -0.0061 -0.1682
10384SOL     OW42080   0.104   6.904   5.457 -0.2211  0.3339  0.4208
10384SOL    HW142081   0.024   6.875   5.510  0.1877  0.0764  0.9065
10384SOL    HW242082   0.165   6.825   5.443  0.5469  0.8007  1.1215
10385SOL     OW42083   8.340   5.544   4.386 -0.5623  0.2155  0.1297
10385SOL    HW142084   8.245   5.563   4.361 -0.8173 -0.9604  0.1988
10385SOL    HW242085   8.358   5.578   4.478 -0.6079  1.4063 -0.2922
10386SOL     OW42086   3.629   7.072   2.301  0.1151 -0.4051  0.1043
10386SOL    HW142087   3.609   7.115   2.389  3.2944 -0.2281  0.7865
10386SOL    HW242088   3.606   6.975   2.306 -0.2813 -0.2712  0.9434
10387SOL     OW42089   4.037   9.589   2.360  0.5440 -0.2244  0.1487
10387SOL    HW142090   4.032   9.636   2.273 -0.2095 -0.9367 -0.2098
10387SOL    HW242091   3.956   9.611   2.415  0.7232 -0.2416  0.4236
10388SOL     OW42092   7.279   8.768   2.884  0.0374 -0.4641  0.3274
10388SOL    HW142093   7.304   8.696   2.949 -0.2431 -1.9502 -1.1726
10388SOL    HW242094   7.353   8.781   2.818  0.6961  1.6480  1.4221
10389SOL     OW42095   2.890   1.827   4.075  0.1777 -0.4575 -0.6792
10389SOL    HW142096   2.810   1.779   4.111  0.3424  0.1391  0.5032
10389SOL    HW242097   2.972   1.772   4.091  0.3149  0.0159  0.3306
10390SOL     OW42098   9.351   1.036   3.231  0.0163 -0.3215  0.2808
10390SOL    HW142099   9.341   0.939   3.250 -2.1562 -0.0862  0.3776
10390SOL    HW242100   9.357   1.051   3.132 -0.1170 -0.5132  0.2445
10391SOL     OW42101   0.373   7.758   2.190 -0.3096  0.2812 -0.2199
10391SOL    HW142102   0.450   7.793   2.137 -0.0208  0.4468  0.2963
10391SOL    HW242103   0.356   7.663   2.167 -0.3136  0.4088 -0.7490
10392SOL     OW42104   9.448   9.486   2.900  0.2895  0.7746 -0.2572
10392SOL    HW142105   9.543   9.464   2.924  0.7494  1.6628 -1.2187
10392SOL    HW242106   9.409   9.409   2.849  1.0084  1.0424 -1.2337
10393SOL     OW42107   4.795   0.234   0.696  0.0647 -0.1277 -0.0864
10393SOL    HW142108   4.789   0.135   0.681 -0.4724  0.2299 -2.3906
10393SOL    HW242109   4.724   0.262   0.760  1.0453 -1.4126  1.5957
10394SOL     OW42110   4.152   4.163   0.275 -0.1962  0.5522 -0.1498
10394SOL    HW142111   4.094   4.239   0.303 -0.2144  0.4689  0.0323
10394SOL    HW242112   4.206   4.131   0.353  0.2839  0.7992 -0.3757
10395SOL     OW42113   1.132   9.831   0.067  0.0556  0.4699  0.0034
10395SOL    HW142114   1.214   9.886   0.054  0.2484  0.2335  0.2228
10395SOL    HW242115   1.068   9.880   0.126  0.0704  0.6195 -0.1052
10396SOL     OW42116   0.461   7.165   5.584  0.2521  0.3208  0.0982
10396SOL    HW142117   0.511   7.245   5.552 -0.3715 -0.2719 -2.3980
10396SOL    HW242118   0.507   7.082   5.553  0.1231 -0.2869  1.4914
10397SOL     OW42119   6.028   0.039   1.667 -0.0240 -0.0647  0.0377
10397SOL    HW142120   5.929   0.027   1.659  0.2180 -1.5267 -0.7469
10397SOL    HW242121   6.068   0.052   1.577  0.3800  1.6021  0.4361
10398SOL     OW42122   1.020   3.174   2.875 -0.2181  0.0213 -0.2778
10398SOL    HW142123   1.058   3.083   2.891  1.4345  0.1693 -2.9873
10398SOL    HW242124   1.020   3.227   2.960  1.6874 -1.4652  0.6616
10399SOL     OW42125   3.790   5.241   5.347 -0.1066 -0.0585  0.0531
10399SOL    HW142126   3.732   5.160   5.357 -1.2450  0.7940  0.3712
10399SOL    HW242127   3.741   5.312   5.297  0.4473  0.8751  0.8025
10400SOL     OW42128   1.409   0.824   1.977 -0.2036  0.0407  0.4623
10400SOL    HW142129   1.504   0.795   1.987 -0.4611 -0.2996  2.1193
10400SOL    HW242130   1.385   0.828   1.880  1.8731  1.3839 -0.0289
10401SOL     OW42131   0.816   8.737   0.184 -0.1535  0.0443  0.2268
10401SOL    HW142132   0.751   8.740   0.107  0.6164 -1.2671 -0.4970
10401SOL    HW242133   0.884   8.667   0.166  0.8764  0.7187  1.4656
10402SOL     OW42134   8.406   5.888   4.063 -0.2427 -0.1990 -0.0505
10402SOL    HW142135   8.406   5.984   4.033 -1.8942 -0.2714 -0.2990
10402SOL    HW242136   8.417   5.828   3.983 -0.9212 -0.2723 -0.0883
10403SOL     OW42137   0.126   9.211   1.196 -0.1344  0.0208  0.1785
10403SOL    HW142138   0.168   9.238   1.109 -0.8723  0.1284 -0.1469
10403SOL    HW242139   0.027   9.201   1.184 -0.1564 -0.6153  0.8483
10404SOL     OW42140   8.930   1.197   2.826  0.1159 -0.3112  0.1604
10404SOL    HW142141   8.992   1.202   2.747  1.0469 -1.3396  0.8105
10404SOL    HW242142   8.900   1.102   2.838 -1.2136  0.0999  0.1454
10405SOL     OW42143   8.039   6.018   2.277 -0.2748 -0.8462  0.2876
10405SOL    HW142144   8.027   5.919   2.273  0.4298 -0.9113 -0.2254
10405SOL    HW242145   8.110   6.040   2.344  0.9950 -0.8105 -1.0468
10406SOL     OW42146   8.592   5.394   0.785  0.6016 -0.3017 -0.1232
10406SOL    HW142147   8.655   5.372   0.711 -0.7519 -1.8007 -0.8484
10406SOL    HW242148   8.583   5.493   0.793  1.8621 -0.1142 -1.0109
10407SOL     OW42149   2.650   5.314   5.484  0.3164  0.5344  0.1988
10407SOL    HW142150   2.732   5.258   5.479 -0.4235 -0.5722  0.1747
10407SOL    HW242151   2.569   5.254   5.484 -0.4487  1.5513  1.5393
10408SOL     OW42152   0.863   8.489   4.211  0.5885 -0.3377  0.0961
10408SOL    HW142153   0.930   8.547   4.258  1.4401 -1.1458 -0.1323
10408SOL    HW242154   0.798   8.453   4.278  0.0795  0.8349  0.2512
10409SOL     OW42155   7.909   9.580   2.134  0.1305 -0.2339  0.8140
10409SOL    HW142156   7.846   9.656   2.148 -0.5300 -0.2434 -1.9600
10409SOL    HW242157   7.862   9.506   2.086  1.6923 -1.0556  0.5335
10410SOL     OW42158   3.488   7.818   4.095 -0.5157 -0.1413  0.1380
10410SOL    HW142159   3.538   7.748   4.044 -1.3235  0.1336 -1.0470
10410SOL    HW242160   3.440   7.878   4.031 -1.6796  0.1127  1.2395
10411SOL     OW42161   7.141   0.866   0.980 -0.4735  0.2752 -0.0768
10411SOL    HW142162   7.111   0.955   0.946  0.1040  0.4295 -0.1997
10411SOL    HW242163   7.097   0.846   1.067 -1.0865  0.3984 -0.3600
10412SOL     OW42164   8.683   9.733   1.228  0.5684  0.8283 -0.3185
10412SOL    HW142165   8.661   9.742   1.131 -0.1148 -1.3659 -0.4038
10412SOL    HW242166   8.764   9.676   1.239  0.2860  0.5449  0.4006
10413SOL     OW42167   2.700   9.194   1.627  0.4282 -0.6480  0.6386
10413SOL    HW142168   2.724   9.281   1.584  0.8149 -1.8179 -1.5475
10413SOL    HW242169   2.609   9.202   1.669  0.2361  0.6404  0.0064
10414SOL     OW42170   9.692   4.145   3.468 -0.7479 -0.1049  0.7799
10414SOL    HW142171   9.726   4.139   3.562 -0.8770  0.4048  0.8616
10414SOL    HW242172   9.655   4.056   3.440  2.1301 -1.1334  0.1058
10415SOL     OW42173   5.097   7.634   2.372  0.5346 -0.2675 -0.1182
10415SOL    HW142174   5.164   7.608   2.442 -0.0239 -0.0860  0.4811
10415SOL    HW242175   5.122   7.590   2.285  0.7970 -1.1022  0.3756
10416SOL     OW42176   4.807   0.728   5.014 -0.6974 -0.2315  0.1576
10416SOL    HW142177   4.791   0.637   5.054 -0.3672 -0.4876 -0.2917
10416SOL    HW242178   4.905   0.746   5.012 -0.8194  0.5775  1.2152
10417SOL     OW42179   1.226   4.040   1.542 -0.2594  0.0316  0.1288
10417SOL    HW142180   1.155   4.077   1.602 -0.7060  0.1337 -0.4572
10417SOL    HW242181   1.189   3.963   1.490  0.0154  0.1637 -0.2684
10418SOL     OW42182   7.224   9.307   3.311 -0.1942  0.5877 -0.8985
10418SOL    HW142183   7.191   9.281   3.402  1.2209  3.7989  0.6113
10418SOL    HW242184   7.146   9.335   3.254 -0.8962  0.5021  0.0124
10419SOL     OW42185   0.955   2.547   5.141 -0.2069 -0.2680  0.4072
10419SOL    HW142186   1.028   2.493   5.100  0.2332 -0.1734  1.0639
10419SOL    HW242187   0.930   2.508   5.229 -0.3927  0.1736  0.5514
10420SOL     OW42188   0.583   1.351   5.511 -0.3810  0.1616  0.3757
10420SOL    HW142189   0.577   1.423   5.580  0.0319 -0.3023  0.9018
10420SOL    HW242190   0.495   1.304   5.503 -1.1632  1.8378 -1.1958
10421SOL     OW42191   2.959   7.219   0.583  0.1457 -0.3115 -0.2846
10421SOL    HW142192   2.879   7.266   0.545  0.7087  2.0008  1.3200
10421SOL    HW242193   2.960   7.229   0.682  1.9181 -1.1617 -0.1917
10422SOL     OW42194   9.383   0.496   3.178  0.3153 -0.2672  0.5493
10422SOL    HW142195   9.329   0.468   3.099 -1.1967  1.8262  0.8119
10422SOL    HW242196   9.478   0.511   3.150 -0.3531  1.1127 -1.0077
10423SOL     OW42197   1.748   5.498   4.873 -0.1000  0.4761 -0.1639
10423SOL    HW142198   1.728   5.567   4.803  0.6734  0.8111 -0.0567
10423SOL    HW242199   1.670   5.491   4.935 -1.6238 -1.2630 -2.2132
10424SOL     OW42200   8.752   5.041   5.196 -0.6396 -0.5322  0.3886
10424SOL    HW142201   8.662   5.083   5.205 -0.3091 -0.0763  1.6516
10424SOL    HW242202   8.756   4.958   5.252 -0.5765 -1.0826 -0.4107
10425SOL     OW42203   3.446   1.689   0.709 -0.2611  0.0537  0.1207
10425SOL    HW142204   3.432   1.785   0.733 -1.8258 -0.1647  0.1385
10425SOL    HW242205   3.454   1.680   0.610 -0.9743  0.1137  0.0529
10426SOL     OW42206   8.722   4.394   5.288 -0.5119  0.1776 -0.4570
10426SOL    HW142207   8.789   4.359   5.354  0.0981  1.9837 -0.0872
10426SOL    HW242208   8.638   4.340   5.295  0.3341 -1.0866  0.2138
10427SOL     OW42209   4.373   4.868   4.663 -0.1865 -0.7537 -0.0689
10427SOL    HW142210   4.378   4.835   4.758  0.1433  2.0265  0.9267
10427SOL    HW242211   4.455   4.920   4.642 -1.1908  0.4097 -1.1876
10428SOL     OW42212   4.585   5.490   1.807 -0.5567  0.6251  0.2842
10428SOL    HW142213   4.619   5.518   1.897  1.3080  0.3878 -0.3208
10428SOL    HW242214   4.490   5.460   1.815 -0.6733  1.4051  2.0203
10429SOL     OW42215   2.463   1.380   4.398  0.3655  0.6156 -0.8177
10429SOL    HW142216   2.427   1.451   4.337  0.2490  0.6382 -0.7239
10429SOL    HW242217   2.389   1.318   4.424  0.0422  1.5843  0.6464
10430SOL     OW42218   6.317   9.569   1.610 -0.4011  0.1623 -0.2380
10430SOL    HW142219   6.397   9.621   1.582  0.5062 -1.1807 -0.1828
10430SOL    HW242220   6.273   9.529   1.530  0.1027 -0.6806 -0.1036
10431SOL     OW42221   1.128   2.981   4.309  0.4179 -0.2950 -0.6479
10431SOL    HW142222   1.097   3.042   4.235 -1.4188  0.2766  0.5489
10431SOL    HW242223   1.049   2.929   4.343  0.6563  1.5022  2.7976
10432SOL     OW42224   3.346   8.144   5.025 -0.0197 -0.5403  0.1551
10432SOL    HW142225   3.413   8.171   4.955 -1.0877  0.8006 -0.3552
10432SOL    HW242226   3.391   8.083   5.091  2.2793  1.8593  0.9290
10433SOL     OW42227   4.302   1.971   1.802 -0.1105  0.2281  0.1189
10433SOL    HW142228   4.240   1.917   1.858  0.7155 -0.8541  0.0191
10433SOL    HW242229   4.359   2.028   1.861 -0.4696  0.4188  0.2784
10434SOL     OW42230   7.261   8.498   1.705  0.5459 -0.5030  0.1928
10434SOL    HW142231   7.212   8.551   1.773 -2.5562 -0.0743 -2.2524
10434SOL    HW242232   7.302   8.559   1.637  2.1113 -0.9891  0.6760
10435SOL     OW42233   1.858   2.576   5.510 -0.6830  0.2937 -0.3165
10435SOL    HW142234   1.842   2.532   5.599 -1.0500 -1.1801 -1.0932
10435SOL    HW242235   1.843   2.509   5.437 -0.6100  1.5581 -1.5029
10436SOL     OW42236   2.609   8.045   5.217  0.1365  0.0952  0.3301
10436SOL    HW142237   2.553   8.127   5.209  1.6708  1.0269 -1.3016
10436SOL    HW242238   2.553   7.964   5.202 -0.9475  0.9591 -0.3275
10437SOL     OW42239   2.124   5.434   3.997 -0.4154 -0.1341  0.3144
10437SOL    HW142240   2.169   5.518   3.965 -0.3081 -0.3921 -0.2166
10437SOL    HW242241   2.173   5.354   3.962 -0.9707 -0.4188  0.1791
10438SOL     OW42242   4.534   5.118   2.186  0.0727  0.9086 -0.5014
10438SOL    HW142243   4.474   5.169   2.248  0.2906 -1.8832  2.0797
10438SOL    HW242244   4.625   5.110   2.226  0.3802 -0.4811 -1.4496
10439SOL     OW42245   3.116   7.788   0.356  0.1108 -0.3208 -0.3617
10439SOL    HW142246   3.155   7.812   0.445 -0.7669 -2.5575  0.6764
10439SOL    HW242247   3.167   7.833   0.284  3.4980 -1.7210  1.0358
10440SOL     OW42248   4.212   4.460   3.158 -0.6250 -0.1898  0.2156
10440SOL    HW142249   4.298   4.489   3.115 -1.1623  1.0681 -0.0355
10440SOL    HW242250   4.223   4.368   3.194  1.6812  0.9101  2.5116
10441SOL     OW42251   1.216   4.343   1.703 -0.2341  0.1475  0.5591
10441SOL    HW142252   1.203   4.417   1.637  0.8645  0.4077  0.6255
10441SOL    HW242253   1.138   4.280   1.698 -1.2518  1.3840  0.6131
10442SOL     OW42254   4.224   2.270   5.633 -0.5047  0.0594  0.6221
10442SOL    HW142255   4.198   2.229   5.546  2.4749  2.8654 -1.7355
10442SOL    HW242256   4.151   2.330   5.666 -1.1354 -0.0403 -0.5987
10443SOL     OW42257   9.016   0.222   4.054 -0.3644 -0.3949 -0.2974
10443SOL    HW142258   9.043   0.235   3.959 -1.8761  0.0859 -0.6742
10443SOL    HW242259   8.974   0.306   4.089 -1.0751 -1.0122  0.3652
10444SOL     OW42260   3.056   0.525   4.851  0.5282 -0.1837 -0.2028
10444SOL    HW142261   2.986   0.590   4.880 -3.0508 -3.3486 -1.3397
10444SOL    HW242262   3.089   0.474   4.930 -1.0515 -1.1274 -0.1465
10445SOL     OW42263   2.756   4.732   2.461 -0.1967 -0.5639  0.5359
10445SOL    HW142264   2.800   4.646   2.490 -1.6480 -1.2012  0.8957
10445SOL    HW242265   2.659   4.727   2.480 -0.3872  0.9511 -0.0036
10446SOL     OW42266   4.541   9.675   2.012 -0.0944  0.2411  0.3170
10446SOL    HW142267   4.584   9.625   2.088  1.5817  2.6599  1.0317
10446SOL    HW242268   4.573   9.770   2.013 -1.5903  0.8065 -2.2536
10447SOL     OW42269   6.029   0.662   0.989  0.1545  0.6115 -0.1913
10447SOL    HW142270   6.011   0.594   0.918  0.3217 -1.1724  1.4305
10447SOL    HW242271   6.128   0.669   1.005  0.1075  0.8672 -0.0115
10448SOL     OW42272   3.219   7.476   1.724  0.2767  0.1603  0.1027
10448SOL    HW142273   3.170   7.530   1.657  0.1924 -2.3505 -1.9301
10448SOL    HW242274   3.163   7.399   1.753  2.4417 -2.0367 -1.3197
10449SOL     OW42275   0.586   6.641   5.078 -0.3780 -0.2256  0.0272
10449SOL    HW142276   0.662   6.583   5.048  0.0577  0.6370 -0.5649
10449SOL    HW242277   0.569   6.626   5.175  0.4629 -0.5304  0.1356
10450SOL     OW42278   7.822   1.161   3.151  0.4678  0.1310 -0.0088
10450SOL    HW142279   7.786   1.164   3.244  0.9239 -2.8660  0.3186
10450SOL    HW242280   7.922   1.152   3.154  0.6599  1.7656 -0.8300
10451SOL     OW42281   5.729   8.861   2.461 -0.3519  0.0791  0.3658
10451SOL    HW142282   5.755   8.891   2.369  2.3401  0.7576  1.2854
10451SOL    HW242283   5.786   8.909   2.528 -1.6099 -1.1256  2.3355
10452SOL     OW42284   9.794   8.862   2.302 -0.3589 -0.1234  0.1737
10452SOL    HW142285   9.697   8.866   2.276 -0.1507 -1.2521 -0.8115
10452SOL    HW242286   9.813   8.932   2.371 -2.4806 -1.5102  2.2831
10453SOL     OW42287   4.870   9.894   2.306  0.2003 -0.7705 -0.2175
10453SOL    HW142288   4.897   9.799   2.297 -0.3393 -0.9550  0.0730
10453SOL    HW242289   4.926   9.939   2.376 -1.0759 -1.4916  1.3099
10454SOL     OW42290   8.865   9.786   3.346 -0.1450  0.3236  0.5028
10454SOL    HW142291   8.931   9.818   3.278 -1.6317  1.5968 -0.3629
10454SOL    HW242292   8.885   9.828   3.434  0.0320  0.9359  0.1742
10455SOL     OW42293   8.518   6.589   3.748  0.5739 -0.0759  0.6664
10455SOL    HW142294   8.423   6.616   3.762  0.2239 -0.6948 -0.4826
10455SOL    HW242295   8.546   6.526   3.820  0.2258  0.3914  1.2097
10456SOL     OW42296   2.264   9.913   1.874  0.5626  0.0027  0.0590
10456SOL    HW142297   2.300   9.985   1.933 -0.5334  0.6119 -0.0114
10456SOL    HW242298   2.221   9.843   1.930  2.5050 -1.1227  0.2010
10457SOL     OW42299   2.443   3.834   0.264 -0.5084  0.2812 -0.6641
10457SOL    HW142300   2.507   3.757   0.274  0.1535  0.8907 -0.1617
10457SOL    HW242301   2.415   3.841   0.168  0.1889  0.0141 -0.8924
10458SOL     OW42302   7.833   9.534   4.240 -0.4558 -1.1018  0.4948
10458SOL    HW142303   7.839   9.532   4.340 -0.6173 -1.5441  0.4940
10458SOL    HW242304   7.754   9.588   4.212 -0.3239 -0.8518  0.6034
10459SOL     OW42305   7.876   1.846   5.285 -0.3378 -0.1543 -0.2644
10459SOL    HW142306   7.951   1.850   5.351  0.1074 -0.8544 -0.7163
10459SOL    HW242307   7.839   1.753   5.282 -1.5915  0.3118  0.3547
10460SOL     OW42308   0.733   9.145   0.531 -0.4700  0.3214  0.5143
10460SOL    HW142309   0.826   9.115   0.550 -0.3840  0.1219 -0.2010
10460SOL    HW242310   0.680   9.069   0.495 -0.5378  0.7596 -0.3337
10461SOL     OW42311   7.719   8.726   2.031  0.4754 -0.3350  0.1261
10461SOL    HW142312   7.774   8.686   2.105  0.2574  0.5252  0.7651
10461SOL    HW242313   7.626   8.742   2.063  0.7175  1.2435  0.0922
10462SOL     OW42314   0.979   0.278   1.713 -0.1570 -0.2934  0.1649
10462SOL    HW142315   0.949   0.356   1.768 -0.7987  1.8268 -3.0551
10462SOL    HW242316   0.899   0.224   1.685  0.0884 -0.8991  0.6223
10463SOL     OW42317   7.488   0.482   0.359  0.7592 -0.1632  0.4848
10463SOL    HW142318   7.459   0.404   0.415  2.2723 -0.1810  1.2625
10463SOL    HW242319   7.467   0.463   0.263  1.5522 -1.7616  0.6002
10464SOL     OW42320   2.460   3.526   2.956 -0.5260 -0.1630  0.3530
10464SOL    HW142321   2.410   3.441   2.936  0.6309 -1.0770  1.3134
10464SOL    HW242322   2.487   3.528   3.052 -1.4053  1.7701  0.5948
10465SOL     OW42323   8.878   6.894   0.057 -0.1073  0.5656  0.6516
10465SOL    HW142324   8.931   6.829   0.002  0.3180  0.8350  0.7346
10465SOL    HW242325   8.791   6.913   0.012 -0.1312  0.1195  0.5095
10466SOL     OW42326   3.751   9.030   0.959  0.3076  0.0018 -0.1488
10466SOL    HW142327   3.788   9.086   1.033 -0.0763 -0.1257  0.1416
10466SOL    HW242328   3.760   8.933   0.983 -0.3762 -0.0266  0.0042
10467SOL     OW42329   9.593   3.853   5.307 -0.0162  0.0985  0.8235
10467SOL    HW142330   9.659   3.922   5.281  0.5128 -0.9287 -0.6243
10467SOL    HW242331   9.613   3.767   5.259 -2.9187  0.0201 -0.3738
10468SOL     OW42332   9.167   0.628   2.758 -0.4901  0.6484 -0.0370
10468SOL    HW142333   9.189   0.541   2.803  0.3074  0.7335 -0.2545
10468SOL    HW242334   9.185   0.703   2.822  0.4694  0.7576 -0.4245
10469SOL     OW42335   9.219   8.126   5.012  0.7564 -0.6397 -0.1414
10469SOL    HW142336   9.189   8.138   5.107 -0.4180 -2.5394 -0.2574
10469SOL    HW242337   9.214   8.214   4.965  1.1291  0.2826  1.4848
10470SOL     OW42338   3.336   9.930   0.473 -0.3067 -0.0787 -0.0814
10470SOL    HW142339   3.245   9.964   0.495 -0.6024 -0.5880 -0.5130
10470SOL    HW242340   3.350   9.934   0.374  0.9074  1.9408  0.1270
10471SOL     OW42341   1.209   8.096   4.056 -0.1553 -0.5326  0.3894
10471SOL    HW142342   1.122   8.133   4.087 -0.1686 -0.4723  0.2806
10471SOL    HW242343   1.213   8.100   3.956 -0.1392 -0.7820  0.3796
10472SOL     OW42344   0.266   4.253   5.261  0.0202  0.0498  0.5898
10472SOL    HW142345   0.226   4.318   5.326  1.5035  1.4220  0.1585
10472SOL    HW242346   0.357   4.227   5.293  0.5183  0.2856 -0.6330
10473SOL     OW42347   4.106   3.630   3.928  0.0761 -0.6956  0.1532
10473SOL    HW142348   4.072   3.684   4.005 -1.2958  0.1930 -1.0585
10473SOL    HW242349   4.186   3.675   3.888  1.4159 -1.6834  1.6646
10474SOL     OW42350   8.266   2.272   0.337 -0.4265  0.4563 -0.3076
10474SOL    HW142351   8.268   2.327   0.254 -2.7350  0.1906 -0.5703
10474SOL    HW242352   8.346   2.211   0.340  0.4492  1.5427 -1.5705
10475SOL     OW42353   2.080   9.934   0.828 -0.7223  0.6369  0.8604
10475SOL    HW142354   2.175   9.904   0.820 -1.3430 -1.1907 -0.0917
10475SOL    HW242355   2.061  10.006   0.762 -0.2168  0.4248  0.4852
10476SOL     OW42356   9.838   8.557   2.751  0.1298  0.5043 -0.1293
10476SOL    HW142357   9.798   8.529   2.838 -0.3145 -0.2293 -0.5643
10476SOL    HW242358   9.837   8.480   2.687  2.0392  0.5372 -0.2249
10477SOL     OW42359   1.029   0.377   3.485  0.7471  0.1280  0.0021
10477SOL    HW142360   1.043   0.416   3.576 -1.0393 -0.6772  0.6340
10477SOL    HW242361   0.934   0.348   3.475  0.1774  2.7256 -3.0855
10478SOL     OW42362   9.857   4.710   1.233 -0.2533 -0.6485  0.2519
10478SOL    HW142363   9.937   4.754   1.192 -0.1663 -0.3167  0.7654
10478SOL    HW242364   9.850   4.616   1.200  0.8951 -0.9847  0.9114
10479SOL     OW42365   9.038   9.451   0.249  0.7939  1.1177 -0.2735
10479SOL    HW142366   8.946   9.428   0.218  0.9373  1.5250 -1.0113
10479SOL    HW242367   9.105   9.417   0.184  1.1764  0.7407  0.3069
10480SOL     OW42368   0.526   0.738   3.468  0.3016 -0.1234 -0.3193
10480SOL    HW142369   0.471   0.801   3.523 -1.4026 -0.9512 -1.0734
10480SOL    HW242370   0.559   0.786   3.386 -1.0992 -0.2536 -0.9576
10481SOL     OW42371   0.180   2.047   1.378 -0.4797 -0.3309 -0.3464
10481SOL    HW142372   0.232   1.992   1.312 -1.3792  2.9285 -3.9977
10481SOL    HW242373   0.085   2.015   1.380 -0.4355 -0.4873 -0.6329
10482SOL     OW42374   0.137   7.709   3.506  0.0922  0.0193 -0.1961
10482SOL    HW142375   0.163   7.739   3.414  0.3721  0.0411 -0.1095
10482SOL    HW242376   0.115   7.612   3.505 -0.4606  0.1468 -0.4046
10483SOL     OW42377   7.392   1.282   0.071  0.0274  0.2116  0.2069
10483SOL    HW142378   7.486   1.255   0.049 -0.2445 -1.6638  1.2221
10483SOL    HW242379   7.329   1.232   0.011 -0.4437 -0.6576  1.4140
10484SOL     OW42380   9.432   2.902   2.506  0.1269 -0.3837  0.0842
10484SOL    HW142381   9.462   2.939   2.418  0.9712 -0.3103  0.3949
10484SOL    HW242382   9.349   2.848   2.493  0.2853 -0.4302 -0.7727
10485SOL     OW42383   1.972   4.320   2.565 -0.1345  0.9783 -0.5820
10485SOL    HW142384   1.949   4.399   2.507  1.8598  0.7370 -1.7381
10485SOL    HW242385   2.048   4.343   2.625  0.4332 -0.0303 -0.8965
10486SOL     OW42386   0.169   7.178   5.547 -0.1773  0.1309 -0.2771
10486SOL    HW142387   0.151   7.082   5.524 -0.9334 -0.1239  1.3036
10486SOL    HW242388   0.263   7.201   5.524  0.4415 -1.4142  0.6901
10487SOL     OW42389   5.622   7.754   3.844  0.4824 -0.7296 -0.0927
10487SOL    HW142390   5.625   7.763   3.744  1.4102 -2.1128 -0.2109
10487SOL    HW242391   5.636   7.843   3.886 -1.2390  0.0964 -1.1988
10488SOL     OW42392   4.380   7.769   4.200  0.5568  0.2574  0.0435
10488SOL    HW142393   4.320   7.848   4.185 -1.9769 -1.6523 -0.0787
10488SOL    HW242394   4.443   7.761   4.122 -0.6049  0.8908 -0.9840
10489SOL     OW42395   3.324   1.252   3.508  0.2760  0.4982  0.0771
10489SOL    HW142396   3.343   1.154   3.513  0.4808  0.5431  0.2075
10489SOL    HW242397   3.340   1.284   3.414  1.9887  0.7570  0.4361
10490SOL     OW42398   5.107   1.201   5.071 -0.1862  0.1941 -0.4859
10490SOL    HW142399   5.152   1.263   5.007 -2.5781 -0.7601 -3.1425
10490SOL    HW242400   5.030   1.248   5.114  1.7021  1.0032  2.2115
10491SOL     OW42401   8.138   3.005   2.172 -0.4240  0.1827 -0.0983
10491SOL    HW142402   8.038   3.009   2.167 -0.5231 -0.5644  0.9556
10491SOL    HW242403   8.169   3.055   2.253  0.0969  0.8704 -0.7206
10492SOL     OW42404   4.487   1.398   0.216 -0.0064  0.0608  0.3877
10492SOL    HW142405   4.475   1.493   0.189 -0.7856 -0.0882  0.1872
10492SOL    HW242406   4.577   1.366   0.187 -0.2093  0.3866 -0.6255
10493SOL     OW42407   1.247   7.876   4.944 -0.5472  0.0173  0.2068
10493SOL    HW142408   1.152   7.853   4.925 -0.2017 -0.6394 -0.7476
10493SOL    HW242409   1.296   7.793   4.972 -0.1811  0.2940  0.3834
10494SOL     OW42410   0.395   5.877   1.715  0.5760 -0.0570  0.0353
10494SOL    HW142411   0.433   5.790   1.748  0.0737 -0.1924  0.2626
10494SOL    HW242412   0.300   5.863   1.687  0.9111  0.1259 -1.1920
10495SOL     OW42413   4.132   2.355   3.189 -0.1811 -0.0711  0.2970
10495SOL    HW142414   4.082   2.435   3.223 -2.3471 -0.3809 -2.0429
10495SOL    HW242415   4.139   2.287   3.262 -1.9585  0.5568  1.0764
10496SOL     OW42416   9.638   0.160   5.325  0.3426  0.3880 -0.2419
10496SOL    HW142417   9.584   0.223   5.380  1.5911  0.8654  0.4658
10496SOL    HW242418   9.601   0.155   5.232 -2.2589 -1.0014  0.8228
10497SOL     OW42419   3.000   4.504   2.885  0.1743 -0.1215 -0.6657
10497SOL    HW142420   2.925   4.552   2.840  0.1130 -1.0763 -1.6114
10497SOL    HW242421   3.084   4.557   2.878 -0.0714  0.2261 -0.9711
10498SOL     OW42422   9.331   4.543   1.348  0.6130 -0.0924  0.8370
10498SOL    HW142423   9.341   4.627   1.295 -0.6173 -0.6688 -0.3278
10498SOL    HW242424   9.378   4.553   1.436  0.5653  1.7642  0.6581
10499SOL     OW42425   8.529   8.951   3.941 -0.2142  0.5800  0.0644
10499SOL    HW142426   8.523   9.046   3.972 -0.9217  0.1521  1.2964
10499SOL    HW242427   8.599   8.904   3.995 -1.6668 -0.2539  1.2464
10500SOL     OW42428   7.933   0.297   3.485 -0.1316 -0.3030  0.5357
10500SOL    HW142429   7.835   0.318   3.483 -0.0737  0.1262  1.7803
10500SOL    HW242430   7.952   0.235   3.561  0.8798  1.3149  1.6447
10501SOL     OW42431   0.807   2.308   1.834 -0.6709  0.3786 -0.0450
10501SOL    HW142432   0.729   2.292   1.773  0.6733 -2.3501 -1.1073
10501SOL    HW242433   0.777   2.298   1.929 -1.5221 -1.0979 -0.4576
10502SOL     OW42434   3.388   7.352   1.070  0.1851 -0.5698  0.4395
10502SOL    HW142435   3.448   7.393   1.002  2.1303 -1.1340  1.7738
10502SOL    HW242436   3.293   7.358   1.039  0.9717 -0.2293 -1.9966
10503SOL     OW42437   0.838   1.135   4.947  0.6811  0.1818  0.4131
10503SOL    HW142438   0.871   1.217   4.900 -0.8001  2.0628  2.5825
10503SOL    HW242439   0.785   1.079   4.882  0.5584  1.6141 -0.7549
10504SOL     OW42440   3.924   0.100   0.148 -0.6701 -0.0057  0.5660
10504SOL    HW142441   3.828   0.075   0.146 -1.0049  1.3156 -1.0398
10504SOL    HW242442   3.933   0.200   0.140  0.8276 -0.1515  0.1659
10505SOL     OW42443   4.707   8.342   3.830  0.2191 -0.5795  0.5121
10505SOL    HW142444   4.690   8.365   3.925 -1.7685  0.6783 -0.1113
10505SOL    HW242445   4.658   8.258   3.806  0.1361 -0.5046  0.4161
10506SOL     OW42446   3.092   5.076   1.774  0.4966 -0.1212  0.0779
10506SOL    HW142447   3.122   4.991   1.817 -0.3850 -1.1893 -1.3432
10506SOL    HW242448   3.027   5.123   1.835  2.5539  0.6084  1.7614
10507SOL     OW42449   2.015   0.601   1.559 -0.2510 -0.3480  0.0569
10507SOL    HW142450   2.101   0.560   1.590  0.5986 -0.0727 -1.8647
10507SOL    HW242451   1.980   0.549   1.481 -0.1784  1.3932 -1.1625
10508SOL     OW42452   6.676   1.283   4.446 -0.3867  0.0001  0.0951
10508SOL    HW142453   6.762   1.233   4.451  0.9036  2.0398 -1.0800
10508SOL    HW242454   6.619   1.261   4.525  1.1892 -1.4053  0.8471
10509SOL     OW42455   0.020   6.788   2.278 -0.3531 -0.7037  0.3315
10509SOL    HW142456   0.014   6.725   2.356 -1.4724 -0.7484  0.2171
10509SOL    HW242457   0.086   6.753   2.211  0.7238 -0.5978  1.3141
10510SOL     OW42458   2.172   0.629   3.872  0.1132 -0.1004  1.0350
10510SOL    HW142459   2.129   0.617   3.961  0.6729 -0.0286  1.3209
10510SOL    HW242460   2.215   0.542   3.845 -0.1859 -0.1635  0.7685
10511SOL     OW42461   0.316   0.971   2.431 -0.5644  0.0574  0.1200
10511SOL    HW142462   0.371   1.026   2.495 -1.2730 -0.8328  1.5137
10511SOL    HW242463   0.280   0.892   2.479 -0.0672 -1.3106 -1.7299
10512SOL     OW42464   1.943   4.685   0.356  0.0979 -0.5622 -0.7808
10512SOL    HW142465   1.890   4.760   0.394  0.8126 -1.1491  1.4339
10512SOL    HW242466   1.936   4.686   0.256 -2.1563  0.7458 -0.6312
10513SOL     OW42467   2.991   7.336   3.425  0.3476 -0.0524 -0.9979
10513SOL    HW142468   3.021   7.405   3.359  1.9301 -0.2551 -0.5002
10513SOL    HW242469   2.944   7.381   3.501  3.9274  0.8225  0.7964
10514SOL     OW42470   9.566   6.309   0.410  0.1848  0.3362 -0.3502
10514SOL    HW142471   9.515   6.238   0.458  1.2091  0.1973  0.5715
10514SOL    HW242472   9.559   6.295   0.312 -0.5072 -0.4052 -0.1988
10515SOL     OW42473   3.754   9.547   5.380 -0.2323  0.0537 -0.1268
10515SOL    HW142474   3.736   9.460   5.427  1.9240 -0.7407 -0.6680
10515SOL    HW242475   3.720   9.542   5.286 -0.9933  0.1704  0.1391
10516SOL     OW42476   4.127   9.940   2.527 -0.5744  0.8851  0.5619
10516SOL    HW142477   4.131   9.945   2.427 -0.5120  1.3603  0.5853
10516SOL    HW242478   4.187   9.867   2.559  0.8421  1.9401  0.3601
10517SOL     OW42479   6.753   0.787   2.980 -0.1083 -0.3921  0.1237
10517SOL    HW142480   6.677   0.772   2.917 -0.0010  0.8282 -0.3132
10517SOL    HW242481   6.750   0.882   3.013  1.2106 -0.3390  0.1004
10518SOL     OW42482   8.181   9.187   0.870  0.1038 -0.1086  0.2775
10518SOL    HW142483   8.261   9.142   0.910  1.1140  0.2421 -1.2745
10518SOL    HW242484   8.100   9.130   0.883  0.6557 -0.5844  1.6607
10519SOL     OW42485   2.567   1.368   3.948 -0.0379 -0.7033  0.3273
10519SOL    HW142486   2.482   1.418   3.967  1.3613  1.6535  0.6202
10519SOL    HW242487   2.603   1.398   3.860 -0.3906 -2.9814 -0.6214
10520SOL     OW42488   8.653   6.813   2.943 -0.4638 -0.3323 -0.8480
10520SOL    HW142489   8.704   6.873   3.005  0.5664 -1.3624 -0.6868
10520SOL    HW242490   8.643   6.723   2.985 -0.4977 -0.7816 -1.8157
10521SOL     OW42491   3.344   4.979   1.005  0.0894 -0.3866  0.6993
10521SOL    HW142492   3.368   4.905   1.069  0.5727  2.2131  3.6175
10521SOL    HW242493   3.421   4.995   0.944  0.1957 -1.9037  0.4041
10522SOL     OW42494   1.075   2.046   0.264  0.0822 -0.4956 -0.1679
10522SOL    HW142495   1.008   1.998   0.320  2.6977 -1.1581  2.5395
10522SOL    HW242496   1.030   2.118   0.212 -2.3685  0.7525  3.5148
10523SOL     OW42497   7.708   3.402   0.222  0.3157  0.2634 -0.5067
10523SOL    HW142498   7.768   3.470   0.264  0.3363  1.3618 -2.3158
10523SOL    HW242499   7.762   3.340   0.166  0.0245 -0.0211 -0.4755
10524SOL     OW42500   8.394   7.114   2.111  0.0433  0.4399 -0.7502
10524SOL    HW142501   8.301   7.114   2.149  0.6009  0.6458  0.6265
10524SOL    HW242502   8.434   7.023   2.119 -0.1141  0.2842 -1.5844
10525SOL     OW42503   3.665   9.319   2.753 -0.3313 -0.3796  0.2391
10525SOL    HW142504   3.680   9.413   2.783 -0.4108 -0.4963  0.6609
10525SOL    HW242505   3.569   9.308   2.728 -0.4765 -0.5187  0.8415
10526SOL     OW42506   4.482   3.639   3.326 -0.0889 -0.0070  0.0015
10526SOL    HW142507   4.577   3.652   3.299  0.0970  0.2508  0.7682
10526SOL    HW242508   4.425   3.633   3.244  0.3454  1.6991 -0.4423
10527SOL     OW42509   9.047   7.206   3.220  0.5193 -0.6669  0.2347
10527SOL    HW142510   9.027   7.128   3.161 -2.6617  0.0269  0.3456
10527SOL    HW242511   9.066   7.173   3.313 -0.5839 -1.3201  0.2336
10528SOL     OW42512   2.943   2.253   3.025 -0.0204 -0.0392 -0.2180
10528SOL    HW142513   3.040   2.255   3.050 -0.1819 -2.1327  0.7144
10528SOL    HW242514   2.907   2.160   3.038 -2.4202  0.9471  0.5041
10529SOL     OW42515   9.753   6.618   3.001 -0.3976 -0.2100 -1.0509
10529SOL    HW142516   9.685   6.569   3.055  0.4819  0.1941  0.4390
10529SOL    HW242517   9.838   6.565   2.998  0.6398  1.3058  0.7757
10530SOL     OW42518   3.928   2.483   3.625  0.2287  0.8244 -0.2391
10530SOL    HW142519   3.895   2.574   3.602 -0.3721  1.1754  1.9056
10530SOL    HW242520   3.880   2.449   3.706  2.0564 -0.4451  0.3631
10531SOL     OW42521   7.546   5.538   5.441  0.6523 -0.3649 -0.5325
10531SOL    HW142522   7.464   5.593   5.458  0.6488 -0.0217 -1.6067
10531SOL    HW242523   7.625   5.581   5.486  0.5277  0.1711 -0.8142
10532SOL     OW42524   2.165   0.143   1.113 -0.4146 -0.1411 -0.3928
10532SOL    HW142525   2.117   0.181   1.034  0.2628 -0.5748 -1.0190
10532SOL    HW242526   2.258   0.119   1.087  0.0775  0.4701  0.7454
10533SOL     OW42527   8.387   6.143   3.931 -0.1332 -0.6579  0.4303
10533SOL    HW142528   8.411   6.161   3.836  0.0813 -0.3868  0.5361
10533SOL    HW242529   8.408   6.223   3.987  0.4110 -1.0728  0.8246
10534SOL     OW42530   4.825   3.479   1.197 -0.2687  0.2957 -0.4594
10534SOL    HW142531   4.831   3.379   1.203  0.0336  0.3986  1.2348
10534SOL    HW242532   4.872   3.510   1.115  0.9118 -0.8514 -0.2320
10535SOL     OW42533   1.937   1.901   2.102 -0.1103  0.0813 -0.1163
10535SOL    HW142534   1.859   1.839   2.108  0.0951 -0.3525 -1.7942
10535SOL    HW242535   2.002   1.879   2.174 -1.3671  0.2367  1.1003
10536SOL     OW42536   2.868   8.990   4.411 -0.6618  0.3161  0.7633
10536SOL    HW142537   2.853   8.909   4.355  0.8109 -0.2292  1.1443
10536SOL    HW242538   2.796   9.057   4.392  0.6635  0.8121 -2.9830
10537SOL     OW42539   1.749   1.976   0.800 -0.8659  0.0725 -0.1626
10537SOL    HW142540   1.818   1.977   0.873 -0.3132 -0.2266 -0.6806
10537SOL    HW242541   1.664   1.934   0.835 -0.7120  0.2329  0.4054
10538SOL     OW42542   1.169   3.038   3.728 -0.1472 -0.0742 -0.5026
10538SOL    HW142543   1.201   3.013   3.820 -3.2483  0.7302  0.8566
10538SOL    HW242544   1.182   3.136   3.715 -3.1918  0.5366  0.6194
10539SOL     OW42545   2.893   2.394   1.647  0.0040 -0.3255  0.2543
10539SOL    HW142546   2.963   2.465   1.649 -0.1756 -0.1006 -0.9845
10539SOL    HW242547   2.911   2.333   1.570 -0.3584 -1.1029  0.7809
10540SOL     OW42548   2.609   9.327   4.867  0.6159 -0.9788  0.6675
10540SOL    HW142549   2.663   9.340   4.951 -0.6317 -2.2669  1.6966
10540SOL    HW242550   2.530   9.270   4.887 -0.5687 -0.0026 -1.0571
10541SOL     OW42551   0.513   0.017   4.990  0.0886  0.1347  0.5091
10541SOL    HW142552   0.470  -0.037   4.917  2.6867 -0.6802 -0.5018
10541SOL    HW242553   0.506  -0.032   5.077  1.7295 -1.4907 -0.2524
10542SOL     OW42554   1.834   6.307   2.722 -0.0009 -0.1283  0.1561
10542SOL    HW142555   1.764   6.305   2.651  0.4978 -0.0861 -0.3333
10542SOL    HW242556   1.920   6.271   2.686  0.3266  0.1414  0.6572
10543SOL     OW42557   9.699   7.764   1.963  0.5752  0.6945  0.1434
10543SOL    HW142558   9.671   7.670   1.943  0.3390  0.8530 -0.2750
10543SOL    HW242559   9.730   7.769   2.058  1.1824  0.0599 -0.0145
10544SOL     OW42560   9.900   8.923   2.045  0.6299 -0.3552  0.2650
10544SOL    HW142561   9.829   8.884   2.104  0.6989  0.7726  1.1120
10544SOL    HW242562   9.921   9.016   2.076  2.7310 -0.8181  0.2304
10545SOL     OW42563   7.087   8.730   2.685 -0.4053 -0.7595 -0.1530
10545SOL    HW142564   7.148   8.715   2.763 -0.5254  0.8764  0.2726
10545SOL    HW242565   7.068   8.827   2.676 -3.0982 -1.2600 -0.1778
10546SOL     OW42566   9.010   7.905   5.204  0.0921 -0.0389 -0.1460
10546SOL    HW142567   8.939   7.975   5.215  0.0786  0.0138 -0.5608
10546SOL    HW242568   9.012   7.846   5.284 -1.0210 -0.5779 -0.5058
10547SOL     OW42569   1.434   9.447   0.639  0.1358 -1.1976 -0.4154
10547SOL    HW142570   1.497   9.390   0.691  2.1803 -0.2535 -1.7807
10547SOL    HW242571   1.446   9.543   0.664  0.5405 -0.8170 -1.9862
10548SOL     OW42572   4.841   9.790   1.816  0.7534 -0.5476  0.6950
10548SOL    HW142573   4.768   9.797   1.748  0.1679  1.2100  1.4601
10548SOL    HW242574   4.878   9.697   1.817 -0.9717 -1.2631 -0.2180
10549SOL     OW42575   3.452   7.209   5.044 -0.6084  0.7239  0.3073
10549SOL    HW142576   3.503   7.294   5.030 -1.2250  0.7686 -1.8044
10549SOL    HW242577   3.361   7.231   5.079 -1.1492  1.0219 -1.2558
10550SOL     OW42578   0.689   0.825   3.955 -0.5373  0.1794  0.4751
10550SOL    HW142579   0.773   0.816   3.900 -0.5635 -1.9440  0.7593
10550SOL    HW242580   0.646   0.736   3.965 -1.7195  0.9125  2.1196
10551SOL     OW42581   8.688   7.109   1.159  0.3789  0.3634  0.0139
10551SOL    HW142582   8.737   7.027   1.189  0.4236  0.4183  0.0888
10551SOL    HW242583   8.593   7.085   1.138  0.2940  0.3693  0.3940
10552SOL     OW42584   3.576   2.249   1.859  0.0674 -0.4690 -0.1559
10552SOL    HW142585   3.567   2.315   1.785  0.6608 -1.6201 -1.2676
10552SOL    HW242586   3.532   2.163   1.834  0.9519 -1.1363  0.4898
10553SOL     OW42587   8.472   2.985   4.695  0.0657  0.8120  0.2816
10553SOL    HW142588   8.427   2.982   4.606 -0.5298  2.1868  0.5131
10553SOL    HW242589   8.571   2.991   4.683  0.0676 -0.2126 -0.2610
10554SOL     OW42590   3.812   2.916   4.565 -0.0911 -0.2495 -0.3051
10554SOL    HW142591   3.817   2.840   4.629 -0.7322 -0.1115 -0.0833
10554SOL    HW242592   3.716   2.935   4.543 -0.0431  1.6181  0.9701
10555SOL     OW42593   0.138   4.019   1.246  0.1127  0.0693 -0.4950
10555SOL    HW142594   0.164   3.963   1.325 -1.1191 -0.3421 -0.3764
10555SOL    HW242595   0.220   4.063   1.208  0.9158 -0.8695  0.1316
10556SOL     OW42596   3.489   0.917   5.079  0.4471  0.0797  0.4753
10556SOL    HW142597   3.402   0.873   5.057  0.8568 -0.3238 -0.3913
10556SOL    HW242598   3.527   0.957   4.995  0.2982  1.6967  1.1667
10557SOL     OW42599   9.202   8.625   1.735  0.2365 -0.4682  0.0979
10557SOL    HW142600   9.137   8.562   1.778  1.8909 -0.5508  2.5619
10557SOL    HW242601   9.275   8.646   1.799  0.6242  2.6587 -1.2906
10558SOL     OW42602   9.482   2.639   0.967 -0.4746 -0.3338  0.4305
10558SOL    HW142603   9.466   2.540   0.965  0.5599 -0.5076  0.7382
10558SOL    HW242604   9.454   2.678   0.879 -1.3632 -0.8140  0.4880
10559SOL     OW42605   3.343   0.112   1.609 -0.0845 -0.1983 -0.4182
10559SOL    HW142606   3.347   0.016   1.579 -0.4648 -0.5312  0.5767
10559SOL    HW242607   3.429   0.136   1.654  0.7093  0.4708 -2.2366
10560SOL     OW42608   8.789   3.577   1.580 -0.0509 -0.0402 -0.2565
10560SOL    HW142609   8.883   3.582   1.615 -0.6111 -0.3784  1.3018
10560SOL    HW242610   8.784   3.508   1.508  0.8265 -0.2414 -0.1288
10561SOL     OW42611   4.259   9.083   3.165 -0.7691  0.5931  0.3744
10561SOL    HW142612   4.234   9.171   3.205 -0.6529  0.5005  0.6515
10561SOL    HW242613   4.268   9.093   3.066  2.0335  1.5873  0.6823
10562SOL     OW42614   2.004   0.421   0.256 -0.2845 -0.1702  0.1460
10562SOL    HW142615   2.030   0.381   0.169 -0.9960 -1.1541  0.3780
10562SOL    HW242616   2.087   0.442   0.309  0.0702 -2.3399  0.4683
10563SOL     OW42617   3.565   0.143   1.750  0.0489  0.8269 -0.1572
10563SOL    HW142618   3.591   0.226   1.799  0.6728  0.8527 -0.5258
10563SOL    HW242619   3.647   0.089   1.730 -0.3634  0.0438  0.2185
10564SOL     OW42620   1.192   0.277   3.851  0.4897  0.3069  0.4215
10564SOL    HW142621   1.268   0.236   3.901 -0.7755 -0.2610  1.9142
10564SOL    HW242622   1.137   0.206   3.808  0.0603  0.6326  0.4247
10565SOL     OW42623   7.471   1.378   0.580  1.1108 -0.2674  0.3240
10565SOL    HW142624   7.553   1.420   0.619  1.7461 -1.9901  0.8891
10565SOL    HW242625   7.488   1.356   0.484  1.5453 -1.1933  0.6063
10566SOL     OW42626   4.785   4.832   1.159  0.6114  0.2672 -0.4226
10566SOL    HW142627   4.809   4.752   1.104  1.2243  0.9296 -1.1249
10566SOL    HW242628   4.689   4.856   1.142  0.4120 -0.3401 -0.1740
10567SOL     OW42629   2.086   9.328   0.195 -0.6499  0.3009 -0.5114
10567SOL    HW142630   2.029   9.387   0.252 -0.6388  2.2944 -2.4872
10567SOL    HW242631   2.182   9.354   0.206 -0.4730 -0.5731  0.0044
10568SOL     OW42632   3.307   4.846   2.158 -0.3015  0.3848 -0.2514
10568SOL    HW142633   3.347   4.920   2.211 -1.1946  1.8246 -1.5688
10568SOL    HW242634   3.232   4.804   2.209  0.0364  0.5395  0.3756
10569SOL     OW42635   8.386   2.774   3.892  0.3456 -0.1817 -0.1134
10569SOL    HW142636   8.464   2.730   3.937 -0.0546 -1.0607 -0.2785
10569SOL    HW242637   8.419   2.842   3.827  1.0522 -2.1208 -1.8432
10570SOL     OW42638   4.162   3.439   5.348  0.8573  0.2654  0.3906
10570SOL    HW142639   4.173   3.363   5.413  0.7075 -0.5180 -0.4804
10570SOL    HW242640   4.076   3.486   5.367 -0.2685 -1.3209 -0.5818
10571SOL     OW42641   0.998   7.346   3.146  0.3261 -0.4538  0.5008
10571SOL    HW142642   0.933   7.271   3.136  1.4547 -1.1486 -2.2783
10571SOL    HW242643   1.053   7.353   3.062  0.2092  3.4963  0.6643
10572SOL     OW42644   9.629   4.864   5.071 -0.5572  0.4789 -0.3235
10572SOL    HW142645   9.724   4.858   5.100 -1.2022  1.1993  2.0462
10572SOL    HW242646   9.611   4.954   5.032 -0.6671  0.9277  0.7534
10573SOL     OW42647   9.102   2.287   5.222 -0.2752 -0.2110 -0.1729
10573SOL    HW142648   9.180   2.236   5.187  1.0208  1.2639  0.4704
10573SOL    HW242649   9.017   2.239   5.200  0.7040 -0.9922 -2.3447
10574SOL     OW42650   2.408   1.133   1.768  0.2445  0.0996  0.0054
10574SOL    HW142651   2.351   1.204   1.726  1.1313  0.8179 -0.0169
10574SOL    HW242652   2.494   1.174   1.798 -0.1546 -0.5094  2.0606
10575SOL     OW42653   1.842   3.030   2.831  0.4243  0.4949  0.1288
10575SOL    HW142654   1.901   2.951   2.845 -0.1301  0.3534  1.7780
10575SOL    HW242655   1.897   3.113   2.831  0.5868  0.4099  2.1959
10576SOL     OW42656   1.509   5.618   2.672  0.2140 -0.0168  0.5064
10576SOL    HW142657   1.558   5.552   2.730  0.5751  0.4039  0.6848
10576SOL    HW242658   1.447   5.672   2.729 -0.0951 -0.2130  0.3573
10577SOL     OW42659   7.827   4.151   1.846 -0.3605 -0.3101 -0.0110
10577SOL    HW142660   7.814   4.138   1.748 -2.0496  0.0259  0.1503
10577SOL    HW242661   7.833   4.063   1.892 -1.7407 -0.5059 -0.1685
10578SOL     OW42662   0.325   3.173   5.051 -0.5868 -0.0248 -0.0864
10578SOL    HW142663   0.419   3.197   5.024 -0.2594  0.3347  1.3103
10578SOL    HW242664   0.285   3.111   4.983  0.6701 -0.2012 -0.6782
10579SOL     OW42665   2.314   2.479   3.568 -0.3510 -0.3616  0.3884
10579SOL    HW142666   2.235   2.540   3.570 -0.6931 -0.8376  2.2240
10579SOL    HW242667   2.374   2.500   3.645  1.8358  0.6319 -1.4943
10580SOL     OW42668   7.906   1.901   1.278  0.2539  0.7126 -0.0446
10580SOL    HW142669   7.932   1.983   1.329  1.1569  0.2310  0.2889
10580SOL    HW242670   7.916   1.918   1.180 -0.7517  1.3936 -0.0371
10581SOL     OW42671   3.853   8.947   2.789 -0.4394 -0.4140  0.2669
10581SOL    HW142672   3.820   9.022   2.847 -1.4603 -1.0484  0.5252
10581SOL    HW242673   3.941   8.972   2.750 -2.1505  2.2289 -2.1493
10582SOL     OW42674   2.259   7.133   0.544  0.1221 -0.5593 -0.7242
10582SOL    HW142675   2.249   7.091   0.454  1.2067 -0.5304 -0.8684
10582SOL    HW242676   2.356   7.140   0.566 -0.1806 -2.0372  1.1555
10583SOL     OW42677   6.518   0.003   3.576 -0.4634 -0.8485  0.0474
10583SOL    HW142678   6.508   0.024   3.479 -0.0918 -0.8614  0.0093
10583SOL    HW242679   6.535  -0.095   3.587 -0.7276 -0.8840  0.1394
10584SOL     OW42680   0.910   1.541   0.084  0.3667  0.4013 -0.1223
10584SOL    HW142681   0.919   1.508  -0.010 -1.4613 -0.4357 -0.0200
10584SOL    HW242682   0.908   1.463   0.146  1.6818  0.9592  0.6247
10585SOL     OW42683   0.846   0.011   5.123  0.1331 -0.1146 -0.2340
10585SOL    HW142684   0.850   0.017   5.023  0.5621  0.3050 -0.1941
10585SOL    HW242685   0.790  -0.067   5.149  0.4447 -0.5342 -0.8055
10586SOL     OW42686   9.746   1.333   1.289  0.4550 -0.1367 -0.7543
10586SOL    HW142687   9.677   1.263   1.304 -0.1952  0.4714 -0.8513
10586SOL    HW242688   9.836   1.291   1.278  0.3434 -0.8597  0.9223
10587SOL     OW42689   2.749   1.736   0.739  0.7095 -0.0200 -0.6892
10587SOL    HW142690   2.770   1.734   0.837 -0.3562 -0.8882 -0.4740
10587SOL    HW242691   2.813   1.675   0.691  0.6140 -0.3493 -0.4057
10588SOL     OW42692   4.999   8.604   1.579  0.4996 -0.3021  0.5721
10588SOL    HW142693   5.032   8.600   1.485  2.0672  0.1090  1.0806
10588SOL    HW242694   5.058   8.548   1.637 -1.1279 -1.4627  1.1374
10589SOL     OW42695   1.897   9.742   4.891  0.3342 -0.1443 -0.2876
10589SOL    HW142696   1.867   9.833   4.921 -0.3150 -0.0512 -1.1942
10589SOL    HW242697   1.856   9.672   4.950  0.3896  0.1194  0.0638
10590SOL     OW42698   3.446   3.817   3.423  0.0900  0.0737 -0.2482
10590SOL    HW142699   3.523   3.770   3.381 -0.3951  1.3810 -2.7350
10590SOL    HW242700   3.363   3.762   3.413  0.0062  0.3120 -0.9341
10591SOL     OW42701   3.131   2.817   4.666 -0.2709 -0.1161 -0.2925
10591SOL    HW142702   3.154   2.807   4.569  0.0729  0.4253 -0.2713
10591SOL    HW242703   3.035   2.793   4.681 -0.2813 -0.3593 -0.7352
10592SOL     OW42704   1.923   5.295   0.804  0.2718  0.2977  0.6797
10592SOL    HW142705   2.021   5.304   0.818  0.3979 -1.6394  1.2392
10592SOL    HW242706   1.881   5.258   0.887 -0.8603  0.6726  0.2805
10593SOL     OW42707   8.827   6.316   4.477  0.1224 -0.1686 -0.2559
10593SOL    HW142708   8.896   6.379   4.442 -0.4658  0.8532  0.3924
10593SOL    HW242709   8.790   6.351   4.563  0.2382 -1.7291  0.4398
10594SOL     OW42710   7.377   7.394   2.193 -0.2981 -0.4493  0.7836
10594SOL    HW142711   7.357   7.445   2.109 -2.1366 -0.4862  1.1776
10594SOL    HW242712   7.386   7.458   2.269  0.8595 -0.4567  0.6594
10595SOL     OW42713   7.548   9.726   3.359  0.0330 -0.5939  0.2660
10595SOL    HW142714   7.570   9.709   3.455  1.2497 -1.8757 -0.2235
10595SOL    HW242715   7.611   9.794   3.322 -0.8031  0.3252  0.5234
10596SOL     OW42716   8.477   7.881   5.241 -0.7581 -0.1465 -0.2586
10596SOL    HW142717   8.541   7.889   5.165  1.1643 -1.5310  1.1634
10596SOL    HW242718   8.388   7.851   5.207 -0.9373  2.5691 -2.3767
10597SOL     OW42719   3.761   9.598   2.106 -0.6611 -0.5429 -0.0272
10597SOL    HW142720   3.669   9.596   2.065 -0.3673 -2.2777 -0.6741
10597SOL    HW242721   3.760   9.544   2.190 -0.0014 -1.4305 -0.5812
10598SOL     OW42722   7.218   5.177   5.301 -0.2026  0.5841  0.0978
10598SOL    HW142723   7.145   5.109   5.301  1.0608 -0.8717  3.0629
10598SOL    HW242724   7.264   5.177   5.213 -1.5682 -0.9188 -0.6337
10599SOL     OW42725   1.837   7.520   2.219 -0.6272 -0.6078 -0.2331
10599SOL    HW142726   1.921   7.467   2.220 -1.0038 -1.2041 -0.2187
10599SOL    HW242727   1.758   7.459   2.225 -1.0466 -0.0138  0.4624
10600SOL     OW42728   3.320   4.537   0.082  0.4913  0.2226  0.2078
10600SOL    HW142729   3.339   4.635   0.074  0.2959  0.1341 -1.5390
10600SOL    HW242730   3.230   4.518   0.041  1.6225 -1.0606 -1.7360
10601SOL     OW42731   3.611   2.318   4.248 -0.5068  0.7436 -0.1356
10601SOL    HW142732   3.665   2.398   4.275  0.7409 -0.4766  1.0749
10601SOL    HW242733   3.638   2.288   4.157  1.5387 -0.3964  0.8138
10602SOL     OW42734   5.008   0.645   2.198  0.0585  0.1147 -0.1960
10602SOL    HW142735   4.919   0.683   2.174 -0.2628 -0.8477 -0.5476
10602SOL    HW242736   5.026   0.564   2.143  0.4694 -0.5876  0.9402
10603SOL     OW42737   2.572   5.409   3.137 -0.0402 -0.5607 -0.2221
10603SOL    HW142738   2.501   5.379   3.074  0.2778 -1.6903 -0.0557
10603SOL    HW242739   2.659   5.415   3.089 -0.2995  1.0839 -0.4880
10604SOL     OW42740   2.628   1.385   3.310 -0.1927  0.2497 -0.0272
10604SOL    HW142741   2.581   1.436   3.238  0.9114  0.2623 -0.7485
10604SOL    HW242742   2.561   1.334   3.364 -1.2129  1.6636  0.0764
10605SOL     OW42743   9.901   1.117   4.994 -0.3516 -0.3226  0.2221
10605SOL    HW142744   9.847   1.034   4.980  2.4761 -2.0367 -0.8945
10605SOL    HW242745   9.977   1.097   5.055  0.3875  1.4352 -0.1129
10606SOL     OW42746   9.466   6.416   2.212  0.2710 -0.1833  0.2697
10606SOL    HW142747   9.395   6.454   2.271  0.4943 -1.2356  1.2385
10606SOL    HW242748   9.425   6.374   2.132 -0.1391  0.0173  0.3754
10607SOL     OW42749   6.937   5.186   5.180 -0.2177 -0.2803 -0.1016
10607SOL    HW142750   7.006   5.161   5.113 -0.1851  0.5635 -0.3875
10607SOL    HW242751   6.958   5.276   5.218 -1.7995  0.5559 -1.0959
10608SOL     OW42752   2.551   0.516   1.891  0.3088 -0.3571 -0.0240
10608SOL    HW142753   2.524   0.602   1.848 -3.0839 -1.9068 -1.1483
10608SOL    HW242754   2.574   0.533   1.987 -1.6589  1.6065  0.1492
10609SOL     OW42755   4.861   9.001   4.752 -0.0486 -0.8642  0.2793
10609SOL    HW142756   4.830   8.914   4.715 -0.2113 -0.9946  0.7167
10609SOL    HW242757   4.960   8.998   4.767 -0.0311 -0.9197  0.1443
10610SOL     OW42758   3.042   5.374   3.733 -0.2780  0.2381  0.2913
10610SOL    HW142759   2.996   5.453   3.773 -1.7341  0.7447 -2.2315
10610SOL    HW242760   3.010   5.290   3.777 -3.0139  0.6564 -0.7452
10611SOL     OW42761   8.681   4.186   3.029  0.0298  0.1189  0.2234
10611SOL    HW142762   8.655   4.117   3.096 -1.4473  0.2314 -0.2178
10611SOL    HW242763   8.669   4.277   3.069 -1.1812  0.1947 -0.3019
10612SOL     OW42764   3.244   8.871   4.718 -0.4160  0.4566 -0.1602
10612SOL    HW142765   3.333   8.870   4.763  0.7052 -2.4966 -2.3486
10612SOL    HW242766   3.249   8.925   4.634 -0.1677 -1.1927 -1.2284
10613SOL     OW42767   0.518   0.343   1.075  0.3878 -0.0331  0.4788
10613SOL    HW142768   0.432   0.294   1.062 -0.4568  1.2559  1.0329
10613SOL    HW242769   0.586   0.309   1.011 -1.0291  0.0475 -1.1246
10614SOL     OW42770   9.855   1.826   2.545  0.0934  0.0613  0.2112
10614SOL    HW142771   9.879   1.922   2.538 -0.8436  0.2416 -0.7563
10614SOL    HW242772   9.812   1.796   2.459  0.2314 -1.1723  0.5576
10615SOL     OW42773   9.789   4.460   4.192 -0.0558 -0.1663  0.0643
10615SOL    HW142774   9.804   4.558   4.203 -0.3232 -0.1680  0.4806
10615SOL    HW242775   9.853   4.410   4.250 -0.0277 -0.2326 -0.0251
10616SOL     OW42776   2.208   8.713   0.860 -0.5365 -0.3387 -0.2193
10616SOL    HW142777   2.274   8.725   0.786  0.5905 -0.7714  0.7019
10616SOL    HW242778   2.180   8.802   0.895 -0.3814 -0.1549 -0.5579
10617SOL     OW42779   3.575   7.212   1.478  0.4789 -0.3530  0.0363
10617SOL    HW142780   3.502   7.231   1.542  1.6653  1.3231  0.9257
10617SOL    HW242781   3.579   7.285   1.409  1.4323 -0.3164  0.1235
10618SOL     OW42782   9.233   5.492   4.941  0.5051 -0.0545  0.2876
10618SOL    HW142783   9.305   5.531   4.999 -0.1955 -0.3713  1.3797
10618SOL    HW242784   9.275   5.431   4.874  1.4628  1.5038 -0.5389
10619SOL     OW42785   3.127   3.929   2.410  0.4309 -0.7548  0.1585
10619SOL    HW142786   3.207   3.957   2.462 -0.5311  1.0108  0.7108
10619SOL    HW242787   3.098   4.003   2.350 -1.5327 -0.9060  0.8789
10620SOL     OW42788   3.296   5.816   1.663  0.1845 -0.0565 -0.0335
10620SOL    HW142789   3.294   5.915   1.674  0.1794 -0.0289 -0.2874
10620SOL    HW242790   3.365   5.778   1.725  2.3475  0.3956 -2.0964
10621SOL     OW42791   9.520   2.621   2.589  0.0818 -0.3331  0.0255
10621SOL    HW142792   9.520   2.603   2.688  0.3024 -2.9983 -0.4316
10621SOL    HW242793   9.429   2.649   2.560  0.0431  0.5802  0.9985
10622SOL     OW42794   7.544   8.325   3.951 -0.0179  0.5735  0.4439
10622SOL    HW142795   7.572   8.229   3.954  1.1137  0.8755 -0.0679
10622SOL    HW242796   7.622   8.383   3.975 -0.9013  1.3357  1.5332
10623SOL     OW42797   2.707   7.326   0.469  0.2507 -0.1594  0.3206
10623SOL    HW142798   2.664   7.417   0.476  0.7875  0.0284  1.3245
10623SOL    HW242799   2.694   7.290   0.377  0.2285  1.0402 -0.1609
10624SOL     OW42800   2.815   3.143   4.281  0.4509 -0.4891  0.2810
10624SOL    HW142801   2.859   3.123   4.369 -1.8425  0.5578  1.7023
10624SOL    HW242802   2.857   3.225   4.242  0.6651 -0.2420  1.0066
10625SOL     OW42803   0.711   4.401   0.788  0.7072 -0.5499 -0.6224
10625SOL    HW142804   0.641   4.358   0.845 -1.9254  3.7195 -0.4188
10625SOL    HW242805   0.792   4.420   0.843  0.5723 -2.0142  0.1085
10626SOL     OW42806   2.472   6.457   4.846  0.8296  0.6892 -0.2068
10626SOL    HW142807   2.509   6.504   4.766 -0.9000  0.2127 -1.2995
10626SOL    HW242808   2.384   6.497   4.870 -0.7686 -2.1139 -1.2856
10627SOL     OW42809   0.376   9.840   1.715  0.1835 -0.0478  0.1264
10627SOL    HW142810   0.311   9.771   1.684  0.8731 -1.2009  1.1825
10627SOL    HW242811   0.364   9.924   1.662 -1.1796 -0.7243 -0.6573
10628SOL     OW42812   0.326   3.888   5.520 -0.2645 -0.1629 -0.5277
10628SOL    HW142813   0.268   3.864   5.598  0.2824 -1.4077 -0.5053
10628SOL    HW242814   0.399   3.949   5.551  0.2523 -1.0582  0.0401
10629SOL     OW42815   9.156   1.595   2.822  0.0715  0.0472  0.2034
10629SOL    HW142816   9.085   1.654   2.784  0.5615  0.6210  0.1520
10629SOL    HW242817   9.154   1.601   2.922  0.1984  0.2599  0.1958
10630SOL     OW42818   0.184   5.844   2.428 -0.1512  0.5163  0.2653
10630SOL    HW142819   0.272   5.804   2.454  0.2845  2.7877  2.4369
10630SOL    HW242820   0.111   5.806   2.485  0.0443  1.6538  1.2925
10631SOL     OW42821   2.090   9.913   4.366  0.3326 -0.4524 -0.2960
10631SOL    HW142822   2.036   9.991   4.399  0.2767  0.3154 -2.1597
10631SOL    HW242823   2.031   9.832   4.360  0.0241 -0.2681  0.2022
10632SOL     OW42824   3.661   3.501   4.769  0.1264 -0.3136 -0.3555
10632SOL    HW142825   3.609   3.560   4.708  1.6364  1.3747 -0.0274
10632SOL    HW242826   3.738   3.461   4.719  1.1216  0.7429  0.3037
10633SOL     OW42827   1.003   4.636   0.389 -0.2169  0.1710  0.3246
10633SOL    HW142828   1.073   4.609   0.324  0.2843 -1.4582  1.5176
10633SOL    HW242829   0.925   4.675   0.339  0.8490  0.5142 -1.1101
10634SOL     OW42830   3.411   1.246   2.670 -0.0764 -0.1155 -0.5044
10634SOL    HW142831   3.344   1.315   2.641 -1.6232 -1.8749 -1.1976
10634SOL    HW242832   3.439   1.192   2.591  1.9945  0.4379 -0.1617
10635SOL     OW42833   3.791   5.572   5.019 -0.6751  0.1605 -0.1685
10635SOL    HW142834   3.742   5.653   4.985  0.5959  1.4395  0.9828
10635SOL    HW242835   3.799   5.578   5.119  2.7438  0.5127 -0.4173
10636SOL     OW42836   7.280   2.048   3.494  0.4399 -0.3349 -0.2694
10636SOL    HW142837   7.231   2.102   3.425 -0.5147  0.0398  0.6933
10636SOL    HW242838   7.291   1.954   3.461  0.8656  0.0857 -1.3509
10637SOL     OW42839   7.621   1.861   0.714 -0.5892 -0.3565  0.8009
10637SOL    HW142840   7.534   1.858   0.664 -0.7061  1.5418  0.8648
10637SOL    HW242841   7.608   1.822   0.805 -1.0901 -1.1537  0.3974
10638SOL     OW42842   8.361   0.462   0.225 -0.0057  0.2049 -0.2139
10638SOL    HW142843   8.433   0.520   0.264 -1.0374  0.9573  0.5939
10638SOL    HW242844   8.298   0.434   0.297 -0.6853 -0.2286 -0.9687
10639SOL     OW42845   7.960   2.186   1.315  0.2180 -0.5677 -0.5638
10639SOL    HW142846   7.949   2.210   1.219  2.1943  1.6753 -0.2879
10639SOL    HW242847   7.873   2.200   1.363  0.1013  1.6896 -1.3736
10640SOL     OW42848   2.381   1.689   2.640  0.0748 -0.5103  0.3004
10640SOL    HW142849   2.425   1.602   2.664  2.8086  0.8134  0.2971
10640SOL    HW242850   2.389   1.752   2.717  1.5176  0.9956 -1.0605
10641SOL     OW42851   5.166   7.185   2.826  0.4203 -0.1823  0.0953
10641SOL    HW142852   5.181   7.236   2.741  1.8926  0.8902  0.9703
10641SOL    HW242853   5.217   7.100   2.823  0.2446 -0.2787 -0.2104
10642SOL     OW42854   2.639   4.411   1.143  0.3991 -0.2592 -0.0837
10642SOL    HW142855   2.714   4.470   1.114 -0.5803 -0.0693 -2.3714
10642SOL    HW242856   2.639   4.328   1.087  0.6394 -1.5839  1.8544
10643SOL     OW42857   9.925   3.095   3.611  0.3530  0.6345  0.3390
10643SOL    HW142858   9.861   3.049   3.672 -1.0672  2.1696  0.0399
10643SOL    HW242859  10.008   3.040   3.603 -0.9969 -1.5097  0.5524
10644SOL     OW42860   3.488   5.575   2.950  0.0703 -0.3620  0.1465
10644SOL    HW142861   3.496   5.534   2.859 -0.4754 -0.8143  0.2983
10644SOL    HW242862   3.498   5.674   2.942 -1.2066 -0.2728 -0.5861
10645SOL     OW42863   1.696   6.483   0.871  0.4442  0.4424 -0.3703
10645SOL    HW142864   1.791   6.468   0.844  0.7731  0.9976  0.4629
10645SOL    HW242865   1.691   6.559   0.936 -0.6249  0.7097 -0.7486
10646SOL     OW42866   9.412   9.628   2.148  1.1079  0.3828  0.1196
10646SOL    HW142867   9.330   9.613   2.093  0.4388  1.6584  0.7492
10646SOL    HW242868   9.386   9.643   2.244  2.1190  0.1564  0.4344
10647SOL     OW42869   1.636   0.915   2.876  0.0088 -0.5188  0.4482
10647SOL    HW142870   1.728   0.884   2.851 -0.0822  0.3608 -1.0170
10647SOL    HW242871   1.617   0.888   2.970  1.4723 -1.3839  0.5185
10648SOL     OW42872   1.624   3.227   2.553 -0.5292 -0.7836 -0.2567
10648SOL    HW142873   1.692   3.298   2.572  0.0151 -1.2015 -0.6492
10648SOL    HW242874   1.594   3.186   2.640 -0.9693  0.0245 -0.0116
10649SOL     OW42875   8.991   5.546   0.950  0.0594  0.1149 -0.1737
10649SOL    HW142876   9.078   5.523   0.992  0.2120 -2.4427 -1.8303
10649SOL    HW242877   9.007   5.592   0.863 -0.2025 -2.9703 -1.8835
10650SOL     OW42878   7.637   5.077   4.322  0.1841  0.2924  0.2924
10650SOL    HW142879   7.546   5.114   4.338  0.5244  0.9557  0.7530
10650SOL    HW242880   7.647   5.051   4.226  0.0345  1.7125 -0.1151
10651SOL     OW42881   8.241   1.814   2.215 -0.0305  1.0630  0.0651
10651SOL    HW142882   8.313   1.755   2.250 -0.4760  0.8040  0.5594
10651SOL    HW242883   8.218   1.788   2.121 -0.5652  0.1289  0.4498
10652SOL     OW42884   7.273   9.572   2.216  0.2350  0.0403  0.9522
10652SOL    HW142885   7.205   9.533   2.154  1.0324  0.0054  0.0994
10652SOL    HW242886   7.275   9.518   2.301  1.2171 -1.6914 -0.1543
10653SOL     OW42887   9.704   1.458   0.885  0.0749 -0.2007  0.5237
10653SOL    HW142888   9.648   1.397   0.940 -0.3255  0.8821  1.3386
10653SOL    HW242889   9.728   1.539   0.939  2.1014 -0.4597  0.0688
10654SOL     OW42890   3.565   6.536   1.276 -0.0138 -0.3226  0.2443
10654SOL    HW142891   3.519   6.472   1.338 -1.7817  0.0439 -0.6570
10654SOL    HW242892   3.497   6.595   1.233  1.3625  0.5295 -0.8005
10655SOL     OW42893   4.394   3.426   0.517 -0.3741  0.1116 -0.5362
10655SOL    HW142894   4.432   3.516   0.538  2.1204 -1.0114  0.0026
10655SOL    HW242895   4.358   3.385   0.601  1.9892 -0.9265  0.0249
10656SOL     OW42896   8.852   2.330   4.570 -0.1062  0.1906 -0.4704
10656SOL    HW142897   8.861   2.372   4.661  1.1210  1.8267 -1.3374
10656SOL    HW242898   8.765   2.281   4.566 -1.2045  1.9331  0.8625
10657SOL     OW42899   7.772   3.843   2.036 -0.1458  0.8212 -0.2571
10657SOL    HW142900   7.689   3.793   2.059  1.1040 -0.0665  2.5792
10657SOL    HW242901   7.782   3.922   2.096  1.3396  0.5815 -0.1659
10658SOL     OW42902   4.816   9.090   2.723  0.2297  0.4992 -0.7388
10658SOL    HW142903   4.749   9.086   2.796  1.7628 -0.4095  0.6522
10658SOL    HW242904   4.788   9.029   2.649  0.8458 -1.9699  1.0063
10659SOL     OW42905   9.583   9.701   1.478  0.1887  0.3239  0.2672
10659SOL    HW142906   9.664   9.689   1.536  1.4754  1.8408 -1.1479
10659SOL    HW242907   9.556   9.798   1.478 -0.8863  0.0296 -0.2196
10660SOL     OW42908   3.016   9.887   2.901 -0.6536  0.4012 -0.3067
10660SOL    HW142909   3.065   9.942   2.968  0.9054 -1.5626  0.2221
10660SOL    HW242910   2.918   9.890   2.920 -0.6069  2.9747 -0.3302
10661SOL     OW42911   7.980   9.078   5.056 -0.5258  0.0261  0.1276
10661SOL    HW142912   7.972   8.987   5.098 -0.0595 -0.2063 -0.2814
10661SOL    HW242913   8.000   9.145   5.127 -0.8637 -0.1976  0.4323
10662SOL     OW42914   3.464   1.422   2.987  0.0160 -0.3502  0.1476
10662SOL    HW142915   3.549   1.434   3.040  0.1007  0.3161 -0.1328
10662SOL    HW242916   3.462   1.330   2.948  0.1028 -0.7378  1.0511
10663SOL     OW42917   9.435   0.429   1.479  0.1039 -0.0465 -0.3253
10663SOL    HW142918   9.461   0.364   1.550 -1.4314  0.6353  0.8853
10663SOL    HW242919   9.423   0.381   1.392 -2.2017 -1.5896  0.8286
10664SOL     OW42920   3.068   7.020   4.699  0.1535 -0.4045 -0.2967
10664SOL    HW142921   2.983   7.026   4.751  0.4427  0.1638  0.1064
10664SOL    HW242922   3.090   6.923   4.684  0.4936 -0.6038  1.3363
10665SOL     OW42923   3.548   6.864   3.654 -0.7771 -0.4131  0.9682
10665SOL    HW142924   3.546   6.861   3.754 -1.0169 -2.0679  0.9249
10665SOL    HW242925   3.462   6.902   3.620 -0.8540 -0.2229  1.3747
10666SOL     OW42926   3.724   1.396   5.425 -0.3540  0.5788 -0.2741
10666SOL    HW142927   3.665   1.334   5.374 -1.0338 -0.8442  2.1487
10666SOL    HW242928   3.673   1.477   5.453 -0.5730  0.3402  0.0120
10667SOL     OW42929   9.017   6.262   2.508 -0.1653  0.0238 -0.3372
10667SOL    HW142930   9.032   6.249   2.410  2.7491 -0.1630  0.0685
10667SOL    HW242931   9.060   6.347   2.537  1.0749 -1.0677  1.1469
10668SOL     OW42932   8.664   0.795   0.347 -0.5634 -0.0246  0.4318
10668SOL    HW142933   8.686   0.701   0.322 -2.2276 -0.7376  1.5258
10668SOL    HW242934   8.705   0.816   0.435  0.2746  0.4672 -0.0728
10669SOL     OW42935   1.447   3.913   1.240  0.8008  0.4846 -0.2468
10669SOL    HW142936   1.433   3.994   1.183  3.1967  2.1478  1.4541
10669SOL    HW242937   1.491   3.841   1.185 -0.9917  0.4428 -1.6584
10670SOL     OW42938   2.898   5.026   0.375  0.1263 -0.1605 -0.4868
10670SOL    HW142939   2.849   5.082   0.441 -0.7515 -0.7938 -0.5834
10670SOL    HW242940   2.836   4.955   0.339  0.8141 -0.3102 -1.3968
10671SOL     OW42941   3.313   9.514   4.969 -0.0344 -0.4158  0.2011
10671SOL    HW142942   3.220   9.537   4.998  0.2142 -0.2445  0.8708
10671SOL    HW242943   3.377   9.581   5.005  0.5732 -1.5653  1.3018
10672SOL     OW42944   8.794   5.638   3.732  0.1987 -0.2360 -0.1481
10672SOL    HW142945   8.834   5.677   3.649  0.7849 -0.8504 -0.1591
10672SOL    HW242946   8.758   5.711   3.789  2.0927  0.4192  0.2578
10673SOL     OW42947   3.533   4.236   2.355  0.1757 -0.1736 -0.6492
10673SOL    HW142948   3.569   4.143   2.366 -1.3079 -0.6129  0.5923
10673SOL    HW242949   3.601   4.302   2.387 -0.2300 -1.0133  2.0229
10674SOL     OW42950   0.811   8.512   4.785 -0.0900  0.3171  0.1966
10674SOL    HW142951   0.843   8.453   4.711 -0.0808  1.0770 -0.4162
10674SOL    HW242952   0.773   8.596   4.746 -1.4236  0.0858  0.9919
10675SOL     OW42953   0.089   7.500   3.877 -0.0345 -0.1224 -0.3297
10675SOL    HW142954   0.037   7.473   3.958 -0.1972  0.1556 -0.3385
10675SOL    HW242955   0.026   7.522   3.803  0.1241 -0.6680 -0.6269
10676SOL     OW42956   5.344   0.927   3.484  0.4631 -0.2337  0.1223
10676SOL    HW142957   5.249   0.898   3.477  0.5039 -0.2731 -0.2604
10676SOL    HW242958   5.348   1.018   3.526  0.2676 -0.2889  0.2618
10677SOL     OW42959   0.338   6.574   2.242  0.3429 -0.0575 -0.3558
10677SOL    HW142960   0.429   6.536   2.224  0.4355  0.3007 -0.6548
10677SOL    HW242961   0.304   6.618   2.159  0.4082  0.8595  0.1005
10678SOL     OW42962   8.152   6.880   4.895  0.4325  0.3011  0.4715
10678SOL    HW142963   8.223   6.889   4.826 -0.0698  2.2058  0.1518
10678SOL    HW242964   8.102   6.967   4.902 -0.3394 -0.2657  2.3342
10679SOL     OW42965   8.084   3.757   0.744  0.1966 -0.4113 -0.0849
10679SOL    HW142966   8.140   3.810   0.808  0.6578 -1.2063  0.1717
10679SOL    HW242967   8.019   3.818   0.699 -2.3117 -0.3056  3.4265
10680SOL     OW42968   2.460   3.267   4.834 -0.0504  0.3895  0.2221
10680SOL    HW142969   2.468   3.168   4.837  0.7106  0.3916 -1.1976
10680SOL    HW242970   2.444   3.303   4.926  1.6576 -0.8727  1.0247
10681SOL     OW42971   1.862   0.037   0.968 -0.4201 -0.5947  0.0993
10681SOL    HW142972   1.890   0.050   0.873  2.0254  0.0690  0.8665
10681SOL    HW242973   1.926  -0.025   1.013 -1.2922 -0.5425  1.4441
10682SOL     OW42974   8.178   4.258   5.221 -0.2220  0.4356 -0.0429
10682SOL    HW142975   8.132   4.172   5.247 -0.7969  0.0326 -2.3000
10682SOL    HW242976   8.222   4.297   5.301 -0.0460 -1.9249  1.0643
10683SOL     OW42977   2.604   0.894   5.238 -0.4805 -0.3023  0.1899
10683SOL    HW142978   2.630   0.798   5.231 -2.4999 -0.7980 -0.9379
10683SOL    HW242979   2.660   0.949   5.176 -0.1700 -0.9318 -0.0833
10684SOL     OW42980   9.918   4.275   4.370  0.1466 -0.1536 -0.0107
10684SOL    HW142981   9.982   4.203   4.346  0.4497 -0.6327  2.1180
10684SOL    HW242982   9.829   4.235   4.393  0.0846  0.2045  0.3978
10685SOL     OW42983   2.721   5.568   1.580 -0.5126 -0.1431  0.2875
10685SOL    HW142984   2.816   5.538   1.569  0.6976  2.9421  1.4228
10685SOL    HW242985   2.678   5.579   1.490  0.5964 -0.4844 -0.2899
10686SOL     OW42986   8.623   4.912   3.032  0.0081 -0.0568 -0.4107
10686SOL    HW142987   8.628   4.955   2.942 -0.6106  0.0661 -0.3862
10686SOL    HW242988   8.554   4.957   3.088  0.1794 -0.3239  0.0265
10687SOL     OW42989   2.253   9.541   4.613 -0.0917 -0.7040  0.1612
10687SOL    HW142990   2.260   9.640   4.604  1.8520 -0.7906  0.4534
10687SOL    HW242991   2.265   9.499   4.523  0.6238 -0.7443  0.2770
10688SOL     OW42992   3.010   2.883   2.073  0.5565  0.4801  0.4443
10688SOL    HW142993   2.923   2.919   2.039 -0.5308 -0.6198  1.9849
10688SOL    HW242994   3.032   2.799   2.023 -0.4842 -0.5355  1.6621
10689SOL     OW42995   2.049   1.744   4.949  0.0241 -0.6155  0.4139
10689SOL    HW142996   2.060   1.769   4.852 -0.0195 -2.9297 -0.2184
10689SOL    HW242997   2.139   1.727   4.989  0.0777  0.7931  0.9392
10690SOL     OW42998   1.572   3.765   5.137 -0.1428 -0.2132  0.1556
10690SOL    HW142999   1.527   3.684   5.100 -0.3254  0.0522 -0.2077
10690SOL    HW243000   1.537   3.847   5.091 -0.6075  0.1478  1.1489
10691SOL     OW43001   8.811   5.566   5.096  0.4090 -0.4583  0.1405
10691SOL    HW143002   8.885   5.633   5.102  0.5584 -0.7117  1.1613
10691SOL    HW243003   8.843   5.477   5.128  0.2163 -1.0394 -1.2377
10692SOL     OW43004   4.883   6.238   1.610 -0.5165 -0.4952  0.0596
10692SOL    HW143005   4.972   6.199   1.585  0.6819  0.8325  2.1107
10692SOL    HW243006   4.826   6.166   1.651  1.4639 -0.3448  3.2670
10693SOL     OW43007   9.806   7.505   1.163 -0.0908 -0.5817  0.0201
10693SOL    HW143008   9.898   7.543   1.166 -0.6133  0.6661  0.3784
10693SOL    HW243009   9.759   7.522   1.250 -1.5834  1.1264 -1.0828
10694SOL     OW43010   0.124   7.241   2.680 -0.0029 -0.0615  0.0929
10694SOL    HW143011   0.192   7.306   2.713  0.6688 -0.3802 -0.6752
10694SOL    HW243012   0.032   7.277   2.699  0.3680  0.8353  0.2031
10695SOL     OW43013   1.518   0.322   3.733  0.4686 -0.4537  0.1723
10695SOL    HW143014   1.461   0.297   3.654  2.1318 -2.3155 -0.4713
10695SOL    HW243015   1.597   0.374   3.702  1.2000 -1.3065  0.5784
10696SOL     OW43016   4.186   9.365   0.444 -0.9589 -0.6560  0.1753
10696SOL    HW143017   4.109   9.338   0.501 -1.5963 -0.0324 -0.3772
10696SOL    HW243018   4.158   9.366   0.348 -0.4793  0.3335  0.0381
10697SOL     OW43019   2.342   4.421   3.516  0.0575 -0.5457 -0.4023
10697SOL    HW143020   2.264   4.481   3.496  1.0803  1.2880  0.9618
10697SOL    HW243021   2.414   4.436   3.450  0.7609  0.5709  0.6052
10698SOL     OW43022   0.465   3.279   0.555 -0.1443  0.0952 -0.2606
10698SOL    HW143023   0.451   3.207   0.486 -0.4626 -0.4978  0.4197
10698SOL    HW243024   0.492   3.363   0.509  0.2859 -0.4715 -1.0634
10699SOL     OW43025   5.441   8.782   4.454 -0.2681  0.1699 -0.5247
10699SOL    HW143026   5.385   8.749   4.378 -0.1860  0.2432 -0.6159
10699SOL    HW243027   5.533   8.745   4.446  0.3923  2.0474 -1.7348
10700SOL     OW43028   1.257   2.459   1.905  0.3587  0.4400 -0.1713
10700SOL    HW143029   1.176   2.415   1.866  0.2951 -0.2887  0.7572
10700SOL    HW243030   1.324   2.389   1.930  1.2570  1.0355 -0.8753
10701SOL     OW43031   1.149   3.599   3.920 -0.3668  0.4633 -0.5232
10701SOL    HW143032   1.102   3.673   3.968  2.2242  1.7646  0.1149
10701SOL    HW243033   1.159   3.521   3.981  0.1915  0.9796  0.0543
10702SOL     OW43034   2.879   6.841   0.605  0.1093 -0.2053  0.2816
10702SOL    HW143035   2.925   6.927   0.586  2.3110 -1.3200  0.4668
10702SOL    HW243036   2.942   6.765   0.591 -1.1075 -1.6570  2.3885
10703SOL     OW43037   9.069   1.923   0.739  0.0927  0.1429 -0.2766
10703SOL    HW143038   9.123   1.843   0.766  1.1869  0.8337 -0.3804
10703SOL    HW243039   8.988   1.893   0.688 -0.0990 -0.9563  0.6602
10704SOL     OW43040   3.036   0.945   0.347 -0.0924  0.1444 -0.0340
10704SOL    HW143041   3.048   0.891   0.430 -0.9537 -0.2523 -0.1591
10704SOL    HW243042   3.094   0.909   0.274 -0.7891 -0.7214 -0.1642
10705SOL     OW43043   2.446   5.955   4.420 -0.0235  0.5011  0.0360
10705SOL    HW143044   2.476   6.045   4.452  0.9399 -0.1502  0.9804
10705SOL    HW243045   2.368   5.924   4.475 -0.1874  0.6368 -0.1183
10706SOL     OW43046   3.021   3.973   5.205  0.3702 -0.5198  0.1521
10706SOL    HW143047   3.083   4.048   5.183  1.2751 -1.2415  0.1657
10706SOL    HW243048   3.069   3.886   5.192 -0.7544 -1.1058 -0.1652
10707SOL     OW43049   0.099   7.487   3.189  0.3867  0.2173  0.2487
10707SOL    HW143050   0.182   7.542   3.202  0.0318  0.7553  0.2487
10707SOL    HW243051   0.073   7.447   3.277  1.3125 -0.9221  0.0216
10708SOL     OW43052   1.105   8.939   2.205 -0.4083  0.0953  0.1457
10708SOL    HW143053   1.063   8.858   2.163 -0.3632 -0.5398  1.2964
10708SOL    HW243054   1.034   9.002   2.234 -0.5877 -0.9181  1.9734
10709SOL     OW43055   1.991   0.145   0.671  0.6599 -0.1063 -0.2564
10709SOL    HW143056   2.053   0.171   0.597  0.6209  1.8020  0.3583
10709SOL    HW243057   1.897   0.167   0.645  0.6180  0.3198  0.2350
10710SOL     OW43058   5.504   8.433   3.351  0.0989  0.3861  0.4335
10710SOL    HW143059   5.457   8.414   3.265  1.4210 -0.6739 -0.0698
10710SOL    HW243060   5.464   8.378   3.425 -0.2647  0.4285  0.2695
10711SOL     OW43061   7.803   4.622   4.093  0.1443 -0.3894 -0.5962
10711SOL    HW143062   7.881   4.657   4.040  0.4587 -0.9610 -0.5160
10711SOL    HW243063   7.823   4.529   4.123  0.2365  0.1602  1.0744
10712SOL     OW43064   1.293   1.393   1.825 -0.2998 -0.5998  0.2838
10712SOL    HW143065   1.258   1.454   1.753  2.5717  0.4348 -0.3138
10712SOL    HW243066   1.257   1.301   1.811 -3.5121  0.5928  0.3125
10713SOL     OW43067   2.208   6.752   4.053 -0.2179  0.2420 -0.0818
10713SOL    HW143068   2.161   6.679   4.003  3.2456 -0.4067 -2.5518
10713SOL    HW243069   2.176   6.840   4.019 -0.5627 -0.1678 -0.8464
10714SOL     OW43070   2.140   9.053   1.030 -0.3511 -0.2500  0.4100
10714SOL    HW143071   2.189   9.019   1.110  0.6474  0.5949  0.1551
10714SOL    HW243072   2.101   9.142   1.051 -1.2359 -0.6243  0.3906
10715SOL     OW43073   1.561   5.973   2.331 -0.1812  0.4441  0.8469
10715SOL    HW143074   1.466   6.001   2.314  0.0884  0.4340 -0.8210
10715SOL    HW243075   1.623   6.032   2.279  0.7663  0.8621  2.4402
10716SOL     OW43076   6.699   7.880   3.387 -0.8262  0.0826 -0.3171
10716SOL    HW143077   6.668   7.823   3.463 -0.1661 -0.3081 -0.3291
10716SOL    HW243078   6.720   7.822   3.308  0.7761  0.2125 -0.0188
10717SOL     OW43079   3.073   8.955   2.597  0.0308 -0.3910  0.0477
10717SOL    HW143080   2.982   8.913   2.594  0.7169 -1.8343 -1.5635
10717SOL    HW243081   3.105   8.959   2.691 -1.1414 -1.1333  0.4824
10718SOL     OW43082   4.166   3.293   5.581  0.5238 -0.1603  0.7763
10718SOL    HW143083   4.256   3.288   5.625  0.7699 -1.4868  0.1631
10718SOL    HW243084   4.095   3.296   5.650  0.9677 -0.9254  1.2769
10719SOL     OW43085   0.286   7.440   4.377  0.6459 -0.4459 -0.3252
10719SOL    HW143086   0.251   7.534   4.383 -1.0500 -1.0801  0.0905
10719SOL    HW243087   0.367   7.431   4.435  0.9606  0.8240 -0.5536
10720SOL     OW43088   8.736   0.196   5.045 -0.0226 -0.1649 -0.3366
10720SOL    HW143089   8.816   0.195   5.105  0.3146  2.2704 -0.7093
10720SOL    HW243090   8.763   0.165   4.953  0.4886  0.5966 -0.4454
10721SOL     OW43091   9.175   9.467   3.748  0.1292 -0.1895 -0.8921
10721SOL    HW143092   9.119   9.464   3.665  0.4656  0.7168 -1.1623
10721SOL    HW243093   9.172   9.559   3.787  1.1339 -0.2265 -0.7132
10722SOL     OW43094   4.638   8.187   2.843 -0.1913  0.1984 -0.0295
10722SOL    HW143095   4.622   8.092   2.868 -1.4173  0.8382  1.7306
10722SOL    HW243096   4.554   8.225   2.803 -0.0531  0.8527  0.3010
10723SOL     OW43097   1.047   5.274   1.164  0.3085 -0.1858  0.4834
10723SOL    HW143098   1.118   5.205   1.171 -0.3700 -0.9032  0.4017
10723SOL    HW243099   1.088   5.365   1.159  1.2527 -0.6644 -0.6884
10724SOL     OW43100   8.513   6.922   0.763 -0.0228 -0.2439 -0.2555
10724SOL    HW143101   8.558   6.901   0.850  1.1584  0.8938 -0.5841
10724SOL    HW243102   8.419   6.952   0.781  0.1916 -0.0840  0.6235
10725SOL     OW43103   3.850   9.810   2.923 -0.0719 -0.1049 -0.7412
10725SOL    HW143104   3.876   9.879   2.855  1.0519  1.3384  1.0773
10725SOL    HW243105   3.926   9.798   2.988 -1.2160 -1.2516  0.4048
10726SOL     OW43106   0.026   3.347   3.572  0.2129 -0.3003  0.2898
10726SOL    HW143107   0.125   3.346   3.589  0.4451 -0.3990 -1.0263
10726SOL    HW243108  -0.008   3.253   3.572  0.0022 -0.2329  1.3435
10727SOL     OW43109   7.515   1.132   4.947 -0.1098 -0.1822  0.3980
10727SOL    HW143110   7.545   1.227   4.958  2.0319 -0.8957  1.0964
10727SOL    HW243111   7.423   1.130   4.909 -0.5581  2.1919  1.2640
10728SOL     OW43112   1.965   9.138   1.346 -0.3871 -0.4938  0.1136
10728SOL    HW143113   2.023   9.171   1.420 -0.6559  1.2816 -0.4330
10728SOL    HW243114   1.872   9.175   1.357 -0.2063  0.5182 -1.5652
10729SOL     OW43115   7.657   3.443   0.682  0.4618  0.2648 -0.3034
10729SOL    HW143116   7.579   3.445   0.619 -1.2706  0.8406  1.7911
10729SOL    HW243117   7.692   3.536   0.694 -0.8124  0.5583  1.4435
10730SOL     OW43118   0.200   0.607   5.464 -0.4646 -0.3079 -0.0813
10730SOL    HW143119   0.275   0.660   5.424 -0.1660 -0.7491 -0.1145
10730SOL    HW243120   0.231   0.513   5.479 -0.1082  0.1735  2.4783
10731SOL     OW43121   2.191   9.024   4.924  0.2617  0.9110  0.0261
10731SOL    HW143122   2.152   8.988   4.840 -1.2747 -1.6553  1.7751
10731SOL    HW243123   2.149   9.112   4.945 -2.7326 -0.5883  0.4910
10732SOL     OW43124   2.152   6.040   1.625  0.4115  0.1308  0.5041
10732SOL    HW143125   2.249   6.051   1.604  0.3830 -1.1888 -0.3349
10732SOL    HW243126   2.101   6.023   1.540 -0.4024 -0.2556  1.0646
10733SOL     OW43127   7.343   0.370   2.575  0.1542 -0.4070 -0.0368
10733SOL    HW143128   7.312   0.374   2.670  1.4208  2.5970  0.2913
10733SOL    HW243129   7.304   0.289   2.531  1.0018 -2.8694  3.5285
10734SOL     OW43130   0.090   2.222   3.109  0.2251 -0.2483  0.4667
10734SOL    HW143131   0.166   2.273   3.069  0.7118  0.8647  2.7738
10734SOL    HW243132   0.029   2.284   3.157 -1.6044 -1.2750 -0.4454
10735SOL     OW43133   6.586   7.081   3.483 -0.3747 -0.1186  0.7810
10735SOL    HW143134   6.608   7.069   3.580 -0.4631  0.4781  0.8752
10735SOL    HW243135   6.497   7.039   3.465 -0.5651  0.1626  1.0564
10736SOL     OW43136   8.590   0.275   0.193 -0.0016 -0.3266  0.0201
10736SOL    HW143137   8.625   0.319   0.110 -0.7593  0.7297  0.2527
10736SOL    HW243138   8.522   0.335   0.236 -0.0364 -1.1300  1.0863
10737SOL     OW43139   2.062   1.371   4.676  0.0155  0.1856  0.2548
10737SOL    HW143140   1.990   1.312   4.641  0.8931  0.6453 -2.4993
10737SOL    HW243141   2.135   1.315   4.715 -0.2483 -0.4551 -0.1643
10738SOL     OW43142   0.579   8.671   4.289 -0.6291  0.3063 -0.0838
10738SOL    HW143143   0.659   8.718   4.328 -0.8979 -0.0982  0.9822
10738SOL    HW243144   0.584   8.674   4.189  1.1484 -0.4243 -0.0432
10739SOL     OW43145   0.918   9.052   1.111 -0.8923 -0.1023 -0.0478
10739SOL    HW143146   0.899   9.038   1.014  1.9625 -0.5699 -0.5985
10739SOL    HW243147   0.938   8.964   1.154  1.9032  0.4676 -0.0314
10740SOL     OW43148   6.722   0.044   4.248 -0.2035  0.1059 -0.1152
10740SOL    HW143149   6.714  -0.048   4.286  0.0785 -0.1136 -0.5892
10740SOL    HW243150   6.811   0.082   4.273 -1.6500  1.6115  3.0842
10741SOL     OW43151   9.471   3.216   4.783 -0.5312 -0.0686  0.0262
10741SOL    HW143152   9.383   3.217   4.830 -0.1991 -1.8481  0.7250
10741SOL    HW243153   9.511   3.308   4.784 -1.5568  0.3692  1.2623
10742SOL     OW43154   5.352   3.397   1.067 -0.3862  0.3805  0.3540
10742SOL    HW143155   5.435   3.418   1.016  0.3913 -0.0616  1.4081
10742SOL    HW243156   5.312   3.483   1.101 -1.0988  0.7020 -1.2595
10743SOL     OW43157   9.347   3.592   5.339 -0.3072  0.4344  0.0175
10743SOL    HW143158   9.317   3.631   5.426 -0.2288  1.5947 -0.4707
10743SOL    HW243159   9.379   3.498   5.354 -0.8785  0.4069  1.1301
10744SOL     OW43160   8.635   9.494   5.324 -0.0913 -0.1936 -0.3478
10744SOL    HW143161   8.716   9.507   5.267  1.5328  1.1317  2.1641
10744SOL    HW243162   8.559   9.548   5.287  0.4653 -0.5790 -2.1012
10745SOL     OW43163   3.869   2.355   3.889 -1.2006 -0.8537  0.1358
10745SOL    HW143164   3.873   2.444   3.935  0.1979 -1.8626  2.0660
10745SOL    HW243165   3.961   2.316   3.886 -1.5501 -1.5950 -2.0539
10746SOL     OW43166   1.431   5.232   4.253 -0.5222 -0.6928  0.2891
10746SOL    HW143167   1.343   5.192   4.276 -1.9525  0.4912 -2.9111
10746SOL    HW243168   1.491   5.162   4.215 -1.5513 -0.6606 -1.4047
10747SOL     OW43169   8.819   4.609   4.687 -0.0836  0.4111  0.2674
10747SOL    HW143170   8.860   4.537   4.743 -0.6237 -0.4236 -0.3912
10747SOL    HW243171   8.725   4.584   4.665  0.0766  0.7925 -0.8853
10748SOL     OW43172   2.441   3.746   4.198 -0.3032  0.3055  0.0850
10748SOL    HW143173   2.521   3.705   4.154  0.5950  3.8922 -1.8491
10748SOL    HW243174   2.359   3.723   4.146 -0.4159 -2.1911  1.2662
10749SOL     OW43175   6.853   1.101   4.157  0.7550 -0.0167 -0.0188
10749SOL    HW143176   6.904   1.111   4.243 -1.5744 -0.9635  1.5234
10749SOL    HW243177   6.836   1.004   4.139 -3.2638  0.3595  1.2406
10750SOL     OW43178   0.011   9.575   1.262 -0.0280  0.0962  0.2746
10750SOL    HW143179  -0.076   9.604   1.222  0.1572 -0.4822 -0.5544
10750SOL    HW243180   0.081   9.572   1.191 -0.4187 -4.0267 -0.0243
10751SOL     OW43181   0.741   9.921   4.436 -0.1742 -0.0447  0.0159
10751SOL    HW143182   0.751   9.947   4.531  0.7955 -0.4205  0.0184
10751SOL    HW243183   0.818   9.955   4.383 -0.9391  0.5721 -0.7313
10752SOL     OW43184   8.957   1.154   4.338 -0.3337  0.1407  0.0754
10752SOL    HW143185   9.038   1.202   4.372 -0.5732  0.8859 -0.3745
10752SOL    HW243186   8.957   1.157   4.238 -1.2586  0.7381  0.0911
10753SOL     OW43187   0.334   2.595   1.814  0.3224 -0.7159 -0.0881
10753SOL    HW143188   0.324   2.579   1.716  1.9654 -0.0060 -0.3897
10753SOL    HW243189   0.423   2.561   1.844  0.1150 -0.2891  1.0330
10754SOL     OW43190   8.067   2.265   3.424 -0.5118 -0.3234 -0.1040
10754SOL    HW143191   7.996   2.252   3.355  0.3787  1.5142 -1.4231
10754SOL    HW243192   8.140   2.198   3.410 -0.6511 -0.3895 -0.5351
10755SOL     OW43193   7.004   1.511   2.088 -0.0308  0.8509 -0.3583
10755SOL    HW143194   7.009   1.427   2.033 -0.2960  0.4691  0.1875
10755SOL    HW243195   6.910   1.546   2.087  0.2499  1.5851 -1.2304
10756SOL     OW43196   6.497   0.868   1.223  0.1707 -0.7709 -0.1391
10756SOL    HW143197   6.502   0.820   1.135 -1.8181 -0.3407 -0.4930
10756SOL    HW243198   6.402   0.889   1.245  0.6362 -0.9396  2.1636
10757SOL     OW43199   9.848   7.425   1.836 -0.4076  0.2795 -0.3323
10757SOL    HW143200   9.774   7.462   1.780  0.1851 -0.6060 -1.7367
10757SOL    HW243201   9.929   7.410   1.778  0.7255  0.8104  1.0773
10758SOL     OW43202   4.123   8.288   0.560 -0.2205  0.1223  0.1810
10758SOL    HW143203   4.205   8.339   0.535  0.1639 -1.0217 -0.9863
10758SOL    HW243204   4.047   8.316   0.500  0.2772 -1.4395 -1.2156
10759SOL     OW43205   2.261   3.949   1.186  0.1647  0.5395  0.1267
10759SOL    HW143206   2.222   3.944   1.095  2.0066 -1.0255 -0.6078
10759SOL    HW243207   2.263   3.857   1.227  1.3813  0.8783  0.8535
10760SOL     OW43208   2.823   4.256   3.517  0.4742  0.2091 -0.3118
10760SOL    HW143209   2.730   4.253   3.480 -0.0815  1.8170  0.9158
10760SOL    HW243210   2.819   4.246   3.616  1.6132  0.5024 -0.2379
10761SOL     OW43211   7.439   9.526   3.709 -0.2236 -0.0217 -0.3587
10761SOL    HW143212   7.534   9.549   3.687 -0.6651  2.2478 -0.0353
10761SOL    HW243213   7.387   9.517   3.624 -0.0012  0.0563 -0.5037
10762SOL     OW43214   4.442   2.832   1.335 -0.1448 -0.5465  0.2495
10762SOL    HW143215   4.372   2.837   1.406  0.6450 -1.7327  1.1153
10762SOL    HW243216   4.450   2.738   1.302 -0.6407  0.0293 -1.5562
10763SOL     OW43217   8.542   8.019   0.039 -0.3060 -0.9043  0.2398
10763SOL    HW143218   8.443   8.029   0.052 -0.3200 -0.9059  0.1348
10763SOL    HW243219   8.560   7.940  -0.019 -0.2415 -0.9131  0.2712
10764SOL     OW43220   9.791   7.036   5.642 -0.0003 -0.1863  0.1899
10764SOL    HW143221   9.760   7.013   5.550 -0.8439 -1.7431  0.8582
10764SOL    HW243222   9.830   7.128   5.641 -1.8239  0.6188 -1.3140
10765SOL     OW43223   2.073   3.928   0.996  0.5133  0.2620 -0.1565
10765SOL    HW143224   2.064   4.010   0.941 -0.3051 -0.5474 -1.2510
10765SOL    HW243225   1.998   3.923   1.062 -0.2528 -0.3163 -1.0561
10766SOL     OW43226   4.538   7.056   2.873 -0.0189  0.2379  0.8143
10766SOL    HW143227   4.440   7.065   2.853  0.3130  1.0820 -0.5060
10766SOL    HW243228   4.569   6.966   2.842 -0.2601  0.1874  0.7125
10767SOL     OW43229   7.980   2.552   2.111 -0.4958 -0.0292  0.1971
10767SOL    HW143230   7.946   2.541   2.205  0.2746 -2.0755  0.2629
10767SOL    HW243231   7.924   2.499   2.048  2.6508 -3.8884  0.3739
10768SOL     OW43232   2.724   6.723   4.289  0.0228  0.7966  0.1797
10768SOL    HW143233   2.641   6.770   4.319 -0.5229 -1.1399  1.8482
10768SOL    HW243234   2.800   6.749   4.349 -0.5619 -1.3468  1.9080
10769SOL     OW43235   9.411   3.778   0.977 -0.1709  0.1061  0.0227
10769SOL    HW143236   9.404   3.717   0.899  1.5350 -1.8046  1.3207
10769SOL    HW243237   9.500   3.824   0.975 -0.2985  0.3799  0.6057
10770SOL     OW43238   8.668   8.196   4.927  0.0145  0.0694  0.2180
10770SOL    HW143239   8.759   8.221   4.895 -0.8110  0.7803 -1.6378
10770SOL    HW243240   8.676   8.132   5.004  2.0655  0.7883  0.6316
10771SOL     OW43241   8.849   7.354   5.094  0.0787  0.8469 -0.3036
10771SOL    HW143242   8.862   7.447   5.127  1.4992  0.2713  0.8019
10771SOL    HW243243   8.826   7.294   5.171  1.9889 -0.2371 -0.5440
10772SOL     OW43244   0.565   6.068   1.249 -0.2233 -0.4653 -0.6031
10772SOL    HW143245   0.587   6.035   1.341  0.3251  1.9680  0.1678
10772SOL    HW243246   0.630   6.031   1.183  1.7094  0.7795  0.5742
10773SOL     OW43247   8.457   7.701   3.863  0.0925  0.2067 -0.4019
10773SOL    HW143248   8.421   7.608   3.870  0.7148 -0.0665 -0.7371
10773SOL    HW243249   8.468   7.725   3.766  0.1034  0.5612 -0.3133
10774SOL     OW43250   0.163   6.630   3.752  0.1178 -0.6604 -0.0811
10774SOL    HW143251   0.182   6.560   3.683 -0.4117 -0.2037 -0.7010
10774SOL    HW243252   0.248   6.671   3.783  0.4497 -1.7374  0.4570
10775SOL     OW43253   0.411   1.112   3.300  0.0592  0.1764  0.1890
10775SOL    HW143254   0.459   1.180   3.355  0.3914  0.0142  0.0953
10775SOL    HW243255   0.465   1.089   3.219  0.0271 -0.3341  0.3091
10776SOL     OW43256   9.167   9.630   2.596  0.3206 -0.2774  0.2473
10776SOL    HW143257   9.067   9.628   2.591  0.1851  2.8586  0.1489
10776SOL    HW243258   9.194   9.697   2.666  2.3185  1.9434 -2.5588
10777SOL     OW43259   9.833   1.149   3.733 -0.2229 -0.2349 -0.4540
10777SOL    HW143260   9.771   1.097   3.791  0.9300 -0.5019  0.5716
10777SOL    HW243261   9.811   1.133   3.637 -2.2925  0.3882 -0.1096
10778SOL     OW43262   9.665   0.956   2.639 -0.2050  0.1199  0.5204
10778SOL    HW143263   9.705   0.952   2.547 -0.6974  0.5484  0.2852
10778SOL    HW243264   9.731   0.994   2.703  0.2594 -0.4958  0.4073
10779SOL     OW43265   3.406   6.526   4.203  0.1646 -0.2624 -0.1373
10779SOL    HW143266   3.496   6.483   4.198  0.5886  0.6478 -0.3703
10779SOL    HW243267   3.355   6.489   4.281  2.1889  1.9906  2.3388
10780SOL     OW43268   1.610   3.285   1.923 -0.4387  0.2536  0.6390
10780SOL    HW143269   1.540   3.304   1.854  0.5093  0.9065 -0.1610
10780SOL    HW243270   1.606   3.354   1.995  0.3198  1.1189 -0.1475
10781SOL     OW43271   3.791   1.499   2.619  0.0606 -0.4220  0.3785
10781SOL    HW143272   3.767   1.410   2.658 -2.4409 -0.2824 -0.7924
10781SOL    HW243273   3.732   1.519   2.541  1.4142  1.7262 -0.1472
10782SOL     OW43274   9.607   7.545   2.339  0.0845  0.1743 -0.1316
10782SOL    HW143275   9.556   7.475   2.288  0.9352 -0.4420 -0.1617
10782SOL    HW243276   9.644   7.504   2.423  1.0091  0.4539 -0.3953
10783SOL     OW43277   1.694   4.728   4.736  0.0789  0.5739 -0.0216
10783SOL    HW143278   1.703   4.812   4.790 -0.8417  0.4117  0.3897
10783SOL    HW243279   1.745   4.738   4.651  0.0788  1.5091  0.0804
10784SOL     OW43280   8.327   1.552   0.813 -0.0339 -0.0497 -0.0737
10784SOL    HW143281   8.356   1.536   0.719 -0.0877  1.0104 -0.2790
10784SOL    HW243282   8.387   1.503   0.876  1.8349  1.5988 -0.5193
10785SOL     OW43283   8.888   6.960   5.077  0.5825  0.6939  0.4265
10785SOL    HW143284   8.944   7.032   5.037  1.5043 -0.9474 -1.3161
10785SOL    HW243285   8.801   6.954   5.028  1.2714 -0.6001 -0.6658
10786SOL     OW43286   2.893   1.860   2.671 -0.3074  0.2293 -0.7671
10786SOL    HW143287   2.861   1.784   2.728 -1.4077 -0.8681 -2.7752
10786SOL    HW243288   2.855   1.945   2.705  1.2221 -0.0422  1.7318
10787SOL     OW43289   3.138   1.758   1.592  0.0969 -0.0512 -0.6069
10787SOL    HW143290   3.218   1.702   1.610 -1.1615 -1.8600 -0.5868
10787SOL    HW243291   3.164   1.855   1.595  1.4272 -0.4792  3.4226
10788SOL     OW43292   2.620   0.578   3.039 -0.1807  0.0406  0.3211
10788SOL    HW143293   2.607   0.572   2.940 -1.7671 -1.4168  0.5992
10788SOL    HW243294   2.642   0.488   3.076  0.9237  0.6719  1.2461
10789SOL     OW43295   4.402   3.090   1.277 -0.2109 -0.2886 -0.0738
10789SOL    HW143296   4.399   3.107   1.178 -1.3869 -1.3661 -0.2239
10789SOL    HW243297   4.393   2.992   1.295 -2.7067  0.1311  1.2053
10790SOL     OW43298   6.450   3.913   0.290 -0.1252  0.3391 -0.8722
10790SOL    HW143299   6.462   3.815   0.305 -1.1385 -0.2417 -3.5432
10790SOL    HW243300   6.539   3.959   0.292  0.2765 -0.4870  1.1629
10791SOL     OW43301   0.136   2.447   1.960 -0.6375  0.1821  0.8337
10791SOL    HW143302   0.064   2.485   2.018 -3.1659 -1.3258 -1.1761
10791SOL    HW243303   0.196   2.520   1.928 -0.1835  1.2410  3.9449
10792SOL     OW43304   2.649   7.507   2.034 -0.3196  0.4044  0.9672
10792SOL    HW143305   2.743   7.526   2.062  0.0894  0.4603 -0.3977
10792SOL    HW243306   2.615   7.584   1.980 -0.1661 -0.8036 -0.9154
10793SOL     OW43307   1.506   0.543   3.270 -0.2884 -0.5127 -0.2632
10793SOL    HW143308   1.517   0.481   3.192 -0.7763 -0.1122 -0.6577
10793SOL    HW243309   1.411   0.539   3.302  0.0485 -1.1149  0.6903
10794SOL     OW43310   7.660   6.697   2.563  0.1745 -0.0751 -0.3201
10794SOL    HW143311   7.644   6.599   2.576 -0.2105  0.1240  0.8343
10794SOL    HW243312   7.572   6.745   2.561  0.3589  0.2415 -0.9257
10795SOL     OW43313   0.245   7.363   1.149  0.1701 -0.2524 -1.0803
10795SOL    HW143314   0.326   7.316   1.185 -2.2222 -1.7686  2.6119
10795SOL    HW243315   0.174   7.296   1.127 -1.6655  1.2900 -0.0135
10796SOL     OW43316   8.906   4.549   4.131 -0.2938 -0.3692 -0.0193
10796SOL    HW143317   8.837   4.478   4.141 -1.5630  0.6306 -1.5253
10796SOL    HW243318   8.863   4.633   4.100  1.4928  0.4725 -0.2645
10797SOL     OW43319   4.388   4.342   2.711  0.8077  0.1450 -0.7146
10797SOL    HW143320   4.413   4.385   2.798 -1.3714 -0.3879  0.2222
10797SOL    HW243321   4.308   4.388   2.673  0.5423 -0.8841 -1.4383
10798SOL     OW43322   6.572   7.847   4.258 -1.0868  0.3478  0.6605
10798SOL    HW143323   6.561   7.832   4.356  0.4756  0.6731  0.9025
10798SOL    HW243324   6.504   7.794   4.208 -0.5397 -1.5066  1.8430
10799SOL     OW43325   2.615   9.078   5.150  0.1573 -0.4754  0.5460
10799SOL    HW143326   2.636   9.044   5.242  0.7995 -2.2461 -0.2296
10799SOL    HW243327   2.699   9.084   5.097 -0.2644  0.1812 -0.0564
10800SOL     OW43328   7.928   2.446   2.617  0.2886 -0.3567 -0.0678
10800SOL    HW143329   7.975   2.371   2.570  0.7915  0.4802 -0.8904
10800SOL    HW243330   7.993   2.495   2.675  0.1094 -0.1151 -0.0704
10801SOL     OW43331   7.783   4.010   0.471  0.3631  0.5912 -0.4526
10801SOL    HW143332   7.717   4.046   0.405  0.3840 -0.7280 -1.1963
10801SOL    HW243333   7.748   3.926   0.511  0.5976  1.0947  0.8280
10802SOL     OW43334   9.053   8.072   3.078  0.1066  0.6299 -0.3920
10802SOL    HW143335   8.958   8.094   3.102 -0.1198  0.4175 -1.0947
10802SOL    HW243336   9.107   8.066   3.162 -0.9000 -1.1553  0.1512
10803SOL     OW43337   9.747   9.644   0.080  0.4418 -0.4081 -0.2454
10803SOL    HW143338   9.755   9.698  -0.004  0.9973  1.9445  1.2733
10803SOL    HW243339   9.823   9.579   0.085  1.0722  0.2666 -0.9651
10804SOL     OW43340   6.103   0.458   1.299  0.0308 -0.3110 -0.4230
10804SOL    HW143341   6.066   0.528   1.239  0.8086  0.3515 -0.1378
10804SOL    HW243342   6.034   0.431   1.366  0.1687  1.1897  0.3504
10805SOL     OW43343   2.984   3.064   4.546  0.0461 -0.6589 -0.3534
10805SOL    HW143344   2.907   3.000   4.549  0.4595 -1.1024  1.1859
10805SOL    HW243345   2.971   3.136   4.614  0.4715 -0.1139 -0.8375
10806SOL     OW43346   8.077   4.514   0.833  0.1188  0.0086  0.0992
10806SOL    HW143347   8.143   4.546   0.765  0.6389  0.9207  1.0147
10806SOL    HW243348   8.023   4.591   0.867 -0.7425 -0.5803  0.0705
10807SOL     OW43349   2.402   7.598   5.456  0.3732  0.2462 -0.0112
10807SOL    HW143350   2.331   7.666   5.436 -0.3420 -0.0919  1.3679
10807SOL    HW243351   2.478   7.642   5.503  0.1202  0.1735  0.4593
10808SOL     OW43352   9.111   3.877   0.774 -0.5902  0.5414 -0.2504
10808SOL    HW143353   9.043   3.853   0.704 -0.0627  0.2797 -0.6785
10808SOL    HW243354   9.149   3.794   0.814  0.4375  0.6607 -0.9487
10809SOL     OW43355   2.807   6.901   0.883  0.4966 -0.1261  0.8577
10809SOL    HW143356   2.877   6.965   0.917  2.4902 -2.2079  0.8201
10809SOL    HW243357   2.838   6.862   0.797 -1.3363 -0.1353  0.1921
10810SOL     OW43358   8.117   0.383   4.463 -0.6244 -0.0619  0.2029
10810SOL    HW143359   8.033   0.434   4.483  0.1531  1.0929  0.5527
10810SOL    HW243360   8.112   0.347   4.370 -1.1200  0.7894 -0.1022
10811SOL     OW43361   1.776   0.164   3.976 -0.3040 -0.4127  0.0244
10811SOL    HW143362   1.744   0.249   4.017 -1.2719 -1.0911  0.7033
10811SOL    HW243363   1.841   0.185   3.903 -0.8882  0.9287 -0.1344
10812SOL     OW43364   1.682   6.715   3.756  0.1204 -0.3996 -0.2339
10812SOL    HW143365   1.746   6.638   3.761 -0.4676 -0.7903  2.3237
10812SOL    HW243366   1.700   6.768   3.674  0.8060 -3.0351 -1.8517
10813SOL     OW43367   2.696   2.306   0.261 -0.5485  0.7318  0.3683
10813SOL    HW143368   2.673   2.288   0.165 -2.7588  1.4731  0.7322
10813SOL    HW243369   2.792   2.332   0.267 -0.3847  0.7324 -1.6587
10814SOL     OW43370   7.062   8.653   3.929  0.0255 -0.1523 -0.0731
10814SOL    HW143371   7.073   8.731   3.868  2.9432  1.2708  2.1487
10814SOL    HW243372   6.988   8.671   3.994  0.3635  0.5779  0.1162
10815SOL     OW43373   6.802   0.834   4.723  0.1397  0.4592 -0.1581
10815SOL    HW143374   6.890   0.787   4.723  0.2846  0.7073 -1.2916
10815SOL    HW243375   6.774   0.854   4.817  0.4023 -1.2683  0.3022
10816SOL     OW43376   8.594   0.198   1.450 -0.0317 -0.5355 -0.3333
10816SOL    HW143377   8.504   0.229   1.481 -0.2441 -1.6625  0.1933
10816SOL    HW243378   8.592   0.100   1.433  0.9135 -0.4492 -0.9992
10817SOL     OW43379   5.879   8.461   2.612  0.0643  0.1397 -0.2950
10817SOL    HW143380   5.822   8.390   2.652  0.9677 -1.2204 -1.3436
10817SOL    HW243381   5.952   8.419   2.558  0.3014  1.8707 -1.3966
10818SOL     OW43382   7.751   8.831   5.059  0.0569  0.4673 -0.2210
10818SOL    HW143383   7.718   8.917   5.020 -1.3898  0.1493  0.2452
10818SOL    HW243384   7.716   8.822   5.152  0.7344 -0.3271 -0.0443
10819SOL     OW43385   8.209   5.173   1.120 -0.1809  0.4171  0.2927
10819SOL    HW143386   8.120   5.155   1.161  0.2395 -2.8241 -0.1063
10819SOL    HW243387   8.274   5.200   1.192 -0.8420  0.2597  0.9517
10820SOL     OW43388   0.550   6.333   1.270  1.2053 -0.5228 -0.7451
10820SOL    HW143389   0.565   6.392   1.190  0.2766 -1.5887 -1.7300
10820SOL    HW243390   0.534   6.239   1.239  2.3334 -1.2373  0.7843
10821SOL     OW43391   0.517   3.585   4.526  0.2301 -0.2550  0.9353
10821SOL    HW143392   0.470   3.553   4.607  1.3602 -0.4233  1.5272
10821SOL    HW243393   0.520   3.512   4.457  0.2813 -0.4791  1.1764
10822SOL     OW43394   4.187   9.623   3.824 -0.1220  0.5845  0.3952
10822SOL    HW143395   4.124   9.567   3.878 -0.5682  0.7475  0.0523
10822SOL    HW243396   4.140   9.655   3.741  0.7159 -0.0857 -0.3512
10823SOL     OW43397   1.794   4.875   0.478 -0.5195  0.1049  0.3906
10823SOL    HW143398   1.857   4.940   0.520 -1.0896  1.0703 -0.2385
10823SOL    HW243399   1.700   4.900   0.501 -0.7482 -0.4086  0.0158
10824SOL     OW43400   1.959   1.045   3.755  0.7470  0.2834  0.1586
10824SOL    HW143401   2.040   0.999   3.789 -0.2750 -1.1790  0.6742
10824SOL    HW243402   1.896   1.063   3.831  0.6461  1.5349 -0.2096
10825SOL     OW43403   4.709   9.226   3.533  0.0569 -0.3013  0.1337
10825SOL    HW143404   4.742   9.136   3.562  1.7036  0.4678  0.6952
10825SOL    HW243405   4.778   9.295   3.552  0.6789  0.4885 -4.3535
10826SOL     OW43406   3.493   4.087   0.241  0.6607 -0.7221  0.2957
10826SOL    HW143407   3.463   4.143   0.163  0.8485 -0.8463  0.1324
10826SOL    HW243408   3.546   4.009   0.207  1.0615 -0.5713  0.5760
10827SOL     OW43409   8.543   2.057   2.724  0.4751  0.0520 -0.3946
10827SOL    HW143410   8.458   2.007   2.705  0.1119  0.8684 -0.9230
10827SOL    HW243411   8.523   2.136   2.782  0.7140  0.8519 -1.4063
10828SOL     OW43412   3.219   3.019   2.513  0.2363  0.0727  0.3608
10828SOL    HW143413   3.181   3.085   2.578 -1.2753  1.0847 -1.5052
10828SOL    HW243414   3.153   3.002   2.440  1.5864 -1.6647 -0.5058
10829SOL     OW43415   5.189   8.818   2.085  0.0879 -0.0753  0.5250
10829SOL    HW143416   5.168   8.730   2.042 -1.0482 -0.0141  0.9138
10829SOL    HW243417   5.271   8.809   2.141  0.2089 -0.7875  0.2414
10830SOL     OW43418   9.435   4.288   1.315  0.3345 -0.4845  0.5027
10830SOL    HW143419   9.534   4.301   1.311  0.2606  0.1611  0.7323
10830SOL    HW243420   9.390   4.376   1.328 -0.2237 -0.8736  1.2856
10831SOL     OW43421   0.465   4.534   2.485  0.1458  0.1670  0.3255
10831SOL    HW143422   0.379   4.533   2.534 -0.0271 -0.1993  0.0148
10831SOL    HW243423   0.514   4.449   2.501  0.2527  0.1953  0.1513
10832SOL     OW43424   8.195   2.032   1.334  0.3785 -0.1366  0.2591
10832SOL    HW143425   8.170   1.939   1.309  0.6100  0.2420 -1.4465
10832SOL    HW243426   8.113   2.087   1.345  0.2540 -0.4499  0.9125
10833SOL     OW43427   2.366   4.555   4.332  0.1536  0.0796 -0.6250
10833SOL    HW143428   2.357   4.622   4.405  0.3475 -0.9907  0.3864
10833SOL    HW243429   2.449   4.572   4.280  2.0429 -1.4341  1.7820
10834SOL     OW43430   8.342   5.653   5.300  0.1945 -0.1472  0.9465
10834SOL    HW143431   8.427   5.686   5.257 -3.2538  2.9003 -4.0866
10834SOL    HW243432   8.298   5.728   5.348 -1.2834 -0.8844  0.7585
10835SOL     OW43433   2.153   0.608   1.188 -0.2338 -0.1843 -0.3991
10835SOL    HW143434   2.178   0.682   1.251 -0.3588  0.8893 -1.6060
10835SOL    HW243435   2.234   0.577   1.139 -0.5379  0.4994 -1.3327
10836SOL     OW43436   0.823   1.064   4.402  0.2062 -0.2872 -0.1413
10836SOL    HW143437   0.783   1.150   4.369 -0.5336 -0.5259  0.1264
10836SOL    HW243438   0.760   0.989   4.385  0.5740 -0.6814  0.2210
10837SOL     OW43439   1.103   4.204   4.861 -0.0144  0.0658  0.1777
10837SOL    HW143440   1.015   4.246   4.882 -0.0305  0.4479 -0.6551
10837SOL    HW243441   1.141   4.245   4.778  0.6190 -0.5898  0.1392
10838SOL     OW43442   9.840   6.709   2.007 -0.1593 -0.0945 -0.0717
10838SOL    HW143443   9.932   6.741   2.029 -0.0883  0.0168 -0.5201
10838SOL    HW243444   9.773   6.770   2.050 -0.0225 -0.0355  0.0591
10839SOL     OW43445   1.903   5.959   3.471 -0.1545 -0.6387  0.0744
10839SOL    HW143446   1.887   6.054   3.445 -2.7825 -1.2131 -0.5302
10839SOL    HW243447   1.919   5.905   3.389  1.7762 -0.6800  0.4466
10840SOL     OW43448   5.269   0.283   3.275  0.0133  0.1134 -0.5047
10840SOL    HW143449   5.215   0.216   3.225 -1.3283 -0.1366  1.2410
10840SOL    HW243450   5.274   0.368   3.222 -0.7205 -0.4056 -1.4155
10841SOL     OW43451   1.525   1.971   3.828  0.0459 -0.4783 -0.1533
10841SOL    HW143452   1.442   2.023   3.850 -1.2308 -2.6813  0.4636
10841SOL    HW243453   1.501   1.874   3.817  2.6900 -1.3145  1.0482
10842SOL     OW43454   3.749   9.574   0.635  0.2062 -0.4158  0.1929
10842SOL    HW143455   3.746   9.479   0.602  0.4052 -0.2543 -0.2886
10842SOL    HW243456   3.701   9.633   0.570  1.0645 -0.0158 -0.0758
10843SOL     OW43457   4.431   9.691   0.096 -0.1990 -0.2200  0.3810
10843SOL    HW143458   4.343   9.684   0.144  1.1376  0.2811  2.9963
10843SOL    HW243459   4.438   9.781   0.053 -1.0917 -0.3811 -0.1172
10844SOL     OW43460   0.696   6.481   3.260  0.2817 -0.1664 -0.6926
10844SOL    HW143461   0.684   6.506   3.356  0.2345 -0.2392 -0.6794
10844SOL    HW243462   0.621   6.421   3.231 -0.0201  0.3284 -0.9393
10845SOL     OW43463   0.502   8.933   1.126 -0.1624 -0.2906  0.2563
10845SOL    HW143464   0.504   8.988   1.042  0.7898  0.6757  0.8999
10845SOL    HW243465   0.588   8.884   1.137 -0.6058 -1.0725  0.2386
10846SOL     OW43466   2.225   7.762   5.360  0.5170 -0.2673  0.5693
10846SOL    HW143467   2.182   7.836   5.411 -1.1131  1.5270 -3.1433
10846SOL    HW243468   2.297   7.800   5.302  1.0321 -1.9057  0.1171
10847SOL     OW43469   3.686   8.140   2.984 -0.1230 -0.3015  0.2800
10847SOL    HW143470   3.694   8.059   3.042  2.2552  0.4677  1.0893
10847SOL    HW243471   3.774   8.188   2.981 -1.4114  2.1077 -0.4114
10848SOL     OW43472   2.687   7.169   2.535 -0.2829  0.0712 -0.2342
10848SOL    HW143473   2.592   7.136   2.533  0.0621 -0.9082 -1.8982
10848SOL    HW243474   2.694   7.254   2.484 -0.3647  0.4563  0.3886
10849SOL     OW43475   8.415   0.379   3.061 -0.3670  0.2897  0.0467
10849SOL    HW143476   8.479   0.384   3.138 -1.0744 -1.2489  0.7674
10849SOL    HW243477   8.364   0.465   3.055  0.6304  0.9155  0.4795
10850SOL     OW43478   9.548   3.888   2.739  0.3256  0.2464 -0.7312
10850SOL    HW143479   9.455   3.862   2.716  0.4068 -0.9849  0.2929
10850SOL    HW243480   9.611   3.850   2.672  0.1016  1.1524 -1.4737
10851SOL     OW43481   1.690   5.300   3.516  0.0833  0.1773 -0.1069
10851SOL    HW143482   1.673   5.376   3.578  1.1632  0.3203  0.0125
10851SOL    HW243483   1.604   5.275   3.471 -0.9206 -0.5254  2.1025
10852SOL     OW43484   2.251   8.434   4.477  0.6082  0.1936  0.3684
10852SOL    HW143485   2.164   8.461   4.436  0.3229 -0.4358  0.5636
10852SOL    HW243486   2.283   8.508   4.536 -0.8225 -0.3933  1.9159
10853SOL     OW43487   3.396   8.737   3.052  0.1524  0.0717 -0.1847
10853SOL    HW143488   3.397   8.809   3.121 -0.0300 -0.2457  0.1488
10853SOL    HW243489   3.406   8.648   3.096 -1.4471 -0.2486 -0.4291
10854SOL     OW43490   5.395   8.763   1.697  0.0038  0.2348  0.6235
10854SOL    HW143491   5.478   8.754   1.751  0.7292 -1.0820 -0.6753
10854SOL    HW243492   5.419   8.790   1.603 -0.9627 -1.0555 -0.0072
10855SOL     OW43493   0.032   3.033   1.042 -0.1986  0.0249  0.6764
10855SOL    HW143494   0.110   3.081   1.000  0.4188  0.3228  2.1357
10855SOL    HW243495   0.028   3.055   1.139 -1.4954 -0.8244  0.8250
10856SOL     OW43496   3.731   0.478   2.866 -0.4402  0.7002 -0.1881
10856SOL    HW143497   3.716   0.562   2.814 -0.4306  1.3617  0.8552
10856SOL    HW243498   3.781   0.413   2.810  0.1073  1.6284 -0.7975
10857SOL     OW43499   0.985   5.679   3.687 -0.0990  0.2614 -0.0310
10857SOL    HW143500   0.962   5.759   3.743 -1.5387  1.5727 -2.4080
10857SOL    HW243501   1.061   5.700   3.626 -0.2777 -0.2797 -0.4510
10858SOL     OW43502   1.374   2.251   3.471 -0.5601  0.0171  0.1748
10858SOL    HW143503   1.351   2.319   3.541 -0.5519 -0.7217  0.8891
10858SOL    HW243504   1.459   2.206   3.496  0.5124  1.1615 -1.3300
10859SOL     OW43505   0.917   6.316   4.196  0.0605  0.6090  0.2131
10859SOL    HW143506   0.856   6.321   4.116 -0.7002  1.6570  0.8368
10859SOL    HW243507   0.920   6.223   4.231  0.2964  0.1670 -0.9569
10860SOL     OW43508   5.818   8.990   2.911  0.1142 -0.0559  0.2357
10860SOL    HW143509   5.804   9.070   2.970 -0.6797  0.6034 -0.8180
10860SOL    HW243510   5.748   8.921   2.930 -1.2572  0.9080 -1.1516
10861SOL     OW43511   2.605   2.185   4.440 -0.1529  0.5726  0.1232
10861SOL    HW143512   2.534   2.203   4.508  1.2856  5.8356  0.4390
10861SOL    HW243513   2.682   2.137   4.483 -1.2296 -0.3771  1.0199
10862SOL     OW43514   1.565   1.871   5.051  0.6967 -0.0484  0.2253
10862SOL    HW143515   1.511   1.840   5.130  0.1214  0.5443  0.0687
10862SOL    HW243516   1.508   1.873   4.969  0.4716  2.1809  0.3824
10863SOL     OW43517   3.177   7.389   2.618  0.0138  0.3672  0.4593
10863SOL    HW143518   3.210   7.481   2.594  0.2704  0.3807  0.8598
10863SOL    HW243519   3.167   7.335   2.535 -0.4742  0.8725  0.1877
10864SOL     OW43520   8.931   4.485   0.085  0.5671  0.0584 -0.5759
10864SOL    HW143521   8.858   4.551   0.069  1.0326  0.0707 -2.6871
10864SOL    HW243522   9.013   4.533   0.118  0.4433  0.3436 -0.6862
10865SOL     OW43523   9.253   9.935   0.804 -0.2055  0.1124  0.1579
10865SOL    HW143524   9.327   9.871   0.822 -0.6840 -0.7166 -0.7752
10865SOL    HW243525   9.288  10.012   0.751  0.0330 -0.1750 -0.1035
10866SOL     OW43526   9.304   2.087   1.866  0.1689  0.0638  0.2489
10866SOL    HW143527   9.250   2.014   1.908  1.7650 -0.8003  0.8037
10866SOL    HW243528   9.302   2.077   1.766 -1.0613  0.3156  0.2354
10867SOL     OW43529   4.072   6.514   1.857  0.6650  0.0910  0.1288
10867SOL    HW143530   4.018   6.566   1.923 -0.2278  0.7476 -1.0956
10867SOL    HW243531   4.068   6.417   1.879 -0.3428  0.2195  0.5422
10868SOL     OW43532   1.479   3.362   0.094 -0.1450 -0.1975 -0.3946
10868SOL    HW143533   1.403   3.303   0.123 -0.6648  0.0963 -1.1524
10868SOL    HW243534   1.565   3.312   0.106 -0.4589 -0.5486  0.4281
10869SOL     OW43535   5.088   6.346   1.994  0.4264  0.3663 -0.4897
10869SOL    HW143536   5.125   6.257   1.969  0.8966  0.3485  0.2835
10869SOL    HW243537   4.996   6.356   1.954 -0.0527 -0.8735  0.2767
10870SOL     OW43538   4.192   9.774   0.612 -0.3197 -0.6337  0.3492
10870SOL    HW143539   4.159   9.804   0.701  1.4828 -0.6282  1.0427
10870SOL    HW243540   4.116   9.739   0.558 -1.9502  2.1561  0.7444
10871SOL     OW43541   7.334   1.111   1.379  0.1399  0.0759 -0.1245
10871SOL    HW143542   7.309   1.096   1.283  0.2739  0.5287 -0.2314
10871SOL    HW243543   7.351   1.023   1.423 -1.0974 -0.2047 -0.1996
10872SOL     OW43544   1.069   5.653   2.065 -0.2745 -0.3364  0.1143
10872SOL    HW143545   1.081   5.724   1.995 -0.3469 -0.3857  0.0505
10872SOL    HW243546   0.971   5.635   2.076 -0.2833 -0.0317  0.5299
10873SOL     OW43547   3.826   4.333   2.014 -0.1627  0.3589  0.0571
10873SOL    HW143548   3.730   4.323   1.989  0.1033 -1.3917 -0.3445
10873SOL    HW243549   3.845   4.281   2.097  0.7827 -0.6436 -0.7733
10874SOL     OW43550   0.402   6.200   5.612  0.2810 -0.0126 -0.1883
10874SOL    HW143551   0.498   6.174   5.618  0.0939 -0.3689  1.5516
10874SOL    HW243552   0.345   6.119   5.601  0.0776  0.0552  0.3080
10875SOL     OW43553   8.523   5.949   5.538 -0.9701  0.0627 -0.5238
10875SOL    HW143554   8.595   5.884   5.514 -0.8915 -0.1157  0.1867
10875SOL    HW243555   8.442   5.899   5.567 -2.2373  0.2102 -3.6910
10876SOL     OW43556   7.254   8.217   3.960  0.3864 -0.3341  0.3001
10876SOL    HW143557   7.187   8.224   4.033  0.6025  0.8564  0.3982
10876SOL    HW243558   7.328   8.283   3.976 -0.1149  0.7182 -1.5537
10877SOL     OW43559   0.348   3.622   0.262 -0.2646 -0.2726  0.1486
10877SOL    HW143560   0.261   3.590   0.224  0.3697  0.2688 -1.8280
10877SOL    HW243561   0.341   3.718   0.286 -0.3514 -0.3587  0.4804
10878SOL     OW43562   8.575   1.790   3.202 -0.3788  0.2524  0.1590
10878SOL    HW143563   8.579   1.759   3.107 -1.0070  0.5065  0.0497
10878SOL    HW243564   8.665   1.826   3.229 -0.2592  0.3866 -0.4094
10879SOL     OW43565   7.726   8.733   4.079 -0.1254  0.5661  0.3033
10879SOL    HW143566   7.656   8.764   4.015 -0.8710  0.1253  0.9031
10879SOL    HW243567   7.692   8.655   4.131  1.0333 -0.0359  0.1712
10880SOL     OW43568   7.561   5.589   4.374 -0.3619  0.0138 -0.1849
10880SOL    HW143569   7.536   5.570   4.279  2.3537 -0.5602 -0.8412
10880SOL    HW243570   7.651   5.549   4.393 -0.3512  1.1240  2.2946
10881SOL     OW43571   3.031   2.303   2.299 -0.1190 -0.2296 -0.7254
10881SOL    HW143572   3.043   2.401   2.282  1.1288 -0.3329 -0.4678
10881SOL    HW243573   2.933   2.281   2.297 -0.7129  1.7288  3.0726
10882SOL     OW43574   2.399   1.954   2.264 -0.3678  0.1372  0.2320
10882SOL    HW143575   2.359   1.941   2.173  0.0272  1.7894 -0.1902
10882SOL    HW243576   2.343   2.019   2.316 -1.0509 -1.4170  1.4766
10883SOL     OW43577   1.547   9.590   4.713 -0.1531 -0.3156  0.2182
10883SOL    HW143578   1.581   9.522   4.648 -0.1905 -0.1619  0.0368
10883SOL    HW243579   1.554   9.681   4.673 -0.0400 -0.2046  0.4885
10884SOL     OW43580   3.764   4.458   3.681  0.8032  0.0342 -0.3185
10884SOL    HW143581   3.740   4.521   3.608 -0.3464  1.2864  1.0970
10884SOL    HW243582   3.845   4.404   3.654  0.5650  0.6570 -2.3575
10885SOL     OW43583   0.717   5.296   0.606 -0.0067  0.6165 -0.4903
10885SOL    HW143584   0.656   5.298   0.526 -1.2821 -2.6603  0.3120
10885SOL    HW243585   0.786   5.225   0.592  0.1519  0.4754  1.0248
10886SOL     OW43586   2.278   1.401   2.676  0.5187  0.0297 -0.3331
10886SOL    HW143587   2.263   1.427   2.580  1.3170  1.3368 -0.1211
10886SOL    HW243588   2.219   1.324   2.700  0.5506 -0.5191 -1.9758
10887SOL     OW43589   1.737   7.166   0.969 -0.1866 -0.5737 -0.4408
10887SOL    HW143590   1.799   7.107   0.918  0.8497  1.2294 -1.3211
10887SOL    HW243591   1.731   7.255   0.923 -1.0718  0.2896  1.3059
10888SOL     OW43592   8.171   3.754   4.802 -0.1493  0.0019 -0.1376
10888SOL    HW143593   8.120   3.670   4.785 -0.7795  0.5989 -1.2369
10888SOL    HW243594   8.125   3.808   4.872 -1.2823  0.7400 -1.4296
10889SOL     OW43595   4.869   8.041   2.605 -0.3216  0.0021  0.7909
10889SOL    HW143596   4.868   8.063   2.703  1.2153  1.5874  0.4962
10889SOL    HW243597   4.955   7.997   2.582 -0.8609 -0.7560  0.2280
10890SOL     OW43598   9.790   0.919   4.516 -0.4461  0.2921  0.0527
10890SOL    HW143599   9.768   0.975   4.597  0.6863  0.5930  0.1608
10890SOL    HW243600   9.762   0.824   4.533 -0.8883  0.4979  0.5096
10891SOL     OW43601   1.224   9.387   2.241 -0.8144 -0.3568  0.3267
10891SOL    HW143602   1.194   9.331   2.318  0.7582 -0.0903  1.1593
10891SOL    HW243603   1.259   9.327   2.168 -0.1198 -0.5179  0.7859
10892SOL     OW43604   2.955   5.579   3.110 -0.0305 -0.3076 -0.1601
10892SOL    HW143605   3.015   5.634   3.168  0.1537  0.2068 -0.8273
10892SOL    HW243606   2.947   5.622   3.020 -0.1577 -1.1895 -0.5815
10893SOL     OW43607   4.626   5.749   0.973  0.2237  0.3311 -0.2021
10893SOL    HW143608   4.553   5.682   0.961  1.1537 -0.7217 -0.1090
10893SOL    HW243609   4.667   5.769   0.884  0.6039  0.0185 -0.0983
10894SOL     OW43610   9.521   8.115   4.625  0.1245  0.0775  0.1408
10894SOL    HW143611   9.582   8.151   4.554 -0.5311 -0.7097 -0.8307
10894SOL    HW243612   9.427   8.141   4.605  0.0675  0.9280  1.4136
10895SOL     OW43613   1.310   0.382   4.948  0.4465  0.0218  0.1566
10895SOL    HW143614   1.399   0.383   4.994  0.7506 -0.5683 -0.4231
10895SOL    HW243615   1.238   0.392   5.017  0.9768  1.3323  0.5568
10896SOL     OW43616   0.124   4.007   4.720  0.4241  0.2351  0.6294
10896SOL    HW143617   0.171   4.007   4.807  0.6931  0.7566  0.4867
10896SOL    HW243618   0.127   4.099   4.680  1.1530 -0.2282 -0.3898
10897SOL     OW43619   3.494   3.558   1.403  0.3122 -0.2571 -0.1802
10897SOL    HW143620   3.493   3.602   1.493  1.3992 -1.1710  0.2907
10897SOL    HW243621   3.480   3.627   1.332  2.0412  0.8752  0.5473
10898SOL     OW43622   3.337   0.609   5.139 -0.1301 -0.4725  0.4574
10898SOL    HW143623   3.417   0.568   5.096 -0.4600 -0.4333 -0.1975
10898SOL    HW243624   3.355   0.622   5.236  0.1908 -1.6326  0.5625
10899SOL     OW43625   8.779   8.737   0.234 -0.4754 -0.0437  0.3157
10899SOL    HW143626   8.867   8.735   0.281 -0.5067 -0.5321  0.3536
10899SOL    HW243627   8.767   8.826   0.190  0.2954 -0.1739 -0.1800
10900SOL     OW43628   6.538   1.490   2.358 -0.0812  0.1282  0.1284
10900SOL    HW143629   6.624   1.468   2.311 -0.1162  0.4987 -0.1066
10900SOL    HW243630   6.489   1.561   2.307 -0.2363  0.3536  0.5907
10901SOL     OW43631   4.507   1.373   1.577 -0.5785 -0.4361  0.5647
10901SOL    HW143632   4.550   1.459   1.605 -0.5731  0.2760 -1.5325
10901SOL    HW243633   4.408   1.387   1.568 -0.3421 -0.0810 -1.7234
10902SOL     OW43634   9.285   2.864   5.385  0.5754 -0.3983  0.1939
10902SOL    HW143635   9.220   2.788   5.373  0.1054  0.1315 -0.7210
10902SOL    HW243636   9.378   2.830   5.371  0.2769 -0.5572 -1.5515
10903SOL     OW43637   9.366   8.794   5.050 -0.7560 -0.8041 -0.5915
10903SOL    HW143638   9.440   8.728   5.057 -2.2650 -2.4592  0.1505
10903SOL    HW243639   9.283   8.747   5.020 -1.7408  0.8428 -0.4905
10904SOL     OW43640   9.666   6.649   4.314 -0.3194  0.1276 -0.1856
10904SOL    HW143641   9.671   6.573   4.248  2.3671 -0.5070  0.6828
10904SOL    HW243642   9.692   6.616   4.405 -0.6225  1.7678  0.5074
10905SOL     OW43643   1.950   7.164   4.412 -0.0434  0.2670  0.2908
10905SOL    HW143644   2.014   7.098   4.371 -0.6754  0.7450 -1.5046
10905SOL    HW243645   1.906   7.122   4.492  1.1855 -0.6986  0.4773
10906SOL     OW43646   7.400   9.369   1.960 -0.3971 -0.0400 -0.0803
10906SOL    HW143647   7.456   9.291   1.933 -0.9586 -1.0621  1.6398
10906SOL    HW243648   7.460   9.446   1.984  0.1538  0.1421 -1.8931
10907SOL     OW43649   3.809   9.829   4.563  0.5238  0.1506  0.1624
10907SOL    HW143650   3.897   9.839   4.517  0.1340  0.7048 -0.4694
10907SOL    HW243651   3.770   9.920   4.581 -0.6248 -0.1108 -0.9415
10908SOL     OW43652   8.388   7.501   0.046  0.1826 -0.1801  0.1180
10908SOL    HW143653   8.361   7.420   0.098  0.5394 -0.0240  0.5496
10908SOL    HW243654   8.386   7.479  -0.052  2.5507 -1.4252  0.3102
10909SOL     OW43655   2.696   9.965   2.391  0.4298  0.0079  0.0669
10909SOL    HW143656   2.693   9.996   2.486 -0.2684 -1.3573  0.5037
10909SOL    HW243657   2.603   9.953   2.357  0.6802 -0.6339 -0.4072
10910SOL     OW43658   4.609   4.981   4.713  0.3579 -0.1250  0.1401
10910SOL    HW143659   4.642   4.967   4.807  1.1523  0.1644 -0.0908
10910SOL    HW243660   4.640   5.070   4.680  0.4761 -0.4335 -0.5675
10911SOL     OW43661   0.222   4.936   1.990 -0.5536  0.0073  0.0552
10911SOL    HW143662   0.140   4.939   1.934 -0.2174  2.9698 -0.3414
10911SOL    HW243663   0.268   5.025   1.989  1.5486 -0.9701  1.9405
10912SOL     OW43664   7.879   7.834   2.867 -0.1436 -0.0023  0.0283
10912SOL    HW143665   7.789   7.793   2.879 -1.3044  1.2342 -3.6997
10912SOL    HW243666   7.938   7.772   2.815 -0.2437  0.9299 -1.2099
10913SOL     OW43667   0.666   2.284   1.302 -0.2401  0.3185 -0.4085
10913SOL    HW143668   0.664   2.242   1.212 -0.2742  0.2783 -0.3889
10913SOL    HW243669   0.573   2.295   1.336 -0.2748  1.1015 -0.7423
10914SOL     OW43670   9.465   0.006   1.884 -0.3816  0.2607 -0.0147
10914SOL    HW143671   9.541  -0.057   1.869  0.8623  1.7959 -0.4185
10914SOL    HW243672   9.428  -0.007   1.975  1.1723  0.2906  0.6352
10915SOL     OW43673   2.666   3.440   4.254  0.3729 -0.0047 -0.4991
10915SOL    HW143674   2.751   3.441   4.306 -0.7693  1.4751  1.4197
10915SOL    HW243675   2.667   3.515   4.187  0.7050 -0.1642 -0.6705
10916SOL     OW43676   9.944   3.393   2.892 -0.0916 -0.2282  0.0898
10916SOL    HW143677   9.974   3.301   2.867 -0.1367 -0.4914  0.9871
10916SOL    HW243678   9.866   3.387   2.955  0.6694  0.4062  1.1158
10917SOL     OW43679   9.054   7.408   5.570  0.1336 -0.4910 -0.1610
10917SOL    HW143680   9.115   7.357   5.509  0.9757 -2.4886  2.2234
10917SOL    HW243681   8.960   7.375   5.558  0.5247 -1.9547  0.6494
10918SOL     OW43682   8.884   0.712   3.751  0.1003 -0.2761 -0.4168
10918SOL    HW143683   8.786   0.733   3.749  0.2576  0.6901  1.2382
10918SOL    HW243684   8.920   0.731   3.842  1.7662 -0.9584 -0.9223
10919SOL     OW43685   1.996   7.460   1.125 -0.5787  0.3606 -0.3159
10919SOL    HW143686   1.935   7.529   1.087  0.2975  1.0037 -0.5913
10919SOL    HW243687   2.053   7.502   1.196 -0.5351 -0.2500  0.0118
10920SOL     OW43688   4.619   4.935   0.299 -0.3354 -1.2098 -0.2466
10920SOL    HW143689   4.597   4.838   0.302 -0.9057 -1.0652  0.4007
10920SOL    HW243690   4.686   4.957   0.369 -0.0902 -1.1595 -0.4936
10921SOL     OW43691   4.259   2.357   2.715  0.5399 -0.1244 -0.5487
10921SOL    HW143692   4.317   2.427   2.673 -0.7029  0.8318 -0.7233
10921SOL    HW243693   4.221   2.299   2.644 -0.9021  0.9769 -0.7020
10922SOL     OW43694   4.945   2.219   1.983  0.2545  0.7466  0.2178
10922SOL    HW143695   4.984   2.133   1.950 -1.9413 -0.3734  0.5105
10922SOL    HW243696   4.993   2.295   1.939 -0.4815 -0.6569 -3.2101
10923SOL     OW43697   3.008   5.694   2.856  0.1748 -0.2824  0.1900
10923SOL    HW143698   3.094   5.721   2.811  0.2717  0.0544  0.5755
10923SOL    HW243699   2.932   5.705   2.791  0.2243  0.8677  0.3251
10924SOL     OW43700   2.701   3.367   2.580  0.0334 -0.3744 -0.0816
10924SOL    HW143701   2.717   3.369   2.482 -1.6972  0.1689 -0.3802
10924SOL    HW243702   2.769   3.424   2.626  0.0909  0.3919 -1.0956
10925SOL     OW43703   8.433   5.686   0.643  0.1124 -0.1931  0.2032
10925SOL    HW143704   8.484   5.684   0.729 -0.1591  2.7850  0.4760
10925SOL    HW243705   8.335   5.695   0.663  0.0253  0.1936 -0.4048
10926SOL     OW43706   9.580   5.374   5.205 -0.2331  0.0692  0.0103
10926SOL    HW143707   9.617   5.306   5.142 -2.3273 -0.8159 -0.3228
10926SOL    HW243708   9.566   5.333   5.295  1.5791  0.9897  0.7323
10927SOL     OW43709   7.541   8.273   3.522  0.1429 -0.4055  0.0245
10927SOL    HW143710   7.530   8.181   3.483 -0.2198  0.1898 -1.3071
10927SOL    HW243711   7.572   8.336   3.450 -0.0858  0.6167  0.8159
10928SOL     OW43712   9.363   6.347   4.220  0.0165 -0.3248  0.3206
10928SOL    HW143713   9.399   6.355   4.127  0.5269 -0.6020  0.4922
10928SOL    HW243714   9.385   6.429   4.272 -1.1133  0.2423 -0.0912
10929SOL     OW43715   8.297   6.256   0.905 -0.4519 -0.5867 -0.0620
10929SOL    HW143716   8.353   6.273   0.823 -2.0757 -1.2491 -1.3465
10929SOL    HW243717   8.328   6.171   0.949  0.8195  0.0923  0.3611
10930SOL     OW43718   1.353   5.589   3.852 -0.4199  0.0681  0.1233
10930SOL    HW143719   1.259   5.558   3.865 -0.7187  0.5957 -0.7445
10930SOL    HW243720   1.370   5.669   3.910 -0.6976  0.3586 -0.1995
10931SOL     OW43721   7.834   5.844   3.365 -0.2599 -0.3138  0.3603
10931SOL    HW143722   7.814   5.886   3.454  3.3672 -0.2428  1.2219
10931SOL    HW243723   7.799   5.903   3.292 -0.6206  1.1512  1.6874
10932SOL     OW43724   2.961   0.605   4.527  0.4276  0.0636 -0.1538
10932SOL    HW143725   2.909   0.644   4.603 -0.2314  1.9537 -1.5451
10932SOL    HW243726   3.058   0.601   4.551 -0.1832 -2.5647  2.0803
10933SOL     OW43727   3.292   3.444   4.549 -0.1292  0.1762  0.3614
10933SOL    HW143728   3.341   3.490   4.622  0.0685 -0.1333  0.4243
10933SOL    HW243729   3.332   3.469   4.461 -0.6624  0.9156  0.3196
10934SOL     OW43730   2.707   0.525   5.016  0.3226 -0.1859  0.5453
10934SOL    HW143731   2.649   0.509   4.936  0.7488 -1.9164  0.5775
10934SOL    HW243732   2.673   0.473   5.094  1.3045 -0.3748  0.8579
10935SOL     OW43733   8.047   9.112   2.242 -0.0487  0.3424 -0.1145
10935SOL    HW143734   8.078   9.040   2.181  1.4848  2.1317 -1.4929
10935SOL    HW243735   8.125   9.160   2.281 -1.0502  1.8773  0.0503
10936SOL     OW43736   9.837   0.417   0.198  0.2229 -0.2328  0.2616
10936SOL    HW143737   9.772   0.492   0.196 -0.0090 -0.2782  3.2332
10936SOL    HW243738   9.917   0.440   0.143 -2.1483 -0.0858 -3.2719
10937SOL     OW43739   3.830   1.701   2.803 -0.3554 -0.1265  0.5750
10937SOL    HW143740   3.805   1.624   2.743  1.0786  1.3902 -2.0621
10937SOL    HW243741   3.749   1.758   2.819 -0.7430 -0.5064 -0.0002
10938SOL     OW43742   8.948   3.944   4.269 -0.2187 -0.1911  0.1672
10938SOL    HW143743   8.971   4.041   4.281 -0.2034 -0.3195  1.1755
10938SOL    HW243744   9.003   3.888   4.330  0.3549 -0.9202 -0.9942
10939SOL     OW43745   2.819   1.430   1.697 -0.0731  0.5736  0.3837
10939SOL    HW143746   2.754   1.435   1.621  0.4714  1.6061 -0.0220
10939SOL    HW243747   2.883   1.505   1.690 -0.1416  0.7837  1.9940
10940SOL     OW43748   0.874   7.134   2.383 -0.4521 -0.0073 -0.0896
10940SOL    HW143749   0.947   7.067   2.368 -1.0115 -1.0070  1.4624
10940SOL    HW243750   0.897   7.219   2.337 -0.1575 -1.5495 -2.9080
10941SOL     OW43751   5.980   9.900   3.264 -0.3611 -0.0382  0.0455
10941SOL    HW143752   5.974   9.983   3.209 -0.5676 -0.3879 -0.4642
10941SOL    HW243753   5.894   9.886   3.312  0.0199  0.5799  0.9137
10942SOL     OW43754   0.043   4.432   1.942 -0.0588 -0.4259  0.8844
10942SOL    HW143755   0.003   4.389   2.023  0.6470  0.8030  1.8952
10942SOL    HW243756   0.135   4.397   1.927  0.2866  0.2672  1.3543
10943SOL     OW43757   4.577   4.677   0.062  0.3906  0.2318 -0.0925
10943SOL    HW143758   4.662   4.721   0.031 -0.7761  1.9554 -0.9359
10943SOL    HW243759   4.580   4.665   0.161  1.4577  0.6574 -0.0657
10944SOL     OW43760   0.704   2.177   3.034  0.2306 -0.4928  0.4146
10944SOL    HW143761   0.788   2.199   2.985  0.2236  0.2417  0.7197
10944SOL    HW243762   0.626   2.222   2.990  0.3425  0.9086  1.5940
10945SOL     OW43763   2.588   6.180   4.528 -0.3311  0.0019 -0.4358
10945SOL    HW143764   2.573   6.127   4.611  0.1074  1.2668  0.4653
10945SOL    HW243765   2.524   6.257   4.525 -0.0643  0.2073 -1.0655
10946SOL     OW43766   9.615   1.867   0.228  0.5592  0.3583  0.0631
10946SOL    HW143767   9.558   1.940   0.267  3.3587  1.3134  2.5031
10946SOL    HW243768   9.654   1.898   0.141 -2.0055 -0.0493 -1.2868
10947SOL     OW43769   7.675   1.182   3.672  0.3900  0.1374 -0.2106
10947SOL    HW143770   7.670   1.277   3.703 -0.3673  0.1388 -0.3143
10947SOL    HW243771   7.678   1.180   3.572  0.9427  0.0714 -0.1913
10948SOL     OW43772   8.547   0.245   5.345 -0.5091 -0.3469  0.2181
10948SOL    HW143773   8.512   0.209   5.431 -1.0530  1.0743  0.5877
10948SOL    HW243774   8.647   0.240   5.346 -0.4092  1.6716  1.8209
10949SOL     OW43775   7.304   2.586   3.355 -0.2542  0.1375  0.0866
10949SOL    HW143776   7.301   2.604   3.257  0.0400  2.1576  0.4215
10949SOL    HW243777   7.371   2.647   3.398 -2.0860  0.9598  1.8645
10950SOL     OW43778   2.027   5.351   1.324  0.0490  0.0364  0.4559
10950SOL    HW143779   2.082   5.275   1.360 -0.7124  0.3209  2.2635
10950SOL    HW243780   2.088   5.424   1.293  0.7533 -0.7237  0.0150
10951SOL     OW43781   2.879   7.737   2.683 -0.1847  0.1941  0.2855
10951SOL    HW143782   2.871   7.642   2.715  0.2024 -0.5407 -1.7621
10951SOL    HW243783   2.970   7.751   2.645 -0.7895  0.9345 -0.8956
10952SOL     OW43784   4.095   6.859   2.190 -0.2265 -0.1253 -0.0458
10952SOL    HW143785   4.140   6.942   2.158 -0.4316  0.1028  0.2489
10952SOL    HW243786   4.152   6.779   2.170  0.6737  0.2350  1.0525
10953SOL     OW43787   0.521   9.902   4.684 -0.9998 -0.0386 -0.1981
10953SOL    HW143788   0.610   9.862   4.708 -0.4601 -0.0513 -2.1150
10953SOL    HW243789   0.534   9.995   4.650 -1.9231  0.5930  1.1057
10954SOL     OW43790   1.187   5.753   3.524 -0.4074  0.6368 -0.5397
10954SOL    HW143791   1.248   5.675   3.538 -2.1199 -0.8736 -1.2907
10954SOL    HW243792   1.239   5.831   3.488  1.4173  0.0372  0.7534
10955SOL     OW43793   0.917   9.443   4.107  0.1128  0.8013 -0.9014
10955SOL    HW143794   0.908   9.344   4.119  1.2102  0.8292  0.3924
10955SOL    HW243795   0.859   9.473   4.032 -1.5755 -0.5702 -0.1804
10956SOL     OW43796   1.948   7.587   3.181  0.2647 -0.2208  0.0054
10956SOL    HW143797   2.005   7.668   3.196 -1.2891  0.8394  0.2305
10956SOL    HW243798   1.957   7.558   3.085 -1.4581  2.0249 -0.8920
10957SOL     OW43799   7.224   5.756   4.255 -0.1495  0.3766  0.4295
10957SOL    HW143800   7.305   5.779   4.201  0.5033 -1.1561  0.7141
10957SOL    HW243801   7.220   5.813   4.336  0.9760  0.0737  0.7077
10958SOL     OW43802   4.238   9.371   1.828 -0.0387  0.0293  0.3844
10958SOL    HW143803   4.335   9.394   1.824  0.0695 -0.5220 -0.2721
10958SOL    HW243804   4.220   9.317   1.910 -0.0038  1.0828  1.0955
10959SOL     OW43805   8.762   1.150   3.208 -0.2575 -1.1303  0.0920
10959SOL    HW143806   8.855   1.180   3.190 -0.6935 -0.4563 -1.1179
10959SOL    HW243807   8.746   1.062   3.164 -0.2032 -1.2392  0.2878
10960SOL     OW43808   8.625   6.889   0.193 -0.4227 -0.1465 -0.5964
10960SOL    HW143809   8.573   6.848   0.118  0.5911 -1.0624 -0.8087
10960SOL    HW243810   8.723   6.886   0.172  0.1588 -3.2317  2.0601
10961SOL     OW43811   1.592   5.594   2.200  0.4381  0.3995  0.7090
10961SOL    HW143812   1.648   5.622   2.279  1.1473  0.5437  0.1547
10961SOL    HW243813   1.499   5.630   2.211  0.5145  0.3606  1.5141
10962SOL     OW43814   3.391   6.492   1.783 -0.3135 -0.0965 -0.0364
10962SOL    HW143815   3.460   6.552   1.823 -0.6268  0.9297 -1.0045
10962SOL    HW243816   3.432   6.436   1.711 -0.3277  0.0339 -0.1484
10963SOL     OW43817   0.342   9.818   0.641  0.5290  0.2520  0.2491
10963SOL    HW143818   0.273   9.758   0.601  0.6967 -0.1281  0.5209
10963SOL    HW243819   0.427   9.767   0.653  0.7510  0.6188  0.2458
10964SOL     OW43820   9.826   5.959   1.784  0.8981 -0.5315 -0.5774
10964SOL    HW143821   9.838   5.933   1.879  1.1058 -1.4355 -0.8488
10964SOL    HW243822   9.786   5.883   1.733 -1.5198  0.7603 -0.7075
10965SOL     OW43823   1.343   0.831   0.282  0.2543 -0.2427  0.2579
10965SOL    HW143824   1.386   0.855   0.369 -1.1608 -1.4394  1.3295
10965SOL    HW243825   1.278   0.903   0.256  0.2611 -0.1465  0.4999
10966SOL     OW43826   2.839   8.091   0.856 -0.1153  0.1462 -0.0463
10966SOL    HW143827   2.791   8.121   0.938 -1.1503  0.2342 -0.6738
10966SOL    HW243828   2.774   8.049   0.792  0.8159 -0.7022 -0.4627
10967SOL     OW43829   0.358   4.643   4.914 -0.2023 -0.1262 -0.3071
10967SOL    HW143830   0.337   4.564   4.972 -0.7484 -0.1501 -0.5361
10967SOL    HW243831   0.280   4.663   4.855  0.4588 -0.2731 -1.2368
10968SOL     OW43832   2.997   1.170   1.016  0.0734  0.6117  0.4572
10968SOL    HW143833   3.074   1.206   1.070 -0.5256  0.1463  1.6469
10968SOL    HW243834   2.932   1.125   1.077 -0.8400  0.4493 -0.6214
10969SOL     OW43835   2.308   5.427   1.467  0.0913  0.6328 -0.6159
10969SOL    HW143836   2.271   5.505   1.518  0.3661  1.4568 -1.6616
10969SOL    HW243837   2.245   5.350   1.474 -0.5346  1.1787 -0.1679
10970SOL     OW43838   8.871   4.196   4.926 -0.5541 -0.2052 -0.2011
10970SOL    HW143839   8.777   4.171   4.903 -1.4434  3.0586 -0.3781
10970SOL    HW243840   8.893   4.162   5.018 -2.5217  0.4707  0.5529
10971SOL     OW43841   5.701   1.084   4.607  0.8176  0.1556 -0.2101
10971SOL    HW143842   5.675   0.988   4.596 -0.9058  0.6404 -0.5032
10971SOL    HW243843   5.651   1.124   4.683  1.5077  0.8292 -0.1059
10972SOL     OW43844   7.607   9.824   5.040 -0.2254  0.4271  0.2101
10972SOL    HW143845   7.599   9.907   5.095  0.8319  0.8372 -0.2324
10972SOL    HW243846   7.693   9.826   4.990 -1.4592  0.4049 -1.9894
10973SOL     OW43847   9.727   1.911   1.830  0.2509  0.0491  0.7505
10973SOL    HW143848   9.778   1.825   1.834  0.2252 -0.0154 -0.2074
10973SOL    HW243849   9.769   1.971   1.763 -1.2782 -0.2342 -0.4966
10974SOL     OW43850   4.820   3.197   0.273 -0.0389 -0.1897 -0.2720
10974SOL    HW143851   4.758   3.127   0.306  0.4841 -1.0243 -1.0353
10974SOL    HW243852   4.784   3.288   0.296 -1.0857 -0.6849  0.0524
10975SOL     OW43853   7.509   0.607   1.532  0.7525 -0.1430 -0.3545
10975SOL    HW143854   7.522   0.704   1.510  1.3826 -0.5544 -1.8413
10975SOL    HW243855   7.535   0.591   1.627  2.2602  0.8243 -0.5899
10976SOL     OW43856   2.271   9.609   4.260  0.4062  0.3705 -0.2238
10976SOL    HW143857   2.293   9.526   4.312  0.8708  0.1613 -0.7406
10976SOL    HW243858   2.352   9.669   4.257  0.5539  0.1415 -1.1308
10977SOL     OW43859   0.314   3.581   2.688 -0.4465  0.0944  0.0437
10977SOL    HW143860   0.385   3.597   2.757  0.1779 -2.3007 -0.0173
10977SOL    HW243861   0.307   3.662   2.630  4.0534 -0.4678 -1.5424
10978SOL     OW43862   8.823   1.262   2.062  0.3055 -0.3739 -0.0031
10978SOL    HW143863   8.903   1.254   2.122  0.3040 -0.2030  0.0236
10978SOL    HW243864   8.817   1.356   2.029 -0.2814 -0.2240  0.5396
10979SOL     OW43865   3.049   6.695   3.176  0.0428 -0.1961 -0.2600
10979SOL    HW143866   2.977   6.756   3.209  0.5780  0.2991 -0.0043
10979SOL    HW243867   3.037   6.604   3.217 -0.6023 -0.2003 -0.4467
10980SOL     OW43868   5.604   1.408   2.679  0.1817 -0.6713  0.3386
10980SOL    HW143869   5.549   1.325   2.675  1.7036 -1.9007  3.3201
10980SOL    HW243870   5.696   1.389   2.645  0.3837 -0.0423  0.5214
10981SOL     OW43871   8.871   1.669   0.071 -0.3701  0.6923  0.0952
10981SOL    HW143872   8.874   1.769   0.071  0.5525  0.6739  1.0748
10981SOL    HW243873   8.830   1.637   0.157 -1.5094  0.2393 -0.6045
10982SOL     OW43874   4.489   4.256   0.960  0.0699  0.1284 -0.7507
10982SOL    HW143875   4.422   4.322   0.996 -0.9853 -0.9310 -0.7398
10982SOL    HW243876   4.494   4.264   0.861 -0.4010 -0.0992 -0.7919
10983SOL     OW43877   9.100   5.273   3.530  0.0760  0.2060  0.3301
10983SOL    HW143878   9.088   5.183   3.487  1.7491 -0.0201  0.2998
10983SOL    HW243879   9.060   5.344   3.472 -2.2898 -0.6211  0.8947
10984SOL     OW43880   4.037   6.498   1.419 -0.5532 -0.3569  0.2203
10984SOL    HW143881   3.972   6.519   1.346 -0.0504  0.3638 -0.0232
10984SOL    HW243882   4.097   6.423   1.389  0.4635  0.7728 -0.6029
10985SOL     OW43883   7.996   1.474   0.296  0.0009  0.0899 -0.0222
10985SOL    HW143884   8.059   1.449   0.223 -0.3778 -0.6425 -0.1058
10985SOL    HW243885   8.047   1.487   0.381  0.1792 -1.3833  0.1227
10986SOL     OW43886   6.542   1.290   2.802 -0.3172  0.1434  0.2235
10986SOL    HW143887   6.446   1.261   2.800 -0.5647  0.8100  1.9223
10986SOL    HW243888   6.570   1.307   2.896  2.2060 -2.3968 -0.0195
10987SOL     OW43889   3.070   1.762   1.008 -0.1011  0.5762 -0.1108
10987SOL    HW143890   3.140   1.697   0.980 -1.4175 -1.3052  0.8233
10987SOL    HW243891   3.049   1.824   0.931 -0.4704 -1.6013 -1.8120
10988SOL     OW43892   4.796   0.720   2.842 -0.4321 -0.1114 -0.3574
10988SOL    HW143893   4.749   0.678   2.920 -0.4294  0.2353 -0.1665
10988SOL    HW243894   4.732   0.727   2.765 -0.5271 -0.1587 -0.2829
10989SOL     OW43895   1.129   6.976   2.403  0.2814  0.0920  0.6265
10989SOL    HW143896   1.180   7.039   2.344  0.4227 -0.0710  0.5730
10989SOL    HW243897   1.153   6.994   2.499  0.6754 -0.1878  0.5835
10990SOL     OW43898   1.121   6.801   4.100 -0.2888 -0.1950 -0.1198
10990SOL    HW143899   1.177   6.883   4.104  0.3888 -0.5393 -2.1607
10990SOL    HW243900   1.078   6.793   4.010 -1.7004 -1.2085  0.6110
10991SOL     OW43901   0.944   1.701   1.631  0.9993  0.4139  0.2573
10991SOL    HW143902   0.913   1.632   1.696  1.8830  0.8068  1.0966
10991SOL    HW243903   0.897   1.687   1.543 -1.8741  1.2420  1.5975
10992SOL     OW43904   0.851   1.990   3.252 -0.5800  0.0543  0.0570
10992SOL    HW143905   0.938   1.989   3.300 -1.4532  2.0772  1.7776
10992SOL    HW243906   0.835   2.082   3.215 -1.5158 -0.5741 -1.1464
10993SOL     OW43907   8.527   8.664   5.309  0.1796 -0.4231 -0.0323
10993SOL    HW143908   8.464   8.588   5.293  0.0105 -0.5308  1.0794
10993SOL    HW243909   8.570   8.691   5.223 -0.9088 -0.7681 -0.6856
10994SOL     OW43910   2.870   0.912   1.992  0.5898 -0.4498 -0.0915
10994SOL    HW143911   2.952   0.958   2.026 -0.6491  0.7719  1.2955
10994SOL    HW243912   2.789   0.966   2.015 -0.4602 -0.4130 -3.5276
10995SOL     OW43913   4.348   9.201   0.601 -0.4793  0.2299  0.0597
10995SOL    HW143914   4.286   9.270   0.563 -0.6845  0.1101  0.1747
10995SOL    HW243915   4.310   9.165   0.686 -0.4063 -0.0734 -0.0332
10996SOL     OW43916   4.633   4.632   2.588 -0.8248 -0.4344 -0.3495
10996SOL    HW143917   4.627   4.581   2.502 -1.5784 -0.6021 -0.1988
10996SOL    HW243918   4.556   4.695   2.595 -0.4289  0.0178 -0.0772
10997SOL     OW43919   9.078   6.678   4.703  0.2667 -0.7519  0.2723
10997SOL    HW143920   9.106   6.762   4.656  1.6588 -1.2890  0.0965
10997SOL    HW243921   8.999   6.696   4.761  0.4481  0.6431  0.0967
10998SOL     OW43922   4.498   7.881   2.260  0.8016  0.2936 -0.6920
10998SOL    HW143923   4.582   7.914   2.303  0.8209 -0.4602 -0.1550
10998SOL    HW243924   4.436   7.846   2.330 -0.2076  1.3939 -1.0241
10999SOL     OW43925   5.360   9.477   1.511  0.1708  0.5564  0.1295
10999SOL    HW143926   5.361   9.378   1.503  0.4111  0.3547  2.2604
10999SOL    HW243927   5.266   9.508   1.527 -0.0453  0.7697 -1.5354
11000SOL     OW43928   9.111   1.302   2.995  0.1952 -0.3188 -0.2735
11000SOL    HW143929   9.096   1.266   3.087  0.8478  0.1783  0.0227
11000SOL    HW243930   9.053   1.252   2.931  1.8800 -2.6892 -0.0365
11001SOL     OW43931   2.558   9.521   5.471  0.3286  0.0993  0.4509
11001SOL    HW143932   2.597   9.519   5.563  1.2700  0.0157  0.0520
11001SOL    HW243933   2.598   9.448   5.416 -1.8395 -1.2630  0.6007
11002SOL     OW43934   1.730   6.352   2.230  0.4701  0.4572  1.0902
11002SOL    HW143935   1.687   6.378   2.143  0.8512  0.2703  0.8408
11002SOL    HW243936   1.814   6.301   2.211 -0.3215 -1.0556  1.5784
11003SOL     OW43937   7.715   5.331   5.153  0.2658  0.6957 -0.1357
11003SOL    HW143938   7.808   5.347   5.119 -0.1855 -1.1598 -2.4329
11003SOL    HW243939   7.662   5.415   5.147  1.4684  1.4864  0.1150
11004SOL     OW43940   4.557   3.569   0.172  0.1921 -0.4370  0.3811
11004SOL    HW143941   4.593   3.497   0.232  1.8722  0.3077  0.2984
11004SOL    HW243942   4.616   3.577   0.092  0.7039  1.8428  0.9616
11005SOL     OW43943   1.553   7.902   1.645 -0.2550 -0.1589 -0.1913
11005SOL    HW143944   1.551   7.877   1.742 -0.6333  1.8011  0.3317
11005SOL    HW243945   1.627   7.967   1.629  0.6785 -1.4915 -1.5133
11006SOL     OW43946   0.103   9.783   0.287 -0.5625 -0.5682 -0.5675
11006SOL    HW143947   0.133   9.872   0.252 -0.4426  0.1780  1.3844
11006SOL    HW243948   0.004   9.777   0.282 -0.5830 -0.2630 -0.5369
11007SOL     OW43949   7.294   0.825   2.259 -0.3890 -0.1662  0.2206
11007SOL    HW143950   7.392   0.842   2.268 -0.2023 -1.2475  0.2761
11007SOL    HW243951   7.265   0.761   2.330 -1.0521 -0.2085 -0.0862
11008SOL     OW43952   4.297   7.386   3.696  0.1790 -0.0442  0.8016
11008SOL    HW143953   4.397   7.378   3.693  0.1274 -1.4437  1.7642
11008SOL    HW243954   4.269   7.405   3.790 -0.5204 -0.7767  0.7441
11009SOL     OW43955   9.423   0.957   2.957 -0.1773  0.7698 -0.0491
11009SOL    HW143956   9.456   1.041   2.913 -0.1571  1.0779  0.5481
11009SOL    HW243957   9.499   0.894   2.968 -0.4811  0.0382 -1.8921
11010SOL     OW43958   8.316   1.032   0.895  0.0438  0.5032 -0.0381
11010SOL    HW143959   8.237   1.064   0.947 -0.4977  1.1546 -1.2353
11010SOL    HW243960   8.292   1.026   0.798  0.2789 -3.0881  0.0813
11011SOL     OW43961   4.805   5.383   0.670 -0.0800 -0.3383 -0.0865
11011SOL    HW143962   4.840   5.290   0.674  0.1667 -0.2305  0.3089
11011SOL    HW243963   4.707   5.382   0.647  0.1189 -0.6512 -0.9358
11012SOL     OW43964   6.163   1.541   1.841 -0.0469  0.1154  0.8418
11012SOL    HW143965   6.123   1.470   1.783 -0.4476 -0.0203  1.2778
11012SOL    HW243966   6.132   1.631   1.810  0.7150  0.1173  0.0931
11013SOL     OW43967   6.083   7.997   2.842 -0.5784 -0.4868  0.3044
11013SOL    HW143968   6.080   8.031   2.748 -0.1263 -1.0436  0.0803
11013SOL    HW243969   6.085   8.074   2.905  0.5948 -0.0786 -0.1989
11014SOL     OW43970   9.008   8.901   3.252 -0.2240  0.1525 -0.5471
11014SOL    HW143971   8.921   8.869   3.215 -0.5085  1.4316 -1.0277
11014SOL    HW243972   9.065   8.936   3.178 -0.0062  0.9061 -0.0317
11015SOL     OW43973   9.496   8.202   0.860  0.0364  0.4041  0.2482
11015SOL    HW143974   9.541   8.113   0.854  1.8382  1.3536 -1.1242
11015SOL    HW243975   9.405   8.196   0.818  0.6236 -0.5099 -0.9391
11016SOL     OW43976   4.637   4.478   3.866 -0.2643  0.4897  0.7560
11016SOL    HW143977   4.582   4.549   3.823  0.1593  0.5176  0.2531
11016SOL    HW243978   4.720   4.518   3.904  1.1530 -0.0645 -1.6401
11017SOL     OW43979   0.067   6.337   1.602 -0.3275  0.2190 -0.0380
11017SOL    HW143980   0.064   6.432   1.632 -1.2209  0.9606 -2.4410
11017SOL    HW243981  -0.018   6.291   1.626 -0.5306  0.4585 -0.3070
11018SOL     OW43982   0.916   1.697   5.369  0.0658 -0.1619 -0.4466
11018SOL    HW143983   0.953   1.614   5.410  0.9960  0.3087 -0.3264
11018SOL    HW243984   0.991   1.754   5.336 -0.6176 -0.0115 -1.7957
11019SOL     OW43985   6.228   1.123   2.026 -0.2788  0.2569 -0.0087
11019SOL    HW143986   6.312   1.178   2.026  0.0461 -0.2238  1.1713
11019SOL    HW243987   6.199   1.107   1.932  0.5402  1.0549 -0.4085
11020SOL     OW43988   6.181   8.711   3.143  0.0026  0.1059  0.0116
11020SOL    HW143989   6.111   8.659   3.192 -0.5147  0.4335 -0.3807
11020SOL    HW243990   6.177   8.690   3.046  1.5200 -1.1049  0.1861
11021SOL     OW43991   9.528   5.733   1.532 -0.2806  0.4522 -0.0891
11021SOL    HW143992   9.507   5.729   1.629  0.9234 -1.8216  0.0966
11021SOL    HW243993   9.626   5.749   1.520  0.0184 -1.8698 -0.9024
11022SOL     OW43994   0.630   7.889   3.676  0.2027  0.1716 -0.0319
11022SOL    HW143995   0.673   7.823   3.614 -1.2413 -2.2133  1.4301
11022SOL    HW243996   0.693   7.965   3.692  1.3790 -0.1318 -2.8232
11023SOL     OW43997   0.618   2.876   1.393  0.3295  0.0949 -0.5824
11023SOL    HW143998   0.669   2.794   1.366  1.9018  0.5446  0.9783
11023SOL    HW243999   0.562   2.855   1.473 -0.0080  0.2934 -0.7660
11024SOL     OW44000   0.768   5.343   4.730  0.3651 -0.1759 -0.3233
11024SOL    HW144001   0.820   5.261   4.750  0.8809  0.5660  1.4634
11024SOL    HW244002   0.823   5.424   4.748 -1.5055  0.6344  2.0851
11025SOL     OW44003   2.984   0.027   4.533  0.2308  0.2285 -0.1622
11025SOL    HW144004   2.991  -0.049   4.598  1.0613 -0.0332 -0.5503
11025SOL    HW244005   3.062   0.024   4.470  1.1259  2.3162  0.7977
11026SOL     OW44006   9.569   1.316   0.620  0.2710 -0.1257  0.9540
11026SOL    HW144007   9.495   1.363   0.669 -1.0047  0.3620 -1.3979
11026SOL    HW244008   9.642   1.382   0.601 -1.0405  0.7215 -1.3757
11027SOL     OW44009   3.423   9.849   1.531 -0.1245 -0.0144 -0.2706
11027SOL    HW144010   3.460   9.857   1.438  0.0738 -0.1468 -0.2037
11027SOL    HW244011   3.336   9.800   1.528  0.0070 -0.2443 -0.3582
11028SOL     OW44012   3.196   3.077   4.794 -0.2906  0.3398 -0.6954
11028SOL    HW144013   3.296   3.085   4.802 -0.2524 -1.4655  1.0452
11028SOL    HW244014   3.173   2.986   4.759 -1.3846  0.0224  0.8103
11029SOL     OW44015   5.960   7.168   2.860 -0.7824  0.1817 -0.3497
11029SOL    HW144016   5.965   7.131   2.767  0.2918 -1.2457  0.2613
11029SOL    HW244017   6.009   7.256   2.863 -1.4915  0.6235 -1.3012
11030SOL     OW44018   8.698   2.829   5.462  0.9087 -0.0381 -0.5127
11030SOL    HW144019   8.677   2.918   5.421  2.5161  0.3432 -0.5628
11030SOL    HW244020   8.737   2.843   5.553 -2.1120 -0.8635  0.9555
11031SOL     OW44021   2.167   9.411   3.603 -0.5092 -0.2758  0.0100
11031SOL    HW144022   2.199   9.323   3.567  2.9491  0.4514  1.1026
11031SOL    HW244023   2.111   9.395   3.685  1.2784 -1.4486  1.0429
11032SOL     OW44024   3.920   5.233   1.987  0.3300 -0.3157  0.1230
11032SOL    HW144025   3.998   5.296   1.992  0.3045 -0.2523 -0.2820
11032SOL    HW244026   3.915   5.193   1.896  0.5167 -1.1247  0.4636
11033SOL     OW44027   9.738   7.817   4.926 -0.3503 -0.1020 -1.1679
11033SOL    HW144028   9.726   7.789   4.831 -2.0731  0.1366 -1.0324
11033SOL    HW244029   9.661   7.783   4.981  1.0230 -0.9403  0.3079
11034SOL     OW44030   3.071   4.413   0.651 -0.2990  0.0136  0.4094
11034SOL    HW144031   3.131   4.353   0.597 -0.8974  1.0976 -1.5203
11034SOL    HW244032   2.976   4.385   0.637 -0.7486  2.5255 -2.0526
11035SOL     OW44033   2.306   6.301   0.761  0.3114 -0.2490 -0.4903
11035SOL    HW144034   2.399   6.301   0.798  0.2941  1.7616 -0.3908
11035SOL    HW244035   2.246   6.249   0.822  0.7164  1.2389  1.2033
11036SOL     OW44036   8.340   4.946   1.361  0.3295  0.2168  0.2923
11036SOL    HW144037   8.395   4.923   1.280 -1.9621 -0.1958 -1.2009
11036SOL    HW244038   8.363   5.037   1.393  2.6866 -0.3941  0.3989
11037SOL     OW44039   1.657   7.202   5.041 -0.2721  1.0726 -0.0991
11037SOL    HW144040   1.567   7.231   5.008 -0.7687  2.3020  2.1950
11037SOL    HW244041   1.707   7.282   5.075  1.0598  0.1801  0.0702
11038SOL     OW44042   8.555   9.512   4.463 -0.3353  0.5566  0.2061
11038SOL    HW144043   8.551   9.485   4.559  0.4159 -0.0213  0.0819
11038SOL    HW244044   8.572   9.431   4.406  0.3705  1.0562 -0.3078
11039SOL     OW44045   0.812   8.081   2.556  0.1608  0.1800  0.3257
11039SOL    HW144046   0.727   8.114   2.514 -0.1369 -2.1977 -1.0131
11039SOL    HW244047   0.890   8.124   2.510 -0.2251 -0.5822 -1.0764
11040SOL     OW44048   2.671   2.128   5.332  0.1795 -0.3146 -0.5490
11040SOL    HW144049   2.682   2.069   5.251  0.4022 -1.2243  0.1417
11040SOL    HW244050   2.645   2.072   5.410  1.8506  0.2920  0.4690
11041SOL     OW44051   3.699   4.868   3.476  0.1537 -0.0251 -0.2249
11041SOL    HW144052   3.632   4.931   3.514  0.8174  0.0000  0.9232
11041SOL    HW244053   3.729   4.901   3.386  0.1170  1.0182  0.1453
11042SOL     OW44054   8.309   9.653   4.819 -0.6265 -0.4146 -0.8842
11042SOL    HW144055   8.327   9.706   4.902 -0.8043  0.7809 -1.6058
11042SOL    HW244056   8.241   9.582   4.840  1.5653 -2.1241  0.7401
11043SOL     OW44057   8.807   6.504   5.509 -0.2534  0.3550  0.1575
11043SOL    HW144058   8.774   6.445   5.435 -0.4832  0.1523  0.4211
11043SOL    HW244059   8.795   6.457   5.596 -0.8579  0.9670  0.4128
11044SOL     OW44060   8.545   7.503   5.392  0.3898 -0.2572 -0.2801
11044SOL    HW144061   8.606   7.533   5.465  0.1965 -1.0815  0.2253
11044SOL    HW244062   8.464   7.561   5.390  1.9461  1.9820 -2.0885
11045SOL     OW44063   1.907   0.288   2.933  0.3170  0.1182  0.0702
11045SOL    HW144064   1.945   0.309   2.843  3.9554  0.6427  1.6167
11045SOL    HW244065   1.889   0.190   2.941  1.6920 -0.2000 -0.6432
11046SOL     OW44066   2.596   3.703   2.784 -0.4243  0.2172 -0.2278
11046SOL    HW144067   2.685   3.666   2.810 -0.2831  0.1103 -0.8415
11046SOL    HW244068   2.525   3.660   2.839 -0.1608 -0.2195 -0.2257
11047SOL     OW44069   4.379   9.660   2.255  0.3651 -0.0077 -0.4304
11047SOL    HW144070   4.459   9.613   2.291 -0.5838 -1.3750 -0.0985
11047SOL    HW244071   4.407   9.750   2.219  1.9147 -0.1742  0.3196
11048SOL     OW44072   9.623   4.363   5.050 -0.5137  0.0283 -0.6631
11048SOL    HW144073   9.654   4.456   5.031 -0.5138  0.0809 -0.4019
11048SOL    HW244074   9.647   4.304   4.973 -0.6358  0.2725 -0.8910
11049SOL     OW44075   0.582   9.250   5.307  0.6832 -0.3340 -0.3890
11049SOL    HW144076   0.548   9.239   5.400  0.1368  2.7030 -0.1764
11049SOL    HW244077   0.630   9.337   5.299  4.0556 -2.2220 -2.0049
11050SOL     OW44078   4.834   1.216   0.941 -0.3546  0.0844  0.5513
11050SOL    HW144079   4.872   1.234   1.031 -1.0966  2.0804  0.4895
11050SOL    HW244080   4.737   1.241   0.939 -0.5780 -0.7817 -0.5503
11051SOL     OW44081   8.656   5.246   4.156  0.4112 -0.1689  0.1812
11051SOL    HW144082   8.610   5.208   4.076  0.5074  0.0902 -0.0003
11051SOL    HW244083   8.589   5.272   4.225  0.3755 -1.1515  0.5228
11052SOL     OW44084   9.306   5.748   0.610  0.4257 -0.3786  0.1886
11052SOL    HW144085   9.394   5.733   0.654  0.3974  0.3006  0.4846
11052SOL    HW244086   9.258   5.660   0.600  1.6971 -0.9354 -1.1954
11053SOL     OW44087   6.643   0.564   0.026 -0.5813  0.2838  0.4544
11053SOL    HW144088   6.706   0.556  -0.051  0.8195 -0.8587  1.6773
11053SOL    HW244089   6.649   0.655   0.065  2.4913 -0.6666  2.3438
11054SOL     OW44090   3.561   9.661   3.743 -0.1502 -0.2235 -0.2828
11054SOL    HW144091   3.648   9.682   3.788  0.5932  1.4246 -2.3892
11054SOL    HW244092   3.489   9.719   3.780 -0.2781 -1.2798  1.1538
11055SOL     OW44093   1.139   8.460   4.618 -0.4398  0.6632 -0.3805
11055SOL    HW144094   1.047   8.427   4.598 -0.5633  0.6227  0.2541
11055SOL    HW244095   1.185   8.485   4.532 -0.7389 -0.1071 -0.7681
11056SOL     OW44096   3.667   4.766   0.193 -0.4197 -0.3324 -0.2385
11056SOL    HW144097   3.762   4.769   0.163  0.1279 -0.1697  1.4577
11056SOL    HW244098   3.654   4.829   0.269 -2.0688  0.1923 -0.9285
11057SOL     OW44099   6.871   1.678   2.808 -0.0807  0.3097  0.1798
11057SOL    HW144100   6.902   1.760   2.758 -0.2297 -0.2131 -0.7886
11057SOL    HW244101   6.927   1.600   2.781 -1.8935 -0.5405 -1.2121
11058SOL     OW44102   8.628   0.832   5.487 -0.0632  0.4076 -0.3112
11058SOL    HW144103   8.663   0.820   5.394  1.7739  1.7772  0.1526
11058SOL    HW244104   8.537   0.791   5.494 -0.6859  1.1776 -2.9869
11059SOL     OW44105   4.434   2.784   4.374 -0.0412 -0.0798  0.3586
11059SOL    HW144106   4.531   2.770   4.358 -0.0791 -1.2718  1.0737
11059SOL    HW244107   4.381   2.734   4.305 -0.1529  1.4851 -0.7149
11060SOL     OW44108   2.181   1.116   0.365 -0.4862  0.3343 -0.5283
11060SOL    HW144109   2.236   1.123   0.449  0.2241  2.7739 -1.1281
11060SOL    HW244110   2.085   1.130   0.388 -0.5563 -1.1378  0.1497
11061SOL     OW44111   1.914   0.178   3.699 -0.0940  0.0555 -0.3068
11061SOL    HW144112   1.954   0.175   3.608 -1.5436  3.0878 -1.0795
11061SOL    HW244113   1.824   0.134   3.698  0.8746 -2.0360  0.2562
11062SOL     OW44114   8.537   3.140   0.803 -0.9280 -0.0117 -0.1298
11062SOL    HW144115   8.474   3.098   0.868 -0.8548  0.3343  0.1684
11062SOL    HW244116   8.495   3.223   0.765 -1.2515 -0.5942 -1.0429
11063SOL     OW44117   1.027   9.253   3.089 -0.0913 -0.2476 -0.2121
11063SOL    HW144118   0.937   9.231   3.051 -0.2545  1.5039 -0.8868
11063SOL    HW244119   1.019   9.333   3.149  0.9338 -0.4068  0.1454
11064SOL     OW44120   9.620   0.931   1.995 -0.0424  0.1149  0.7284
11064SOL    HW144121   9.664   0.850   2.034  0.5629  0.2540  0.3584
11064SOL    HW244122   9.601   0.915   1.898 -0.4288  0.2127  0.7871
11065SOL     OW44123   9.901   7.523   5.321 -0.0364 -0.0326  0.0697
11065SOL    HW144124   9.870   7.428   5.311  0.7196 -0.1140 -1.6867
11065SOL    HW244125   9.989   7.534   5.274 -0.3791  1.6736 -0.1945
11066SOL     OW44126   0.948   4.617   4.778 -0.9718 -0.0913 -0.4959
11066SOL    HW144127   1.046   4.611   4.763 -0.6495 -0.4392  1.5774
11066SOL    HW244128   0.905   4.669   4.704  1.1934  2.7156  0.1211
11067SOL     OW44129   6.535   9.521   4.564  0.2708 -0.1480  0.1454
11067SOL    HW144130   6.471   9.591   4.532  0.6835  0.8284  1.3858
11067SOL    HW244131   6.484   9.437   4.586 -0.3728  0.1072 -0.3455
11068SOL     OW44132   7.260   7.390   3.224  0.6840  0.0694  0.4431
11068SOL    HW144133   7.196   7.449   3.274  0.2081 -0.6732  0.7252
11068SOL    HW244134   7.209   7.335   3.159  1.4181  1.7509 -1.6027
11069SOL     OW44135   1.589   7.845   3.787  0.0986 -0.0169 -0.6712
11069SOL    HW144136   1.546   7.901   3.858  2.7012  0.2370  0.7666
11069SOL    HW244137   1.574   7.888   3.698 -0.3445  1.4709  0.0936
11070SOL     OW44138   8.326   5.234   1.423 -0.0274  0.2747 -0.4489
11070SOL    HW144139   8.260   5.309   1.428 -0.2716  0.0185  0.1928
11070SOL    HW244140   8.416   5.266   1.453  0.0863  0.5679 -1.1134
11071SOL     OW44141   9.247   0.804   0.105  0.5639 -0.1840 -0.4284
11071SOL    HW144142   9.220   0.865   0.030 -0.5832  2.0704  1.7561
11071SOL    HW244143   9.166   0.755   0.139  0.4409  1.3879  1.5844
11072SOL     OW44144   1.892   1.441   3.793  0.2646  0.5113 -0.2129
11072SOL    HW144145   1.963   1.510   3.796  2.2461 -1.5474  3.3031
11072SOL    HW244146   1.921   1.365   3.735 -1.1223  1.6866 -2.5453
11073SOL     OW44147   1.978   9.339   2.689  0.3921 -0.0992  0.1667
11073SOL    HW144148   2.042   9.262   2.693 -0.8500 -1.2910 -2.2330
11073SOL    HW244149   2.029   9.424   2.682  1.7785 -0.6627  2.5717
11074SOL     OW44150   9.927   4.425   0.523 -0.7753  0.7461  0.1362
11074SOL    HW144151   9.877   4.442   0.608  0.9514 -0.5461  1.4753
11074SOL    HW244152   9.864   4.392   0.453 -2.1210  1.1369  1.1414
11075SOL     OW44153   9.952   3.328   1.348  0.1827 -0.1314  0.1724
11075SOL    HW144154  10.017   3.320   1.423  1.1074  2.0008 -0.3734
11075SOL    HW244155   9.867   3.370   1.381  0.7042  1.0930 -0.0326
11076SOL     OW44156   2.965   9.211   1.923 -0.5116  0.2665  0.3002
11076SOL    HW144157   2.878   9.259   1.919 -0.5810  0.0572 -1.4449
11076SOL    HW244158   2.954   9.126   1.974 -1.3541  0.2060  0.0299
11077SOL     OW44159   8.165   6.029   2.502  0.1740 -0.0102  0.0537
11077SOL    HW144160   8.260   6.037   2.531  0.2039 -0.5700  0.1310
11077SOL    HW244161   8.109   6.002   2.580  0.1641 -0.9627 -0.2710
11078SOL     OW44162   1.801   5.519   2.828  0.3060  0.6145 -0.0660
11078SOL    HW144163   1.828   5.609   2.793  1.2353 -0.1217 -1.2641
11078SOL    HW244164   1.842   5.447   2.772 -0.2086 -0.5709  1.0449
11079SOL     OW44165   3.275   2.247   4.054  0.0464  0.5995 -0.0430
11079SOL    HW144166   3.351   2.185   4.073  0.2703  1.0362  0.5300
11079SOL    HW244167   3.203   2.233   4.121  0.2245  1.1537  0.2723
11080SOL     OW44168   2.137   6.258   3.306  0.1297  0.2318  0.1707
11080SOL    HW144169   2.107   6.171   3.269 -0.5305  0.6322 -0.2527
11080SOL    HW244170   2.212   6.294   3.250 -0.1726  0.3402 -0.1714
11081SOL     OW44171   1.852   6.592   0.218  0.4147 -0.2961 -0.1030
11081SOL    HW144172   1.817   6.519   0.160  0.7259 -0.9060  0.4730
11081SOL    HW244173   1.922   6.644   0.168 -0.0292 -0.1850 -0.6217
11082SOL     OW44174   2.363   6.797   2.162 -0.1247 -0.1010 -0.7377
11082SOL    HW144175   2.302   6.861   2.209 -1.4619 -1.9675  0.1450
11082SOL    HW244176   2.370   6.823   2.065  0.2996  2.0313 -0.1718
11083SOL     OW44177   9.658   6.230   2.228  0.3352 -0.2822  0.4196
11083SOL    HW144178   9.691   6.203   2.318  1.5893  1.7498  0.5986
11083SOL    HW244179   9.599   6.310   2.236  0.6220  0.0431 -0.5735
11084SOL     OW44180   2.608   5.607   5.463  0.3815  0.4266 -0.4816
11084SOL    HW144181   2.601   5.511   5.490  0.5919  0.4677 -0.2835
11084SOL    HW244182   2.666   5.614   5.382 -0.1785  0.3126 -0.8953
11085SOL     OW44183   6.031   0.389   3.643  0.8063 -0.5864  0.0010
11085SOL    HW144184   6.113   0.335   3.626  0.2632 -1.1843 -0.7221
11085SOL    HW244185   6.030   0.469   3.582  0.5283 -0.9403 -0.4692
11086SOL     OW44186   1.132   2.792   0.078 -0.4849 -0.2812  0.0932
11086SOL    HW144187   1.166   2.787  -0.016  2.8812  0.1882  1.2367
11086SOL    HW244188   1.071   2.871   0.087  0.7530  0.8354 -1.2195
11087SOL     OW44189   4.021   7.464   2.970 -0.1172 -0.0886 -0.5655
11087SOL    HW144190   3.923   7.470   2.990  0.1718  0.7588  0.6965
11087SOL    HW244191   4.036   7.404   2.891 -1.7565  0.9567 -1.6983
11088SOL     OW44192   9.256   5.557   0.976 -0.4061 -0.0341 -0.1622
11088SOL    HW144193   9.338   5.503   0.957 -0.6944  0.2139 -2.2353
11088SOL    HW244194   9.283   5.651   0.998 -0.1501  0.2072 -1.4646
11089SOL     OW44195   1.863   2.086   5.381 -0.3618 -0.1439  0.8428
11089SOL    HW144196   1.910   2.067   5.467  1.2516 -0.9898 -0.1907
11089SOL    HW244197   1.815   2.003   5.351  0.6406 -0.4439  0.0081
11090SOL     OW44198   4.309   9.549   3.477  0.0728 -0.1798 -0.2840
11090SOL    HW144199   4.387   9.576   3.533 -0.3652  1.1661 -0.3129
11090SOL    HW244200   4.300   9.449   3.478  0.7274 -0.2336  1.1439
11091SOL     OW44201   4.880   8.248   1.850  0.0483 -0.0046 -0.1464
11091SOL    HW144202   4.796   8.302   1.843 -0.4456 -0.9377 -1.6406
11091SOL    HW244203   4.903   8.234   1.947 -1.0553  0.9488  0.2642
11092SOL     OW44204   1.311   7.075   1.106  0.3659  0.0407  0.1743
11092SOL    HW144205   1.387   7.030   1.059  1.1470  1.0837  0.4195
11092SOL    HW244206   1.294   7.029   1.193  0.6253 -0.2702  0.0636
11093SOL     OW44207   8.938   7.948   2.737 -0.3251 -0.0954 -0.1153
11093SOL    HW144208   9.001   7.884   2.780  0.9035  2.1995  1.5604
11093SOL    HW244209   8.846   7.933   2.772 -0.2805 -1.7175 -0.6388
11094SOL     OW44210   2.255   5.955   2.737  0.2068  0.1010 -0.4620
11094SOL    HW144211   2.352   5.970   2.717  0.7062 -0.5263  1.4006
11094SOL    HW244212   2.234   5.987   2.829 -1.4086  0.3933 -0.9085
11095SOL     OW44213   9.818   6.795   0.102  0.3148  0.1548 -0.1456
11095SOL    HW144214   9.890   6.785   0.171  0.1863 -2.5862 -0.3402
11095SOL    HW244215   9.819   6.888   0.066  2.3309  0.7776  1.4155
11096SOL     OW44216   2.128   2.429   4.196  0.4627  0.5167 -0.1277
11096SOL    HW144217   2.202   2.362   4.183 -0.6349 -0.7634  0.1546
11096SOL    HW244218   2.100   2.464   4.106  0.9604  0.5267 -0.2862
11097SOL     OW44219   8.573   7.358   4.901  1.0338 -0.7587 -0.3942
11097SOL    HW144220   8.539   7.431   4.960 -0.8875 -0.5739 -1.6964
11097SOL    HW244221   8.659   7.386   4.859 -0.5376  1.4794 -2.2125
11098SOL     OW44222   2.363   8.766   1.802 -0.1261  0.1884 -0.2606
11098SOL    HW144223   2.337   8.698   1.869 -0.9481  0.3603 -0.4006
11098SOL    HW244224   2.286   8.784   1.740 -0.0186  1.4297 -0.0632
11099SOL     OW44225   9.334   2.159   5.149  0.1489  0.0119 -0.3585
11099SOL    HW144226   9.371   2.214   5.074 -1.1417  0.1715 -0.8894
11099SOL    HW244227   9.366   2.065   5.139  1.6078  0.4454  0.0293
11100SOL     OW44228   7.987   9.704   4.664  0.1510 -0.2736 -0.0577
11100SOL    HW144229   8.014   9.685   4.570  1.6964  0.7183  0.1792
11100SOL    HW244230   7.999   9.801   4.684  1.2731 -0.7333  1.6185
11101SOL     OW44231   3.545   0.292   0.048 -0.1600  0.4041 -0.1992
11101SOL    HW144232   3.519   0.204   0.089  0.3122  0.5575  0.4389
11101SOL    HW244233   3.578   0.276  -0.045  1.2374 -0.2733  0.3980
11102SOL     OW44234   0.202   8.729   3.770  0.3614  0.0176 -0.0798
11102SOL    HW144235   0.104   8.715   3.753  0.4115 -0.4577  0.0189
11102SOL    HW244236   0.253   8.716   3.686  0.3679 -0.0068 -0.0724
11103SOL     OW44237   9.037   6.433   4.110 -0.0883  0.3530 -0.2227
11103SOL    HW144238   9.108   6.446   4.041  1.2189 -0.4781  0.9325
11103SOL    HW244239   8.974   6.362   4.080  1.4499 -1.2103  0.1401
11104SOL     OW44240   5.364   8.754   3.864  0.1866 -0.3163 -0.2870
11104SOL    HW144241   5.344   8.846   3.899  1.5116 -0.8963  2.0337
11104SOL    HW244242   5.376   8.759   3.765 -0.3914  1.8990 -0.2828
11105SOL     OW44243   9.930   5.606   5.073  0.1518 -0.6643 -0.2182
11105SOL    HW144244   9.911   5.697   5.109  0.1667 -0.7651  0.0453
11105SOL    HW244245   9.848   5.549   5.081  0.4099 -0.9434  0.4443
11106SOL     OW44246   2.809   1.672   1.016 -0.3720  0.4962 -0.4348
11106SOL    HW144247   2.768   1.751   1.062 -0.6196  1.3899 -2.1430
11106SOL    HW244248   2.909   1.679   1.023 -0.4127  0.4166  0.2950
11107SOL     OW44249   8.614   4.042   3.254 -0.0960 -0.1283 -0.4648
11107SOL    HW144250   8.525   4.026   3.211 -0.6539  2.8644 -0.4847
11107SOL    HW244251   8.605   4.035   3.353  0.2499 -2.4655 -0.5571
11108SOL     OW44252   7.771   7.166   2.101  0.0435  0.3885  0.2165
11108SOL    HW144253   7.735   7.248   2.056 -1.2043 -0.1732  0.1481
11108SOL    HW244254   7.845   7.128   2.046 -1.1788 -0.0459 -1.1876
11109SOL     OW44255   0.384   1.264   1.660  0.9958  0.6347 -0.3968
11109SOL    HW144256   0.476   1.225   1.651 -0.5038 -2.7169 -1.5475
11109SOL    HW244257   0.359   1.267   1.757  0.5360 -2.7749 -0.3656
11110SOL     OW44258   1.764   3.801   1.465 -0.0233  0.4602  0.4617
11110SOL    HW144259   1.706   3.739   1.411  0.5812  1.1066 -0.9725
11110SOL    HW244260   1.749   3.784   1.562 -0.7643 -1.0994  0.1018
11111SOL     OW44261   5.387   2.546   2.257  0.1768 -0.2609 -0.4451
11111SOL    HW144262   5.454   2.499   2.199  2.4990  0.9508  1.1879
11111SOL    HW244263   5.295   2.521   2.228  1.3222 -2.8734 -2.0159
11112SOL     OW44264   1.625   4.306   0.439 -0.6090  0.2474 -0.0063
11112SOL    HW144265   1.682   4.386   0.462 -0.1080  0.0403 -0.5223
11112SOL    HW244266   1.621   4.296   0.340 -0.3001 -0.6334  0.0671
11113SOL     OW44267   4.376   5.225   5.313  0.3094  0.3365 -0.2148
11113SOL    HW144268   4.400   5.262   5.403 -0.7301 -0.5985  0.4592
11113SOL    HW244269   4.364   5.126   5.320  0.8563  0.1727 -1.5235
11114SOL     OW44270   3.468   6.948   1.679  0.0956  0.2634 -0.6686
11114SOL    HW144271   3.419   7.022   1.632 -1.8124 -1.2817 -1.1430
11114SOL    HW244272   3.419   6.862   1.668  0.2199 -0.3986  3.1451
11115SOL     OW44273   4.898   2.649   2.982  0.2139  0.1401  0.0492
11115SOL    HW144274   4.885   2.746   3.003 -4.1541 -0.3061 -0.0994
11115SOL    HW244275   4.891   2.635   2.883 -1.8303 -0.6019  0.2708
11116SOL     OW44276   5.173   3.137   0.080 -0.2591  0.4531  0.5294
11116SOL    HW144277   5.166   3.178  -0.011  0.1651  0.9507  0.7196
11116SOL    HW244278   5.226   3.197   0.140  2.2248 -1.3618  0.2291
11117SOL     OW44279   8.091   6.384   2.423 -0.1257 -0.1309  0.4583
11117SOL    HW144280   8.091   6.426   2.513 -1.3785  1.3896 -0.2281
11117SOL    HW244281   8.181   6.345   2.404  0.0671 -0.7045  2.4575
11118SOL     OW44282   3.264   5.625   4.270 -0.0523  0.5196  0.2395
11118SOL    HW144283   3.252   5.695   4.340  0.5609  2.0736 -1.1868
11118SOL    HW244284   3.228   5.658   4.183 -2.1560 -1.9572  0.1121
11119SOL     OW44285   3.335   7.752   2.250 -0.0402  0.0713 -0.3634
11119SOL    HW144286   3.329   7.835   2.194  1.1125  0.2672 -0.2220
11119SOL    HW244287   3.428   7.743   2.286 -0.2785 -1.0402  0.0054
11120SOL     OW44288   7.548   7.798   2.563  0.2184 -0.3951 -0.4033
11120SOL    HW144289   7.484   7.776   2.637  1.1502 -2.7929 -0.2637
11120SOL    HW244290   7.497   7.813   2.478 -0.7483  0.8717  0.3820
11121SOL     OW44291   7.453   4.682   0.161 -0.2412 -0.2239  0.7690
11121SOL    HW144292   7.502   4.741   0.096 -1.9634  0.8039  0.3641
11121SOL    HW244293   7.422   4.600   0.114  1.5375 -1.1511  1.1616
11122SOL     OW44294   1.944   7.391   2.508  0.2648  0.4761  0.3138
11122SOL    HW144295   1.999   7.333   2.447  1.7795  1.1713  0.9926
11122SOL    HW244296   1.850   7.394   2.475  1.0204  0.7069 -1.9069
11123SOL     OW44297   4.467   1.637   1.935  0.5321 -0.2038 -0.4438
11123SOL    HW144298   4.379   1.609   1.896  0.2074 -0.3805  0.4176
11123SOL    HW244299   4.529   1.559   1.934  0.5046 -0.2255 -0.5459
11124SOL     OW44300   1.858   7.098   2.211  0.5671  0.2361 -0.2646
11124SOL    HW144301   1.843   7.030   2.140 -0.6461  1.0056 -0.7627
11124SOL    HW244302   1.889   7.053   2.295  0.3921 -0.8585 -0.7815
11125SOL     OW44303   8.503   0.378   0.619 -0.8466 -0.1306  0.2249
11125SOL    HW144304   8.535   0.313   0.688 -0.3129  0.8805  0.9538
11125SOL    HW244305   8.415   0.349   0.583 -1.7781  0.0272  2.3215
11126SOL     OW44306   2.074   0.165   4.799 -0.2292 -0.3420  0.1378
11126SOL    HW144307   2.095   0.068   4.814 -0.7005 -0.4059  0.3880
11126SOL    HW244308   2.002   0.173   4.731 -1.8053 -0.2691  1.7678
11127SOL     OW44309   8.257   4.410   4.818  0.9258  0.5399 -0.3818
11127SOL    HW144310   8.296   4.322   4.844  0.6627  0.4194 -0.3960
11127SOL    HW244311   8.299   4.482   4.873 -0.0770  0.2181  0.8413
11128SOL     OW44312   4.339   4.055   2.719  0.0102  0.3672  0.3517
11128SOL    HW144313   4.372   4.149   2.728  2.8894 -0.3573 -1.7217
11128SOL    HW244314   4.310   4.039   2.625 -0.3569 -0.8417  0.6596
11129SOL     OW44315   3.941   8.742   1.801 -0.3285 -0.2310  0.3120
11129SOL    HW144316   3.981   8.824   1.761  0.7392 -1.8591 -2.0850
11129SOL    HW244317   3.843   8.738   1.780 -0.5819  0.8973  1.2673
11130SOL     OW44318   3.215   0.843   5.063  0.3514 -0.2980 -0.6484
11130SOL    HW144319   3.136   0.867   5.120  0.5879  1.3054 -0.9778
11130SOL    HW244320   3.254   0.757   5.096 -0.9167 -0.5861  0.1542
11131SOL     OW44321   8.823   5.866   0.844 -0.4882 -0.2292  0.2833
11131SOL    HW144322   8.857   5.915   0.924 -1.1855 -0.1523  0.5362
11131SOL    HW244323   8.894   5.804   0.810 -0.1444 -0.1654  0.8822
11132SOL     OW44324   9.120   9.197   2.182 -0.0439 -0.0880 -0.9256
11132SOL    HW144325   9.064   9.152   2.251  1.0186 -0.5209 -0.3295
11132SOL    HW244326   9.066   9.266   2.135 -0.7452  0.3087  0.4372
11133SOL     OW44327   8.657   2.498   2.237 -0.1939 -0.5451 -0.7679
11133SOL    HW144328   8.573   2.484   2.184 -1.3909  1.8876  0.3608
11133SOL    HW244329   8.688   2.593   2.225 -0.7135  0.1903  3.0710
11134SOL     OW44330   5.473   7.422   2.840 -0.2483  0.1830  0.5144
11134SOL    HW144331   5.439   7.361   2.912 -0.5134 -0.4607 -0.1562
11134SOL    HW244332   5.415   7.503   2.834 -0.5223 -0.0029  0.6748
11135SOL     OW44333   1.711   2.043   3.100  0.4553 -0.6368  0.2005
11135SOL    HW144334   1.679   2.073   3.010 -0.5098  1.1316  1.1052
11135SOL    HW244335   1.784   2.103   3.131  1.2171 -1.6207  0.3512
11136SOL     OW44336   1.424   2.977   1.265 -0.0526  0.0587 -0.1667
11136SOL    HW144337   1.509   2.980   1.213  0.3818 -0.3313  0.5055
11136SOL    HW244338   1.442   3.006   1.359 -0.8120  0.7052 -0.2145
11137SOL     OW44339   4.024   2.958   3.739 -0.0072  0.5514  0.8644
11137SOL    HW144340   3.942   2.928   3.787  0.8851 -2.0161  0.9056
11137SOL    HW244341   4.007   2.959   3.641 -0.6045  1.7915  0.9710
11138SOL     OW44342   0.399   4.053   3.066 -0.2727  0.5941 -0.1530
11138SOL    HW144343   0.301   4.074   3.059 -0.1525  0.9520 -0.8830
11138SOL    HW244344   0.450   4.139   3.067  0.0740  0.3883 -0.4251
11139SOL     OW44345   9.246   0.346   1.880  0.0487 -0.6873 -0.6391
11139SOL    HW144346   9.226   0.442   1.898 -3.4032 -1.7773  1.9917
11139SOL    HW244347   9.327   0.318   1.932  0.0113  0.3553 -0.0199
11140SOL     OW44348   6.813   8.764   2.338  0.1736  0.2876 -0.1167
11140SOL    HW144349   6.816   8.806   2.248  2.9026  1.1882  0.3352
11140SOL    HW244350   6.904   8.771   2.381  0.2008 -4.2379  0.8237
11141SOL     OW44351   2.301   3.831   4.568  0.3863 -0.3993  0.1562
11141SOL    HW144352   2.379   3.803   4.512 -0.8603 -0.5217 -1.5366
11141SOL    HW244353   2.276   3.925   4.545  0.7355  0.0312  1.5020
11142SOL     OW44354   0.768   1.320   0.456 -0.4559  0.0215 -0.4610
11142SOL    HW144355   0.788   1.415   0.482  0.4254  0.1024 -1.3958
11142SOL    HW244356   0.726   1.273   0.533 -0.3881  1.0176  0.1997
11143SOL     OW44357   1.817   1.913   4.999 -0.0242  0.2654 -0.1087
11143SOL    HW144358   1.878   1.834   5.005  0.2112  0.5676  1.8562
11143SOL    HW244359   1.731   1.892   5.044 -0.4809  0.6635 -0.7920
11144SOL     OW44360   1.881   5.519   5.450  0.3934  0.7702 -0.0610
11144SOL    HW144361   1.904   5.423   5.431  0.7674  0.8320  0.0952
11144SOL    HW244362   1.869   5.531   5.548 -1.7301  0.4064 -0.2450
11145SOL     OW44363   7.291   6.677   3.616 -0.5707 -0.1215  0.5160
11145SOL    HW144364   7.363   6.701   3.551 -0.6984 -0.0875  0.3876
11145SOL    HW244365   7.288   6.746   3.688 -0.2120 -0.3333  0.7356
11146SOL     OW44366   0.118   6.246   3.507  0.6890 -0.2924 -0.4719
11146SOL    HW144367   0.056   6.320   3.480  2.3790  1.0266 -0.7654
11146SOL    HW244368   0.146   6.258   3.602 -1.3169 -2.1998  0.4281
11147SOL     OW44369   3.640   4.080   1.308  0.2536 -0.7753 -0.1885
11147SOL    HW144370   3.620   4.134   1.226  2.2903 -0.6209 -0.6127
11147SOL    HW244371   3.554   4.059   1.356 -0.7483  1.2110 -1.0355
11148SOL     OW44372   3.039   9.707   2.002  0.4147  0.4210 -0.5619
11148SOL    HW144373   2.964   9.725   2.065 -0.2968 -0.6084 -1.1086
11148SOL    HW244374   3.016   9.630   1.942  1.9377  0.0237 -0.6755
11149SOL     OW44375   3.501   0.522   3.014 -0.0763  0.4403  0.3067
11149SOL    HW144376   3.454   0.591   2.959  1.6979  0.3472 -1.4046
11149SOL    HW244377   3.597   0.517   2.985  0.1418 -1.8075  1.3385
11150SOL     OW44378   3.618   7.939   1.007  0.3759  0.4817  0.5099
11150SOL    HW144379   3.682   7.978   0.942  2.8015 -1.4273  1.6862
11150SOL    HW244380   3.634   7.978   1.098 -0.3020  0.1646  0.7754
11151SOL     OW44381   9.375   3.584   1.869  0.1954 -0.4913 -0.2965
11151SOL    HW144382   9.370   3.551   1.774 -3.1479  0.3228 -0.4676
11151SOL    HW244383   9.309   3.658   1.881  2.0242  0.7724  2.1706
11152SOL     OW44384   2.135   8.103   4.345 -0.2381 -0.1827 -0.5542
11152SOL    HW144385   2.179   8.073   4.261  0.6621 -0.0199 -0.1468
11152SOL    HW244386   2.205   8.133   4.410 -0.6143 -3.5676  1.5641
11153SOL     OW44387   8.066   2.959   3.087  0.3505  0.2657 -0.7362
11153SOL    HW144388   8.046   2.937   2.991  0.2388 -1.1289 -0.4127
11153SOL    HW244389   8.161   2.935   3.108  0.3160  0.3715 -0.4561
11154SOL     OW44390   4.577   4.643   0.333  0.7920 -0.1074 -0.0237
11154SOL    HW144391   4.641   4.597   0.394 -0.0715 -3.1184 -1.2753
11154SOL    HW244392   4.487   4.646   0.375  0.6987 -0.1794 -0.2157
11155SOL     OW44393   1.404   0.216   1.758 -0.7940  0.3831  0.4296
11155SOL    HW144394   1.321   0.230   1.704 -0.9185 -0.0070  0.5162
11155SOL    HW244395   1.416   0.118   1.776  0.2847  0.3182 -0.5356
11156SOL     OW44396   0.968   4.772   4.520 -0.7271  0.1696  0.2328
11156SOL    HW144397   1.019   4.687   4.505  1.6948  1.5912 -0.0235
11156SOL    HW244398   0.950   4.815   4.431  0.3007  1.1603  0.4957
11157SOL     OW44399   4.941   2.579   0.217  0.1508  0.1490 -0.5275
11157SOL    HW144400   4.968   2.482   0.216  1.4021  0.4567  1.0386
11157SOL    HW244401   4.842   2.586   0.221  0.0787 -1.0898  0.0904
11158SOL     OW44402   1.079   6.128   2.836  0.5225  0.0402  0.0258
11158SOL    HW144403   1.136   6.179   2.900 -0.0280 -1.5105  1.7751
11158SOL    HW244404   1.064   6.035   2.870 -4.4840  0.8847  0.5374
11159SOL     OW44405   3.047   9.136   5.397 -0.2021  0.0621  0.0887
11159SOL    HW144406   3.140   9.102   5.381 -0.8374 -1.4535 -0.3870
11159SOL    HW244407   3.013   9.180   5.314  0.5158  1.6958  0.6226
11160SOL     OW44408   9.696   4.817   2.617  0.1831  0.0945  0.2246
11160SOL    HW144409   9.749   4.733   2.615  0.3578  0.1789  1.0313
11160SOL    HW244410   9.599   4.795   2.628  0.2118 -0.0097  0.2573
11161SOL     OW44411   1.257   5.146   5.310 -0.3619  0.2716  0.5548
11161SOL    HW144412   1.318   5.107   5.379 -0.5510 -0.9197  0.0613
11161SOL    HW244413   1.183   5.081   5.290 -1.4989  1.4815  0.7658
11162SOL     OW44414   0.852   7.087   0.065  0.1017 -0.3025  0.1954
11162SOL    HW144415   0.803   7.011   0.108  2.5377 -1.6477  0.7296
11162SOL    HW244416   0.877   7.061  -0.028  0.3956  0.0879  0.1664
11163SOL     OW44417   8.215   4.291   5.544 -0.5182  0.4823 -0.2780
11163SOL    HW144418   8.289   4.357   5.535  0.1200 -0.0110  1.1781
11163SOL    HW244419   8.227   4.239   5.629 -2.9776  0.9815  0.4146
11164SOL     OW44420   2.870   5.413   3.352 -0.3922  0.0340 -0.3346
11164SOL    HW144421   2.867   5.462   3.264  0.0443  0.1622 -0.2784
11164SOL    HW244422   2.803   5.453   3.414  0.2931  0.8802 -0.1253
11165SOL     OW44423   0.951   7.721   1.482  0.3315 -0.3987 -0.0316
11165SOL    HW144424   0.906   7.652   1.425 -0.5339 -1.0603  1.4203
11165SOL    HW244425   0.911   7.811   1.463  0.8680 -0.4250 -1.3148
11166SOL     OW44426   6.298   1.147   2.861 -0.1840  0.8720 -0.3310
11166SOL    HW144427   6.290   1.247   2.851 -1.2037  0.7311 -0.9902
11166SOL    HW244428   6.287   1.123   2.958 -0.4073  1.3523 -0.2347
11167SOL     OW44429   2.956   9.657   5.571 -0.3484 -0.1134  0.1051
11167SOL    HW144430   2.978   9.561   5.587  1.8882 -0.1151 -2.5644
11167SOL    HW244431   2.858   9.671   5.581 -0.7376 -2.7294  0.3032
11168SOL     OW44432   1.947   5.360   2.676  0.0015  0.1637 -0.4846
11168SOL    HW144433   1.878   5.370   2.604  0.0582  0.2592 -0.5252
11168SOL    HW244434   2.022   5.303   2.642 -1.1251 -1.8387  0.3180
11169SOL     OW44435   6.018   9.614   2.641 -0.0050  0.0459  0.2369
11169SOL    HW144436   6.019   9.708   2.606 -0.1557 -0.1151 -0.2126
11169SOL    HW244437   5.927   9.575   2.626  0.7320 -0.9634 -1.7367
11170SOL     OW44438   0.121   0.537   5.037 -0.0255 -0.7225 -0.4361
11170SOL    HW144439   0.208   0.575   5.004  0.2243 -2.7874 -2.2913
11170SOL    HW244440   0.139   0.473   5.111 -0.0051 -0.6875 -0.4109
11171SOL     OW44441   5.122   8.806   1.744 -0.1921 -0.2811 -0.1588
11171SOL    HW144442   5.085   8.731   1.689  2.3628 -0.8238 -1.2011
11171SOL    HW244443   5.221   8.794   1.755 -0.1791  1.4710  2.0012
11172SOL     OW44444   2.985   4.533   1.924  0.7147  0.6121 -0.2710
11172SOL    HW144445   3.013   4.620   1.965  0.7602  0.2270  0.5221
11172SOL    HW244446   3.034   4.458   1.968 -0.9462 -0.0052  0.5826
11173SOL     OW44447   5.830   4.598   0.147 -0.1607  0.0214 -0.8751
11173SOL    HW144448   5.920   4.563   0.121  0.3202  1.3540 -1.0184
11173SOL    HW244449   5.810   4.571   0.242  1.4233  1.7449 -0.0288
11174SOL     OW44450   8.519   1.638   4.747 -0.5179 -0.4002  0.5335
11174SOL    HW144451   8.593   1.627   4.813 -0.1444  1.8191  0.5137
11174SOL    HW244452   8.435   1.666   4.795 -0.7415 -0.6311  0.2826
11175SOL     OW44453   3.437   7.776   4.989 -0.2735 -0.3162  0.2853
11175SOL    HW144454   3.433   7.865   5.034 -1.9764 -0.3176  0.1688
11175SOL    HW244455   3.414   7.786   4.892 -1.6762 -1.0426  0.5261
11176SOL     OW44456   0.901   2.977   0.071 -0.0181 -0.4055 -0.2020
11176SOL    HW144457   0.849   3.029   0.004 -0.5605  0.3013  0.7455
11176SOL    HW244458   0.838   2.926   0.130  0.4949 -1.8404 -0.8819
11177SOL     OW44459   3.763   9.649   3.314 -0.1033  0.2736  0.0248
11177SOL    HW144460   3.683   9.709   3.321  0.0571  0.2615  2.1618
11177SOL    HW244461   3.845   9.703   3.296  0.2586  0.8936  3.2514
11178SOL     OW44462   4.196   0.847   4.186 -0.2436  0.4061 -0.1570
11178SOL    HW144463   4.259   0.789   4.135  0.0312  1.0758 -0.5824
11178SOL    HW244464   4.236   0.937   4.198 -0.7154  0.5385  0.4134
11179SOL     OW44465   7.261   8.914   3.300  0.3206  0.1617  0.0435
11179SOL    HW144466   7.185   8.919   3.236  0.1496 -0.6813  0.1726
11179SOL    HW244467   7.269   9.001   3.349  0.1085  0.6193 -0.7175
11180SOL     OW44468   9.712   1.189   2.027 -0.4605 -0.3744 -0.2663
11180SOL    HW144469   9.661   1.104   2.010 -1.3515  0.0231  0.4163
11180SOL    HW244470   9.733   1.196   2.124 -1.2793  0.6776 -0.1557
11181SOL     OW44471   8.352   3.348   0.745 -0.3389  0.3051 -0.5884
11181SOL    HW144472   8.300   3.412   0.801 -1.6931  0.8568 -2.4069
11181SOL    HW244473   8.294   3.270   0.721  0.6047 -0.5203 -0.2160
11182SOL     OW44474   8.283   3.942   5.496 -0.2314  0.4728 -0.5501
11182SOL    HW144475   8.357   3.968   5.558  0.2026 -0.7309 -0.5358
11182SOL    HW244476   8.205   3.910   5.548  0.4495 -1.3590 -0.6223
11183SOL     OW44477   8.380   2.603   3.563 -0.4171  0.6902  0.4170
11183SOL    HW144478   8.433   2.520   3.576 -0.4020  0.3900 -1.4639
11183SOL    HW244479   8.443   2.680   3.550 -0.3950  0.2909 -2.0857
11184SOL     OW44480   7.178   0.766   4.967 -0.1965  0.4333 -0.0446
11184SOL    HW144481   7.266   0.805   4.995  0.1011  1.1460 -1.8953
11184SOL    HW244482   7.176   0.669   4.991  1.1871  0.3536 -0.1742
11185SOL     OW44483   1.129   3.909   2.454  0.0984 -0.1984 -0.1156
11185SOL    HW144484   1.057   3.848   2.420  0.1990  0.0727 -0.8156
11185SOL    HW244485   1.192   3.930   2.380 -0.7406  1.9245 -0.2551
11186SOL     OW44486   0.490   4.250   4.377 -0.2145 -0.1853 -0.0136
11186SOL    HW144487   0.542   4.166   4.362  0.6224  0.3181 -0.0057
11186SOL    HW244488   0.434   4.270   4.297  1.9084  0.8653 -1.2975
11187SOL     OW44489   8.139   8.218   2.294 -0.1590 -0.3169 -0.6127
11187SOL    HW144490   8.080   8.138   2.295  0.7885 -1.0751 -2.5356
11187SOL    HW244491   8.215   8.204   2.357 -1.2599  0.0708  0.8100
11188SOL     OW44492   7.521   3.077   1.264 -0.0190 -0.0046 -0.4417
11188SOL    HW144493   7.458   3.020   1.211  0.4982 -1.6949  0.7153
11188SOL    HW244494   7.473   3.158   1.298 -0.6889  0.4181 -2.3354
11189SOL     OW44495   9.465   5.744   2.028  0.9463 -0.1822  0.0177
11189SOL    HW144496   9.374   5.741   2.070  2.0191  0.4133  2.4178
11189SOL    HW244497   9.524   5.677   2.072  2.1387  0.5698 -0.4223
11190SOL     OW44498   2.468   5.235   0.325  0.0188  0.0176  0.0013
11190SOL    HW144499   2.513   5.274   0.406 -0.2718  0.5897 -0.1040
11190SOL    HW244500   2.409   5.160   0.353  2.0607 -1.6266 -0.0217
11191SOL     OW44501   9.200   3.286   1.934  0.6418 -0.4052  0.5329
11191SOL    HW144502   9.281   3.276   1.876 -0.7098 -0.7354 -1.3475
11191SOL    HW244503   9.176   3.197   1.974  0.4776 -0.5673  0.0761
11192SOL     OW44504   9.841   9.754   0.310 -0.0506  0.4818  0.1704
11192SOL    HW144505   9.807   9.711   0.227  3.0689  0.3423 -1.0946
11192SOL    HW244506   9.816   9.699   0.389 -1.3189 -0.4269 -0.8472
11193SOL     OW44507   5.891   9.488   2.029 -0.7092 -0.2195  0.0077
11193SOL    HW144508   5.885   9.395   1.993 -1.0978  0.4694 -1.8142
11193SOL    HW244509   5.830   9.498   2.108 -1.2319 -1.3086 -0.2541
11194SOL     OW44510   7.508   0.809   2.528  0.0311  0.1560 -0.1335
11194SOL    HW144511   7.456   0.734   2.488  0.3130 -0.3120  0.3791
11194SOL    HW244512   7.493   0.892   2.474  0.3942 -0.4681 -1.2028
11195SOL     OW44513   9.164   9.419   1.060 -1.0147 -0.2998  0.4459
11195SOL    HW144514   9.156   9.335   1.007  1.4092 -1.2813  1.5595
11195SOL    HW244515   9.168   9.498   0.999 -1.2150 -1.1675 -0.6937
11196SOL     OW44516   3.351   8.960   0.618 -0.5265  0.3401 -0.6986
11196SOL    HW144517   3.266   8.912   0.638  0.3328 -0.9485 -0.0863
11196SOL    HW244518   3.370   8.957   0.520 -1.3437  0.9074 -0.8754
11197SOL     OW44519   0.931   0.987   3.569 -0.3048  0.5675  0.0594
11197SOL    HW144520   0.850   1.017   3.517 -0.7729 -0.0964  0.3869
11197SOL    HW244521   0.996   1.062   3.577 -1.3869  1.4389  0.7452
11198SOL     OW44522   3.023   6.926   4.258 -0.7171  0.0396  0.1294
11198SOL    HW144523   2.987   6.860   4.324 -2.1786  0.5373 -0.1576
11198SOL    HW244524   2.996   6.899   4.165 -3.2857  2.2197  0.1808
11199SOL     OW44525   0.017   3.937   3.717 -0.5089 -0.1551  0.3092
11199SOL    HW144526  -0.006   3.854   3.767 -0.7866 -1.4763 -1.9451
11199SOL    HW244527  -0.060   4.001   3.720 -0.4086 -0.0903  1.7738
11200SOL     OW44528   5.836   0.943   0.982  0.2017 -0.2426 -0.2127
11200SOL    HW144529   5.880   0.921   1.069 -0.9017 -2.4179 -0.1511
11200SOL    HW244530   5.740   0.915   0.985  0.3818 -1.2531 -2.4359
11201SOL     OW44531   5.394   9.734   3.055 -0.2746 -0.0784 -0.1104
11201SOL    HW144532   5.441   9.819   3.031 -0.1905 -0.1633 -0.2513
11201SOL    HW244533   5.430   9.700   3.142  2.1482 -1.7637 -1.7072
11202SOL     OW44534   9.253   7.437   2.250 -0.1057 -0.9067  0.1012
11202SOL    HW144535   9.279   7.425   2.346  1.5670  0.1989 -0.1979
11202SOL    HW244536   9.159   7.407   2.237 -1.8462  2.8820  3.0173
11203SOL     OW44537   4.858   8.751   4.637 -0.1437  0.2241 -0.7569
11203SOL    HW144538   4.761   8.738   4.616 -0.2718  1.1844 -0.7901
11203SOL    HW244539   4.909   8.668   4.614 -1.4409 -1.5020  2.2528
11204SOL     OW44540   0.616   4.055   1.250 -0.1550  0.4524  0.0846
11204SOL    HW144541   0.567   4.009   1.176 -1.2841 -0.8788  1.6350
11204SOL    HW244542   0.714   4.044   1.237 -0.3597 -0.3545 -0.8326
11205SOL     OW44543   0.875   8.958   0.847  0.8807  0.0931  0.1014
11205SOL    HW144544   0.926   8.880   0.883  2.8830  1.5098  0.4089
11205SOL    HW244545   0.879   8.958   0.748  1.0501 -0.1030  0.1085
11206SOL     OW44546   8.113   1.102   1.060 -0.3686  0.1231  0.1025
11206SOL    HW144547   8.022   1.130   1.031 -0.2387  1.4239  0.8854
11206SOL    HW244548   8.117   1.103   1.160  0.0894 -1.2924  0.1071
11207SOL     OW44549   8.989   3.127   0.627 -0.7794 -0.6114  0.4983
11207SOL    HW144550   8.902   3.172   0.605 -0.0120  0.3354 -0.6755
11207SOL    HW244551   9.063   3.194   0.622  0.1659 -1.6476  0.4255
11208SOL     OW44552   3.307   4.264   1.189 -0.6869 -0.0650 -0.4056
11208SOL    HW144553   3.277   4.359   1.177 -0.5703  0.2371  1.4740
11208SOL    HW244554   3.233   4.212   1.231 -0.5454 -0.6734 -0.9110
11209SOL     OW44555   3.452   3.900   4.142  0.6840 -0.4740  0.4257
11209SOL    HW144556   3.430   3.987   4.187  2.2888 -0.9915  2.2832
11209SOL    HW244557   3.463   3.916   4.043 -0.0036  1.2422  0.6098
11210SOL     OW44558   2.393   7.183   2.036 -0.3930  0.3310  0.2111
11210SOL    HW144559   2.300   7.153   2.059 -0.4018  1.0842  1.2384
11210SOL    HW244560   2.392   7.282   2.019  0.5363  0.6876  2.1019
11211SOL     OW44561   0.444   8.551   2.052  0.3970  0.0860 -0.2734
11211SOL    HW144562   0.347   8.554   2.029  0.7024 -1.9079 -1.8770
11211SOL    HW244563   0.462   8.617   2.125 -1.4791  3.1336 -2.4062
11212SOL     OW44564   4.708   9.927   0.714  0.1746 -0.1362 -0.2193
11212SOL    HW144565   4.634   9.864   0.739  0.0770  0.1145  0.1296
11212SOL    HW244566   4.758   9.954   0.796 -1.1724  1.9770 -0.0561
11213SOL     OW44567   2.758   5.868   5.311 -0.4430 -0.0835  0.3137
11213SOL    HW144568   2.743   5.785   5.258  1.1437  1.3458 -2.5144
11213SOL    HW244569   2.851   5.868   5.346  0.2405  1.3742 -1.4194
11214SOL     OW44570   7.871   3.532   0.424  0.1674  0.0549  0.3328
11214SOL    HW144571   7.792   3.589   0.447 -0.3660  0.2845 -1.9099
11214SOL    HW244572   7.867   3.447   0.476 -1.2906  0.2750  0.6180
11215SOL     OW44573   2.323   4.124   3.249  0.0973 -0.0915 -0.7264
11215SOL    HW144574   2.406   4.068   3.245  1.2772  1.6395 -1.1100
11215SOL    HW244575   2.254   4.078   3.305  1.8239 -0.8946  0.7959
11216SOL     OW44576   7.278   0.987   3.366 -0.1424  0.1050  0.0732
11216SOL    HW144577   7.372   1.022   3.371 -1.0717  2.5805  0.8586
11216SOL    HW244578   7.230   1.007   3.451 -0.4275 -4.1490  1.0245
11217SOL     OW44579   8.035   1.940   3.440  0.0313  0.1654 -0.3754
11217SOL    HW144580   7.936   1.950   3.450  0.3779  1.9103  1.6398
11217SOL    HW244581   8.055   1.884   3.359 -2.5931 -0.6208 -0.5272
11218SOL     OW44582   2.192   3.107   5.088 -0.2350  0.3126  0.1428
11218SOL    HW144583   2.223   3.162   5.011  2.1463  1.6443  1.9864
11218SOL    HW244584   2.209   3.010   5.070  1.4417  0.7198 -0.5174
11219SOL     OW44585   5.028   0.432   2.032  0.1577 -0.6871 -0.0110
11219SOL    HW144586   5.080   0.416   1.948 -2.1191  2.0165 -2.0147
11219SOL    HW244587   4.952   0.368   2.037 -0.0440 -0.4694 -0.2977
11220SOL     OW44588   4.348   4.735   1.128  1.0541  0.6072 -0.0652
11220SOL    HW144589   4.423   4.801   1.126 -1.3829  3.4868 -0.0731
11220SOL    HW244590   4.261   4.783   1.128 -0.8629 -2.6583 -1.0288
11221SOL     OW44591   3.197   9.504   0.793  0.6136  0.6490 -0.8400
11221SOL    HW144592   3.236   9.588   0.757 -0.6200  2.2429  1.3805
11221SOL    HW244593   3.098   9.504   0.778  0.4376  0.1793  0.2687
11222SOL     OW44594   1.017   7.362   4.801 -0.0530 -0.4661  0.3930
11222SOL    HW144595   1.042   7.268   4.780 -0.0307 -0.3289 -0.2227
11222SOL    HW244596   1.098   7.414   4.826  0.3636  0.0584 -1.9174
11223SOL     OW44597   4.728   6.037   2.236 -0.0954 -0.0016  0.0598
11223SOL    HW144598   4.783   6.082   2.306 -1.2101  1.2217  0.1722
11223SOL    HW244599   4.636   6.022   2.270 -1.1061  2.0114 -1.6230
11224SOL     OW44600   1.614   2.658   0.446 -0.5984 -0.1321 -0.4023
11224SOL    HW144601   1.709   2.683   0.464  0.1433 -1.9021 -1.6753
11224SOL    HW244602   1.581   2.705   0.365 -0.7932  0.4149 -0.0105
11225SOL     OW44603   7.791   2.801   3.345 -0.6699 -0.0487 -0.4594
11225SOL    HW144604   7.860   2.860   3.387 -1.0381  0.1974 -0.2021
11225SOL    HW244605   7.826   2.708   3.340  0.3422  0.3878 -1.8513
11226SOL     OW44606   8.439   6.481   2.278  0.0550 -0.4127  0.1926
11226SOL    HW144607   8.484   6.518   2.196 -0.7943  0.0300 -0.0884
11226SOL    HW244608   8.408   6.388   2.260  0.9564 -0.7626  0.4278
11227SOL     OW44609   0.252   1.770   2.786 -0.3912 -0.2814  0.2772
11227SOL    HW144610   0.336   1.733   2.824 -0.0762 -0.0971 -0.2410
11227SOL    HW244611   0.214   1.839   2.849  0.8521  1.0160 -0.3741
11228SOL     OW44612   4.067   8.195   1.375  0.1900 -0.0366 -0.1736
11228SOL    HW144613   4.058   8.149   1.287 -1.9963 -1.1379  0.6163
11228SOL    HW244614   4.046   8.292   1.364 -1.4928 -0.4346 -0.6120
11229SOL     OW44615   3.728   8.568   3.299 -0.0377 -0.4620  0.3187
11229SOL    HW144616   3.784   8.647   3.322 -0.7881  0.1520  0.0789
11229SOL    HW244617   3.710   8.567   3.200 -3.0425  1.1303  0.7825
11230SOL     OW44618   1.051   8.084   1.031 -0.2734 -0.8352  0.6889
11230SOL    HW144619   1.100   8.021   1.092  1.3365 -1.3962 -1.1059
11230SOL    HW244620   0.995   8.031   0.967  1.2785 -0.5310 -0.9917
11231SOL     OW44621   2.504   8.455   3.586  0.0063 -0.4967  0.8296
11231SOL    HW144622   2.413   8.475   3.552  0.1230  1.3379  1.5014
11231SOL    HW244623   2.505   8.366   3.631 -1.2216 -0.9328 -0.0089
11232SOL     OW44624   2.609   4.814   2.186 -0.1232  0.1937  0.1531
11232SOL    HW144625   2.574   4.730   2.145 -1.0986  0.6303  0.0786
11232SOL    HW244626   2.698   4.796   2.226  0.7274 -0.3137 -1.8943
11233SOL     OW44627   8.605   4.797   3.488 -0.4347 -0.4399 -0.2680
11233SOL    HW144628   8.535   4.755   3.431 -1.0167 -0.4315  0.4441
11233SOL    HW244629   8.683   4.823   3.430 -2.3851  2.6240 -1.6545
11234SOL     OW44630   1.696   3.088   0.591 -0.1686 -0.3013 -0.3137
11234SOL    HW144631   1.777   3.047   0.634 -0.0516  2.1076  1.8690
11234SOL    HW244632   1.614   3.061   0.641 -0.3594 -0.0036 -0.4682
11235SOL     OW44633   1.740   7.579   0.446  0.1902  0.0522 -0.1840
11235SOL    HW144634   1.824   7.556   0.396  0.2642  2.2125 -1.1176
11235SOL    HW244635   1.709   7.499   0.498  0.2705 -2.2197 -3.4599
11236SOL     OW44636   5.378   9.022   3.301  0.6518 -0.5481  0.0766
11236SOL    HW144637   5.364   9.065   3.390  0.2790 -1.6094  0.5330
11236SOL    HW244638   5.326   9.073   3.232  0.8890  0.2369  0.4765
11237SOL     OW44639   9.797   9.973   1.876 -0.0170  0.5989  0.2511
11237SOL    HW144640   9.767   9.891   1.826 -1.3276  1.0143  0.3180
11237SOL    HW244641   9.879   9.952   1.929 -0.9471 -0.9772  1.1076
11238SOL     OW44642   6.379   8.977   3.998 -0.3174 -0.0459 -0.8296
11238SOL    HW144643   6.398   9.069   4.032 -0.7349  0.4071 -1.7967
11238SOL    HW244644   6.418   8.910   4.060  0.2834  0.7905 -0.2888
11239SOL     OW44645   4.722   5.053   2.398 -0.2850  0.1894 -0.1797
11239SOL    HW144646   4.781   4.994   2.343  0.8165  0.1993  0.9505
11239SOL    HW244647   4.740   5.035   2.495 -2.2021  0.1428  0.1889
11240SOL     OW44648   0.293   7.661   3.991  0.3506 -0.0098 -0.2541
11240SOL    HW144649   0.223   7.591   3.977  1.2985 -0.9314 -0.4048
11240SOL    HW244650   0.249   7.751   3.994 -0.8252 -0.5637 -0.4743
11241SOL     OW44651   2.000   3.865   4.604  0.0663 -0.4770 -0.5189
11241SOL    HW144652   2.053   3.889   4.686  1.1702  0.5080 -1.5011
11241SOL    HW244653   1.955   3.777   4.619 -0.7330  0.2548  1.6015
11242SOL     OW44654   1.212   2.858   5.472  0.1380 -0.1229 -0.2115
11242SOL    HW144655   1.175   2.948   5.498 -0.4237 -1.0139  2.1495
11242SOL    HW244656   1.185   2.838   5.378 -4.0418  0.0004  0.8378
11243SOL     OW44657   9.382   8.219   2.131 -1.0584  0.1306 -0.3075
11243SOL    HW144658   9.368   8.135   2.184  0.2865  0.3587  0.4159
11243SOL    HW244659   9.381   8.196   2.033  3.9834 -1.6031 -0.1398
11244SOL     OW44660   1.910   1.821   0.637  0.0630  0.5087 -0.1473
11244SOL    HW144661   1.847   1.882   0.685  0.2210  2.4095 -2.2368
11244SOL    HW244662   1.870   1.794   0.549  0.5161 -1.4565  0.2298
11245SOL     OW44663   4.458   7.967   5.388 -0.2553 -0.3163 -0.0735
11245SOL    HW144664   4.550   7.931   5.398 -0.6042 -0.6112  2.4020
11245SOL    HW244665   4.432   7.966   5.292  1.9725 -1.0596 -0.6994
11246SOL     OW44666   4.640   0.291   3.985  0.1647  0.0027 -0.1167
11246SOL    HW144667   4.596   0.344   3.913 -1.4260 -1.4682 -0.2548
11246SOL    HW244668   4.610   0.324   4.074 -0.5603 -0.4280 -0.1965
11247SOL     OW44669   9.850   0.026   3.726 -0.1804  0.6158 -0.2132
11247SOL    HW144670   9.836   0.107   3.784 -1.9150  1.5523 -1.8620
11247SOL    HW244671   9.780  -0.042   3.747 -0.2346  0.5650 -0.5629
11248SOL     OW44672   5.314   1.386   4.249  0.3858  0.1049  0.0040
11248SOL    HW144673   5.277   1.367   4.157 -0.8106  1.9251  0.0819
11248SOL    HW244674   5.368   1.308   4.280 -1.9926 -1.9502 -0.8668
11249SOL     OW44675   7.890   7.213   3.009 -0.0301 -0.2414 -0.2657
11249SOL    HW144676   7.852   7.298   2.971  3.4243  0.9024 -1.4105
11249SOL    HW244677   7.887   7.142   2.939 -1.0837 -0.4961  0.0302
11250SOL     OW44678   3.299   6.520   2.254  0.3862 -0.2774 -0.1142
11250SOL    HW144679   3.219   6.462   2.260  0.7396 -0.7352  0.2285
11250SOL    HW244680   3.362   6.484   2.185 -0.2686  0.7930 -1.3104
11251SOL     OW44681   1.365   9.157   0.987  0.0843 -0.3788 -0.1145
11251SOL    HW144682   1.307   9.179   0.908  0.6369  0.8616 -0.1789
11251SOL    HW244683   1.429   9.231   1.003 -0.4768 -0.3122  1.9545
11252SOL     OW44684   5.488   0.012   3.626  0.6128 -0.2393  0.1666
11252SOL    HW144685   5.496  -0.085   3.603 -0.2018 -0.3102  0.1749
11252SOL    HW244686   5.392   0.039   3.625  0.6846  0.1313  1.9451
11253SOL     OW44687   1.940   7.462   2.950  0.4452 -0.5908 -0.5168
11253SOL    HW144688   1.857   7.416   2.979  0.4329  1.3751  2.9188
11253SOL    HW244689   1.995   7.401   2.893 -2.3801 -2.5976 -1.1554
11254SOL     OW44690   1.967   1.724   0.099 -0.1852 -0.1864  0.2451
11254SOL    HW144691   2.001   1.660   0.168  1.7317 -1.4482 -1.8151
11254SOL    HW244692   2.039   1.744   0.033 -1.7683  1.5575 -1.0189
11255SOL     OW44693   8.035   8.109   4.404  0.3495 -0.0461 -0.1958
11255SOL    HW144694   7.986   8.040   4.351  0.9005 -1.5278  1.1942
11255SOL    HW244695   8.101   8.155   4.344  0.1594 -0.8969 -1.0741
11256SOL     OW44696   9.556   5.546   4.042 -0.0491 -0.2070  0.0115
11256SOL    HW144697   9.599   5.502   3.963 -1.9437 -3.2415  0.5612
11256SOL    HW244698   9.626   5.573   4.107  1.4769  1.4966 -2.2693
11257SOL     OW44699   2.534   3.158   3.087 -0.1557 -0.3758 -0.0537
11257SOL    HW144700   2.559   3.069   3.127  0.1900 -0.2436  0.0263
11257SOL    HW244701   2.609   3.223   3.102 -0.0087 -0.3295 -0.9465
11258SOL     OW44702   4.498   1.748   0.721  0.0367  0.2855  0.5740
11258SOL    HW144703   4.427   1.703   0.666  0.0451  2.4585 -1.2748
11258SOL    HW244704   4.588   1.719   0.688  0.0342 -0.5134  1.2550
11259SOL     OW44705   0.888   2.498   2.321  0.7416 -0.9447 -0.0313
11259SOL    HW144706   0.845   2.516   2.233  0.1639 -1.9228  0.0418
11259SOL    HW244707   0.949   2.574   2.345  1.2747 -0.9047 -1.4909
11260SOL     OW44708   3.936   5.153   1.683 -0.6365 -0.5979 -0.2661
11260SOL    HW144709   3.870   5.087   1.647 -2.2106  1.4106 -1.1969
11260SOL    HW244710   3.911   5.245   1.653  1.7043  0.4070  0.7017
11261SOL     OW44711   3.382   6.659   1.081 -0.1717 -0.1835 -0.4154
11261SOL    HW144712   3.449   6.725   1.047 -0.3948  0.9740  1.3210
11261SOL    HW244713   3.313   6.707   1.135 -1.2748 -1.6334 -0.5110
11262SOL     OW44714   3.292   0.913   0.165 -1.0240  0.1507  0.2283
11262SOL    HW144715   3.251   0.921   0.074 -1.2169  1.2818  0.4083
11262SOL    HW244716   3.335   0.823   0.174 -1.6028 -0.2356 -0.7310
11263SOL     OW44717   1.657   6.414   1.974  0.0612  0.1137 -0.4544
11263SOL    HW144718   1.576   6.470   1.952  0.5492  0.5714 -1.0850
11263SOL    HW244719   1.646   6.323   1.935  1.0264  0.9890 -2.8059
11264SOL     OW44720   3.833   3.056   5.532  0.8237 -0.0081  0.0538
11264SOL    HW144721   3.928   3.023   5.525  0.2420 -1.3782 -1.5348
11264SOL    HW244722   3.793   3.022   5.617  1.3540 -0.4506  0.1329
11265SOL     OW44723   4.225   7.998   3.037 -1.0041  0.0742 -0.0991
11265SOL    HW144724   4.304   7.939   3.022 -2.3559 -1.1972 -2.4961
11265SOL    HW244725   4.178   7.971   3.121  0.4281  0.0847  0.7160
11266SOL     OW44726   9.173   3.802   3.499  0.0306  0.1624 -0.3761
11266SOL    HW144727   9.232   3.752   3.435  1.1165  0.1668  0.5987
11266SOL    HW244728   9.230   3.844   3.570 -1.0172  1.4607 -0.2882
11267SOL     OW44729   8.365   0.697   4.245 -0.2766  0.2470 -0.7530
11267SOL    HW144730   8.298   0.770   4.229 -0.8357 -0.1955 -0.4351
11267SOL    HW244731   8.378   0.684   4.343 -0.1548 -0.0640 -0.8082
11268SOL     OW44732   1.433   7.337   4.497  0.0032  0.0493 -0.3226
11268SOL    HW144733   1.528   7.321   4.523  0.1367 -0.7666 -1.2742
11268SOL    HW244734   1.430   7.393   4.414 -0.3604  0.6609  0.1017
11269SOL     OW44735   8.742   9.852   5.617 -0.2171 -0.1217 -0.1924
11269SOL    HW144736   8.820   9.820   5.563 -0.2973  1.9257 -1.5882
11269SOL    HW244737   8.761   9.944   5.651 -1.6990  0.0765  0.1215
11270SOL     OW44738   0.070   2.907   4.532  0.0695 -0.5041 -0.6893
11270SOL    HW144739   0.006   2.900   4.456 -0.5616  1.0400 -0.3151
11270SOL    HW244740   0.105   3.000   4.538  0.4461 -0.7216  0.6574
11271SOL     OW44741   1.739   0.397   2.445  0.2714 -0.0112 -0.3923
11271SOL    HW144742   1.783   0.378   2.357  2.3188  2.8132 -0.0757
11271SOL    HW244743   1.660   0.456   2.430 -1.2550 -2.0644 -0.5990
11272SOL     OW44744   8.745   2.765   2.184 -0.4528 -0.3862 -0.0328
11272SOL    HW144745   8.728   2.826   2.262 -2.0681  1.9665 -2.1322
11272SOL    HW244746   8.842   2.770   2.159 -0.5767  1.4744 -0.2344
11273SOL     OW44747   1.844   0.618   2.537 -0.7134 -0.4407 -0.1406
11273SOL    HW144748   1.801   0.542   2.487  0.7752 -1.1399 -0.3796
11273SOL    HW244749   1.928   0.644   2.491  0.9604 -1.4388  2.2649
11274SOL     OW44750   9.156   9.217   2.942 -0.2159  0.1802 -0.2936
11274SOL    HW144751   9.229   9.248   2.881  0.0574  1.0754  0.4633
11274SOL    HW244752   9.085   9.288   2.947 -1.4489 -0.9395 -1.5049
11275SOL     OW44753   7.239   0.934   4.562 -0.3004  0.7651  0.5481
11275SOL    HW144754   7.257   0.917   4.465  2.2266  0.0048  1.1037
11275SOL    HW244755   7.309   0.996   4.599  0.5494 -1.2898  2.5336
11276SOL     OW44756   8.665   9.530   3.977  0.2190 -0.7992  0.1716
11276SOL    HW144757   8.643   9.627   3.982  1.0013 -0.6457  0.5855
11276SOL    HW244758   8.750   9.512   4.026  0.2849 -1.6283 -0.2402
11277SOL     OW44759   2.243   9.435   4.875  0.2656 -0.1025  0.4679
11277SOL    HW144760   2.258   9.491   4.957 -0.8908 -1.0088  1.3118
11277SOL    HW244761   2.251   9.493   4.794  0.0762  1.0859  1.2723
11278SOL     OW44762   8.535   9.909   1.372  0.1295 -0.2832  0.3647
11278SOL    HW144763   8.582   9.910   1.460 -1.1102 -0.1297  1.0358
11278SOL    HW244764   8.579   9.844   1.311  0.8769 -0.5320  1.1627
11279SOL     OW44765   3.188   2.772   4.418  0.0705  0.4101 -0.5313
11279SOL    HW144766   3.103   2.759   4.367 -0.8994  1.2498  0.8480
11279SOL    HW244767   3.256   2.705   4.386 -1.0250 -0.1435 -1.7798
11280SOL     OW44768   1.943   6.929   1.961  0.1832  0.4607  0.5019
11280SOL    HW144769   1.934   6.994   1.887  1.1753  0.6280  0.5155
11280SOL    HW244770   1.927   6.836   1.927 -1.7113  0.7479  0.5863
11281SOL     OW44771   3.247   2.733   2.499  0.3544  0.4052  0.0246
11281SOL    HW144772   3.267   2.718   2.402 -0.2081  0.6568 -0.1296
11281SOL    HW244773   3.236   2.831   2.516  0.8366  0.3952  0.4201
11282SOL     OW44774   1.141   0.041   4.400  0.5712 -0.5119  0.4822
11282SOL    HW144775   1.164  -0.053   4.424  0.9477 -0.4257  0.4610
11282SOL    HW244776   1.091   0.084   4.475  2.5105  0.0358  1.4885
11283SOL     OW44777   1.857   0.519   5.626  0.5727  0.2030  0.3017
11283SOL    HW144778   1.794   0.563   5.562  0.6453  1.2404  0.9191
11283SOL    HW244779   1.807   0.491   5.708  0.7797  0.4123  0.5008
11284SOL     OW44780   6.296   8.310   4.386  0.3272 -0.2663  0.5316
11284SOL    HW144781   6.270   8.278   4.295 -0.4910 -0.9798  1.0050
11284SOL    HW244782   6.245   8.258   4.455 -1.0968  2.1050  1.3228
11285SOL     OW44783   0.918   2.832   4.423 -0.5360  0.0452  0.0578
11285SOL    HW144784   0.872   2.866   4.505 -0.6774 -1.4765  0.6109
11285SOL    HW244785   0.853   2.827   4.348 -0.3974  1.4812 -0.1803
11286SOL     OW44786   3.855   9.862   0.506 -0.6023  0.4707  0.5675
11286SOL    HW144787   3.940   9.894   0.465 -1.0785 -0.1233 -0.9027
11286SOL    HW244788   3.848   9.898   0.599  1.1523  0.7014  0.6422
11287SOL     OW44789   3.613   5.745   0.936 -0.1516 -0.8940 -0.5681
11287SOL    HW144790   3.570   5.834   0.922  0.9948 -0.2504 -0.0753
11287SOL    HW244791   3.711   5.758   0.955 -0.0736 -2.2248 -0.0182
11288SOL     OW44792   0.731   8.067   4.825 -0.0327 -0.0393 -1.0755
11288SOL    HW144793   0.794   8.001   4.786  0.9865 -1.0248  2.0751
11288SOL    HW244794   0.781   8.149   4.853 -0.5995  0.3045 -1.0481
11289SOL     OW44795   4.235   0.418   5.125  0.2140  0.1157 -0.3395
11289SOL    HW144796   4.158   0.469   5.162  2.1385  2.5078  0.5292
11289SOL    HW244797   4.244   0.331   5.173 -1.8223 -0.1175 -0.3484
11290SOL     OW44798   9.031   7.488   4.653  0.3051  0.6682  0.6181
11290SOL    HW144799   9.073   7.577   4.674  1.7702  0.2943 -0.5622
11290SOL    HW244800   9.093   7.415   4.681 -0.4048  0.0471  0.5729
11291SOL     OW44801   9.636   4.788   1.625  0.1018  0.3316 -0.1844
11291SOL    HW144802   9.721   4.751   1.589  0.8829  1.3342  0.6121
11291SOL    HW244803   9.618   4.878   1.585 -0.4330  0.2549 -0.1288
11292SOL     OW44804   8.930   4.450   4.875  0.1462  0.1433  0.3296
11292SOL    HW144805   9.018   4.457   4.827 -0.5639 -1.5394 -1.3175
11292SOL    HW244806   8.907   4.353   4.886 -1.4798  0.5727  0.7684
11293SOL     OW44807   1.461   8.324   1.685  0.6241 -0.1389  0.0767
11293SOL    HW144808   1.463   8.424   1.683  0.6738 -0.1375  0.1702
11293SOL    HW244809   1.374   8.291   1.647  1.7139 -0.1417 -2.4846
11294SOL     OW44810   9.802   5.716   1.202  0.7889  0.0181 -0.0542
11294SOL    HW144811   9.818   5.791   1.266  0.1651 -0.1346  0.2798
11294SOL    HW244812   9.889   5.674   1.177  1.2645  1.6024 -1.1469
11295SOL     OW44813   7.965   1.617   1.441  0.5662 -0.2031 -0.3707
11295SOL    HW144814   7.931   1.691   1.501 -0.0474  1.0396 -2.2034
11295SOL    HW244815   7.920   1.624   1.352 -0.2777 -3.4713 -0.2391
11296SOL     OW44816   0.164   2.194   4.292 -0.1621  0.0934 -0.2609
11296SOL    HW144817   0.092   2.151   4.237 -1.3271 -0.4999  1.6731
11296SOL    HW244818   0.234   2.126   4.314 -0.6109 -0.1276  0.4928
11297SOL     OW44819   8.857   0.495   0.677 -0.5582  0.2586 -0.5573
11297SOL    HW144820   8.808   0.505   0.590  0.7266 -1.5257 -1.5224
11297SOL    HW244821   8.848   0.401   0.709 -0.2083  0.6678  0.7557
11298SOL     OW44822   9.251   1.438   4.654  0.4767  0.6344  0.2626
11298SOL    HW144823   9.184   1.466   4.723 -0.8764  0.5772 -1.0003
11298SOL    HW244824   9.311   1.515   4.633  0.1948  0.9767  0.7119
11299SOL     OW44825   2.568   5.385   5.179 -0.1001 -0.3582  0.0943
11299SOL    HW144826   2.577   5.289   5.153 -0.4949 -0.0905 -1.0687
11299SOL    HW244827   2.473   5.414   5.168  0.0836  0.2628  0.1111
11300SOL     OW44828   9.746   5.665   0.916 -0.3777 -0.2157  0.4259
11300SOL    HW144829   9.809   5.590   0.894  0.4294  0.4422  0.5011
11300SOL    HW244830   9.756   5.689   1.013 -0.6131  0.0217  0.3901
11301SOL     OW44831   3.855   0.013   1.099  0.1850 -0.2886  0.2088
11301SOL    HW144832   3.800  -0.030   1.170 -1.3314  0.3311 -0.5486
11301SOL    HW244833   3.837  -0.031   1.011  0.3789  0.3569 -0.1623
11302SOL     OW44834   0.593   8.240   2.441 -0.7774 -0.2410 -0.3135
11302SOL    HW144835   0.667   8.304   2.460 -0.9045 -0.9751  2.9548
11302SOL    HW244836   0.515   8.289   2.401 -0.2881  1.3824  0.6894
11303SOL     OW44837   2.935   3.142   0.060 -0.1447  0.0100  0.2048
11303SOL    HW144838   2.913   3.217  -0.003  1.2090 -0.1771 -0.5202
11303SOL    HW244839   2.921   3.173   0.154 -0.8768  0.7450 -0.1388
11304SOL     OW44840   1.768   9.529   0.924  0.4914 -0.1722 -0.0629
11304SOL    HW144841   1.698   9.588   0.964 -0.2294 -0.3557 -1.0323
11304SOL    HW244842   1.858   9.568   0.940 -0.0319  1.6861 -1.5194
11305SOL     OW44843   5.150   8.344   2.424 -0.1392  0.9359  0.6551
11305SOL    HW144844   5.122   8.358   2.519 -1.3516  0.1086  0.4187
11305SOL    HW244845   5.213   8.266   2.419 -3.0039 -1.4239  0.2902
11306SOL     OW44846   8.976   5.936   1.333 -0.6134 -0.1506  0.3574
11306SOL    HW144847   9.060   5.900   1.373 -0.5090 -0.6985 -0.3368
11306SOL    HW244848   8.900   5.922   1.396 -0.5903 -1.6920  0.0557
11307SOL     OW44849   5.962   9.626   3.673 -0.0908  0.1658  0.5287
11307SOL    HW144850   5.966   9.724   3.655  0.0315  0.3572  1.5535
11307SOL    HW244851   5.989   9.576   3.591 -0.6557  0.9781 -0.1540
11308SOL     OW44852   5.753   7.725   2.543  0.7578  0.0701 -0.0004
11308SOL    HW144853   5.820   7.734   2.469  1.4734 -1.5000  0.4522
11308SOL    HW244854   5.785   7.775   2.623  0.1125  1.5410 -0.6355
11309SOL     OW44855   3.934   3.997   1.179  0.1755 -0.5548 -0.5599
11309SOL    HW144856   3.857   4.055   1.204  2.0980  1.7604  0.1366
11309SOL    HW244857   3.900   3.913   1.135 -2.7007  0.3667 -0.1776
11310SOL     OW44858   3.156   4.062   1.614 -0.6314  0.0173 -0.0153
11310SOL    HW144859   3.070   4.010   1.620 -0.9955  0.6429  0.2516
11310SOL    HW244860   3.219   4.029   1.684 -0.4175 -0.8680 -0.6134
11311SOL     OW44861   8.663   9.858   1.940  0.4670 -0.3485  0.5494
11311SOL    HW144862   8.688   9.953   1.959 -1.5616  0.2075  0.4757
11311SOL    HW244863   8.678   9.839   1.842  0.4285  0.0181  0.4725
11312SOL     OW44864   1.195   6.226   0.420 -0.5792  0.3315  0.8924
11312SOL    HW144865   1.120   6.282   0.384  0.3452  1.4646  0.7063
11312SOL    HW244866   1.158   6.140   0.455 -1.6852 -0.1968 -1.4286
11313SOL     OW44867   5.391   9.262   2.044 -0.4779 -0.1359 -0.8270
11313SOL    HW144868   5.334   9.200   2.099  0.3019 -0.3013 -0.1855
11313SOL    HW244869   5.333   9.315   1.982 -1.2049 -1.2127 -1.0947
11314SOL     OW44870   0.210   8.595   1.360 -0.1874 -0.1758  0.6440
11314SOL    HW144871   0.263   8.646   1.292  1.0752 -1.4979  0.6204
11314SOL    HW244872   0.189   8.655   1.437  0.6774  0.5848  0.2957
11315SOL     OW44873   8.739   6.840   2.518 -0.1757  0.2705 -0.2592
11315SOL    HW144874   8.665   6.790   2.475 -0.1897  0.3965 -0.3804
11315SOL    HW244875   8.827   6.799   2.492 -0.2638 -0.8400  1.1028
11316SOL     OW44876   9.310   3.061   4.431  0.4566 -0.2070 -0.0021
11316SOL    HW144877   9.357   3.064   4.343  1.3675  1.1955  0.5225
11316SOL    HW244878   9.340   3.138   4.487 -0.6084 -0.7271  1.2884
11317SOL     OW44879   9.617   6.746   2.765  0.6564 -0.2066 -0.3714
11317SOL    HW144880   9.679   6.681   2.809 -2.9838 -2.9667  0.9091
11317SOL    HW244881   9.569   6.798   2.835  0.0818  0.5107 -1.2940
11318SOL     OW44882   8.084   9.961   3.224 -0.0808  0.2197 -0.2612
11318SOL    HW144883   8.057  10.006   3.139 -1.6660 -0.3300 -0.0632
11318SOL    HW244884   8.043   9.870   3.228  2.4809 -0.9872 -0.3073
11319SOL     OW44885   9.301   0.418   5.071  0.8349 -0.2451 -0.0940
11319SOL    HW144886   9.208   0.415   5.036  1.4008 -1.3200 -1.5663
11319SOL    HW244887   9.306   0.368   5.157 -0.3114  1.3297  0.9088
11320SOL     OW44888   8.625   2.375   0.020  0.0746 -0.3285  0.1016
11320SOL    HW144889   8.720   2.399   0.004 -0.0629 -0.6612 -1.2955
11320SOL    HW244890   8.573   2.387  -0.065 -1.1961  0.2055  0.9458
11321SOL     OW44891   5.764   0.150   4.471 -0.1509  0.9711 -0.1945
11321SOL    HW144892   5.730   0.243   4.460  1.3290  1.4369 -0.8978
11321SOL    HW244893   5.831   0.129   4.399 -1.7995 -1.2667 -1.1558
11322SOL     OW44894   1.331   0.377   0.879  0.4915 -0.0124 -0.4721
11322SOL    HW144895   1.306   0.415   0.790  0.8803  0.2734 -0.4624
11322SOL    HW244896   1.285   0.289   0.892 -1.6565  1.1736  0.1724
11323SOL     OW44897   6.530   0.049   1.738 -0.4783 -0.0118  0.1403
11323SOL    HW144898   6.529   0.126   1.802  0.0646 -0.5273  0.7739
11323SOL    HW244899   6.494  -0.033   1.782 -1.0643 -0.1236 -0.5378
11324SOL     OW44900   8.134   3.360   2.854 -0.2750  0.4588  0.1861
11324SOL    HW144901   8.059   3.316   2.904 -0.5739  0.5016 -0.2186
11324SOL    HW244902   8.096   3.419   2.783  0.1476  0.1505 -0.3006
11325SOL     OW44903   8.462   4.967   3.259 -0.2142 -0.4101 -0.7876
11325SOL    HW144904   8.429   4.873   3.271 -0.7845 -0.1428 -0.1930
11325SOL    HW244905   8.548   4.979   3.309 -1.1666 -0.0743  0.8274
11326SOL     OW44906   1.223   4.021   0.873 -0.3725 -1.1467  0.0307
11326SOL    HW144907   1.162   4.078   0.817  0.5735 -0.1491  0.0020
11326SOL    HW244908   1.201   3.925   0.858 -3.0881 -0.7812  1.3067
11327SOL     OW44909   4.744   9.277   0.028 -0.4764 -0.2268 -0.0427
11327SOL    HW144910   4.668   9.341   0.030  1.3914  2.0885 -0.2837
11327SOL    HW244911   4.797   9.292  -0.056  0.2438 -1.7804  0.1262
11328SOL     OW44912   5.549   7.476   3.904  0.3023 -0.2990 -0.2115
11328SOL    HW144913   5.458   7.439   3.885  0.3941 -0.8997  0.4932
11328SOL    HW244914   5.559   7.564   3.858 -0.2190 -0.7563 -1.2166
11329SOL     OW44915   5.616   9.075   1.130  0.1277  0.3237  0.1123
11329SOL    HW144916   5.692   9.089   1.195 -0.2158 -2.5334  1.2086
11329SOL    HW244917   5.583   8.981   1.137 -1.7114  0.7290 -2.3537
11330SOL     OW44918   4.709   2.226   5.356 -0.8594  0.0886 -0.8827
11330SOL    HW144919   4.707   2.157   5.429  0.3996 -1.9112 -2.6569
11330SOL    HW244920   4.727   2.316   5.395 -0.9009 -0.8396  1.3419
11331SOL     OW44921   5.671   1.841   2.746  0.2850 -0.0162 -0.6911
11331SOL    HW144922   5.727   1.909   2.699  2.0608 -1.9948 -1.5046
11331SOL    HW244923   5.576   1.849   2.715  0.8126  0.8665 -2.1258
11332SOL     OW44924   7.284   9.214   1.724  0.1324 -0.1967  0.2645
11332SOL    HW144925   7.213   9.254   1.782  0.1330 -0.8112  0.6960
11332SOL    HW244926   7.367   9.201   1.779  0.4699  0.2159 -0.1525
11333SOL     OW44927   4.296   4.642   0.713  0.8456 -0.0398 -0.3848
11333SOL    HW144928   4.294   4.679   0.620  1.1057 -0.3552 -0.5162
11333SOL    HW244929   4.235   4.562   0.718 -0.2897  0.8329  0.0853
11334SOL     OW44930   9.082   6.990   1.473 -0.4015 -0.2987 -0.3051
11334SOL    HW144931   9.043   7.071   1.516  0.1413 -0.6901  0.9463
11334SOL    HW244932   9.182   6.999   1.469 -0.1315 -1.8289  1.8536
11335SOL     OW44933   3.802   3.050   4.144  0.3100 -0.0896  0.2721
11335SOL    HW144934   3.771   3.145   4.138 -0.0397 -0.1756  0.7030
11335SOL    HW244935   3.876   3.044   4.211 -0.1988 -0.2554  0.8213
11336SOL     OW44936   5.664   1.684   3.569 -0.4137  0.0748  0.4201
11336SOL    HW144937   5.643   1.600   3.618 -1.5744 -0.2919 -0.6743
11336SOL    HW244938   5.674   1.759   3.634  2.0986 -1.1643  1.5437
11337SOL     OW44939   3.200   2.010   3.534  0.2292  0.6278 -0.3324
11337SOL    HW144940   3.287   1.990   3.488 -0.0903 -1.9901  0.1297
11337SOL    HW244941   3.217   2.026   3.631  0.0775 -1.0508 -0.0200
11338SOL     OW44942   7.922   5.497   5.032 -0.3205  0.2660 -0.4586
11338SOL    HW144943   8.012   5.464   5.061 -1.0198 -0.3754  1.0805
11338SOL    HW244944   7.901   5.583   5.080 -0.0644  1.0005 -1.6524
11339SOL     OW44945   8.270   3.338   1.803 -0.2058  0.2556  0.1433
11339SOL    HW144946   8.301   3.325   1.708 -1.7505 -3.4485  0.0661
11339SOL    HW244947   8.346   3.319   1.865  0.6391  2.0828 -0.2849
11340SOL     OW44948   4.020   4.003   4.561  0.1370  0.0024 -0.4233
11340SOL    HW144949   4.032   4.097   4.593 -2.3412 -0.4911  2.1931
11340SOL    HW244950   4.080   3.942   4.612  0.1393 -0.1173 -0.5675
11341SOL     OW44951   1.219   3.937   4.915 -0.1944  0.0435  0.0292
11341SOL    HW144952   1.162   3.885   4.979 -0.2187 -0.0786 -0.0895
11341SOL    HW244953   1.176   4.025   4.895 -0.5474 -0.2177 -0.3757
11342SOL     OW44954   7.489   6.063   3.992 -0.0290 -0.3240  0.4233
11342SOL    HW144955   7.570   6.095   3.942  1.2497 -1.5190  1.6788
11342SOL    HW244956   7.444   6.140   4.035  1.3283  0.1794  0.9831
11343SOL     OW44957   2.735   0.663   2.101 -0.4218  0.4165 -0.0981
11343SOL    HW144958   2.790   0.745   2.085 -1.3469  1.0122 -0.2981
11343SOL    HW244959   2.665   0.684   2.170  0.3524 -0.6748  1.0415
11344SOL     OW44960   2.280   9.113   0.798  0.5555 -0.7306  0.3886
11344SOL    HW144961   2.214   9.095   0.871  0.8409 -2.0194  0.3502
11344SOL    HW244962   2.232   9.122   0.711  0.2889 -0.0206  0.6070
11345SOL     OW44963   8.795   6.057   0.252  0.0599  0.2268 -0.2742
11345SOL    HW144964   8.716   6.050   0.312 -1.5530  0.2256 -2.3320
11345SOL    HW244965   8.844   5.970   0.251 -0.8566 -0.2943 -0.2396
11346SOL     OW44966   3.921   8.033   4.295  0.2777  1.0471 -0.6392
11346SOL    HW144967   3.836   8.068   4.333 -0.0069  0.7518 -0.9926
11346SOL    HW244968   3.996   8.047   4.360 -0.7326 -2.1335  1.3284
11347SOL     OW44969   1.863   1.258   2.859 -0.9006 -0.1295  0.2556
11347SOL    HW144970   1.778   1.249   2.910 -1.5608  2.6125 -0.2990
11347SOL    HW244971   1.936   1.290   2.919 -1.3018  1.5869 -0.1456
11348SOL     OW44972   1.972   9.436   2.397  0.0228  0.3799 -0.3834
11348SOL    HW144973   1.898   9.502   2.388  0.5686  1.1387  0.5743
11348SOL    HW244974   1.977   9.404   2.492  0.8416  0.2403 -0.4701
11349SOL     OW44975   5.625   7.823   2.233 -0.1665 -0.2353 -0.3861
11349SOL    HW144976   5.712   7.787   2.265 -0.4150 -1.3176 -0.9318
11349SOL    HW244977   5.551   7.788   2.291 -0.3901 -0.4938 -0.8241
11350SOL     OW44978   1.596   9.156   2.286  0.1431  0.2029 -0.1788
11350SOL    HW144979   1.556   9.197   2.368 -0.2925  1.2777 -0.9068
11350SOL    HW244980   1.596   9.056   2.295  1.3575  0.3404  1.6963
11351SOL     OW44981   0.411   9.265   1.488 -0.1342 -0.1252  0.4217
11351SOL    HW144982   0.326   9.309   1.457  0.6158 -0.6886 -2.5658
11351SOL    HW244983   0.466   9.238   1.409  2.0692 -1.3208  2.2874
11352SOL     OW44984   2.020   8.723   4.914  0.1480 -0.2974 -0.0262
11352SOL    HW144985   1.962   8.652   4.875  0.0562 -0.6444  0.7266
11352SOL    HW244986   2.082   8.758   4.844  0.8022 -1.7405 -0.1731
11353SOL     OW44987   9.452   1.797   1.208  0.1394 -0.0120 -0.1843
11353SOL    HW144988   9.422   1.861   1.137  1.1415 -1.5883 -2.0867
11353SOL    HW244989   9.371   1.758   1.253 -0.5054  0.9522 -0.4750
11354SOL     OW44990   6.758   4.531   0.533 -0.0111  0.4247 -0.8871
11354SOL    HW144991   6.857   4.533   0.521  0.2220 -0.7865  0.6287
11354SOL    HW244992   6.723   4.625   0.537  1.2240  0.8791 -0.3084
11355SOL     OW44993   3.279   6.203   4.909 -0.2772 -0.1803  0.1332
11355SOL    HW144994   3.197   6.170   4.863  1.5102 -1.4960 -2.2247
11355SOL    HW244995   3.275   6.303   4.917 -2.1074 -0.2427  0.0858
11356SOL     OW44996   3.452   0.770   2.903 -0.0707  0.4446  0.5561
11356SOL    HW144997   3.370   0.751   2.849  0.8866  0.0522 -0.7823
11356SOL    HW244998   3.526   0.799   2.843  1.2656 -0.7930  1.5632
11357SOL     OW44999   8.449   7.994   1.868  0.0190 -0.4760  0.1485
11357SOL    HW145000   8.456   8.093   1.878  0.3057 -0.4942  0.1421
11357SOL    HW245001   8.418   7.953   1.954  0.6770 -0.4584  0.3961
11358SOL     OW45002   5.236   4.650   2.261 -0.6142  0.4267  0.7107
11358SOL    HW145003   5.264   4.561   2.297 -3.0429  0.0048  1.6469
11358SOL    HW245004   5.162   4.638   2.195  0.4509  1.6134 -0.7222
11359SOL     OW45005   2.406   6.575   3.815 -0.2242  0.2604 -0.2457
11359SOL    HW145006   2.308   6.582   3.799 -0.1579  1.1899 -0.2924
11359SOL    HW245007   2.423   6.551   3.911 -0.4508  2.7607  0.4462
11360SOL     OW45008   8.879   4.228   3.864  0.1279  0.1822 -0.2388
11360SOL    HW145009   8.872   4.266   3.772 -2.0008 -1.7584 -0.9336
11360SOL    HW245010   8.974   4.205   3.884  0.9153  2.5286 -1.1482
11361SOL     OW45011   8.752   8.710   3.413  0.2212 -0.2354  0.4428
11361SOL    HW145012   8.734   8.660   3.497 -1.4598  1.5158  1.1651
11361SOL    HW245013   8.814   8.786   3.432 -0.9505  0.7632  0.3163
11362SOL     OW45014   8.125   8.904   5.582 -0.3278 -0.0913  0.2973
11362SOL    HW145015   8.104   8.865   5.493 -0.4781  0.9650 -0.1409
11362SOL    HW245016   8.198   8.851   5.626  0.2243 -0.2092 -0.7547
11363SOL     OW45017   1.279   0.059   2.702 -0.7196 -0.5905  0.0092
11363SOL    HW145018   1.182   0.053   2.676 -0.7348  1.8362 -0.5920
11363SOL    HW245019   1.336   0.030   2.626 -0.9694 -2.6154  0.5707
11364SOL     OW45020   0.628   9.764   0.671  1.0053  0.1807 -0.7407
11364SOL    HW145021   0.645   9.800   0.580 -1.2162  0.0147 -1.2529
11364SOL    HW245022   0.637   9.838   0.738 -0.8297  1.1165 -1.4938
11365SOL     OW45023   2.752   6.605   5.533  0.1586  1.0096  0.2603
11365SOL    HW145024   2.816   6.681   5.527  1.0075  0.3010  0.2751
11365SOL    HW245025   2.760   6.547   5.452 -0.8345  1.2043  0.0150
11366SOL     OW45026   4.351   2.038   1.040 -0.9932 -0.3813  0.2004
11366SOL    HW145027   4.427   2.067   1.097 -1.4194  0.5185  0.3184
11366SOL    HW245028   4.382   2.027   0.945 -0.3728 -1.5142  0.5221
11367SOL     OW45029   2.929   7.795   1.641 -0.0222 -0.0828  0.0021
11367SOL    HW145030   2.962   7.809   1.547  1.6405 -0.0317  0.5812
11367SOL    HW245031   3.007   7.772   1.700 -1.3391 -2.2373  0.9567
11368SOL     OW45032   0.866   5.204   1.925  0.1620  0.0921 -0.0201
11368SOL    HW145033   0.842   5.234   2.017 -0.8870  0.1980 -0.3142
11368SOL    HW245034   0.815   5.120   1.903 -1.4039  1.3622 -1.3514
11369SOL     OW45035   1.775   9.338   4.089 -0.1825  0.2306 -0.0841
11369SOL    HW145036   1.705   9.350   4.159 -2.2794 -1.4124 -1.8421
11369SOL    HW245037   1.838   9.266   4.117 -1.6304 -1.1537 -0.3217
11370SOL     OW45038   8.519   8.168   2.157 -0.1391 -0.1673  0.3841
11370SOL    HW145039   8.557   8.107   2.227  0.2347 -0.9406 -0.4968
11370SOL    HW245040   8.592   8.214   2.108 -0.3894 -0.1753  0.0029
11371SOL     OW45041   3.792   2.908   3.886 -0.3842 -0.2312  0.1487
11371SOL    HW145042   3.705   2.953   3.867  0.3761  0.8965 -0.7281
11371SOL    HW245043   3.831   2.945   3.970 -0.2285  0.0434 -0.0449
11372SOL     OW45044   2.731   9.663   0.648 -0.1402  0.5948 -0.3518
11372SOL    HW145045   2.781   9.621   0.724 -0.3116 -0.6542 -0.9214
11372SOL    HW245046   2.738   9.762   0.655  1.1583  0.4619  0.4208
11373SOL     OW45047   8.117   5.370   2.627  0.1433  0.3774  0.1668
11373SOL    HW145048   8.173   5.299   2.583 -1.2331 -0.8519  0.3635
11373SOL    HW245049   8.065   5.419   2.557 -0.0188  0.1952  0.1566
11374SOL     OW45050   8.982   5.828   2.003 -0.5326 -0.6252  0.1396
11374SOL    HW145051   9.000   5.915   1.957 -0.4362 -1.9794 -2.4839
11374SOL    HW245052   9.017   5.831   2.096 -0.5122  2.1212  0.0655
11375SOL     OW45053   4.033   3.285   1.793  0.2570  0.0484  0.5884
11375SOL    HW145054   3.991   3.196   1.811 -1.3366  0.6107 -0.2590
11375SOL    HW245055   3.999   3.321   1.706  0.9495  1.4504  0.8802
11376SOL     OW45056   0.218   5.526   3.662  0.9396 -0.4346  0.5013
11376SOL    HW145057   0.258   5.546   3.572 -3.3811  2.7919 -0.8429
11376SOL    HW245058   0.175   5.436   3.661  0.0354  0.0095 -0.9992
11377SOL     OW45059   6.401   2.035   2.376  0.0539  0.0471  0.1212
11377SOL    HW145060   6.330   1.972   2.344  0.6905 -0.9544  0.6587
11377SOL    HW245061   6.393   2.046   2.475  0.2270  0.4675  0.0872
11378SOL     OW45062   3.795   7.946   5.419 -0.2584  0.1909 -0.3425
11378SOL    HW145063   3.720   7.883   5.440 -0.4808  0.1886 -1.1386
11378SOL    HW245064   3.828   7.988   5.504 -0.9087 -0.0916  0.0516
11379SOL     OW45065   8.537   8.878   3.298 -0.2057  0.2017  0.7139
11379SOL    HW145066   8.483   8.798   3.272 -0.7191 -0.4846  3.7804
11379SOL    HW245067   8.631   8.851   3.319  0.2941  0.8107 -0.6120
11380SOL     OW45068   0.654   6.915   5.043  0.0210 -0.5587 -0.3103
11380SOL    HW145069   0.565   6.961   5.043  0.5979  0.5774  0.1473
11380SOL    HW245070   0.641   6.818   5.064 -1.2441 -0.6895 -1.6188
11381SOL     OW45071   3.863   8.246   3.574 -0.2844 -0.0545  1.1964
11381SOL    HW145072   3.812   8.235   3.488  1.1319 -0.1444  0.3437
11381SOL    HW245073   3.863   8.160   3.624 -0.4307 -0.2325  0.8923
11382SOL     OW45074   6.988   0.842   3.930  0.4344  0.0283 -1.2111
11382SOL    HW145075   6.927   0.860   4.007  0.0225  0.5088 -1.6485
11382SOL    HW245076   6.979   0.747   3.901  0.5412 -0.1366 -0.7106
11383SOL     OW45077   2.952   7.300   5.175 -0.4880  0.3851 -0.2403
11383SOL    HW145078   2.983   7.346   5.259 -0.2644 -0.6479  0.2562
11383SOL    HW245079   2.964   7.361   5.097  0.5256  0.8833  0.2990
11384SOL     OW45080   3.153   0.397   5.083  0.0167  0.5511 -0.4463
11384SOL    HW145081   3.059   0.385   5.113 -0.2559  1.1105 -1.0646
11384SOL    HW245082   3.198   0.466   5.139  0.4318 -0.5764  0.6334
11385SOL     OW45083   1.401   0.183   3.519  0.0496 -0.1826  0.3596
11385SOL    HW145084   1.368   0.104   3.571  0.7558  0.3224  1.5946
11385SOL    HW245085   1.449   0.151   3.437  2.2649 -1.1503  1.9787
11386SOL     OW45086   8.409   2.821   5.174  0.5265 -0.3351 -0.2102
11386SOL    HW145087   8.352   2.740   5.167 -1.2158  0.8043  0.4777
11386SOL    HW245088   8.395   2.864   5.263  1.4869  0.6663 -0.5315
11387SOL     OW45089   1.795   7.157   1.260  0.1577 -0.1755  0.2702
11387SOL    HW145090   1.764   7.166   1.166  0.1749  1.4075  0.3986
11387SOL    HW245091   1.728   7.104   1.313  1.4898 -3.4902 -1.2443
11388SOL     OW45092   0.267   8.297   2.779 -0.1638 -0.0288 -0.7760
11388SOL    HW145093   0.343   8.233   2.766 -0.4692  0.0186 -2.9834
11388SOL    HW245094   0.298   8.390   2.762 -0.2869  0.1785  0.1195
11389SOL     OW45095   2.946   7.467   2.721 -0.0448  0.4908  0.4728
11389SOL    HW145096   2.987   7.519   2.795  1.3249 -0.3496  0.3175
11389SOL    HW245097   3.016   7.442   2.654 -0.8848 -0.5709 -0.0346
11390SOL     OW45098   4.198   0.474   0.155  0.4046 -0.1227  0.5893
11390SOL    HW145099   4.211   0.453   0.252  1.0757 -0.2036  0.4862
11390SOL    HW245100   4.218   0.570   0.139  0.5710 -0.1765  0.4800
11391SOL     OW45101   9.477   7.783   2.896 -0.5685 -0.5943 -0.1060
11391SOL    HW145102   9.447   7.853   2.832 -0.4334  0.1208  0.6134
11391SOL    HW245103   9.405   7.714   2.907 -0.9428 -0.2375 -0.3288
11392SOL     OW45104   2.266   5.311   2.169  0.1487  0.2048 -0.1189
11392SOL    HW145105   2.197   5.323   2.240  1.4898 -0.4062  1.3234
11392SOL    HW245106   2.224   5.268   2.089 -1.5156  1.4867  0.0407
11393SOL     OW45107   3.032   7.676   4.323 -0.4316  0.3816  0.1840
11393SOL    HW145108   2.940   7.640   4.306 -0.9386  1.5836  0.3352
11393SOL    HW245109   3.078   7.691   4.235 -0.5457  0.1989  0.0926
11394SOL     OW45110   2.719   2.744   2.927 -0.0281  0.2049  0.3280
11394SOL    HW145111   2.753   2.651   2.911  2.0022  0.6602  1.8094
11394SOL    HW245112   2.744   2.801   2.849 -0.5146 -0.2946 -0.1966
11395SOL     OW45113   7.589   4.822   5.636 -0.4933 -0.4672 -0.3779
11395SOL    HW145114   7.657   4.752   5.613 -0.9593 -1.3897  0.9583
11395SOL    HW245115   7.617   4.910   5.598  1.6141 -0.7557  0.4276
11396SOL     OW45116   3.943   8.932   3.512 -0.2202  0.1323 -0.4092
11396SOL    HW145117   3.983   9.013   3.470  1.0243 -0.2132  0.0851
11396SOL    HW245118   3.938   8.858   3.444 -0.5008  0.3316 -0.6078
11397SOL     OW45119   2.162   9.385   4.059 -0.7083  0.0966 -0.5013
11397SOL    HW145120   2.195   9.471   4.097  1.1863 -0.1694 -1.5234
11397SOL    HW245121   2.125   9.329   4.133 -0.0080  0.9031  0.4818
11398SOL     OW45122   4.775   1.425   2.467 -0.2443 -0.4071  0.1743
11398SOL    HW145123   4.762   1.471   2.555 -1.6684 -1.2764  0.4286
11398SOL    HW245124   4.747   1.330   2.474  0.3503 -0.6808 -1.0186
11399SOL     OW45125   9.241   8.485   1.314 -0.6101 -0.2072  0.4416
11399SOL    HW145126   9.208   8.467   1.221 -1.3699 -1.0638  0.8648
11399SOL    HW245127   9.243   8.583   1.331 -1.0098 -0.0730 -0.2814
11400SOL     OW45128   2.123   9.144   4.246  0.3427 -0.3391  0.3604
11400SOL    HW145129   2.171   9.175   4.328 -1.4183  0.2915  1.1713
11400SOL    HW245130   2.073   9.060   4.266 -2.0855  1.1197  0.6827
11401SOL     OW45131   4.422   3.150   0.996 -0.1145 -0.4778 -0.1602
11401SOL    HW145132   4.420   3.054   0.968  1.5920 -0.8175  0.8474
11401SOL    HW245133   4.515   3.186   0.988 -0.3292  0.4904  1.4676
11402SOL     OW45134   8.035   8.683   1.394 -0.7326 -0.1416 -0.4136
11402SOL    HW145135   8.121   8.733   1.403 -1.0866 -0.0016  2.5394
11402SOL    HW245136   7.960   8.749   1.381 -0.7564 -0.1197 -0.1530
11403SOL     OW45137   1.186   3.678   1.911 -0.2265  0.5571  0.1137
11403SOL    HW145138   1.139   3.763   1.934  1.0523  1.2306  0.2928
11403SOL    HW245139   1.171   3.656   1.815 -1.2046  0.5656  0.2611
11404SOL     OW45140   2.184   6.880   5.212 -0.6743  0.0821  0.2205
11404SOL    HW145141   2.254   6.820   5.250 -1.2303 -0.7628 -0.0559
11404SOL    HW245142   2.110   6.824   5.174 -1.5379  0.9562  0.5986
11405SOL     OW45143   8.088   1.763   3.188 -0.9136  0.1471  0.5385
11405SOL    HW145144   8.115   1.744   3.093 -1.7831 -0.0336  0.3212
11405SOL    HW245145   8.095   1.680   3.242 -0.1421  0.3179  0.6947
11406SOL     OW45146   4.097   5.679   2.543 -0.0923  0.0797  0.0709
11406SOL    HW145147   4.041   5.602   2.573 -1.3188  1.3080  0.9936
11406SOL    HW245148   4.132   5.727   2.623  1.0993  0.1818 -0.5049
11407SOL     OW45149   2.836   5.992   3.388 -0.0661 -0.4585 -0.4141
11407SOL    HW145150   2.845   5.973   3.486 -1.7663  2.6417  0.4126
11407SOL    HW245151   2.927   6.008   3.349  0.5246 -0.4431  0.9561
11408SOL     OW45152   3.642   5.581   4.023 -0.0561  0.2864  0.2982
11408SOL    HW145153   3.577   5.563   4.097 -0.6870  0.3912 -0.2296
11408SOL    HW245154   3.735   5.570   4.058 -0.3035  1.9949  1.5675
11409SOL     OW45155   4.214   4.597   2.760 -0.1584  0.0019  0.0898
11409SOL    HW145156   4.275   4.659   2.711  1.2844 -0.9758  0.6170
11409SOL    HW245157   4.155   4.649   2.821  0.5716  0.9168  0.0229
11410SOL     OW45158   1.082   0.680   0.211 -0.4921  0.0110  0.7376
11410SOL    HW145159   1.175   0.686   0.246  0.7006 -3.2367 -1.6582
11410SOL    HW245160   1.021   0.650   0.284  0.6701  0.2990  1.8479
11411SOL     OW45161   2.720   2.312   1.829  0.1871 -0.4415  0.4247
11411SOL    HW145162   2.655   2.377   1.869  0.4187  0.0845 -0.0511
11411SOL    HW245163   2.788   2.361   1.776  0.9111 -1.0031  0.8198
11412SOL     OW45164   1.633   6.708   4.996  0.7195  0.2388 -0.2461
11412SOL    HW145165   1.535   6.726   4.987  0.8950  0.3381 -2.1287
11412SOL    HW245166   1.676   6.784   5.045 -0.3546 -0.4780  1.8783
11413SOL     OW45167   0.753   2.446   5.487  0.6245  0.1414 -0.5643
11413SOL    HW145168   0.834   2.403   5.448 -1.7924 -1.9468 -3.5530
11413SOL    HW245169   0.713   2.509   5.420 -0.0148  1.4894  1.0288
11414SOL     OW45170   8.193   6.803   2.165 -0.2312  0.0365  0.0363
11414SOL    HW145171   8.144   6.890   2.158  0.1192  0.2715  0.4492
11414SOL    HW245172   8.291   6.821   2.167 -0.0836 -0.5068 -1.9627
11415SOL     OW45173   2.915   2.780   1.497 -0.2890  0.5458  0.4529
11415SOL    HW145174   2.835   2.793   1.556  0.7621  0.0478  1.9939
11415SOL    HW245175   2.974   2.860   1.504 -0.1249  0.4535  0.1161
11416SOL     OW45176   9.791   8.018   3.530  0.1984 -0.7716 -0.4371
11416SOL    HW145177   9.882   8.045   3.563  0.1511  0.3866 -1.2070
11416SOL    HW245178   9.759   7.938   3.581  1.1643 -0.4973  0.6210
11417SOL     OW45179   9.857   0.280   3.859 -0.1865 -0.1434 -0.0841
11417SOL    HW145180   9.763   0.291   3.892 -0.8716  0.0270 -2.0357
11417SOL    HW245181   9.919   0.272   3.937 -1.8944 -0.9601  1.2153
11418SOL     OW45182   1.941   5.172   3.467 -0.1250  0.2778  0.0771
11418SOL    HW145183   1.851   5.214   3.483 -0.3242  0.1344 -0.6667
11418SOL    HW245184   1.979   5.141   3.554 -0.8983  0.1356  0.3664
11419SOL     OW45185   7.631   0.381   5.423  0.4490  0.0812 -0.4494
11419SOL    HW145186   7.558   0.341   5.479 -0.5617 -2.5136 -3.4815
11419SOL    HW245187   7.720   0.354   5.460 -0.1110  1.3860  1.9479
11420SOL     OW45188   2.626   9.548   4.691 -0.4426 -0.1957  0.2408
11420SOL    HW145189   2.604   9.467   4.746 -0.4657 -0.1947  0.2341
11420SOL    HW245190   2.641   9.626   4.751 -2.3184  0.2458  0.1696
11421SOL     OW45191   8.105   1.117   5.239  0.0124 -0.0260  0.4277
11421SOL    HW145192   8.127   1.194   5.178 -0.1365 -0.5057 -0.2374
11421SOL    HW245193   8.190   1.074   5.270  0.0814  0.0324  0.3184
11422SOL     OW45194   4.025   7.152   3.882  0.3084  0.2586  0.5320
11422SOL    HW145195   3.961   7.076   3.870  2.0995 -1.3850  1.0887
11422SOL    HW245196   4.033   7.174   3.979  0.6863  0.3456  0.4833
11423SOL     OW45197   2.009   9.330   3.805 -0.1297  0.1568  0.5908
11423SOL    HW145198   1.915   9.361   3.788  0.3874  2.1992  1.3080
11423SOL    HW245199   2.029   9.339   3.903  1.0910  0.5880  0.3067
11424SOL     OW45200   2.190   7.111   3.524  0.3785 -0.0954  0.0270
11424SOL    HW145201   2.275   7.066   3.496  1.0764 -0.1718  2.1685
11424SOL    HW245202   2.204   7.210   3.526  0.5456 -0.1329  0.7796
11425SOL     OW45203   1.068   2.306   1.084  0.3627 -0.3734  0.2693
11425SOL    HW145204   1.157   2.346   1.060 -1.1585  2.3626 -0.9824
11425SOL    HW245205   1.034   2.348   1.168 -1.2343  0.9602 -1.0263
11426SOL     OW45206   9.866   2.637   5.103  0.3070 -0.9609 -0.4449
11426SOL    HW145207   9.868   2.719   5.046  1.9835 -1.1011 -0.6026
11426SOL    HW245208   9.954   2.589   5.097 -0.6587 -2.7924 -0.3795
11427SOL     OW45209   5.397   1.311   3.657 -0.2379  0.3641 -0.0349
11427SOL    HW145210   5.315   1.269   3.618  0.2498 -1.6559  1.0083
11427SOL    HW245211   5.464   1.328   3.584 -0.0196 -1.7521 -0.3664
11428SOL     OW45212   3.128   8.290   0.295  0.1636  0.1910  0.5058
11428SOL    HW145213   3.213   8.245   0.324 -0.4379 -1.2346  0.1365
11428SOL    HW245214   3.052   8.254   0.350 -0.3300  0.8148  0.2365
11429SOL     OW45215   6.060   8.171   2.635 -0.4532 -0.2014 -0.3533
11429SOL    HW145216   6.155   8.192   2.615 -0.5127 -0.1760 -0.6089
11429SOL    HW245217   6.012   8.146   2.551 -0.2317 -1.9658  0.0283
11430SOL     OW45218   8.564   9.762   3.644  0.2273 -0.4693  0.1414
11430SOL    HW145219   8.630   9.790   3.714  0.4544 -0.5914 -0.0216
11430SOL    HW245220   8.490   9.828   3.639  0.2415 -0.4302  0.4576
11431SOL     OW45221   0.715   9.403   0.014  0.3102 -0.0147  0.0971
11431SOL    HW145222   0.684   9.407  -0.081  0.9199  0.7667 -0.0718
11431SOL    HW245223   0.640   9.374   0.073 -0.2410  0.1141 -0.5445
11432SOL     OW45224   0.430   1.499   0.934 -0.0945 -0.7236 -0.4926
11432SOL    HW145225   0.434   1.401   0.913  0.2449 -0.5693 -1.1386
11432SOL    HW245226   0.334   1.526   0.946 -0.4780 -0.4426 -3.6335
11433SOL     OW45227   3.749   7.995   0.515 -0.8059  0.3049 -0.0200
11433SOL    HW145228   3.767   8.027   0.422 -1.7948 -0.3131 -0.4297
11433SOL    HW245229   3.836   7.978   0.562 -0.2743  2.4985 -0.1537
11434SOL     OW45230   4.460   1.200   5.117  0.0242 -0.3443 -0.5682
11434SOL    HW145231   4.511   1.123   5.080  0.3609 -0.7319  0.6974
11434SOL    HW245232   4.508   1.285   5.096  1.6324 -0.7590  1.3095
11435SOL     OW45233   2.338   5.888   1.262 -0.1401 -0.2836  0.2510
11435SOL    HW145234   2.250   5.843   1.279  1.3952 -3.3357  0.4019
11435SOL    HW245235   2.399   5.870   1.339  1.5532 -0.5873 -1.1553
11436SOL     OW45236   2.223   5.213   5.261  0.7057 -0.1883 -0.2548
11436SOL    HW145237   2.226   5.209   5.361  1.3508 -0.7347 -0.2901
11436SOL    HW245238   2.239   5.306   5.231  1.2615 -0.1569  0.1329
11437SOL     OW45239   1.998   3.372   3.709  0.7946  0.1529 -0.0833
11437SOL    HW145240   1.954   3.450   3.751  1.5883 -0.1008  1.2752
11437SOL    HW245241   1.930   3.301   3.690  0.2362  0.7604 -0.3365
11438SOL     OW45242   2.262   7.132   4.581 -0.2018 -0.0181  0.1373
11438SOL    HW145243   2.360   7.143   4.598 -0.3206  1.1737  0.0798
11438SOL    HW245244   2.247   7.101   4.487  0.1237 -0.3684  0.1997
11439SOL     OW45245   2.294   7.774   0.972  0.2228 -0.4942  0.0207
11439SOL    HW145246   2.202   7.812   0.980 -0.5597 -2.6994  2.1487
11439SOL    HW245247   2.304   7.730   0.883 -1.1038 -1.0303  0.1225
11440SOL     OW45248   9.154   5.814   0.365 -0.2981 -0.3287 -0.2489
11440SOL    HW145249   9.217   5.782   0.435 -0.0859 -2.0919 -1.2241
11440SOL    HW245250   9.073   5.853   0.409  0.6522  0.3073  0.9824
11441SOL     OW45251   3.831   9.286   4.558  0.0757 -0.1206 -0.5577
11441SOL    HW145252   3.735   9.299   4.586 -0.2764 -1.7962 -0.9334
11441SOL    HW245253   3.848   9.339   4.475 -0.5240  0.1843 -0.4948
11442SOL     OW45254   0.719   3.376   2.073  0.0532 -0.0042  0.2399
11442SOL    HW145255   0.813   3.364   2.103 -0.4641 -0.3376  1.7692
11442SOL    HW245256   0.663   3.408   2.149 -0.8803  1.1422 -0.9026
11443SOL     OW45257   3.706   0.546   5.331 -0.5054  0.1261 -0.3620
11443SOL    HW145258   3.682   0.604   5.253  0.7691 -0.1916 -0.9961
11443SOL    HW245259   3.648   0.464   5.330  0.3120 -0.4546 -1.6670
11444SOL     OW45260   0.082   4.116   5.479  0.3697  0.6211 -0.3306
11444SOL    HW145261   0.178   4.099   5.459  0.0525 -0.9440 -0.5969
11444SOL    HW245262   0.032   4.136   5.395  0.4450  1.3591 -0.2015
11445SOL     OW45263   1.820   2.366   2.066  0.9314 -0.2028  0.3698
11445SOL    HW145264   1.819   2.269   2.087 -1.4219 -0.2281  0.2416
11445SOL    HW245265   1.894   2.411   2.116  0.1841 -1.5431  2.7238
11446SOL     OW45266   3.255   8.148   2.833 -0.2101 -0.3403  0.0326
11446SOL    HW145267   3.232   8.187   2.744  1.9364 -0.2455 -0.5114
11446SOL    HW245268   3.312   8.213   2.884 -1.4620 -0.3726  1.5039
11447SOL     OW45269   0.769   6.341   3.964 -0.2258 -0.4240 -0.9232
11447SOL    HW145270   0.699   6.270   3.960 -0.3328 -0.3498 -0.3053
11447SOL    HW245271   0.735   6.424   3.921 -0.4850 -0.4141 -0.6959
11448SOL     OW45272   5.616   8.051   3.959 -0.3969 -0.2269 -0.2068
11448SOL    HW145273   5.545   8.003   4.011 -0.8399 -0.2061 -0.7855
11448SOL    HW245274   5.670   8.108   4.021 -0.3749 -0.8582  0.3617
11449SOL     OW45275   1.848   7.066   0.556 -0.5188 -0.2516 -0.7687
11449SOL    HW145276   1.884   7.027   0.472 -0.2401  0.8714 -1.1802
11449SOL    HW245277   1.822   6.992   0.619  0.4943 -1.0824 -1.3088
11450SOL     OW45278   1.669   1.646   1.815 -0.5725  0.7788 -0.1214
11450SOL    HW145279   1.643   1.646   1.718  2.7345 -0.5446 -1.0605
11450SOL    HW245280   1.641   1.560   1.857  0.5428  0.1458 -0.6530
11451SOL     OW45281   3.440   9.175   2.614 -0.3938  0.8768  0.4409
11451SOL    HW145282   3.407   9.115   2.687 -0.2192  1.1490  0.7453
11451SOL    HW245283   3.368   9.240   2.591 -1.0711 -0.2905 -0.8103
11452SOL     OW45284   8.897   7.399   3.919 -0.1441  0.0549  0.6037
11452SOL    HW145285   8.889   7.499   3.922 -1.0837 -0.0499  1.6447
11452SOL    HW245286   8.861   7.360   4.004 -0.7802 -1.2402 -0.2576
11453SOL     OW45287   2.133   0.383   4.278  0.2214  0.2706 -0.2927
11453SOL    HW145288   2.154   0.328   4.197 -0.2676  0.8420 -0.8178
11453SOL    HW245289   2.040   0.363   4.308  0.3839  0.1031  0.0934
11454SOL     OW45290   5.523   3.433   0.536 -0.0897 -0.0638 -0.5767
11454SOL    HW145291   5.587   3.432   0.459 -0.5209  1.7769 -0.9690
11454SOL    HW245292   5.518   3.524   0.575 -1.1308 -0.6029  0.6004
11455SOL     OW45293   3.861   1.900   3.854 -0.4917  0.0019  0.4819
11455SOL    HW145294   3.830   1.973   3.793  0.6574  2.4445  2.7612
11455SOL    HW245295   3.781   1.854   3.893 -1.2470  2.1191  1.4695
11456SOL     OW45296   3.143   2.220   4.295  0.0207  0.2905 -0.3919
11456SOL    HW145297   3.236   2.230   4.330 -0.0286 -0.2391 -0.1080
11456SOL    HW245298   3.079   2.267   4.356  0.1708  1.2324 -0.9470
11457SOL     OW45299   0.394   3.125   1.539  0.0887 -0.3150  0.1498
11457SOL    HW145300   0.490   3.124   1.568 -0.3788  0.0477  1.7796
11457SOL    HW245301   0.371   3.037   1.499  0.7249 -0.9210  1.0718
11458SOL     OW45302   9.242   5.327   2.686 -0.4399  0.3450 -0.5133
11458SOL    HW145303   9.286   5.280   2.763  0.1132  0.9168 -0.4663
11458SOL    HW245304   9.184   5.400   2.721  1.0857  1.6760 -0.6661
11459SOL     OW45305   2.567   5.997   4.125 -0.2282 -0.4094 -0.6649
11459SOL    HW145306   2.469   6.010   4.132  0.0819  2.0728 -0.6130
11459SOL    HW245307   2.612   6.032   4.207  0.8498  0.3612 -1.5590
11460SOL     OW45308   0.151   1.277   1.496  0.5439  0.4351  0.0450
11460SOL    HW145309   0.217   1.284   1.570  2.1186 -0.9307 -1.1820
11460SOL    HW245310   0.181   1.333   1.419  0.2011 -0.0623 -0.4545
11461SOL     OW45311   5.326   7.710   3.364  0.0123 -0.2657 -0.0475
11461SOL    HW145312   5.362   7.675   3.278  3.2699 -1.9086  1.8674
11461SOL    HW245313   5.357   7.805   3.376 -1.0142  0.1962 -0.9641
11462SOL     OW45314   2.511   9.292   2.288  0.0799 -0.9135 -0.0710
11462SOL    HW145315   2.591   9.350   2.299  0.3736 -1.5046  0.9738
11462SOL    HW245316   2.456   9.325   2.211  1.2639 -0.4532 -0.7282
11463SOL     OW45317   3.970   0.419   1.159  0.4423 -0.2606  0.4704
11463SOL    HW145318   3.932   0.445   1.248  0.7331  0.5920  0.3469
11463SOL    HW245319   4.007   0.326   1.166 -0.2093 -0.4880  1.0286
11464SOL     OW45320   3.617   4.632   4.212  0.0382  0.2623  0.1240
11464SOL    HW145321   3.607   4.605   4.116  2.0439  0.9000 -0.3024
11464SOL    HW245322   3.712   4.617   4.241 -0.1330  1.6658  1.4919
11465SOL     OW45323   5.456   9.332   4.766 -0.1498 -0.0019 -0.3332
11465SOL    HW145324   5.500   9.421   4.779 -0.5839  0.0688  0.6616
11465SOL    HW245325   5.385   9.341   4.696 -0.6941  0.6199  0.2857
11466SOL     OW45326   6.501   8.715   4.146 -0.7404 -0.5297 -0.3203
11466SOL    HW145327   6.574   8.683   4.087  0.9748 -0.4831  1.7124
11466SOL    HW245328   6.482   8.646   4.216 -1.4042  0.2081  0.2326
11467SOL     OW45329   4.393   4.519   0.977  0.8312  0.5410 -0.3909
11467SOL    HW145330   4.363   4.556   0.889  0.1239  0.7230 -0.0717
11467SOL    HW245331   4.372   4.584   1.050 -1.9679 -1.1438  0.3972
11468SOL     OW45332   1.848   2.979   5.049 -0.2195 -0.3924  0.0294
11468SOL    HW145333   1.836   2.879   5.046  0.4413 -0.5026  0.9790
11468SOL    HW245334   1.781   3.022   4.989 -0.4886 -1.4145 -0.4115
11469SOL     OW45335   4.671   4.186   2.808  0.8102  0.4318  0.3035
11469SOL    HW145336   4.636   4.115   2.748  1.0504  0.8955 -0.3962
11469SOL    HW245337   4.699   4.265   2.753  2.7398  0.1521  0.8506
11470SOL     OW45338   3.386   5.282   2.107 -0.1086  0.0023  0.1722
11470SOL    HW145339   3.291   5.292   2.077 -0.3550  1.2955  1.3486
11470SOL    HW245340   3.448   5.308   2.032 -0.6257 -3.1650 -1.4246
11471SOL     OW45341   7.662   7.719   3.884  0.4851  0.2414 -0.2603
11471SOL    HW145342   7.596   7.707   3.957  1.0907 -1.0176  0.0990
11471SOL    HW245343   7.618   7.765   3.806 -0.4941  0.4271  0.3933
11472SOL     OW45344   3.014   7.402   1.510 -0.0562 -0.1114 -0.6850
11472SOL    HW145345   2.923   7.441   1.526  0.3729  0.6321 -0.0731
11472SOL    HW245346   3.016   7.308   1.545  0.7062  1.2897  3.2030
11473SOL     OW45347   6.683   4.770   5.537 -0.3984 -0.2829  0.0470
11473SOL    HW145348   6.604   4.710   5.552  0.2614 -1.3920 -0.8778
11473SOL    HW245349   6.727   4.789   5.625  0.4425 -2.6196  0.1676
11474SOL     OW45350   7.145   5.042   5.625  0.3634  0.4091  0.0759
11474SOL    HW145351   7.049   5.071   5.627 -0.1081 -1.0645 -0.4471
11474SOL    HW245352   7.204   5.122   5.629 -0.9072  1.3988 -0.5704
11475SOL     OW45353   9.752   2.777   2.585  0.4335  0.1678  0.2756
11475SOL    HW145354   9.815   2.703   2.609 -0.3536 -0.6163 -0.0572
11475SOL    HW245355   9.660   2.740   2.573 -0.0736  1.2861  0.6396
11476SOL     OW45356   1.394   3.895   4.714  0.4319  0.2665  0.0573
11476SOL    HW145357   1.337   3.901   4.796 -0.0487 -1.8838 -0.0822
11476SOL    HW245358   1.490   3.898   4.740  0.2750  0.8149  0.5781
11477SOL     OW45359   0.425   0.239   3.573 -0.2827 -0.1269 -0.1507
11477SOL    HW145360   0.328   0.260   3.581 -0.4874 -1.5073  1.2773
11477SOL    HW245361   0.442   0.146   3.608  1.1370 -0.9320 -2.8733
11478SOL     OW45362   4.457   0.069   0.232  0.4153 -0.6794  0.2309
11478SOL    HW145363   4.522   0.136   0.268  0.1095 -0.9902  1.3751
11478SOL    HW245364   4.364   0.101   0.247  0.2807 -0.9314 -0.0608
11479SOL     OW45365   5.029   4.721   0.779  0.0547 -0.2866 -0.0212
11479SOL    HW145366   4.937   4.701   0.747  0.2592 -0.3551 -0.5887
11479SOL    HW245367   5.079   4.771   0.708  0.4848 -0.3391  0.2394
11480SOL     OW45368   0.262   6.826   4.844 -0.2278  0.0660 -0.1284
11480SOL    HW145369   0.176   6.850   4.889 -0.0225 -1.4445  1.1027
11480SOL    HW245370   0.320   6.908   4.837 -0.3704  0.3981  2.1379
11481SOL     OW45371   2.309   6.751   5.638  0.4783 -0.0337 -0.5190
11481SOL    HW145372   2.232   6.734   5.699  0.1062 -1.9331 -1.4440
11481SOL    HW245373   2.394   6.747   5.690  0.1548 -1.4115 -0.0584
11482SOL     OW45374   9.338   9.320   4.883  0.4490  0.0353 -0.1086
11482SOL    HW145375   9.299   9.244   4.830  2.4519  0.1015 -1.7693
11482SOL    HW245376   9.345   9.294   4.979 -1.3959 -0.8661 -0.1995
11483SOL     OW45377   8.561   3.929   0.293  0.3311  0.4280  0.1232
11483SOL    HW145378   8.557   3.852   0.356  0.8115  0.6405  0.4165
11483SOL    HW245379   8.563   4.015   0.345  0.3824  0.6171 -0.1870
11484SOL     OW45380   6.228   4.088   0.202  0.4636  0.0494  0.5174
11484SOL    HW145381   6.240   4.095   0.103  0.6025  0.5932  0.5690
11484SOL    HW245382   6.280   4.009   0.236  1.6200  0.7133  0.3481
11485SOL     OW45383   1.830   0.889   2.317  0.1924  0.2102  0.6424
11485SOL    HW145384   1.756   0.828   2.346 -0.3076  1.2350  1.5814
11485SOL    HW245385   1.918   0.848   2.341 -0.0475 -1.1068 -0.6548
11486SOL     OW45386   9.911   2.729   0.570  0.0383 -0.1612  0.6168
11486SOL    HW145387   9.962   2.718   0.485 -0.5418  1.9364 -0.0291
11486SOL    HW245388   9.827   2.674   0.565  0.3981 -0.6781  0.1620
11487SOL     OW45389   8.470   5.467   3.898  0.3168  0.2837  0.1129
11487SOL    HW145390   8.420   5.441   3.816  1.0857  0.2346 -0.3494
11487SOL    HW245391   8.442   5.409   3.975 -0.1148  0.0647 -0.2104
11488SOL     OW45392   8.644   4.260   2.160  0.0417 -0.8883  0.5811
11488SOL    HW145393   8.617   4.227   2.070 -1.9053  1.9590  0.0503
11488SOL    HW245394   8.568   4.311   2.200  2.1327  0.9243  2.3272
11489SOL     OW45395   4.154   2.890   5.641  0.1665  0.0527 -0.2055
11489SOL    HW145396   4.068   2.839   5.638  0.3329 -0.2415  0.0415
11489SOL    HW245397   4.157   2.954   5.564 -1.0681  1.3337  0.7716
11490SOL     OW45398   9.732   6.457   4.102  0.4654  0.4046 -0.0135
11490SOL    HW145399   9.782   6.513   4.035  1.1048 -1.0496 -0.7696
11490SOL    HW245400   9.758   6.362   4.092 -1.9399 -0.3092  0.0487
11491SOL     OW45401   9.467   4.636   4.825 -0.2983  0.2975  0.0132
11491SOL    HW145402   9.478   4.710   4.759 -0.9088 -0.0200 -0.4551
11491SOL    HW245403   9.492   4.669   4.916 -1.1177  1.2564 -0.0938
11492SOL     OW45404   4.743   1.663   5.240  0.1648 -0.2070 -0.0479
11492SOL    HW145405   4.754   1.703   5.149 -1.6851  0.0291 -0.1987
11492SOL    HW245406   4.794   1.718   5.306 -0.8156  1.3278 -0.5305
11493SOL     OW45407   9.802   4.451   3.758  0.2992  0.1483  0.1501
11493SOL    HW145408   9.885   4.478   3.710  0.2095  2.0136  0.9777
11493SOL    HW245409   9.724   4.458   3.696  0.5706 -0.2366 -0.2334
11494SOL     OW45410   2.240   9.833   0.003 -0.0393  0.2239 -0.2091
11494SOL    HW145411   2.289   9.903   0.055 -0.5821  0.3007  0.2043
11494SOL    HW245412   2.301   9.793  -0.064  0.6365  0.2090  0.4079
11495SOL     OW45413   7.647   1.664   0.047 -0.1090 -0.4935  0.1700
11495SOL    HW145414   7.630   1.709   0.135  1.9018 -1.1484  0.9328
11495SOL    HW245415   7.579   1.694  -0.019 -1.4810  0.2527  1.8607
11496SOL     OW45416   3.952   4.775   0.195  0.1300  0.3971 -0.1545
11496SOL    HW145417   4.009   4.803   0.118 -0.1622 -0.4259 -0.6796
11496SOL    HW245418   4.001   4.706   0.248  0.5503  1.3522  0.7136
11497SOL     OW45419   4.084   4.172   5.513 -0.0242  0.3773 -0.2890
11497SOL    HW145420   4.146   4.131   5.580  0.0100  1.5028  0.3703
11497SOL    HW245421   4.104   4.134   5.423  0.4668 -0.5513  0.1958
11498SOL     OW45422   2.151   4.957   0.897  0.2739  0.5514  0.6611
11498SOL    HW145423   2.178   4.896   0.823  0.3197  1.4994 -0.1045
11498SOL    HW245424   2.051   4.964   0.899  0.2797  0.6371  0.6125
11499SOL     OW45425   3.936   6.085   2.907 -0.1507  0.0676 -0.3214
11499SOL    HW145426   3.930   6.096   3.006  1.8960  1.5706 -0.3319
11499SOL    HW245427   3.980   6.166   2.867 -0.2642 -0.8531 -2.3640
11500SOL     OW45428   0.984   5.562   0.401 -0.3977  0.1710 -0.3929
11500SOL    HW145429   0.895   5.557   0.446 -0.2804  0.2683 -0.1520
11500SOL    HW245430   1.035   5.478   0.417  0.4246  0.9729  1.2782
11501SOL     OW45431   8.628   6.213   1.584 -0.0429 -0.2281 -0.0800
11501SOL    HW145432   8.533   6.231   1.558 -0.0933  0.1741  0.3791
11501SOL    HW245433   8.630   6.141   1.653 -0.2072  1.5326  1.8080
11502SOL     OW45434   3.603   1.212   1.516 -0.2551 -0.3623  0.0950
11502SOL    HW145435   3.607   1.284   1.446 -2.2114  0.3021  0.6288
11502SOL    HW245436   3.686   1.215   1.572 -0.2135  1.3522 -0.0269
11503SOL     OW45437   1.088   5.390   2.936  0.4988 -0.8739 -0.3765
11503SOL    HW145438   0.994   5.363   2.912  0.1614 -0.2931  0.2601
11503SOL    HW245439   1.114   5.470   2.883  0.7585 -1.2321 -0.7922
11504SOL     OW45440   5.905   8.908   3.535  0.1144  1.1141 -0.4631
11504SOL    HW145441   5.882   8.962   3.616 -1.2254 -0.4393  0.2246
11504SOL    HW245442   5.849   8.937   3.458 -1.2036  0.1938  0.1208
11505SOL     OW45443   2.052   0.744   2.386  0.3028  0.4572 -0.0960
11505SOL    HW145444   2.110   0.668   2.358 -0.1254  0.1253 -0.0967
11505SOL    HW245445   2.108   0.819   2.421  0.6873 -0.1237  0.5384
11506SOL     OW45446   9.358   1.576   4.052 -0.1941  0.3563 -0.3378
11506SOL    HW145447   9.412   1.493   4.039 -0.2946  0.3967 -1.0310
11506SOL    HW245448   9.382   1.643   3.982 -0.4013  0.7609 -0.0236
11507SOL     OW45449   9.005   1.371   3.893  0.5102 -0.0968 -0.2450
11507SOL    HW145450   8.978   1.298   3.955 -1.4020  0.5775 -0.2489
11507SOL    HW245451   9.048   1.331   3.812 -0.2932 -1.1997 -0.1362
11508SOL     OW45452   4.583   0.449   5.343  0.7110 -0.1952  0.2236
11508SOL    HW145453   4.556   0.411   5.254  0.4909 -0.2937  0.3309
11508SOL    HW245454   4.501   0.465   5.398  0.5800  2.9700 -0.8122
11509SOL     OW45455   8.241   3.730   1.934  0.3104 -0.0403  0.1395
11509SOL    HW145456   8.155   3.685   1.956  0.4608  0.6365  2.1738
11509SOL    HW245457   8.316   3.663   1.938  0.0277 -0.4102 -0.6442
11510SOL     OW45458   9.075   9.895   0.587  0.2282  0.0468 -0.5696
11510SOL    HW145459   9.100   9.955   0.510 -0.5878  0.3108 -0.6325
11510SOL    HW245460   9.151   9.890   0.652  1.4932 -1.3227 -2.0996
11511SOL     OW45461   8.834   6.975   4.308  0.0126 -0.6670 -0.5646
11511SOL    HW145462   8.908   6.938   4.251  1.1708  1.0423 -0.1993
11511SOL    HW245463   8.860   7.065   4.342 -1.6306 -0.6885  0.8048
11512SOL     OW45464   2.684   8.001   0.660  0.2410  1.0440  0.5816
11512SOL    HW145465   2.660   7.906   0.640 -1.3925  1.7210 -0.8098
11512SOL    HW245466   2.714   8.046   0.576  1.2322  1.7076  1.2768
11513SOL     OW45467   4.223   9.399   2.306 -0.1156  0.0767 -0.6063
11513SOL    HW145468   4.305   9.452   2.286  0.9714 -1.6664 -0.9039
11513SOL    HW245469   4.153   9.458   2.347  1.4101  1.5107 -0.0383
11514SOL     OW45470   4.349   4.687   5.574 -0.5197  0.0300  0.4869
11514SOL    HW145471   4.346   4.587   5.572 -1.0150  0.0647 -0.6021
11514SOL    HW245472   4.437   4.717   5.611 -0.9487 -0.8076  2.2292
11515SOL     OW45473   4.144   2.310   5.341 -0.1270 -0.3528 -0.2784
11515SOL    HW145474   4.071   2.363   5.382  1.0276 -0.1490  1.5562
11515SOL    HW245475   4.192   2.366   5.273 -0.9844 -0.1323 -0.6992
11516SOL     OW45476   4.354   8.380   0.311  0.2417  0.3237 -0.0918
11516SOL    HW145477   4.426   8.359   0.246  0.1069  1.7546 -0.7351
11516SOL    HW245478   4.276   8.320   0.295  0.3296  0.4557 -1.0441
11517SOL     OW45479   1.019   5.010   2.705 -0.0806  0.0411  0.6024
11517SOL    HW145480   0.957   5.086   2.722  1.4388  1.4727 -0.2245
11517SOL    HW245481   1.077   4.997   2.785  0.3600  0.4157  0.3438
11518SOL     OW45482   0.986   8.369   1.055  0.3185 -0.0295 -0.1501
11518SOL    HW145483   0.977   8.271   1.038 -0.9263  0.2207 -1.0085
11518SOL    HW245484   1.035   8.412   0.979  1.5309 -0.1056  0.5891
11519SOL     OW45485   4.701   7.770   4.158 -0.2321  0.7950  0.2206
11519SOL    HW145486   4.776   7.815   4.111 -0.3532  1.5535  0.7376
11519SOL    HW245487   4.671   7.691   4.106  0.9285  0.4851  0.0136
11520SOL     OW45488   5.400   2.936   0.593 -0.7705  0.3718  0.0118
11520SOL    HW145489   5.481   2.877   0.593 -1.8201 -1.0873 -0.4727
11520SOL    HW245490   5.407   3.001   0.518 -0.2446 -0.0183 -0.2848
11521SOL     OW45491   2.369   5.797   0.030 -0.3709  0.6653 -0.3266
11521SOL    HW145492   2.336   5.887   0.000  0.0838  0.3078 -1.9521
11521SOL    HW245493   2.302   5.727   0.004 -0.9251  0.5669  1.3144
11522SOL     OW45494   2.544   5.886   1.702 -0.1220 -0.5709 -0.3502
11522SOL    HW145495   2.642   5.872   1.719  0.0868  0.4927 -0.5910
11522SOL    HW245496   2.521   5.982   1.720 -1.3352 -1.0533  0.6739
11523SOL     OW45497   0.301   6.282   2.008 -0.1659 -0.3067 -0.6995
11523SOL    HW145498   0.383   6.266   1.953  1.6643  1.4295  1.4431
11523SOL    HW245499   0.267   6.375   1.992 -0.3399 -0.2173  0.2044
11524SOL     OW45500   9.529   0.751   3.932 -0.3223  0.0898 -0.5328
11524SOL    HW145501   9.441   0.787   3.901  0.7965  1.5835 -2.0596
11524SOL    HW245502   9.519   0.655   3.959 -2.6855  0.6240  0.5539
11525SOL     OW45503   0.883   9.824   1.503 -0.0207  0.2529 -0.1763
11525SOL    HW145504   0.851   9.896   1.441  1.6210  0.4998 -0.7578
11525SOL    HW245505   0.903   9.741   1.451  0.9596  0.3290  0.0546
11526SOL     OW45506   1.992   2.283   5.144 -0.4927 -0.1591  0.5557
11526SOL    HW145507   2.028   2.219   5.212  0.9273  1.0193  0.9369
11526SOL    HW245508   1.921   2.238   5.090 -0.5211 -1.5970  1.7688
11527SOL     OW45509   9.887   8.197   1.222 -0.4543  0.1225 -0.2285
11527SOL    HW145510   9.960   8.129   1.227  1.0896  1.7296 -0.3443
11527SOL    HW245511   9.926   8.288   1.234 -2.3494  1.0693 -1.0722
11528SOL     OW45512   1.981   1.568   0.565  0.4271  0.2798 -0.4509
11528SOL    HW145513   1.953   1.640   0.628  1.2545  0.4753 -0.3044
11528SOL    HW245514   2.032   1.498   0.614  1.2558  0.5333 -0.9324
11529SOL     OW45515   2.459   9.632   2.047 -0.8998 -0.3477  0.1404
11529SOL    HW145516   2.422   9.541   2.063 -2.5189  0.1974 -0.3506
11529SOL    HW245517   2.477   9.643   1.949 -1.6121  0.1665  0.0575
11530SOL     OW45518   2.693   4.934   4.794  0.1430  0.1991  0.2972
11530SOL    HW145519   2.684   4.882   4.709 -1.4901  1.0749 -0.0815
11530SOL    HW245520   2.730   5.025   4.773 -1.7094  0.9725  0.3074
11531SOL     OW45521   3.789   8.705   0.756  0.3221  0.2936  0.3416
11531SOL    HW145522   3.758   8.725   0.849  0.3524 -1.2102  0.6908
11531SOL    HW245523   3.884   8.675   0.758  0.4343  0.5978 -0.2286
11532SOL     OW45524   8.071   2.774   2.578  0.1915  0.0245 -0.1135
11532SOL    HW145525   8.139   2.734   2.517  0.9015  2.0074 -0.6611
11532SOL    HW245526   8.011   2.834   2.526  1.2956  2.3694  1.2568
11533SOL     OW45527   0.770   5.366   3.974  0.7164 -0.5174 -0.0706
11533SOL    HW145528   0.812   5.445   4.018 -0.8067 -0.4041  1.2360
11533SOL    HW245529   0.698   5.397   3.911 -1.4809 -0.8685  2.1518
11534SOL     OW45530   6.344   0.321   4.979  0.2669 -0.3402 -0.1220
11534SOL    HW145531   6.303   0.412   4.970  0.3672 -0.1946  0.8356
11534SOL    HW245532   6.437   0.331   5.014  0.7316 -0.7407 -1.2152
11535SOL     OW45533   4.099   9.352   1.310  0.7581 -0.4093  0.1512
11535SOL    HW145534   4.134   9.351   1.404  0.2845 -0.3591  0.3301
11535SOL    HW245535   4.160   9.405   1.252  0.5400  0.3823  0.6360
11536SOL     OW45536   9.091   5.877   4.978  0.1004  0.2686  0.3396
11536SOL    HW145537   9.031   5.837   5.048 -0.0110  0.3174  0.2716
11536SOL    HW245538   9.053   5.859   4.888  0.1828  0.3088  0.2964
11537SOL     OW45539   9.806   2.910   1.418 -0.2184  0.4371 -0.0459
11537SOL    HW145540   9.735   2.931   1.351 -0.7252  0.6101  0.5460
11537SOL    HW245541   9.766   2.856   1.493  0.0295  1.4456  0.8281
11538SOL     OW45542   7.973   2.137   2.764 -0.1267 -0.8050  0.3032
11538SOL    HW145543   7.977   2.140   2.864 -0.7679 -1.2216  0.3421
11538SOL    HW245544   7.886   2.097   2.735 -0.5997  0.7288 -0.4411
11539SOL     OW45545   8.895   1.123   1.274  0.3496 -0.1603 -0.7710
11539SOL    HW145546   8.893   1.104   1.176 -1.9372  0.3397 -0.8534
11539SOL    HW245547   8.922   1.041   1.323 -1.3206 -1.2840 -1.6660
11540SOL     OW45548   8.464   4.679   3.268  0.7814 -0.0100  0.2003
11540SOL    HW145549   8.415   4.607   3.317  0.3106  0.7206  0.8234
11540SOL    HW245550   8.486   4.647   3.176 -4.7929  1.0943 -1.7500
11541SOL     OW45551   6.211   9.078   4.270 -0.3997 -0.1007  0.1341
11541SOL    HW145552   6.185   8.986   4.242  2.2316 -0.5097 -1.0086
11541SOL    HW245553   6.307   9.080   4.298 -0.3044  2.3747 -0.2035
11542SOL     OW45554   4.390   0.846   3.655  0.3404 -0.2514  0.2753
11542SOL    HW145555   4.396   0.889   3.566 -2.0356  2.4982  1.3892
11542SOL    HW245556   4.312   0.784   3.658 -0.3709  0.6614  0.8371
11543SOL     OW45557   0.094   2.909   2.614  0.3749  0.0308 -0.1871
11543SOL    HW145558   0.060   2.836   2.673  1.4474 -1.0713 -0.9002
11543SOL    HW245559   0.018   2.949   2.564 -0.1830 -0.8459 -0.0558
11544SOL     OW45560   0.102   5.054   0.453  0.2983  0.7727  0.1000
11544SOL    HW145561   0.058   4.969   0.423  0.5906  0.7694 -0.3320
11544SOL    HW245562   0.032   5.120   0.481  0.0144  0.7408 -0.5165
11545SOL     OW45563   8.973   0.746   3.287 -0.2596 -0.2794  0.2302
11545SOL    HW145564   9.035   0.672   3.312 -0.8990 -1.1833 -0.8142
11545SOL    HW245565   8.987   0.824   3.348  1.9740 -0.4309 -0.0587
11546SOL     OW45566   2.045   4.391   2.017 -0.0663 -0.5067  0.1597
11546SOL    HW145567   1.954   4.418   1.985  0.7752  0.7478 -1.2789
11546SOL    HW245568   2.115   4.439   1.963  1.4508 -0.2646  2.2436
11547SOL     OW45569   4.522   1.782   2.403  0.2631  0.1247 -0.0259
11547SOL    HW145570   4.505   1.875   2.437  1.2028  0.6302 -0.8818
11547SOL    HW245571   4.496   1.777   2.307  1.8991  0.0223 -0.4742
11548SOL     OW45572   1.511   8.839   2.181 -0.1919 -0.1851 -0.5450
11548SOL    HW145573   1.609   8.829   2.198  0.1651  3.0822 -0.5274
11548SOL    HW245574   1.460   8.792   2.253  1.3174 -1.6237 -0.3719
11549SOL     OW45575   9.425   4.519   0.707 -0.4579 -0.4134  0.2792
11549SOL    HW145576   9.452   4.593   0.768 -0.9730 -0.5492  0.6775
11549SOL    HW245577   9.502   4.493   0.649 -0.6570  1.3159 -0.7773
11550SOL     OW45578   4.668   1.768   4.492 -0.4102 -0.5059 -0.1472
11550SOL    HW145579   4.667   1.833   4.567  0.3268 -0.9545  0.2602
11550SOL    HW245580   4.730   1.692   4.514  0.0471 -0.4968 -1.3276
11551SOL     OW45581   1.300   8.117   0.903 -0.6213  0.1660 -0.4993
11551SOL    HW145582   1.377   8.158   0.952 -1.0616 -0.1311  0.4526
11551SOL    HW245583   1.228   8.095   0.968 -1.8485  1.1911 -1.4898
11552SOL     OW45584   2.136   0.602   2.734 -0.1507 -0.1700  0.2758
11552SOL    HW145585   2.089   0.612   2.822  1.2405 -0.7470  1.0895
11552SOL    HW245586   2.123   0.509   2.700  1.2011 -0.6313  0.9811
11553SOL     OW45587   3.956   0.931   4.294 -0.2558  0.0168  0.0828
11553SOL    HW145588   4.036   0.880   4.264 -0.0271  0.2340  0.3257
11553SOL    HW245589   3.924   0.991   4.221 -0.3303 -0.2358 -0.0912
11554SOL     OW45590   0.887   7.309   1.577  0.4614  0.0550 -0.0503
11554SOL    HW145591   0.896   7.242   1.651  0.1419  0.0778  0.0075
11554SOL    HW245592   0.947   7.387   1.596  0.6262 -0.0889  0.0213
11555SOL     OW45593   2.466   6.251   0.157 -0.4488  0.4690 -0.2982
11555SOL    HW145594   2.475   6.229   0.255  3.6204 -1.5520 -1.0238
11555SOL    HW245595   2.482   6.349   0.144  0.3485  0.5278  0.9466
11556SOL     OW45596   0.290   2.508   2.664  0.1684 -0.1909 -0.1416
11556SOL    HW145597   0.328   2.488   2.754 -0.2877  0.5622  0.2236
11556SOL    HW245598   0.296   2.427   2.606  0.4139 -0.6936  0.5856
11557SOL     OW45599   4.916   7.214   2.947 -0.2410 -0.5328 -0.3470
11557SOL    HW145600   4.854   7.250   2.877  0.2812  0.9658 -0.0712
11557SOL    HW245601   5.003   7.188   2.905  0.0243  0.2403 -0.2803
11558SOL     OW45602   0.532   6.365   2.382 -0.1911 -0.3415  0.0383
11558SOL    HW145603   0.514   6.392   2.476  2.4034 -2.1411  1.1158
11558SOL    HW245604   0.475   6.288   2.357 -1.0914  0.3239  0.0140
11559SOL     OW45605   3.586   3.012   5.361 -0.5927  0.1595  0.1872
11559SOL    HW145606   3.661   3.034   5.425  0.0774  0.6288 -0.7488
11559SOL    HW245607   3.514   2.963   5.410  0.5412 -0.7205  1.0092
11560SOL     OW45608   5.426   7.968   3.494  0.4995 -0.2041 -0.0169
11560SOL    HW145609   5.424   8.067   3.483 -0.1956 -0.4004 -1.7122
11560SOL    HW245610   5.518   7.939   3.520  0.9088  0.7951 -0.3341
11561SOL     OW45611   1.127   9.785   0.891  0.6065  0.3359  0.0299
11561SOL    HW145612   1.165   9.768   0.800 -1.3585 -0.3699 -0.6973
11561SOL    HW245613   1.189   9.751   0.961  2.4690  1.5301 -1.0191
11562SOL     OW45614   9.295   0.963   0.506  0.6137  0.0417 -0.6639
11562SOL    HW145615   9.345   0.876   0.511  0.9481  0.0764 -2.7686
11562SOL    HW245616   9.203   0.945   0.473  0.7515  0.5015 -1.3071
11563SOL     OW45617   8.085   2.138   1.746  0.1592 -0.7868  0.5541
11563SOL    HW145618   8.085   2.223   1.797  1.9230 -1.2011  1.2768
11563SOL    HW245619   8.151   2.143   1.671  1.1721 -1.9386  1.3459
11564SOL     OW45620   5.296   0.259   3.935  0.3532  0.2542 -0.2665
11564SOL    HW145621   5.245   0.290   3.854 -0.1849  2.3114  0.8283
11564SOL    HW245622   5.335   0.338   3.982 -0.9118 -0.7646  2.5626
11565SOL     OW45623   7.842   1.679   0.689 -0.6250 -0.0325 -0.0767
11565SOL    HW145624   7.924   1.736   0.688 -0.8498  0.3732  1.6204
11565SOL    HW245625   7.765   1.731   0.652 -0.5662  0.3452  0.3249
11566SOL     OW45626   4.984   2.824   2.296  0.9205  0.3390 -0.5556
11566SOL    HW145627   4.918   2.749   2.298 -0.5935  1.6674  1.3059
11566SOL    HW245628   4.982   2.866   2.205 -2.1988  1.5122 -0.0228
11567SOL     OW45629   0.675   1.063   3.479 -0.1110 -0.5191 -0.2530
11567SOL    HW145630   0.633   1.149   3.449  0.0583 -0.8415 -1.4688
11567SOL    HW245631   0.628   1.030   3.561  0.4539  1.2169  0.7881
11568SOL     OW45632   1.820   6.432   1.467 -0.3841  0.1873  0.3003
11568SOL    HW145633   1.891   6.482   1.516  0.4758  0.0825 -0.8145
11568SOL    HW245634   1.823   6.335   1.492  0.4745  0.0166 -0.4120
11569SOL     OW45635   6.333   0.534   1.177 -0.1452 -0.2204  0.4124
11569SOL    HW145636   6.422   0.538   1.222 -0.3219  4.1628  0.5364
11569SOL    HW245637   6.261   0.520   1.245  0.0828  0.5162  0.8009
11570SOL     OW45638   2.795   2.504   4.948 -0.2036  0.4585 -0.3416
11570SOL    HW145639   2.895   2.508   4.941 -0.3123  0.5827 -2.2792
11570SOL    HW245640   2.769   2.480   5.041  1.6813 -1.2735 -0.2150
11571SOL     OW45641   8.403   8.898   1.940 -0.4916 -0.2803  0.4575
11571SOL    HW145642   8.399   8.811   1.990 -1.0698 -0.3180  0.3524
11571SOL    HW245643   8.318   8.911   1.888  0.0536 -0.1748 -0.4141
11572SOL     OW45644   2.248   4.776   2.123 -0.0865  0.8377  0.3397
11572SOL    HW145645   2.242   4.677   2.134  0.8314  0.3739 -2.8188
11572SOL    HW245646   2.332   4.809   2.166  1.6328 -0.3615 -1.9974
11573SOL     OW45647   4.851   2.429   0.527 -0.0556  0.3801 -0.1138
11573SOL    HW145648   4.943   2.394   0.544 -0.3307  0.7745  2.3931
11573SOL    HW245649   4.829   2.500   0.594 -2.5648 -0.3756 -0.0799
11574SOL     OW45650   1.587   5.709   4.416  0.4825 -0.3885  0.3402
11574SOL    HW145651   1.621   5.793   4.372 -2.5533  1.2046  0.9360
11574SOL    HW245652   1.529   5.660   4.352  1.8091 -1.7978  0.1906
11575SOL     OW45653   2.855   1.609   1.366  0.1762  0.1038  0.3039
11575SOL    HW145654   2.875   1.650   1.455 -1.3053 -0.7020  1.0316
11575SOL    HW245655   2.808   1.676   1.309 -1.3454 -0.2123  1.1369
11576SOL     OW45656   7.061   9.982   0.111  0.2541  0.0667 -0.6884
11576SOL    HW145657   7.042   9.997   0.014 -0.6777  1.2763 -0.3276
11576SOL    HW245658   7.094  10.067   0.152 -0.1977 -0.2007  0.2465
11577SOL     OW45659   3.698   8.113   1.992  0.2252  0.5142 -0.1269
11577SOL    HW145660   3.763   8.155   2.054 -1.0072  1.3222  0.6258
11577SOL    HW245661   3.691   8.168   1.908  1.0443  0.0265 -0.5284
11578SOL     OW45662   8.919   0.778   5.547  0.8542 -0.5239 -0.0754
11578SOL    HW145663   8.966   0.862   5.519 -0.7067 -0.0435 -1.2705
11578SOL    HW245664   8.827   0.776   5.508 -0.2293 -1.3573  2.4225
11579SOL     OW45665   2.937   6.356   1.171 -0.4335  0.0673 -0.5488
11579SOL    HW145666   3.011   6.294   1.195  0.0867  1.2989  1.1375
11579SOL    HW245667   2.853   6.304   1.155 -0.3897 -0.9702  2.3677
11580SOL     OW45668   8.454   8.631   1.356 -0.0028 -0.0560 -0.3197
11580SOL    HW145669   8.390   8.600   1.286  0.0398  0.2358 -0.4897
11580SOL    HW245670   8.413   8.621   1.446  0.0415 -0.6768 -0.3672
11581SOL     OW45671   7.748   0.175   2.707  0.2403 -0.6079  0.7268
11581SOL    HW145672   7.814   0.204   2.776  1.5004  0.9229 -1.0681
11581SOL    HW245673   7.790   0.108   2.646 -0.7319 -1.6465  1.1819
11582SOL     OW45674   8.311   0.765   1.905  0.0910  0.2867 -0.3608
11582SOL    HW145675   8.328   0.818   1.988  0.9387  0.5732 -0.7120
11582SOL    HW245676   8.233   0.704   1.920  1.1113 -0.6905  1.1317
11583SOL     OW45677   7.391   9.114   3.581 -0.6308 -0.5438 -0.0725
11583SOL    HW145678   7.453   9.181   3.539 -1.8226  1.5372  1.4228
11583SOL    HW245679   7.300   9.154   3.591 -1.0387 -1.9385  2.0356
11584SOL     OW45680   2.930   2.590   3.825 -0.4571  0.4616 -0.0594
11584SOL    HW145681   2.935   2.508   3.768  1.7357 -1.5693  2.8804
11584SOL    HW245682   3.002   2.654   3.797  1.1613 -0.8947  0.9466
11585SOL     OW45683   0.341   9.878   2.419  0.2897 -0.5044 -0.1291
11585SOL    HW145684   0.314   9.970   2.447 -0.0478 -1.1025  1.5262
11585SOL    HW245685   0.324   9.814   2.493 -0.7250 -2.1293 -1.7286
11586SOL     OW45686   3.737   8.860   4.315 -0.0523  0.0700 -0.2420
11586SOL    HW145687   3.713   8.956   4.331 -2.4263 -0.7820  1.6598
11586SOL    HW245688   3.674   8.821   4.247  0.8224 -0.1781 -0.9124
11587SOL     OW45689   0.368   0.869   3.674  0.0897  0.3317 -0.1417
11587SOL    HW145690   0.354   0.797   3.742 -0.8592  1.8917  1.3246
11587SOL    HW245691   0.286   0.879   3.617 -0.0884  0.8229  0.2001
11588SOL     OW45692   0.219   0.738   2.534 -0.1240 -0.1471 -0.3801
11588SOL    HW145693   0.219   0.708   2.629  0.1711  1.4447  0.1474
11588SOL    HW245694   0.145   0.693   2.484 -1.3792  0.2984  1.0440
11589SOL     OW45695   6.121   3.883   5.548  0.3608 -0.3787 -0.0965
11589SOL    HW145696   6.059   3.844   5.480  1.3026 -1.1699 -0.5155
11589SOL    HW245697   6.131   3.981   5.532 -2.1101  0.1108  1.0313
11590SOL     OW45698   6.743   9.746   2.234  0.0950  0.5325 -0.2280
11590SOL    HW145699   6.725   9.826   2.177  0.2939 -0.3267 -1.5045
11590SOL    HW245700   6.816   9.768   2.299  0.3218  1.3039 -0.7329
11591SOL     OW45701   3.390   7.883   1.848 -0.1514 -0.2359 -0.2523
11591SOL    HW145702   3.426   7.918   1.934 -0.4521 -0.8086  0.1118
11591SOL    HW245703   3.324   7.948   1.810  0.4326  0.2969 -0.3605
11592SOL     OW45704   2.170   6.418   4.690 -0.1521  0.5304 -0.1352
11592SOL    HW145705   2.172   6.347   4.760 -0.0865  2.1386  1.5461
11592SOL    HW245706   2.076   6.431   4.657 -0.3573  0.5231  0.4524
11593SOL     OW45707   4.775   8.681   2.579  0.2169 -0.3985 -0.0612
11593SOL    HW145708   4.799   8.778   2.577  0.6921 -0.4963  0.6504
11593SOL    HW245709   4.736   8.655   2.491  2.1999 -0.0799 -1.0791
11594SOL     OW45710   9.840   2.886   2.835 -0.0576 -0.5764 -0.0356
11594SOL    HW145711   9.808   2.839   2.753 -0.6194 -1.1988  0.5405
11594SOL    HW245712   9.925   2.843   2.867 -0.9770 -1.6989  0.9294
11595SOL     OW45713   3.056   7.983   3.711  0.0427  0.4058  0.2914
11595SOL    HW145714   3.096   8.066   3.748  2.4540 -1.1472  1.2822
11595SOL    HW245715   3.116   7.905   3.730 -1.3429 -1.3147 -2.0724
11596SOL     OW45716   9.201   8.642   0.988  0.7663  0.7134  0.5310
11596SOL    HW145717   9.162   8.623   0.897 -2.0906  0.8267  1.6699
11596SOL    HW245718   9.296   8.611   0.990  0.7712  0.3432 -2.3701
11597SOL     OW45719   7.110   7.843   3.011  0.1894  0.0648 -0.4875
11597SOL    HW145720   7.081   7.797   2.927  0.5785 -1.1735  0.0504
11597SOL    HW245721   7.203   7.878   3.001  0.7256 -1.2349 -0.1253
11598SOL     OW45722   9.871   4.194   0.722 -0.4082 -0.2176  0.1245
11598SOL    HW145723   9.789   4.233   0.682 -1.0896  0.2640  1.9331
11598SOL    HW245724   9.929   4.267   0.759 -0.1867 -0.6932  0.7382
11599SOL     OW45725   3.102   9.337   0.151  0.0318  0.2025  0.0760
11599SOL    HW145726   3.006   9.318   0.172 -0.4035  1.0081 -1.1228
11599SOL    HW245727   3.156   9.254   0.165 -1.3329 -1.1138 -2.1444
11600SOL     OW45728   6.899   0.772   0.603 -0.0008  0.5632  0.0855
11600SOL    HW145729   6.842   0.692   0.622 -1.0259  1.1362 -0.5536
11600SOL    HW245730   6.994   0.752   0.628 -0.0288 -1.2813 -1.2378
11601SOL     OW45731   7.699   0.291   1.300  0.5355  0.0690 -0.4194
11601SOL    HW145732   7.614   0.280   1.248  0.1968  1.6024 -0.2340
11601SOL    HW245733   7.683   0.266   1.396  1.3888 -3.6155 -1.1539
11602SOL     OW45734   5.132   0.917   2.249 -0.2196  0.3567  0.2022
11602SOL    HW145735   5.071   0.841   2.223 -0.1308  1.3936 -3.2917
11602SOL    HW245736   5.216   0.911   2.195  1.8620  0.2413  3.3734
11603SOL     OW45737   5.340   9.147   2.837  0.3931 -0.2297  0.4288
11603SOL    HW145738   5.409   9.213   2.869 -0.8036  1.4359 -0.3575
11603SOL    HW245739   5.280   9.192   2.771 -1.3900 -1.6985  1.0435
11604SOL     OW45740   8.686   8.298   2.944 -0.0958  0.2717 -0.3652
11604SOL    HW145741   8.784   8.310   2.928  0.0854 -2.0803 -1.3265
11604SOL    HW245742   8.639   8.287   2.856 -1.1723  1.0207  0.1050
11605SOL     OW45743   1.249   6.032   0.745  0.2620 -0.1012 -0.0638
11605SOL    HW145744   1.206   6.016   0.834 -0.6925 -1.2660 -0.7102
11605SOL    HW245745   1.178   6.047   0.676  0.8416 -2.4682 -1.2260
11606SOL     OW45746   1.678   8.370   0.763 -0.4138 -0.2014 -0.2907
11606SOL    HW145747   1.650   8.400   0.855  0.4452 -2.0897  0.6070
11606SOL    HW245748   1.617   8.297   0.732 -0.2735 -0.0481 -0.9238
11607SOL     OW45749   4.625   8.656   4.489  0.1904  0.4979 -0.0718
11607SOL    HW145750   4.637   8.700   4.400  2.9366  0.4725  0.2415
11607SOL    HW245751   4.637   8.558   4.480 -1.6840  0.2293 -0.0048
11608SOL     OW45752   9.875   4.809   5.156  0.4192 -0.3066  0.2491
11608SOL    HW145753   9.894   4.859   5.240  0.0249  1.2011 -0.5338
11608SOL    HW245754   9.941   4.734   5.146 -0.2947 -1.2477  2.4794
11609SOL     OW45755   1.311   8.644   0.694  0.1070 -0.3447 -0.4477
11609SOL    HW145756   1.323   8.737   0.728  0.3071 -1.4490  2.6209
11609SOL    HW245757   1.392   8.618   0.640  0.4764  0.9075 -0.5167
11610SOL     OW45758   3.059   3.654   4.672 -0.5193 -0.2480 -0.1130
11610SOL    HW145759   3.054   3.555   4.657  0.7895 -0.2101 -0.8227
11610SOL    HW245760   2.972   3.686   4.708 -1.2026 -1.5417 -0.5841
11611SOL     OW45761   0.345   5.031   3.668 -0.9249 -0.9124 -0.6557
11611SOL    HW145762   0.386   4.944   3.697  0.0107  0.1521  1.3176
11611SOL    HW245763   0.280   5.062   3.737  0.2600  0.9524 -0.3186
11612SOL     OW45764   1.355   5.627   1.309  0.0163 -0.2649 -0.0473
11612SOL    HW145765   1.339   5.555   1.376 -0.9080  0.8000  0.8965
11612SOL    HW245766   1.399   5.588   1.228  1.1574 -1.5759  1.1676
11613SOL     OW45767   0.614   0.565   3.933  0.4952  0.7208 -0.4269
11613SOL    HW145768   0.567   0.556   3.845  2.1582  0.5963 -1.3218
11613SOL    HW245769   0.548   0.553   4.008 -0.6249 -0.9629 -1.6400
11614SOL     OW45770   9.499   8.789   0.215  0.1384  0.0093 -0.0418
11614SOL    HW145771   9.567   8.804   0.144 -0.9584  0.0209 -1.1098
11614SOL    HW245772   9.499   8.867   0.278 -0.0829  0.8377 -1.0398
11615SOL     OW45773   2.350   4.543   1.103 -0.8778 -0.2064 -0.1729
11615SOL    HW145774   2.436   4.508   1.139 -1.0946 -0.1593  0.4052
11615SOL    HW245775   2.367   4.601   1.024 -0.2347  1.1646  0.9442
11616SOL     OW45776   9.969   5.189   3.445 -0.2935  0.0929 -0.1174
11616SOL    HW145777   9.953   5.209   3.542 -0.1113  1.2973 -0.3190
11616SOL    HW245778  10.059   5.146   3.434 -1.1020 -1.7941  0.4397
11617SOL     OW45779   5.182   1.883   2.673 -0.4177 -0.0000 -0.5390
11617SOL    HW145780   5.094   1.835   2.670  0.0991 -0.9214 -1.2378
11617SOL    HW245781   5.256   1.817   2.658  0.3297  0.9551 -1.0930
11618SOL     OW45782   6.200   1.674   2.899  0.2336  0.1575 -0.2276
11618SOL    HW145783   6.278   1.710   2.847 -0.4676  1.2844 -0.4940
11618SOL    HW245784   6.121   1.667   2.839 -0.3570  0.6904  0.4896
11619SOL     OW45785   1.906   5.096   1.849  0.2901  0.1140  0.2774
11619SOL    HW145786   1.940   5.007   1.877  2.1138  0.9249  0.6924
11619SOL    HW245787   1.821   5.085   1.797  0.3856 -1.8294  0.5304
11620SOL     OW45788   6.460   8.947   4.278 -0.1595 -0.3101 -0.3901
11620SOL    HW145789   6.484   8.855   4.246 -0.2313 -0.6081  0.4040
11620SOL    HW245790   6.541   8.992   4.316 -0.5384 -0.7770  0.9851
11621SOL     OW45791   9.893   5.085   1.228 -0.6300 -0.5881  0.3799
11621SOL    HW145792   9.798   5.060   1.213 -0.9514 -0.2591  1.7936
11621SOL    HW245793   9.907   5.109   1.325  0.6684  0.2790  0.0020
11622SOL     OW45794   3.671   5.014   0.336  0.1567 -0.1530 -0.2930
11622SOL    HW145795   3.625   5.072   0.403  0.5742  1.2269 -1.1749
11622SOL    HW245796   3.739   4.957   0.382  0.1408  0.4750  0.5166
11623SOL     OW45797   1.057   2.274   4.738 -0.5766 -0.6148 -0.0685
11623SOL    HW145798   1.141   2.275   4.684 -0.9206 -2.1212 -0.6641
11623SOL    HW245799   1.001   2.196   4.710 -1.4341 -0.5493  1.4386
11624SOL     OW45800   9.495   3.262   2.560 -0.4575 -0.0681  0.2858
11624SOL    HW145801   9.563   3.199   2.595 -1.4565 -0.1310  2.1336
11624SOL    HW245802   9.539   3.350   2.540  0.1782 -0.1114  1.4418
11625SOL     OW45803   3.554   1.929   0.866 -0.1811  0.0703 -0.1120
11625SOL    HW145804   3.574   1.914   0.963  1.1009 -1.3960 -0.5730
11625SOL    HW245805   3.487   2.003   0.857  0.4666  0.9449  1.8309
11626SOL     OW45806   2.885   2.589   2.082  0.1502  0.1371  0.0505
11626SOL    HW145807   2.887   2.618   2.178  0.4236  0.3822 -0.0264
11626SOL    HW245808   2.792   2.564   2.057  0.1897 -0.5190  0.5568
11627SOL     OW45809   2.244   1.287   3.717  0.0754  0.7332 -0.9353
11627SOL    HW145810   2.299   1.212   3.680 -1.0095 -2.0602  2.7754
11627SOL    HW245811   2.147   1.268   3.699 -0.3627  0.0563  1.8434
11628SOL     OW45812   9.014   4.780   3.523 -0.0565 -0.3557  0.2648
11628SOL    HW145813   9.049   4.687   3.538 -1.3852 -0.7091  1.1608
11628SOL    HW245814   8.967   4.812   3.605 -0.5276  0.7042 -0.4160
11629SOL     OW45815   0.669   4.778   2.255  0.8946  0.6366  0.3699
11629SOL    HW145816   0.583   4.754   2.302  0.0430  0.3131 -1.3298
11629SOL    HW245817   0.699   4.868   2.285  1.3127 -0.2901  2.8659
11630SOL     OW45818   4.878   4.870   1.427 -0.5732  0.2081  0.0432
11630SOL    HW145819   4.853   4.825   1.342 -1.5383 -1.1043  1.0045
11630SOL    HW245820   4.845   4.816   1.505  1.1979  0.8254  1.2729
11631SOL     OW45821   8.763   4.320   0.258  0.2811 -0.0914 -0.1078
11631SOL    HW145822   8.672   4.363   0.255 -1.0510 -2.8387 -1.7236
11631SOL    HW245823   8.829   4.378   0.212 -0.9767  1.2755 -0.2392
11632SOL     OW45824   5.000   9.337   4.285 -0.1021  0.0412 -0.0049
11632SOL    HW145825   5.085   9.389   4.296 -0.6033  0.6072  1.1716
11632SOL    HW245826   4.950   9.374   4.206 -0.8455  1.8967  1.3073
11633SOL     OW45827   2.075   0.350   0.025  0.0207 -0.2439  0.2616
11633SOL    HW145828   2.168   0.320   0.003  1.3933  1.8262  2.8532
11633SOL    HW245829   2.055   0.435  -0.023  0.3609  0.5048  1.4064
11634SOL     OW45830   5.106   1.445   2.120  0.8173  0.3889 -0.1878
11634SOL    HW145831   5.173   1.376   2.146  1.0724  0.4022 -0.7938
11634SOL    HW245832   5.081   1.500   2.200  1.5265  0.3757  0.0439
11635SOL     OW45833   7.922   9.554   0.523  0.5171 -0.0669  0.0005
11635SOL    HW145834   7.969   9.484   0.469 -1.8679  0.2541 -2.5962
11635SOL    HW245835   7.984   9.630   0.539  1.8481 -0.9696 -0.7217
11636SOL     OW45836   8.982   6.818   2.360 -0.2408  0.0347 -0.2103
11636SOL    HW145837   8.941   6.908   2.377 -0.0260  0.7846 -3.3703
11636SOL    HW245838   9.018   6.815   2.267 -0.1393 -3.3012 -0.1196
11637SOL     OW45839   7.682   0.243   1.572 -0.1123 -0.1594 -0.4370
11637SOL    HW145840   7.757   0.233   1.637 -0.8793  0.6384  0.5767
11637SOL    HW245841   7.595   0.236   1.620 -0.6804  1.2729 -1.2358
11638SOL     OW45842   7.491   9.128   4.164  0.3607 -0.1631  0.0807
11638SOL    HW145843   7.501   9.186   4.083 -1.8162  0.7551  0.4315
11638SOL    HW245844   7.431   9.173   4.230 -0.8045 -2.4892  0.6516
11639SOL     OW45845   4.193   1.964   3.925 -0.3305 -0.2083 -0.0861
11639SOL    HW145846   4.174   1.888   3.863 -0.2296 -0.2398 -0.0782
11639SOL    HW245847   4.248   1.932   4.002  1.9023  0.3671 -1.3691
11640SOL     OW45848   8.278   9.069   3.615  0.3508  0.1542 -0.3913
11640SOL    HW145849   8.264   8.995   3.681 -0.9382  0.9006  0.1891
11640SOL    HW245850   8.192   9.118   3.601  1.3969  2.1773  0.0030
11641SOL     OW45851   0.378   9.663   2.635  0.0678  0.0876  0.2804
11641SOL    HW145852   0.361   9.567   2.655  1.5942 -0.3502 -0.5019
11641SOL    HW245853   0.428   9.705   2.711  0.6275 -0.0886  0.0099
11642SOL     OW45854   7.413   4.934   0.410 -0.1847  0.0172 -1.0654
11642SOL    HW145855   7.485   4.986   0.364 -0.8993  1.3641 -0.6673
11642SOL    HW245856   7.334   4.924   0.349 -0.3379  0.0323 -0.8707
11643SOL     OW45857   1.987   9.429   5.580  0.0034  0.1314 -0.0910
11643SOL    HW145858   1.982   9.524   5.612 -1.5814  0.1858 -0.4621
11643SOL    HW245859   1.998   9.368   5.658  0.9902  0.6039  0.1566
11644SOL     OW45860   2.958   3.622   4.227 -0.3740  0.0059  0.1800
11644SOL    HW145861   2.948   3.552   4.297 -2.3983  0.2601  0.1814
11644SOL    HW245862   3.021   3.590   4.156 -0.4447 -1.3755  0.7238
11645SOL     OW45863   8.897   5.858   0.493  0.8433  0.2055  0.1964
11645SOL    HW145864   8.809   5.824   0.461  0.5330  1.2658 -0.1243
11645SOL    HW245865   8.883   5.919   0.571  1.3662 -0.2710  0.6701
11646SOL     OW45866   5.850   7.836   2.783  0.3114 -0.5417 -0.1863
11646SOL    HW145867   5.931   7.896   2.781 -0.7709  0.9562  0.0366
11646SOL    HW245868   5.878   7.744   2.811  1.9725 -0.0897 -0.2753
11647SOL     OW45869   5.341   1.670   2.602 -0.0987 -0.4743  0.2176
11647SOL    HW145870   5.288   1.600   2.651  1.1798 -2.1205 -0.7005
11647SOL    HW245871   5.430   1.632   2.577  0.2705  1.2223 -1.0550
11648SOL     OW45872   8.096   9.732   1.934 -0.2683 -0.1594 -0.1599
11648SOL    HW145873   8.041   9.751   1.853 -1.4690  0.8220  0.8718
11648SOL    HW245874   8.039   9.686   2.003  0.1825  0.8586  0.9178
11649SOL     OW45875   1.896   9.165   0.678  0.2361  0.0868 -0.1987
11649SOL    HW145876   1.832   9.143   0.604  1.1434 -0.6738 -0.7704
11649SOL    HW245877   1.858   9.133   0.765  0.1512 -1.0422 -0.6324
11650SOL     OW45878   9.935   6.412   2.785 -0.4880 -0.2892 -0.3280
11650SOL    HW145879   9.991   6.480   2.833  1.3623 -1.4529 -0.7568
11650SOL    HW245880   9.953   6.321   2.824 -0.3649 -0.9916 -1.9848
11651SOL     OW45881   0.199   5.120   4.654  0.0803  0.8092 -0.0671
11651SOL    HW145882   0.229   5.037   4.606 -0.9940 -0.6140  1.6430
11651SOL    HW245883   0.258   5.135   4.734  0.6033  2.0192 -0.6675
11652SOL     OW45884   7.818   9.813   5.379  0.0597  0.6203  0.1139
11652SOL    HW145885   7.735   9.766   5.347  0.3171 -0.7773  1.4372
11652SOL    HW245886   7.889   9.806   5.310 -0.4263  0.4598 -0.3742
11653SOL     OW45887   3.579   5.670   5.249  0.2250 -0.2743  0.3891
11653SOL    HW145888   3.533   5.690   5.335 -1.1779  1.7128 -0.7838
11653SOL    HW245889   3.603   5.756   5.203 -0.0075 -1.2897 -1.6933
11654SOL     OW45890   3.715   8.810   4.577 -0.8588 -0.0726  0.3479
11654SOL    HW145891   3.744   8.900   4.609 -1.5171  0.3648 -0.2906
11654SOL    HW245892   3.712   8.809   4.477 -2.3492 -0.3403  0.3936
11655SOL     OW45893   0.726   8.884   4.435 -0.5897 -0.1302 -0.2440
11655SOL    HW145894   0.751   8.907   4.340  3.6822 -1.3198  0.4833
11655SOL    HW245895   0.726   8.968   4.489 -0.1007  0.1890 -0.7205
11656SOL     OW45896   9.742   2.346   3.018 -0.3400  0.0185  0.3211
11656SOL    HW145897   9.664   2.361   3.079  0.4954 -1.0097  1.6665
11656SOL    HW245898   9.747   2.250   2.993  0.3115  0.1431 -0.0273
11657SOL     OW45899   1.151   1.989   2.484 -0.5468 -0.4400  0.2740
11657SOL    HW145900   1.219   1.962   2.415 -1.1278  1.3210 -1.0291
11657SOL    HW245901   1.197   2.004   2.572  0.5366 -0.6023 -0.2579
11658SOL     OW45902   4.308   0.720   0.487 -0.1706  0.1625 -0.7390
11658SOL    HW145903   4.332   0.714   0.584 -1.1408 -0.1376 -0.5116
11658SOL    HW245904   4.221   0.673   0.471  0.2972 -0.3334 -1.8701
11659SOL     OW45905   9.211   9.301   3.988 -0.1741 -0.3726  0.3444
11659SOL    HW145906   9.204   9.327   3.891 -2.1510 -0.7879  0.3546
11659SOL    HW245907   9.183   9.205   3.998  1.5088 -0.7986  1.1280
11660SOL     OW45908   3.061   7.196   2.841 -0.0011 -0.3911 -0.6500
11660SOL    HW145909   3.080   7.292   2.818  2.0121 -0.4447  0.7045
11660SOL    HW245910   2.967   7.189   2.875  0.2659  1.3512  0.5385
11661SOL     OW45911   2.455   0.879   4.639  0.4867  0.1090  0.4655
11661SOL    HW145912   2.375   0.902   4.694  0.8901  1.8743  0.3312
11661SOL    HW245913   2.432   0.886   4.542  0.2490 -1.3610  0.4033
11662SOL     OW45914   4.778   9.730   4.488 -0.1382  0.3439  0.4878
11662SOL    HW145915   4.740   9.822   4.486  1.8643  1.1897 -0.0236
11662SOL    HW245916   4.820   9.713   4.577 -0.6399 -0.1409  0.6363
11663SOL     OW45917   8.068   5.685   3.479 -0.2287  0.6229 -0.3223
11663SOL    HW145918   8.076   5.593   3.440  1.2301  0.3327  0.6321
11663SOL    HW245919   8.008   5.740   3.421 -0.0341 -0.5248 -1.6537
11664SOL     OW45920   9.972   8.497   1.237 -0.0389  0.5395 -0.1758
11664SOL    HW145921   9.900   8.565   1.218 -0.9339 -0.6346 -1.0667
11664SOL    HW245922  10.026   8.527   1.316 -0.5074  2.2202 -0.4679
11665SOL     OW45923   4.279   3.279   2.083 -0.2229 -0.0519 -0.0978
11665SOL    HW145924   4.308   3.183   2.088  1.1073  0.2831 -1.0871
11665SOL    HW245925   4.349   3.337   2.123 -0.5320  0.5939 -0.4817
11666SOL     OW45926   2.843   9.280   0.242  0.2843 -0.5370 -0.7721
11666SOL    HW145927   2.820   9.362   0.295 -0.8771 -0.5847 -1.2106
11666SOL    HW245928   2.776   9.209   0.259  0.7780 -1.0916 -1.1116
11667SOL     OW45929   1.414   3.987   2.544  0.1444  0.2654 -0.9528
11667SOL    HW145930   1.349   4.039   2.489  0.5802  1.5593 -0.2737
11667SOL    HW245931   1.504   4.030   2.538  0.6120 -0.6674 -0.7153
11668SOL     OW45932   9.725   6.941   1.641  0.1507 -0.7530  0.4062
11668SOL    HW145933   9.816   6.975   1.666 -0.0238  0.1815 -0.2114
11668SOL    HW245934   9.723   6.919   1.543 -0.0686 -1.4901  0.5718
11669SOL     OW45935   0.541   8.910   5.111 -0.7330  0.3351 -0.5260
11669SOL    HW145936   0.578   8.852   5.038 -0.5467 -1.2320  0.7795
11669SOL    HW245937   0.616   8.959   5.156 -0.3815 -1.5069  0.9770
11670SOL     OW45938   4.464   8.865   0.927 -0.4528 -0.0708  0.1641
11670SOL    HW145939   4.443   8.957   0.958  0.7304  0.9813 -2.0887
11670SOL    HW245940   4.423   8.849   0.837  1.3045 -0.8957 -0.5235
11671SOL     OW45941   1.825   2.210   0.220  0.6647  0.2068  0.1344
11671SOL    HW145942   1.810   2.278   0.148  0.7365  1.0295  0.8920
11671SOL    HW245943   1.838   2.256   0.307 -0.2584 -0.8135  0.8291
11672SOL     OW45944   9.000   7.336   0.333  0.2463  0.4753  0.0016
11672SOL    HW145945   8.997   7.251   0.282  3.2501  0.3637 -0.0632
11672SOL    HW245946   9.049   7.322   0.419 -1.2823  1.5970  1.0753
11673SOL     OW45947   5.106   1.028   4.859 -0.2503  0.2870 -0.4700
11673SOL    HW145948   5.102   0.941   4.908  0.5192 -0.1164 -1.1289
11673SOL    HW245949   5.133   1.100   4.923  0.8209 -0.2484 -0.2991
11674SOL     OW45950   1.243   6.816   1.744  0.1801 -0.5413 -0.9535
11674SOL    HW145951   1.187   6.898   1.730  0.1369 -0.5686 -0.9453
11674SOL    HW245952   1.192   6.750   1.800  0.2971 -0.4859 -0.7803
11675SOL     OW45953   2.280   8.241   5.476 -0.7232 -0.6400 -0.0812
11675SOL    HW145954   2.194   8.255   5.427  0.1520 -0.9340 -1.7454
11675SOL    HW245955   2.357   8.256   5.413  0.4707  0.3806  1.5599
11676SOL     OW45956   5.405   0.443   4.892  0.0293 -0.1051  0.0019
11676SOL    HW145957   5.405   0.543   4.884  0.4504 -0.2443 -2.0469
11676SOL    HW245958   5.311   0.410   4.890 -0.0183  0.0219 -3.3045
11677SOL     OW45959   2.953   0.336   1.260 -0.4506 -0.4182 -0.4813
11677SOL    HW145960   2.875   0.273   1.259 -0.1132 -0.8462 -2.5447
11677SOL    HW245961   2.919   0.430   1.264 -1.0875 -0.5920 -1.6173
11678SOL     OW45962   3.515   6.239   3.658  0.1308  0.2879  0.2706
11678SOL    HW145963   3.419   6.215   3.674 -0.2478  2.5281  1.5334
11678SOL    HW245964   3.540   6.215   3.564 -0.2020 -4.8569  1.3340
11679SOL     OW45965   1.637   6.943   4.601  0.6144  0.7474  0.2040
11679SOL    HW145966   1.713   6.988   4.646  0.5572  1.3298 -0.2663
11679SOL    HW245967   1.585   7.010   4.548  0.4301  0.1622 -0.3765
11680SOL     OW45968   9.022   1.961   1.289 -0.6986 -0.5817 -0.4857
11680SOL    HW145969   9.088   1.886   1.293 -0.2504 -0.1599  0.3456
11680SOL    HW245970   8.935   1.932   1.328 -0.7782 -0.9243 -0.9231
11681SOL     OW45971   0.828   2.036   0.527  0.6287 -0.5559  0.4671
11681SOL    HW145972   0.852   2.131   0.548  1.4162 -0.0743 -2.3625
11681SOL    HW245973   0.728   2.028   0.518  0.6122  0.1846 -0.0481
11682SOL     OW45974   7.096   0.501   1.199  0.1033  0.1750  0.2253
11682SOL    HW145975   7.167   0.492   1.268  2.4093  0.0521 -2.1038
11682SOL    HW245976   7.133   0.548   1.119 -2.0901 -1.0300 -1.5440
11683SOL     OW45977   3.767   5.976   1.157  0.5038  0.3136  0.1867
11683SOL    HW145978   3.749   6.074   1.150  0.6008  0.4099  1.1842
11683SOL    HW245979   3.739   5.944   1.248  0.6065 -0.5517 -0.0840
11684SOL     OW45980   9.184   2.238   4.854 -0.1098  0.1486  0.6485
11684SOL    HW145981   9.104   2.183   4.830  0.2115  0.1855 -0.5458
11684SOL    HW245982   9.266   2.181   4.852 -0.1124  0.1019  1.9050
11685SOL     OW45983   0.706   5.027   1.026 -0.5534 -0.4477 -0.0163
11685SOL    HW145984   0.671   5.017   0.933  3.5003  1.3279 -1.8613
11685SOL    HW245985   0.744   4.939   1.057 -0.6677 -0.7036 -0.6045
11686SOL     OW45986   8.816   0.160   3.252  0.2229  0.3465  0.3815
11686SOL    HW145987   8.737   0.122   3.300 -1.0442  0.3310 -1.6336
11686SOL    HW245988   8.785   0.211   3.172  2.1500  2.1601  0.7452
11687SOL     OW45989   4.913   8.405   3.670 -0.0663  0.2115 -0.1094
11687SOL    HW145990   4.833   8.380   3.724  0.6050 -0.6935  0.4857
11687SOL    HW245991   4.986   8.436   3.732 -0.0219  1.2520 -0.6625
11688SOL     OW45992   1.215   4.504   1.456 -0.0476 -0.4683  0.0648
11688SOL    HW145993   1.216   4.434   1.385 -0.8905  1.0817 -1.5198
11688SOL    HW245994   1.309   4.535   1.473  0.4988 -2.9449  1.8001
11689SOL     OW45995   2.710   7.526   0.844 -0.0323 -0.3243 -0.0188
11689SOL    HW145996   2.793   7.562   0.888 -0.9672  2.6735 -0.5953
11689SOL    HW245997   2.645   7.499   0.914  0.5777 -0.5953  0.4472
11690SOL     OW45998   3.961   3.480   3.757  0.1383  0.3734 -0.1569
11690SOL    HW145999   4.014   3.449   3.678 -0.2616  0.4888 -0.4728
11690SOL    HW246000   4.021   3.528   3.821  0.7419 -0.9378  0.2778
11691SOL     OW46001   1.221   7.248   3.977 -0.1371  0.2672  0.0939
11691SOL    HW146002   1.226   7.346   3.960 -1.3378  0.4275  0.5962
11691SOL    HW246003   1.198   7.200   3.893  1.5992  0.2916 -0.4131
11692SOL     OW46004   3.916   9.612   0.838  0.2410 -0.3863 -0.2952
11692SOL    HW146005   3.869   9.626   0.751 -0.8347 -0.1020  0.3219
11692SOL    HW246006   3.923   9.514   0.856  0.8069 -0.4564 -0.8775
11693SOL     OW46007   2.341   9.899   0.836 -0.3448  0.1949  0.3265
11693SOL    HW146008   2.420   9.887   0.776 -0.4876  0.1893  0.1392
11693SOL    HW246009   2.360   9.972   0.902 -0.3135  0.4249  0.0643
11694SOL     OW46010   0.146   8.734   0.205 -0.0373 -0.3787 -0.7726
11694SOL    HW146011   0.085   8.736   0.125 -1.2527 -0.5827  0.1435
11694SOL    HW246012   0.226   8.678   0.184 -0.9959 -1.5259 -1.3775
11695SOL     OW46013   9.886   5.221   0.557 -0.1718 -0.2461  0.6048
11695SOL    HW146014   9.918   5.303   0.511 -0.0884 -0.5627  0.0955
11695SOL    HW246015   9.832   5.247   0.637 -1.0931  0.3198 -0.1894
11696SOL     OW46016   1.622   1.424   3.748 -0.2411  0.4706  0.4553
11696SOL    HW146017   1.720   1.418   3.768 -0.1678  1.3501  0.3520
11696SOL    HW246018   1.570   1.375   3.819  0.3685 -1.6098 -0.4759
11697SOL     OW46019   3.257   8.703   1.196  0.2197  0.0752 -0.5378
11697SOL    HW146020   3.313   8.753   1.130  0.3838 -0.1132 -0.5408
11697SOL    HW246021   3.190   8.766   1.236 -0.7003 -0.0766 -1.7835
11698SOL     OW46022   3.119   1.560   2.331 -0.1289 -0.1292 -0.3503
11698SOL    HW146023   3.133   1.600   2.240 -0.0158  0.2319 -0.1761
11698SOL    HW246024   3.053   1.486   2.325  1.4910 -1.5609 -1.1155
11699SOL     OW46025   6.233   4.585   5.597 -0.3755 -0.1320  0.1546
11699SOL    HW146026   6.327   4.600   5.628  0.2102 -0.4875 -1.4475
11699SOL    HW246027   6.174   4.654   5.640  0.7055  0.5058  0.6656
11700SOL     OW46028   3.564   6.027   2.298 -0.1378  0.0788 -0.2774
11700SOL    HW146029   3.582   6.099   2.365 -0.6311 -0.1615  0.1215
11700SOL    HW246030   3.478   5.981   2.321  0.6018 -1.2105 -0.0285
11701SOL     OW46031   9.404   0.309   1.243 -0.0761 -0.1842  0.1850
11701SOL    HW146032   9.319   0.328   1.194 -0.0873  0.1082  0.3155
11701SOL    HW246033   9.468   0.263   1.182  0.8102  2.3342 -0.8416
11702SOL     OW46034   4.256   1.577   1.775  0.4270 -0.1741 -0.2273
11702SOL    HW146035   4.175   1.636   1.766 -0.3178 -1.2777 -0.8913
11702SOL    HW246036   4.261   1.515   1.697  2.1470  0.1495 -0.3791
11703SOL     OW46037   3.376   8.217   1.514  0.4592  0.2825  0.4229
11703SOL    HW146038   3.289   8.201   1.562 -0.1876  0.3451 -0.7100
11703SOL    HW246039   3.372   8.177   1.423  0.9316  1.8813 -0.3252
11704SOL     OW46040   0.244   6.270   5.359 -0.1570 -0.7747  0.1597
11704SOL    HW146041   0.332   6.248   5.403 -0.3039  0.8064  1.2750
11704SOL    HW246042   0.260   6.290   5.262  0.5048 -1.9290  0.0147
11705SOL     OW46043   4.638   0.252   3.441 -0.1605 -0.1643  0.0674
11705SOL    HW146044   4.716   0.195   3.467 -0.0675 -0.4453 -0.8048
11705SOL    HW246045   4.666   0.348   3.438  0.3114 -0.3281 -0.8413
11706SOL     OW46046   9.499   0.732   2.647  0.0117 -0.4293 -0.0979
11706SOL    HW146047   9.547   0.819   2.641  0.0457 -0.4074  0.4752
11706SOL    HW246048   9.403   0.748   2.670 -0.0067 -0.5342 -0.1019
11707SOL     OW46049   9.357   0.711   4.737 -0.3942 -0.4897  0.4511
11707SOL    HW146050   9.368   0.808   4.716  0.3917 -0.7169 -0.2026
11707SOL    HW246051   9.273   0.677   4.695 -0.3367 -0.2544  0.1481
11708SOL     OW46052   5.176   0.723   2.615 -0.0862  0.6134  0.0637
11708SOL    HW146053   5.262   0.775   2.621  0.0081  0.3543  0.9717
11708SOL    HW246054   5.196   0.631   2.579  0.2804 -0.0457  1.8903
11709SOL     OW46055   0.917   0.208   5.281 -0.1761  0.1573  0.1500
11709SOL    HW146056   0.892   0.130   5.222  0.3749 -0.5028  0.7789
11709SOL    HW246057   0.876   0.196   5.371  0.4265  0.2875  0.4406
11710SOL     OW46058   8.812   3.122   3.567 -0.2593 -1.0415  0.3333
11710SOL    HW146059   8.841   3.052   3.502 -1.5417 -1.7285  0.4784
11710SOL    HW246060   8.812   3.211   3.523 -2.7541 -1.7277 -1.1298
11711SOL     OW46061   3.647   6.871   2.602 -0.0113  0.1948  0.0291
11711SOL    HW146062   3.547   6.869   2.591 -0.0126 -0.0570  0.0761
11711SOL    HW246063   3.689   6.817   2.530  0.0317 -0.5986  0.6347
11712SOL     OW46064   6.473   0.245   1.092  0.4436 -0.0203  0.3846
11712SOL    HW146065   6.484   0.208   1.000  0.6964 -0.2536  0.5056
11712SOL    HW246066   6.378   0.235   1.121  0.5478 -0.7656  0.4915
11713SOL     OW46067   1.235   8.575   2.478 -0.3410  0.2559  0.4970
11713SOL    HW146068   1.187   8.662   2.491 -0.2256  0.5277 -0.8765
11713SOL    HW246069   1.253   8.560   2.381  3.2740  0.6539  1.0263
11714SOL     OW46070   3.886   1.725   1.893  0.3439 -0.0555  0.4625
11714SOL    HW146071   3.855   1.792   1.961  1.2593 -2.0215  2.9190
11714SOL    HW246072   3.981   1.746   1.867  0.6300 -0.3623  1.2274
11715SOL     OW46073   8.672   1.056   4.461  0.1196  0.0051  0.2954
11715SOL    HW146074   8.735   1.082   4.388  1.5751 -0.8359  1.2379
11715SOL    HW246075   8.579   1.051   4.424  0.7521  0.1665 -1.3591
11716SOL     OW46076   3.311   6.925   5.246 -0.8155  0.6176  0.0494
11716SOL    HW146077   3.319   6.882   5.156  0.5437 -0.2829  0.5740
11716SOL    HW246078   3.318   7.024   5.236  2.4535  0.3907 -0.5737
11717SOL     OW46079   2.986   1.943   0.239  0.5399  0.3139 -0.4281
11717SOL    HW146080   3.067   1.886   0.225 -0.9247 -1.6397 -1.1109
11717SOL    HW246081   3.007   2.037   0.212  2.8212  0.0126  0.1949
11718SOL     OW46082   0.909   6.876   3.648  0.2213  0.6325  0.1195
11718SOL    HW146083   0.873   6.954   3.698  0.9230  1.6218 -0.8759
11718SOL    HW246084   0.940   6.806   3.712 -1.1221  0.8494  1.0028
11719SOL     OW46085   2.421   1.960   4.864  0.4803 -0.0790  0.2048
11719SOL    HW146086   2.404   1.985   4.959 -0.8618 -1.1985  0.2707
11719SOL    HW246087   2.373   2.025   4.804  0.6157  0.1132  0.3041
11720SOL     OW46088   0.797   1.774   2.410  0.4399 -0.0791 -0.0185
11720SOL    HW146089   0.885   1.783   2.365  0.1467  1.7916 -0.2440
11720SOL    HW246090   0.747   1.860   2.404 -1.2860 -1.0294  0.3648
11721SOL     OW46091   2.044   0.390   1.915  0.1938 -0.5419 -1.2614
11721SOL    HW146092   2.107   0.427   1.847  0.5801 -1.9795 -1.7113
11721SOL    HW246093   2.059   0.436   2.003  2.1169 -1.0782 -1.2799
11722SOL     OW46094   1.132   7.506   5.091 -0.2746 -0.1102  0.8188
11722SOL    HW146095   1.140   7.413   5.127 -2.5143 -0.1726  1.2303
11722SOL    HW246096   1.221   7.551   5.094  1.1058 -2.6453 -0.5577
11723SOL     OW46097   1.519   6.993   0.711  0.1402 -0.6543  0.1029
11723SOL    HW146098   1.583   6.919   0.689  2.1303  0.5682  1.6010
11723SOL    HW246099   1.484   6.980   0.804  1.9599  1.2655  1.0833
11724SOL     OW46100   9.875   4.033   0.487  0.1597 -0.2293  0.0272
11724SOL    HW146101   9.837   4.075   0.570 -2.6424  0.4222 -1.5169
11724SOL    HW246102   9.869   3.933   0.495  1.6405 -0.2271  1.3693
11725SOL     OW46103   9.138   7.702   4.401 -0.1813  0.3485 -0.3623
11725SOL    HW146104   9.145   7.694   4.302 -0.6840  1.6477 -0.5185
11725SOL    HW246105   9.042   7.717   4.426 -0.1522 -0.6626  0.3739
11726SOL     OW46106   0.318   0.318   3.253 -0.0370  0.1616 -0.4903
11726SOL    HW146107   0.362   0.400   3.289  1.0407 -1.4002  1.9015
11726SOL    HW246108   0.218   0.326   3.263 -0.0564  1.8809 -1.9018
11727SOL     OW46109   3.701   0.420   4.008 -0.1109  0.3103 -0.6892
11727SOL    HW146110   3.639   0.371   3.946 -0.0992 -0.7622  0.1352
11727SOL    HW246111   3.732   0.505   3.964 -0.7433 -0.0334 -1.8208
11728SOL     OW46112   2.025   5.104   3.712 -0.2734  0.3338 -0.2185
11728SOL    HW146113   2.100   5.133   3.772 -1.1355  0.4452  0.8306
11728SOL    HW246114   1.948   5.073   3.768 -0.4550 -1.2187 -1.2856
11729SOL     OW46115   0.153   0.102   4.169  0.4205 -0.0590  0.1832
11729SOL    HW146116   0.068   0.104   4.222  0.6824 -0.1110  0.6104
11729SOL    HW246117   0.141   0.045   4.088  0.6206 -1.5962  1.2232
11730SOL     OW46118   2.751   7.607   4.490  0.1031 -0.1289 -0.4461
11730SOL    HW146119   2.828   7.545   4.500 -0.4892 -0.7040  0.5501
11730SOL    HW246120   2.666   7.559   4.508 -0.6586  0.0658 -3.1798
11731SOL     OW46121   6.704   1.582   2.995 -0.1960 -0.3884 -0.0920
11731SOL    HW146122   6.736   1.633   3.075  0.2502 -1.0321  0.1445
11731SOL    HW246123   6.757   1.610   2.915  0.8343 -1.3068  0.2614
11732SOL     OW46124   6.614   9.145   1.949  0.2338  0.3491 -0.3896
11732SOL    HW146125   6.596   9.210   2.024 -0.7033 -1.0980  0.6581
11732SOL    HW246126   6.530   9.134   1.895  0.5153  0.3065 -0.8193
11733SOL     OW46127   8.863   4.268   3.571 -0.3162  0.2523  0.1205
11733SOL    HW146128   8.787   4.332   3.557 -0.3121  0.3617  0.5925
11733SOL    HW246129   8.895   4.235   3.482  0.1473  1.4501 -0.1683
11734SOL     OW46130   8.564   9.513   2.319  0.4012 -0.2498 -0.0748
11734SOL    HW146131   8.549   9.419   2.288 -1.0258  0.3940 -1.3571
11734SOL    HW246132   8.488   9.541   2.379  1.5923 -0.4261  1.5557
11735SOL     OW46133   2.112   4.340   5.004 -0.3753 -0.6514  0.8610
11735SOL    HW146134   2.045   4.266   5.010 -0.2309 -0.7004  1.9190
11735SOL    HW246135   2.066   4.428   5.015 -0.5756 -0.5578 -0.5891
11736SOL     OW46136   0.484   6.090   5.000 -0.7159 -0.5471  0.1497
11736SOL    HW146137   0.571   6.042   4.991 -0.6468 -0.2150 -1.1436
11736SOL    HW246138   0.409   6.027   4.980 -0.6310 -0.1864 -1.4221
11737SOL     OW46139   9.715   3.376   1.642 -0.0219  0.1070  0.1230
11737SOL    HW146140   9.781   3.303   1.622  0.0010  0.2574 -0.3542
11737SOL    HW246141   9.762   3.464   1.643 -0.4525  0.3783 -1.6443
11738SOL     OW46142   8.472   8.054   0.429 -0.2068  0.1286 -0.5089
11738SOL    HW146143   8.412   7.991   0.478  1.1734 -0.3755  0.6003
11738SOL    HW246144   8.428   8.142   0.419 -0.9758 -0.1208  0.6288
11739SOL     OW46145   1.054   9.166   5.061  0.2629 -0.1344 -0.0536
11739SOL    HW146146   1.009   9.214   4.986 -0.9764  0.2924  0.9520
11739SOL    HW246147   1.087   9.233   5.128 -0.4068 -0.6273  0.7696
11740SOL     OW46148   5.574   1.729   3.301 -0.0670  0.2308  0.4480
11740SOL    HW146149   5.590   1.700   3.396  2.1353  0.3687  0.1216
11740SOL    HW246150   5.608   1.822   3.288  2.6002 -0.9540 -1.3074
11741SOL     OW46151   8.239   9.738   3.505 -0.4640  0.1510 -0.6866
11741SOL    HW146152   8.206   9.703   3.592 -2.2521  0.1025 -1.3749
11741SOL    HW246153   8.240   9.838   3.507  0.2809  0.1401 -0.3297
11742SOL     OW46154   7.982   9.960   2.704  0.1900 -0.3908  0.4421
11742SOL    HW146155   7.903   9.925   2.754 -2.2277  1.0762 -2.2310
11742SOL    HW246156   7.997   9.903   2.623  1.5236 -0.2903  0.6067
11743SOL     OW46157   0.434   0.608   1.182  0.1405  0.4133 -0.4505
11743SOL    HW146158   0.465   0.514   1.174  1.1301  0.8860 -2.4547
11743SOL    HW246159   0.509   0.670   1.159 -0.3480  1.7219  1.3412
11744SOL     OW46160   9.475   3.073   3.511  0.0023 -0.2448 -0.1902
11744SOL    HW146161   9.408   3.122   3.567  1.5200  0.7152  0.7921
11744SOL    HW246162   9.531   3.139   3.460  0.8710 -1.0161 -0.2467
11745SOL     OW46163   2.421   1.264   3.434  0.0403 -0.1898 -0.6147
11745SOL    HW146164   2.381   1.352   3.461 -0.5301 -0.3651 -0.8873
11745SOL    HW246165   2.433   1.206   3.514  0.5302  0.1822 -0.4166
11746SOL     OW46166   6.879   0.300   1.651  0.2349 -0.1483  0.3221
11746SOL    HW146167   6.875   0.351   1.737  0.0263  0.3660  0.0058
11746SOL    HW246168   6.908   0.360   1.577  0.5310 -0.6190  0.0486
11747SOL     OW46169   1.705   2.092   2.830 -0.0686 -0.3726 -0.4964
11747SOL    HW146170   1.759   2.109   2.748  0.6196 -0.6473 -0.1089
11747SOL    HW246171   1.619   2.143   2.825  0.1409 -0.0817 -1.2032
11748SOL     OW46172   1.615   8.800   4.468  0.3264  0.8234  0.2173
11748SOL    HW146173   1.546   8.760   4.528  1.6589 -0.8901  0.6665
11748SOL    HW246174   1.706   8.768   4.496  1.2238  2.2184 -0.9945
11749SOL     OW46175   1.233   5.217   4.696  0.1730  0.5752 -0.4511
11749SOL    HW146176   1.186   5.132   4.670  2.3296 -1.2604  1.4219
11749SOL    HW246177   1.172   5.273   4.752 -1.0014 -0.0596 -1.0593
11750SOL     OW46178   4.694   8.386   4.517 -0.0339 -0.0384  0.3664
11750SOL    HW146179   4.627   8.328   4.471  1.7399 -1.3759 -0.6363
11750SOL    HW246180   4.695   8.364   4.615 -1.2137  0.1689  0.4326
11751SOL     OW46181   7.999   2.265   4.584  0.7521  0.3269  0.2552
11751SOL    HW146182   8.069   2.196   4.597  1.4832  1.1780  0.8846
11751SOL    HW246183   7.978   2.309   4.671 -0.0714  0.5497 -0.0461
11752SOL     OW46184   0.627   0.983   4.795 -0.2893 -0.1377 -0.4061
11752SOL    HW146185   0.616   0.944   4.703 -0.4298  0.4988 -0.6614
11752SOL    HW246186   0.551   1.045   4.814  0.2610  0.4967 -0.2512
11753SOL     OW46187   1.458   3.482   4.116  0.6324 -0.9524 -0.0012
11753SOL    HW146188   1.479   3.575   4.086 -0.4172 -0.4714  0.7600
11753SOL    HW246189   1.388   3.443   4.056 -0.1712 -0.6326  0.7246
11754SOL     OW46190   9.871   8.381   3.169 -0.4119  0.5066  0.0062
11754SOL    HW146191   9.813   8.301   3.154  0.2882 -0.0099  0.0004
11754SOL    HW246192   9.960   8.366   3.125 -0.4231  1.4654 -0.3472
11755SOL     OW46193   3.530   3.750   1.244  0.2242 -0.0700 -0.3050
11755SOL    HW146194   3.471   3.792   1.313  1.6425 -1.1108  1.5888
11755SOL    HW246195   3.506   3.785   1.153 -2.4067  0.5118  0.5674
11756SOL     OW46196   3.752   1.018   4.755  0.4071  0.6044 -0.5627
11756SOL    HW146197   3.778   1.026   4.851  0.4051  1.2112 -0.6134
11756SOL    HW246198   3.832   1.031   4.697  0.9677 -2.5404 -0.5738
11757SOL     OW46199   8.390   7.930   4.312 -0.2043  0.1856  0.0190
11757SOL    HW146200   8.413   7.950   4.217 -0.8948  0.7648 -0.0289
11757SOL    HW246201   8.441   7.992   4.372  0.1167 -0.0782  0.0225
11758SOL     OW46202   4.640   2.573   2.392 -0.2109 -0.0357 -0.3466
11758SOL    HW146203   4.597   2.484   2.409 -1.1200  0.6584  1.0832
11758SOL    HW246204   4.669   2.613   2.479  3.5281 -0.5571 -1.2786
11759SOL     OW46205   8.741   2.969   4.898  0.1860  0.1596 -0.2382
11759SOL    HW146206   8.700   2.881   4.922  1.9450 -0.5748  0.1779
11759SOL    HW246207   8.796   3.002   4.974 -0.2995  1.5368 -0.4735
11760SOL     OW46208   1.474   7.224   0.616 -0.4971 -0.1212  0.2398
11760SOL    HW146209   1.492   7.140   0.668 -0.6637  0.1789  0.7970
11760SOL    HW246210   1.543   7.235   0.545 -1.8013 -1.9245 -1.3358
11761SOL     OW46211   2.216   1.306   1.632 -0.3704  0.2316 -0.3083
11761SOL    HW146212   2.174   1.303   1.722 -1.5445  0.6714 -0.8235
11761SOL    HW246213   2.148   1.279   1.563  0.1568  1.0871 -1.1745
11762SOL     OW46214   3.349   5.918   2.391  0.1106 -0.1495 -0.0987
11762SOL    HW146215   3.308   5.827   2.386  0.7269 -0.6771  3.2354
11762SOL    HW246216   3.277   5.987   2.384 -0.9117 -0.9922  1.6926
11763SOL     OW46217   5.010   9.630   2.328 -0.5115  0.3231 -0.5412
11763SOL    HW146218   5.098   9.639   2.374 -0.5191 -0.9793 -0.2551
11763SOL    HW246219   4.954   9.560   2.374 -0.6521 -0.7517 -2.2828
11764SOL     OW46220   1.946   0.462   1.324 -0.5676  0.5591  0.2125
11764SOL    HW146221   1.911   0.382   1.275  1.1893 -1.2103  1.8017
11764SOL    HW246222   2.010   0.512   1.265  1.7384 -1.7023  0.7039
11765SOL     OW46223   7.249   8.128   3.309 -0.0707  0.3573 -0.5200
11765SOL    HW146224   7.185   8.054   3.330  0.4613  0.4198  1.3617
11765SOL    HW246225   7.342   8.094   3.313  0.2161  1.2815  1.0996
11766SOL     OW46226   7.979   0.855   3.615  0.2512 -0.7892 -0.3159
11766SOL    HW146227   7.949   0.808   3.532 -1.5213 -0.7468  0.2825
11766SOL    HW246228   8.060   0.808   3.652  0.4494 -1.4032 -1.5189
11767SOL     OW46229   4.395   0.090   2.507  0.5784 -0.3633  0.4832
11767SOL    HW146230   4.449   0.026   2.452  0.6499 -1.3835  1.7259
11767SOL    HW246231   4.299   0.060   2.508  0.4625  0.0044  0.3878
11768SOL     OW46232   0.231   9.998   3.528 -0.1463  0.0424  0.7496
11768SOL    HW146233   0.173  10.079   3.520 -0.5281 -0.3089 -0.0725
11768SOL    HW246234   0.176   9.916   3.517  0.7416 -0.2734 -1.5071
11769SOL     OW46235   4.125   3.977   3.112 -0.6541  0.1339 -0.0303
11769SOL    HW146236   4.210   3.989   3.060 -0.8659  0.5406 -0.2821
11769SOL    HW246237   4.104   3.879   3.118 -1.1385  0.1305 -1.5343
11770SOL     OW46238   7.571   5.132   4.990 -0.3940  0.0466  0.5618
11770SOL    HW146239   7.587   5.036   4.966 -2.8710 -0.2182 -0.1737
11770SOL    HW246240   7.651   5.168   5.036  1.1552 -1.9598 -0.4663
11771SOL     OW46241   3.961   0.146   3.330  0.5371  1.0377  0.5936
11771SOL    HW146242   3.917   0.170   3.417  0.2637  1.5652  0.3140
11771SOL    HW246243   3.914   0.068   3.289  0.9034  0.5475  1.1035
11772SOL     OW46244   2.278   9.161   3.502  0.7821 -0.5167  0.3615
11772SOL    HW146245   2.372   9.143   3.474  0.6598 -0.5075 -0.0499
11772SOL    HW246246   2.221   9.175   3.422  0.6833  0.7806  0.6469
11773SOL     OW46247   6.033   9.748   4.252 -0.6245 -0.2081  0.7350
11773SOL    HW146248   6.090   9.817   4.296 -0.9699 -1.5307  3.3060
11773SOL    HW246249   5.936   9.767   4.270 -1.0008  1.3649 -2.6348
11774SOL     OW46250   1.363   7.825   0.469 -0.5150 -0.1399 -0.1178
11774SOL    HW146251   1.461   7.824   0.490  0.0011 -0.7134 -2.4064
11774SOL    HW246252   1.336   7.917   0.440 -0.3917 -0.2593 -0.6160
11775SOL     OW46253   8.510   7.966   0.849 -0.2176  0.3985  0.0738
11775SOL    HW146254   8.587   7.933   0.904 -0.2839  1.2953  0.7089
11775SOL    HW246255   8.486   7.896   0.781  0.1855 -0.5135  0.8490
11776SOL     OW46256   8.105   6.120   2.919  0.3901  0.5328  0.0281
11776SOL    HW146257   8.117   6.023   2.942 -1.0638  0.2404 -0.4169
11776SOL    HW246258   8.070   6.169   2.999 -0.4225  0.3685 -0.2187
11777SOL     OW46259   2.068   7.970   1.222  0.1818  0.1768 -0.3334
11777SOL    HW146260   2.143   7.905   1.215  0.2040  0.2006 -0.3136
11777SOL    HW246261   2.104   8.060   1.247  0.1623  0.2190 -0.4529
11778SOL     OW46262   6.198   8.923   3.536 -0.4088  0.5853  0.2787
11778SOL    HW146263   6.100   8.905   3.541 -0.6419  1.7846  0.1488
11778SOL    HW246264   6.239   8.906   3.626 -0.5383 -0.9648  0.0649
11779SOL     OW46265   1.302   7.485   3.242  0.1087 -0.3818 -0.0709
11779SOL    HW146266   1.220   7.527   3.282  0.5684  0.9214 -0.4624
11779SOL    HW246267   1.334   7.542   3.166  0.7128 -1.4930 -0.6643
11780SOL     OW46268   0.585   5.436   3.794 -0.3941 -0.6662 -0.0583
11780SOL    HW146269   0.520   5.510   3.809 -0.1389 -0.5235  0.3788
11780SOL    HW246270   0.550   5.373   3.725 -0.3683  0.1633 -0.8434
11781SOL     OW46271   9.311   0.508   0.652  0.9554 -0.1534  1.0565
11781SOL    HW146272   9.332   0.588   0.595  1.2663 -0.8686  0.1487
11781SOL    HW246273   9.383   0.497   0.721  1.1499  0.0883  0.8939
11782SOL     OW46274   9.860   3.402   5.097  0.4918  0.2541 -0.3443
11782SOL    HW146275   9.865   3.468   5.022  0.5886  1.1882  0.4701
11782SOL    HW246276   9.819   3.317   5.064 -3.2479  2.0309 -0.5615
11783SOL     OW46277   9.949   4.036   2.582 -0.2278 -0.0919  0.3136
11783SOL    HW146278  10.000   4.004   2.662  1.1079  1.4561  0.1102
11783SOL    HW246279   9.898   4.119   2.605 -1.3172 -0.6828  0.0538
11784SOL     OW46280   9.955   3.731   3.891  0.0577 -0.6238 -0.1766
11784SOL    HW146281   9.973   3.786   3.973  1.3163  0.1581 -0.9703
11784SOL    HW246282  10.036   3.676   3.870 -0.5990 -1.5148 -0.3588
11785SOL     OW46283   9.017   5.576   2.315 -0.3169 -0.5976 -0.4559
11785SOL    HW146284   8.980   5.629   2.392  1.0453  0.7287 -0.6854
11785SOL    HW246285   9.064   5.495   2.350  0.8567  0.3318  0.2065
11786SOL     OW46286   2.686   1.684   2.064 -0.2435 -0.1223 -0.5924
11786SOL    HW146287   2.586   1.692   2.062 -0.2850 -0.6426 -0.9188
11786SOL    HW246288   2.713   1.599   2.018  0.2295 -1.0090  1.2914
11787SOL     OW46289   3.110   0.729   5.463 -0.5052  0.2716  0.3525
11787SOL    HW146290   3.177   0.658   5.442 -1.6321 -1.3854  2.1748
11787SOL    HW246291   3.018   0.694   5.447 -1.0929  1.1357  1.7461
11788SOL     OW46292   2.608   9.552   4.074 -0.3694 -0.0791 -0.2000
11788SOL    HW146293   2.543   9.479   4.055  0.5761 -0.5117 -1.8207
11788SOL    HW246294   2.566   9.618   4.137 -2.7112  0.1034 -1.8695
11789SOL     OW46295   1.995   6.550   1.628  0.0061 -0.3891  0.4948
11789SOL    HW146296   1.985   6.495   1.710  0.0683 -1.2556 -0.0719
11789SOL    HW246297   2.092   6.554   1.602 -0.0868 -0.6720  0.0942
11790SOL     OW46298   0.363   1.881   5.158  0.1910  0.4323  0.4899
11790SOL    HW146299   0.295   1.939   5.115 -0.5302  0.2738  1.4009
11790SOL    HW246300   0.428   1.938   5.209 -0.5582  0.4454  1.4422
11791SOL     OW46301   1.347   3.653   3.415 -0.3345  0.0179  0.4248
11791SOL    HW146302   1.335   3.573   3.356 -0.5880 -0.7642  1.5384
11791SOL    HW246303   1.431   3.701   3.389 -0.6942 -0.0431 -0.8886
11792SOL     OW46304   4.851   6.735   2.547  0.6150 -0.1868 -0.0889
11792SOL    HW146305   4.947   6.753   2.566  0.8072 -1.1825 -0.1196
11792SOL    HW246306   4.794   6.804   2.594  1.2494 -0.5972  1.2950
11793SOL     OW46307   9.060   5.881   2.246  0.0971 -0.4033 -0.0139
11793SOL    HW146308   8.989   5.927   2.299  1.1506  1.3871 -0.0874
11793SOL    HW246309   9.145   5.878   2.299 -0.1503 -3.0363  0.3045
11794SOL     OW46310   4.061   3.721   5.084  0.1923  0.4807  0.2003
11794SOL    HW146311   4.150   3.684   5.111  0.5817  0.1177 -1.5203
11794SOL    HW246312   4.074   3.810   5.040 -0.5250  1.5340  2.0618
11795SOL     OW46313   1.562   6.475   2.860  0.5555  0.1940 -0.4259
11795SOL    HW146314   1.659   6.472   2.836  0.4007 -1.6031 -0.8628
11795SOL    HW246315   1.507   6.454   2.779 -0.1440 -0.4954  0.2237
11796SOL     OW46316   9.084   8.268   4.168  0.5792 -0.0101  0.1689
11796SOL    HW146317   9.113   8.173   4.177 -1.5890 -0.9051 -1.8569
11796SOL    HW246318   8.996   8.281   4.214  0.2482  0.6979 -0.6501
11797SOL     OW46319   5.200   0.270   4.844 -0.4561 -0.9222 -0.3231
11797SOL    HW146320   5.159   0.267   4.753  2.0353  0.6672 -1.5383
11797SOL    HW246321   5.291   0.230   4.842 -0.1861 -0.4574  1.3844
11798SOL     OW46322   4.551   0.575   3.528 -0.3215  0.0291  0.0715
11798SOL    HW146323   4.505   0.663   3.519 -0.2957 -0.0267 -0.6312
11798SOL    HW246324   4.607   0.558   3.447  1.3222  0.3117  1.1293
11799SOL     OW46325   0.663   9.813   5.210  0.5100 -0.2205 -0.3481
11799SOL    HW146326   0.715   9.800   5.294  1.1364 -0.2760 -0.7408
11799SOL    HW246327   0.584   9.751   5.210 -0.3746  0.8658  0.8900
11800SOL     OW46328   3.435   3.153   4.542 -0.1790  0.1834 -0.0844
11800SOL    HW146329   3.489   3.236   4.538 -0.6739  0.4791 -0.8727
11800SOL    HW246330   3.347   3.168   4.497 -0.4206 -0.6491  0.0920
11801SOL     OW46331   8.079   6.385   1.042  0.3772 -0.0241  1.1057
11801SOL    HW146332   8.043   6.292   1.039  0.8386 -0.2011  1.0402
11801SOL    HW246333   8.164   6.390   0.990  0.5273  0.3569  1.3819
11802SOL     OW46334   1.700   9.909   3.961 -0.0244 -0.1133 -0.3509
11802SOL    HW146335   1.784   9.854   3.958 -1.6262 -2.5528 -1.5650
11802SOL    HW246336   1.724  10.006   3.951  2.7360 -0.6503  0.4639
11803SOL     OW46337   0.769   7.997   0.856  0.0027  0.8858 -0.0792
11803SOL    HW146338   0.775   8.066   0.784 -0.1927  0.3055 -0.6562
11803SOL    HW246339   0.674   7.969   0.868  0.1195  0.5010 -0.0453
11804SOL     OW46340   4.226   4.961   0.244 -0.7434 -0.1768 -0.5524
11804SOL    HW146341   4.298   5.026   0.219 -1.5875  1.3109  0.8481
11804SOL    HW246342   4.175   4.935   0.162  0.8211 -0.5927 -1.4242
11805SOL     OW46343   6.506   9.506   2.026 -0.0203 -0.4093 -0.7362
11805SOL    HW146344   6.518   9.448   2.106 -0.0433  0.9135  0.2449
11805SOL    HW246345   6.595   9.532   1.989  0.0046 -0.0776 -0.4439
11806SOL     OW46346   3.324   2.423   0.061  0.4901 -0.0487 -0.1120
11806SOL    HW146347   3.423   2.420   0.046  0.7746  1.9526  1.1564
11806SOL    HW246348   3.306   2.422   0.160 -0.8828 -2.7857 -0.3401
11807SOL     OW46349   2.993   8.279   2.942  0.4458  0.0278 -0.5955
11807SOL    HW146350   3.047   8.202   2.977 -0.4753 -0.1015  0.5699
11807SOL    HW246351   2.906   8.245   2.906 -0.0080  0.5359  0.0239
11808SOL     OW46352   0.878   4.288   2.942  0.0757  0.3424  0.0483
11808SOL    HW146353   0.916   4.379   2.961  0.0963  0.3968 -0.2482
11808SOL    HW246354   0.829   4.291   2.854  0.2013  0.0296 -0.0298
11809SOL     OW46355   3.300   1.938   2.765  0.4871 -0.2038 -0.1637
11809SOL    HW146356   3.362   1.868   2.802  0.3622  0.5511  1.5511
11809SOL    HW246357   3.273   1.913   2.673  0.7548 -2.2203  0.2735
11810SOL     OW46358   9.322   7.074   2.320 -0.1591 -0.4523  0.7469
11810SOL    HW146359   9.349   7.060   2.224  0.5928 -1.2460  1.0622
11810SOL    HW246360   9.338   6.989   2.371  0.4440  0.2956  1.8040
11811SOL     OW46361   2.462   8.114   4.789 -0.7921 -0.0708  0.5557
11811SOL    HW146362   2.416   8.197   4.820 -0.1718 -0.1697  1.7492
11811SOL    HW246363   2.431   8.092   4.696 -4.1330 -0.8640  1.8008
11812SOL     OW46364   6.145   7.615   3.932 -0.4744 -0.1608  0.1959
11812SOL    HW146365   6.059   7.617   3.984 -0.1627 -1.4929  0.7860
11812SOL    HW246366   6.213   7.563   3.983  0.4187  0.1273 -0.6955
11813SOL     OW46367   3.386   9.738   4.417  0.0182  0.1078  0.3205
11813SOL    HW146368   3.293   9.701   4.410 -0.6126  1.7720 -0.4062
11813SOL    HW246369   3.400   9.776   4.508  0.3656 -1.1192  0.7823
11814SOL     OW46370   2.733   1.905   5.132 -0.9688  0.0419  0.2271
11814SOL    HW146371   2.731   1.950   5.043 -0.9791 -0.7118 -0.1584
11814SOL    HW246372   2.722   1.806   5.119 -2.4954  0.0670  1.1573
11815SOL     OW46373   9.622   4.308   0.604 -0.1245  0.8299 -0.0103
11815SOL    HW146374   9.654   4.384   0.549 -0.7322 -0.8316 -2.7691
11815SOL    HW246375   9.555   4.255   0.552  0.8697 -2.0531  1.5225
11816SOL     OW46376   8.901   6.312   2.839 -0.1313 -0.4924 -0.0046
11816SOL    HW146377   8.912   6.391   2.779 -2.2841  0.0771  0.3013
11816SOL    HW246378   8.980   6.306   2.901  1.4739 -0.3253 -1.9670
11817SOL     OW46379   0.884   0.968   1.307 -0.1896  0.5171 -0.4240
11817SOL    HW146380   0.944   1.029   1.358 -0.3022  0.2889 -0.0145
11817SOL    HW246381   0.792   1.007   1.304 -0.2399  0.4141 -0.2414
11818SOL     OW46382   9.282   8.262   0.687  0.1013 -0.0803 -0.4055
11818SOL    HW146383   9.267   8.198   0.611 -3.8092  0.3998 -0.1442
11818SOL    HW246384   9.195   8.305   0.711  1.7164  1.4688  2.8801
11819SOL     OW46385   9.172   9.189   1.802  0.3165 -0.3371 -0.0089
11819SOL    HW146386   9.186   9.126   1.725 -1.1809 -3.3347  2.0498
11819SOL    HW246387   9.074   9.197   1.821  0.6134  1.1231  0.9955
11820SOL     OW46388   4.548   4.014   1.450 -0.8872  0.0268  0.3190
11820SOL    HW146389   4.467   4.073   1.442 -0.4089  0.8335  1.2902
11820SOL    HW246390   4.584   4.020   1.543 -0.6163 -1.5296  0.3269
11821SOL     OW46391   8.679   3.656   0.990 -0.1198  0.3221  0.5380
11821SOL    HW146392   8.724   3.731   1.039 -2.1132  1.6022  0.4609
11821SOL    HW246393   8.580   3.671   0.990 -0.2888 -0.5652 -2.3612
11822SOL     OW46394   4.191   7.676   2.894  0.5186  0.4605  0.0174
11822SOL    HW146395   4.266   7.675   2.960 -0.2172 -0.0065  0.8490
11822SOL    HW246396   4.133   7.595   2.908 -0.1549  0.8355 -0.5977
11823SOL     OW46397   0.237   4.459   3.134  0.0409  0.0579  0.0416
11823SOL    HW146398   0.232   4.383   3.069  1.7033 -0.3227  0.3377
11823SOL    HW246399   0.245   4.545   3.083  0.3308 -0.1498 -0.2693
11824SOL     OW46400   9.232   7.715   4.668 -0.3350 -0.5320 -0.3025
11824SOL    HW146401   9.310   7.776   4.685 -0.3681 -0.5192 -0.1946
11824SOL    HW246402   9.224   7.696   4.570  0.8185 -1.9041 -0.1394
11825SOL     OW46403   3.147   1.725   4.093  0.5866  0.5114  0.1727
11825SOL    HW146404   3.168   1.706   4.189 -0.0475 -0.5475  0.1074
11825SOL    HW246405   3.196   1.659   4.035 -0.2911  0.1339 -0.1431
11826SOL     OW46406   0.368   0.837   0.189 -0.5169  0.2523 -0.3881
11826SOL    HW146407   0.427   0.792   0.256  0.1375 -1.3081 -1.9880
11826SOL    HW246408   0.356   0.933   0.215  3.4140  0.8476 -0.5042
11827SOL     OW46409   4.085   9.996   5.148  0.3301  0.1271 -0.0400
11827SOL    HW146410   4.028  10.044   5.215  0.3273  0.0245  0.0300
11827SOL    HW246411   4.139  10.063   5.097  2.2845 -0.0030  1.8320
11828SOL     OW46412   5.134   6.960   2.076 -0.3944 -0.2724 -0.2254
11828SOL    HW146413   5.047   6.997   2.108 -0.6293 -0.1197 -1.0311
11828SOL    HW246414   5.118   6.900   1.997  0.3188  0.5019 -0.9636
11829SOL     OW46415   2.109   4.333   5.427 -0.3581  0.0485  0.1494
11829SOL    HW146416   2.086   4.405   5.362 -0.4134 -0.3049 -0.2305
11829SOL    HW246417   2.125   4.372   5.517  2.2759  0.8665 -0.6333
11830SOL     OW46418   2.887   7.299   5.521  0.4981  0.9100 -0.5164
11830SOL    HW146419   2.914   7.213   5.478  0.7668  1.0501 -0.6273
11830SOL    HW246420   2.944   7.373   5.486  0.0874  1.1757 -0.6191
11831SOL     OW46421   1.544   3.934   2.145  0.7346  0.1360  0.3241
11831SOL    HW146422   1.531   3.859   2.080 -0.1961  0.8055 -0.2674
11831SOL    HW246423   1.582   4.013   2.098  0.7024  0.3921  0.7293
11832SOL     OW46424   1.496   1.122   2.625 -0.4530  0.1276 -0.1457
11832SOL    HW146425   1.497   1.220   2.644 -0.0590  0.1456 -0.2564
11832SOL    HW246426   1.425   1.079   2.680  0.2086  0.2911  0.8555
11833SOL     OW46427   2.274   0.562   5.349 -0.0405  0.0004 -0.1768
11833SOL    HW146428   2.222   0.643   5.322  0.4855  0.5609  0.4628
11833SOL    HW246429   2.291   0.566   5.448  1.5650  0.0282 -0.4519
11834SOL     OW46430   1.614   5.304   2.215 -0.0430 -0.1028  0.5232
11834SOL    HW146431   1.696   5.290   2.161 -1.9398 -0.1496 -2.4492
11834SOL    HW246432   1.584   5.399   2.207 -0.7435 -0.2844  0.9287
11835SOL     OW46433   7.694   0.981   5.396 -0.4867 -0.1345  0.6703
11835SOL    HW146434   7.659   1.046   5.329  1.8847  0.7194  0.2409
11835SOL    HW246435   7.790   0.961   5.377  0.5128  0.8046  4.2607
11836SOL     OW46436   5.693   0.102   4.062 -0.2579 -0.0397 -0.3560
11836SOL    HW146437   5.689   0.083   3.964 -2.1288  0.1352 -0.3386
11836SOL    HW246438   5.638   0.034   4.111  0.1018  0.2823  0.5084
11837SOL     OW46439   2.459   3.713   5.072 -0.1604  0.4860 -0.1891
11837SOL    HW146440   2.439   3.647   5.145 -2.1213  2.2930  0.9705
11837SOL    HW246441   2.373   3.745   5.032  0.8184  1.4818 -1.5334
11838SOL     OW46442   1.205   6.614   0.715 -0.4973 -0.2833  0.4254
11838SOL    HW146443   1.279   6.654   0.660 -1.2370 -0.9661 -1.1060
11838SOL    HW246444   1.138   6.684   0.738 -0.3648 -0.0657  0.1424
11839SOL     OW46445   9.303   2.417   4.476 -0.0317 -0.5073  0.0884
11839SOL    HW146446   9.378   2.373   4.526 -0.4101 -1.6376 -0.3271
11839SOL    HW246447   9.327   2.512   4.458  1.1322 -0.7426  0.3230
11840SOL     OW46448   8.029   6.078   1.092  0.3119 -0.3188  0.0604
11840SOL    HW146449   8.036   5.978   1.096  2.4578 -0.1367  1.6443
11840SOL    HW246450   7.980   6.111   1.172 -0.0299 -0.0696 -0.2522
11841SOL     OW46451   4.993   7.677   3.697  0.4166  0.2986 -0.6161
11841SOL    HW146452   4.927   7.740   3.739  2.1969  1.3219  0.7368
11841SOL    HW246453   5.008   7.704   3.602  0.2838  1.2164 -0.3876
11842SOL     OW46454   1.092   5.580   1.064  0.1236 -0.0374  0.3011
11842SOL    HW146455   1.053   5.650   1.124 -0.9677  1.6199 -2.2590
11842SOL    HW246456   1.191   5.595   1.055 -0.0131  0.8468  0.2172
11843SOL     OW46457   7.474   0.202   2.322  0.3143 -0.4905  0.5141
11843SOL    HW146458   7.398   0.205   2.386  1.3490  0.0845  1.7242
11843SOL    HW246459   7.551   0.153   2.363  1.4924  1.1257  0.2617
11844SOL     OW46460   8.388   7.617   4.607 -0.0405  0.1712 -0.0900
11844SOL    HW146461   8.336   7.534   4.627  0.8453 -0.8423 -1.8692
11844SOL    HW246462   8.339   7.672   4.539  0.0068  0.4400  0.0933
11845SOL     OW46463   9.186   0.372   1.042 -0.0190  0.0861 -0.3770
11845SOL    HW146464   9.096   0.364   1.086  0.1280 -0.3942 -0.1565
11845SOL    HW246465   9.174   0.378   0.943 -0.3341  0.8209 -0.2913
11846SOL     OW46466   1.603   8.905   1.162 -0.1345 -0.2244 -0.4371
11846SOL    HW146467   1.568   8.841   1.093  1.7437  0.1983 -1.8022
11846SOL    HW246468   1.701   8.917   1.149 -0.5493  3.3769 -0.5538
11847SOL     OW46469   5.184   4.460   0.661 -0.3206  0.1489  0.3277
11847SOL    HW146470   5.127   4.532   0.700  0.5836  1.2597 -0.3693
11847SOL    HW246471   5.156   4.442   0.567 -0.9363 -0.8509  0.6892
11848SOL     OW46472   1.039   3.232   0.065 -0.0605 -0.6802 -0.0401
11848SOL    HW146473   1.000   3.321   0.092  0.7182 -0.0042 -1.1291
11848SOL    HW246474   0.968   3.162   0.071 -1.0673  0.2787 -0.5855
11849SOL     OW46475   3.555   6.841   1.014  0.4923  0.3761 -0.2113
11849SOL    HW146476   3.493   6.918   1.028  1.4193  1.2285 -0.6941
11849SOL    HW246477   3.639   6.855   1.066 -0.1330 -1.2783  1.2743
11850SOL     OW46478   2.379   9.471   1.131 -0.2288  0.1444 -0.1499
11850SOL    HW146479   2.391   9.562   1.092 -2.6954  0.2358 -0.7281
11850SOL    HW246480   2.294   9.467   1.182  1.0284 -1.1556  1.8996
11851SOL     OW46481   2.169   1.793   5.586  0.4002 -0.5112 -0.1021
11851SOL    HW146482   2.187   1.877   5.536  0.0403  0.4103  1.2923
11851SOL    HW246483   2.252   1.764   5.634  0.4365 -0.7874 -0.3290
11852SOL     OW46484   5.602   8.995   4.509  0.1571  0.3090  0.3116
11852SOL    HW146485   5.539   8.918   4.510  0.4178  0.0945  0.3563
11852SOL    HW246486   5.555   9.076   4.475  0.1626 -0.1222 -0.7491
11853SOL     OW46487   7.490   0.174   5.594  0.3083  0.2551 -0.2108
11853SOL    HW146488   7.474   0.076   5.581 -0.3691  0.3286  0.0579
11853SOL    HW246489   7.515   0.191   5.690  2.7855  0.0426 -0.7831
11854SOL     OW46490   9.264   2.033   0.556  0.4050  0.3719 -0.0407
11854SOL    HW146491   9.308   1.973   0.489  1.2685 -0.4010  1.1928
11854SOL    HW246492   9.208   1.978   0.619 -2.3881  1.3429 -1.5983
11855SOL     OW46493   3.785   2.914   1.459  0.3375  0.4651 -0.0573
11855SOL    HW146494   3.700   2.867   1.482  0.3622  1.1881  1.5714
11855SOL    HW246495   3.774   2.962   1.372 -0.7919  0.2377 -0.0453
11856SOL     OW46496   3.406   5.939   5.611  0.0508  0.4969  0.1559
11856SOL    HW146497   3.311   5.960   5.630  0.1044  2.5004 -1.5591
11856SOL    HW246498   3.441   6.002   5.542  2.9591  0.5601  1.5924
11857SOL     OW46499   0.013   2.849   5.616  0.2362  0.1330  0.0468
11857SOL    HW146500   0.031   2.763   5.663 -1.4534 -0.5808 -0.5468
11857SOL    HW246501   0.003   2.832   5.518 -2.8604  0.5168  0.2369
11858SOL     OW46502   3.120   7.195   2.413  0.7208 -0.7416 -0.0300
11858SOL    HW146503   3.189   7.134   2.374  1.2057 -0.5255  0.4831
11858SOL    HW246504   3.046   7.140   2.452  0.1810 -0.9583 -1.3260
11859SOL     OW46505   1.938   4.993   0.174 -0.2659 -0.2421  0.0472
11859SOL    HW146506   1.942   4.968   0.271  1.3793 -1.8959 -0.4122
11859SOL    HW246507   1.876   4.931   0.127  1.4097 -1.5429 -0.5176
11860SOL     OW46508   7.941   9.763   5.153 -0.9727  0.0719 -0.5159
11860SOL    HW146509   7.895   9.722   5.074  0.0936 -0.9380 -0.6275
11860SOL    HW246510   8.028   9.716   5.169 -0.8456  0.7399  0.8254
11861SOL     OW46511   2.972   8.785   1.678  0.2253  0.0034 -0.6086
11861SOL    HW146512   2.994   8.883   1.680 -2.1846  0.5814  0.1513
11861SOL    HW246513   2.920   8.764   1.596 -0.8240 -0.2529  0.1053
11862SOL     OW46514   0.709   9.771   4.218  0.0540 -0.0924  0.3974
11862SOL    HW146515   0.687   9.811   4.129 -1.2807 -1.0993  0.2545
11862SOL    HW246516   0.704   9.841   4.289  2.9491  1.1389 -0.5390
11863SOL     OW46517   1.120   5.495   2.405  0.3842  0.1894  0.5762
11863SOL    HW146518   1.092   5.459   2.316  0.5143 -1.4899  1.2013
11863SOL    HW246519   1.213   5.466   2.426 -0.4464 -1.4188  2.2653
11864SOL     OW46520   3.584   0.467   0.284  0.3757  0.4812 -0.1453
11864SOL    HW146521   3.602   0.409   0.204 -0.9825  1.2165 -0.9998
11864SOL    HW246522   3.553   0.557   0.254 -3.4069 -0.2674  1.1748
11865SOL     OW46523   4.217   3.973   3.382  0.1830 -0.1356 -0.4076
11865SOL    HW146524   4.222   3.878   3.414 -0.6804 -0.2211 -0.5165
11865SOL    HW246525   4.184   3.975   3.288 -1.2068  0.3522  0.0834
11866SOL     OW46526   9.635   2.814   0.117  0.3299  0.5182 -0.0673
11866SOL    HW146527   9.712   2.844   0.173  0.1106  2.1733 -0.6270
11866SOL    HW246528   9.638   2.714   0.107  2.1274  0.5169  0.2847
11867SOL     OW46529   0.712   1.867   4.311  0.1655 -0.0912  0.3258
11867SOL    HW146530   0.767   1.947   4.286  0.8544 -0.5303  0.4023
11867SOL    HW246531   0.770   1.801   4.359 -0.6572 -0.1643  1.2328
11868SOL     OW46532   0.833   2.516   1.266  0.2050  0.0830  0.3741
11868SOL    HW146533   0.915   2.467   1.294  0.5888 -0.4455 -1.5578
11868SOL    HW246534   0.757   2.451   1.255  0.2290  0.1691 -0.3747
11869SOL     OW46535   2.825   9.569   1.726 -0.3913  0.6669 -0.2336
11869SOL    HW146536   2.902   9.524   1.772 -2.0637 -2.5485 -0.4148
11869SOL    HW246537   2.855   9.657   1.688  2.9071 -0.0402  0.6001
11870SOL     OW46538   2.663   5.455   2.783 -0.2572  0.1415 -0.1758
11870SOL    HW146539   2.593   5.402   2.735  0.5794 -0.6501 -0.5355
11870SOL    HW246540   2.619   5.523   2.842 -1.3352  0.9754 -1.8644
11871SOL     OW46541   2.921   7.070   3.511 -0.2969  0.2500  0.3999
11871SOL    HW146542   2.887   7.111   3.595  0.4588 -0.3171  0.9860
11871SOL    HW246543   2.890   7.124   3.433  0.8177  2.0432  1.1611
11872SOL     OW46544   1.205   9.054   0.677 -0.1007 -0.2482 -0.3400
11872SOL    HW146545   1.163   9.131   0.725  0.0762  0.1097 -0.7538
11872SOL    HW246546   1.152   9.033   0.595  0.0255 -0.3693 -0.3896
11873SOL     OW46547   4.535   0.293   0.822 -0.6321  0.4541 -0.2821
11873SOL    HW146548   4.484   0.232   0.762 -0.1524 -0.2384  0.0153
11873SOL    HW246549   4.481   0.310   0.905  0.6020 -2.1650  1.0986
11874SOL     OW46550   9.948   8.580   3.397 -0.2142 -0.0480 -0.4155
11874SOL    HW146551  10.018   8.524   3.441 -0.0145  1.0073  0.6291
11874SOL    HW246552   9.923   8.539   3.309  0.6750 -1.2036 -0.1393
11875SOL     OW46553   1.379   3.627   2.243 -0.5830  0.1291 -0.5043
11875SOL    HW146554   1.351   3.714   2.201 -0.7876  0.4250  0.2302
11875SOL    HW246555   1.451   3.644   2.310 -0.4708 -0.3034 -0.5139
11876SOL     OW46556   0.917   7.198   3.900 -0.3512 -0.1174  0.2165
11876SOL    HW146557   0.926   7.164   3.994 -0.0865 -0.2591  0.1407
11876SOL    HW246558   0.839   7.155   3.856  0.3889 -1.1587 -0.1075
11877SOL     OW46559   1.187   2.705   0.458 -0.2205  0.0974  0.1845
11877SOL    HW146560   1.253   2.694   0.532 -0.0256 -0.3420 -0.0542
11877SOL    HW246561   1.102   2.657   0.482  0.5120 -1.6932 -0.7087
11878SOL     OW46562   2.478   0.867   0.391 -0.2814  0.0764 -0.2751
11878SOL    HW146563   2.568   0.884   0.352  2.4702 -1.8490  4.8576
11878SOL    HW246564   2.432   0.954   0.408  1.9812  1.2231  0.1016
11879SOL     OW46565   8.739   1.818   2.140 -0.7265  0.0318  0.2115
11879SOL    HW146566   8.648   1.849   2.112 -1.3495 -2.7599 -1.0355
11879SOL    HW246567   8.797   1.812   2.060  0.4423  1.2835  0.9395
11880SOL     OW46568   0.951   4.587   2.684  0.1675 -0.1363 -0.0934
11880SOL    HW146569   1.005   4.568   2.766  0.0131  1.8141  0.4657
11880SOL    HW246570   0.964   4.512   2.619  1.8472 -0.7531  0.9094
11881SOL     OW46571   0.849   9.738   1.109  0.2661 -0.2775  0.1930
11881SOL    HW146572   0.762   9.701   1.075  0.2206  0.4555 -0.4842
11881SOL    HW246573   0.875   9.818   1.055  2.4227 -1.7142 -0.9770
11882SOL     OW46574   7.597   4.297   0.482  0.4728  0.6867 -0.0250
11882SOL    HW146575   7.600   4.384   0.433  0.5527  1.5615  1.5041
11882SOL    HW246576   7.592   4.314   0.580 -2.6780 -1.0242  0.1650
11883SOL     OW46577   5.482   9.780   2.094  0.2802  0.1932 -0.2682
11883SOL    HW146578   5.493   9.681   2.102  0.6454  0.1523 -1.2444
11883SOL    HW246579   5.400   9.808   2.144 -0.4749 -0.7478 -0.9635
11884SOL     OW46580   0.855   1.845   0.076 -0.1259  0.7722  0.6837
11884SOL    HW146581   0.759   1.855   0.101 -0.0234 -0.0614  1.4205
11884SOL    HW246582   0.881   1.748   0.079  0.3285  0.8318 -1.0237
11885SOL     OW46583   2.516   1.744   0.367  0.2894 -0.1927  0.0233
11885SOL    HW146584   2.474   1.668   0.417  0.4846 -1.0375 -1.0692
11885SOL    HW246585   2.511   1.827   0.422 -1.2574 -0.6630  0.6247
11886SOL     OW46586   0.497   2.148   5.002 -0.1576  0.0258  0.2117
11886SOL    HW146587   0.498   2.120   5.098 -0.2024  0.7871  0.4347
11886SOL    HW246588   0.522   2.070   4.944  1.3272 -0.0537  0.9329
11887SOL     OW46589   8.108   5.640   4.843 -0.2739 -0.4226  0.4516
11887SOL    HW146590   8.186   5.649   4.781 -0.9962 -1.2304 -0.5861
11887SOL    HW246591   8.141   5.605   4.931  0.3421 -2.3455 -0.5073
11888SOL     OW46592   4.800   7.749   1.992  0.1303  0.2680 -0.1311
11888SOL    HW146593   4.785   7.692   1.911 -0.3710 -1.6506  1.2788
11888SOL    HW246594   4.713   7.788   2.022  0.0596 -0.2855  0.3904
11889SOL     OW46595   4.235   5.263   0.424 -0.0772  0.3713 -0.2201
11889SOL    HW146596   4.190   5.279   0.336  2.6614 -0.1915 -1.7876
11889SOL    HW246597   4.191   5.187   0.471 -0.3081 -0.6749 -2.0802
11890SOL     OW46598   9.429   2.700   4.418 -0.1883  0.4679 -0.5729
11890SOL    HW146599   9.493   2.776   4.426  0.4954  0.1205 -2.4105
11890SOL    HW246600   9.467   2.631   4.355 -1.9272 -0.2008 -0.9226
11891SOL     OW46601   1.954   2.453   1.368 -0.6269  0.3453  0.1470
11891SOL    HW146602   1.858   2.477   1.370 -0.6895  0.1585 -0.5509
11891SOL    HW246603   1.976   2.397   1.448 -1.0407  0.5919  0.4329
11892SOL     OW46604   0.537   0.420   1.713  0.0739  0.2947 -0.1441
11892SOL    HW146605   0.528   0.355   1.788  0.6549  1.7211  1.1809
11892SOL    HW246606   0.455   0.416   1.656 -0.8759  0.0020  1.2154
11893SOL     OW46607   3.196   9.454   1.053 -0.5853 -0.0543  0.4475
11893SOL    HW146608   3.202   9.486   0.958  2.0653 -1.6416  0.0412
11893SOL    HW246609   3.157   9.362   1.054  1.5991 -0.9906  0.6666
11894SOL     OW46610   7.697   8.572   1.434 -0.3910 -0.5572  0.3483
11894SOL    HW146611   7.786   8.549   1.472 -0.5174 -1.0905  0.3268
11894SOL    HW246612   7.648   8.488   1.409 -0.9231 -0.2775  0.4228
11895SOL     OW46613   5.265   8.372   2.813 -0.2557  0.1753  0.1102
11895SOL    HW146614   5.327   8.311   2.862 -1.5152 -0.9917  0.2765
11895SOL    HW246615   5.317   8.430   2.750  1.0690 -0.2753  0.7951
11896SOL     OW46616   1.200   2.123   5.501  0.4445 -0.1880  0.2291
11896SOL    HW146617   1.194   2.034   5.546  0.4982 -1.3608 -2.0406
11896SOL    HW246618   1.109   2.150   5.469  0.8556 -0.6481 -1.3642
11897SOL     OW46619   0.583   5.844   3.814  0.4543 -0.0456  0.8113
11897SOL    HW146620   0.484   5.855   3.816  0.4159 -0.2876  0.3422
11897SOL    HW246621   0.608   5.765   3.870  0.2051 -1.1425 -0.5751
11898SOL     OW46622   8.998   6.740   1.603  0.2703 -0.0001 -0.1204
11898SOL    HW146623   8.907   6.764   1.636  0.9625  1.8862  0.4439
11898SOL    HW246624   9.037   6.817   1.553  1.8129 -0.5571  0.1902
11899SOL     OW46625   0.484   1.583   3.114 -0.2416  0.2158  0.2705
11899SOL    HW146626   0.389   1.553   3.108 -0.0486 -0.3727  0.0905
11899SOL    HW246627   0.501   1.624   3.204 -0.9582  1.3705 -0.1091
11900SOL     OW46628   5.413   8.961   4.154 -0.0530  0.0971 -0.5454
11900SOL    HW146629   5.479   8.913   4.096 -0.5186 -0.5943 -0.4971
11900SOL    HW246630   5.345   8.897   4.189  0.7612  0.3420  1.5440
11901SOL     OW46631   1.430   0.054   1.110 -0.1109 -0.0609  0.0745
11901SOL    HW146632   1.457   0.065   1.206  1.1940  3.4698 -0.5962
11901SOL    HW246633   1.340   0.095   1.096  1.1590  2.5764 -0.8076
11902SOL     OW46634   5.636   8.589   4.338 -0.7500  0.1849  0.3290
11902SOL    HW146635   5.559   8.524   4.338  0.1199 -1.0176 -3.6096
11902SOL    HW246636   5.715   8.547   4.382  0.1808 -2.0871 -3.2609
11903SOL     OW46637   7.678   2.242   2.364 -0.0780  0.2175 -0.0373
11903SOL    HW146638   7.722   2.172   2.306 -0.2587  0.8197 -0.9058
11903SOL    HW246639   7.700   2.224   2.460  0.6627 -0.4850 -0.3317
11904SOL     OW46640   6.880   0.669   1.967  0.3621  0.7210 -0.4126
11904SOL    HW146641   6.876   0.683   2.066  0.3756 -0.6441 -0.2046
11904SOL    HW246642   6.861   0.755   1.920 -0.8757  1.1063  0.7668
11905SOL     OW46643   3.080   7.531   0.240  0.4181  0.5559 -0.1452
11905SOL    HW146644   3.101   7.624   0.272  0.8471 -0.1096  1.5994
11905SOL    HW246645   3.141   7.466   0.286 -1.8072 -0.8791  0.8723
11906SOL     OW46646   5.172   3.173   0.582 -0.4146  0.6106 -0.9263
11906SOL    HW146647   5.199   3.257   0.629 -1.3971  0.3594  0.0995
11906SOL    HW246648   5.189   3.094   0.641 -0.4703  0.1814 -1.4790
11907SOL     OW46649   8.073   9.498   4.815  0.1806  0.1812 -0.0434
11907SOL    HW146650   7.994   9.446   4.846 -0.8894  1.3726 -0.7229
11907SOL    HW246651   8.043   9.573   4.756  1.7351  1.1647  0.3650
11908SOL     OW46652   6.870   8.242   2.031 -0.5666  0.1001 -0.3983
11908SOL    HW146653   6.801   8.279   1.970 -0.4568  0.0988 -0.5247
11908SOL    HW246654   6.859   8.281   2.122 -0.1819  0.7748 -0.6339
11909SOL     OW46655   1.563   4.134   3.959  0.1957  0.1339  0.1857
11909SOL    HW146656   1.497   4.202   3.990 -0.1583  1.2605 -2.8877
11909SOL    HW246657   1.616   4.171   3.882  0.0899 -2.9745 -1.4565
11910SOL     OW46658   1.100   9.181   3.955 -0.5139  0.1669  0.0291
11910SOL    HW146659   1.005   9.200   3.927  0.8760  2.2827 -3.5832
11910SOL    HW246660   1.127   9.091   3.920 -1.5179 -1.0378  2.1938
11911SOL     OW46661   3.133   5.429   4.406  0.1689  0.2088 -0.2523
11911SOL    HW146662   3.176   5.501   4.353 -0.5851  0.1009 -1.0069
11911SOL    HW246663   3.097   5.359   4.345  0.2446 -0.4475  0.4430
11912SOL     OW46664   3.228   9.600   3.282  0.5377 -0.0876  0.0146
11912SOL    HW146665   3.247   9.620   3.379 -2.0087  1.9223  0.1681
11912SOL    HW246666   3.296   9.647   3.225 -0.4896  2.3359  0.7125
11913SOL     OW46667   9.584   7.307   1.901  0.3571  0.1605 -0.0484
11913SOL    HW146668   9.596   7.210   1.919  0.1475 -0.2915 -2.2205
11913SOL    HW246669   9.673   7.350   1.887  0.3070 -0.2543 -1.6810
11914SOL     OW46670   5.660   9.522   2.883 -0.2406  0.0753  0.3933
11914SOL    HW146671   5.637   9.587   2.955 -0.2339 -0.4349  0.8610
11914SOL    HW246672   5.733   9.462   2.914 -0.6980 -0.5823  0.2085
11915SOL     OW46673   9.304   4.683   3.163 -0.0838  0.3051  0.3135
11915SOL    HW146674   9.231   4.751   3.173 -0.0328  0.4152 -0.0629
11915SOL    HW246675   9.306   4.650   3.068  0.2923  0.2271  0.3484
11916SOL     OW46676   4.804   6.780   1.812  0.1300 -0.3289 -0.6180
11916SOL    HW146677   4.772   6.702   1.758 -0.3508 -0.5515 -0.0188
11916SOL    HW246678   4.767   6.865   1.775 -1.0130 -0.5662 -0.0462
11917SOL     OW46679   7.792   6.275   3.492 -0.1036 -0.3016 -0.1426
11917SOL    HW146680   7.801   6.187   3.538 -1.8132  0.2250  1.2874
11917SOL    HW246681   7.819   6.348   3.555  0.5723  0.2470 -1.0542
11918SOL     OW46682   1.404   9.717   3.336  0.4230  0.6732  0.1398
11918SOL    HW146683   1.343   9.795   3.349  1.8981  1.6727  1.1608
11918SOL    HW246684   1.473   9.739   3.267 -1.6465 -1.2516 -2.6867
11919SOL     OW46685   8.745   4.244   4.546  0.8076 -0.3025 -0.7045
11919SOL    HW146686   8.802   4.318   4.510  1.3417 -1.3793 -2.0984
11919SOL    HW246687   8.648   4.268   4.534  0.9488  1.0068  0.6041
11920SOL     OW46688   8.549   8.007   3.691  0.1804  0.7759  0.2299
11920SOL    HW146689   8.554   7.916   3.651 -0.5021  0.6327  0.4482
11920SOL    HW246690   8.592   8.074   3.630 -0.3943  0.4860 -0.5004
11921SOL     OW46691   3.257   4.601   4.684 -0.2585 -0.0380  0.3082
11921SOL    HW146692   3.311   4.660   4.623 -0.2629  0.3899  0.7223
11921SOL    HW246693   3.164   4.635   4.690 -0.3454 -0.2734  0.2909
11922SOL     OW46694   0.784   3.434   3.098 -0.3486 -0.1729  0.1616
11922SOL    HW146695   0.854   3.492   3.140  0.2607 -0.9902  0.3050
11922SOL    HW246696   0.693   3.471   3.116  0.1310  2.0512 -1.7806
11923SOL     OW46697   8.396   7.589   2.803 -0.0707 -0.1180  0.8155
11923SOL    HW146698   8.315   7.590   2.862 -0.1520 -0.6866  0.7237
11923SOL    HW246699   8.367   7.572   2.709  0.0229  1.1215  0.5522
11924SOL     OW46700   8.853   4.265   2.519 -0.4564  0.0855 -0.0135
11924SOL    HW146701   8.827   4.247   2.614 -1.3327  0.4224 -0.1840
11924SOL    HW246702   8.827   4.188   2.461  2.0818 -1.1007  0.3541
11925SOL     OW46703   2.392   8.321   1.726 -0.1306 -0.0123 -0.0403
11925SOL    HW146704   2.321   8.388   1.705 -0.9962  0.1914  3.2367
11925SOL    HW246705   2.477   8.348   1.681 -0.3290  3.6638  1.5533
11926SOL     OW46706   5.726   3.471   0.336  0.3606 -0.0158 -0.2168
11926SOL    HW146707   5.820   3.448   0.361  0.4598 -0.4642 -0.9889
11926SOL    HW246708   5.715   3.570   0.336  0.2190 -0.0031  2.1065
11927SOL     OW46709   3.177   2.152   1.303 -0.1316 -0.3407  0.4645
11927SOL    HW146710   3.098   2.092   1.293 -0.0337 -0.5088  0.7069
11927SOL    HW246711   3.223   2.162   1.215 -1.6860  1.4988 -0.1994
11928SOL     OW46712   2.892   9.535   4.836 -0.3160  0.2096  0.1222
11928SOL    HW146713   2.911   9.590   4.754  0.5256  0.8111  0.7210
11928SOL    HW246714   2.900   9.438   4.813  1.7670  0.4119 -0.0614
11929SOL     OW46715   3.837   4.243   2.273  0.3288  0.5010  0.6187
11929SOL    HW146716   3.865   4.151   2.300 -0.1765  0.2612  0.3282
11929SOL    HW246717   3.799   4.291   2.353 -0.9604 -0.1307  0.3907
11930SOL     OW46718   9.202   2.004   2.624 -0.5761 -0.8178  0.3498
11930SOL    HW146719   9.136   2.066   2.581  0.6329  0.6733  0.6010
11930SOL    HW246720   9.290   2.010   2.577 -0.2319 -1.7671  0.8596
11931SOL     OW46721   7.555   3.493   5.203  0.6239  0.1499 -0.3163
11931SOL    HW146722   7.479   3.556   5.221 -0.4280 -0.8335 -1.2112
11931SOL    HW246723   7.540   3.408   5.252  1.1619 -0.0525 -0.5015
11932SOL     OW46724   8.819   0.931   2.219  0.1663 -0.2903  0.1447
11932SOL    HW146725   8.852   0.969   2.133  0.5591 -0.9439  0.0025
11932SOL    HW246726   8.731   0.973   2.242 -0.5201 -0.9556 -1.1878
11933SOL     OW46727   2.130   3.588   3.594 -0.0788  0.6405 -0.0909
11933SOL    HW146728   2.065   3.664   3.599  0.6754  1.2441  0.8402
11933SOL    HW246729   2.080   3.502   3.603 -1.0325  0.9621 -1.9019
11934SOL     OW46730   7.589   9.483   3.266  0.0620 -0.1464  0.4127
11934SOL    HW146731   7.688   9.474   3.272 -0.0211 -2.4043 -1.0648
11934SOL    HW246732   7.563   9.577   3.288  2.3664  0.0832  2.3766
11935SOL     OW46733   7.120   3.467   5.322  0.0819  0.5763  0.1801
11935SOL    HW146734   7.192   3.532   5.300 -1.5023  2.4862  0.4755
11935SOL    HW246735   7.123   3.445   5.420  1.5648 -1.0260 -0.1915
11936SOL     OW46736   1.938   8.794   3.315 -0.1031  0.6373  0.0668
11936SOL    HW146737   1.910   8.700   3.299 -1.6865  0.7905  1.8063
11936SOL    HW246738   2.032   8.796   3.348  0.1313 -0.2867 -0.5429
11937SOL     OW46739   2.246   6.308   3.542  0.5249  0.2189  0.3797
11937SOL    HW146740   2.202   6.296   3.453  1.3922  1.9266 -0.3011
11937SOL    HW246741   2.184   6.278   3.614 -0.0009 -1.6713 -0.7983
11938SOL     OW46742   1.257   8.634   2.965  0.3101 -0.1057 -0.3343
11938SOL    HW146743   1.334   8.651   3.027  1.6150  1.1909 -2.2712
11938SOL    HW246744   1.173   8.626   3.019  1.4649  0.6198  1.6454
11939SOL     OW46745   7.627   0.532   1.004  0.1466 -0.1816  0.3227
11939SOL    HW146746   7.718   0.538   0.964 -0.5608 -0.5736 -1.4235
11939SOL    HW246747   7.580   0.620   0.994 -0.0420 -0.2888  0.2680
11940SOL     OW46748   6.906   9.515   4.289  0.1174 -0.4691  0.7432
11940SOL    HW146749   6.859   9.471   4.366 -3.8748  0.7206 -0.8707
11940SOL    HW246750   6.871   9.607   4.277  1.5113 -0.2284 -1.7956
11941SOL     OW46751   1.311   8.937   3.560  0.6593 -0.0314  0.0534
11941SOL    HW146752   1.344   9.029   3.580  2.3132 -0.0748 -2.2627
11941SOL    HW246753   1.262   8.937   3.473 -1.2053 -0.9493  1.0711
11942SOL     OW46754   5.149   8.661   1.342  0.1461 -0.0498 -0.1999
11942SOL    HW146755   5.243   8.681   1.313  0.4156 -0.4259  0.4099
11942SOL    HW246756   5.095   8.745   1.338  0.7880  0.3985  0.4906
11943SOL     OW46757   2.789   9.442   1.435 -0.0932  0.2255  0.4536
11943SOL    HW146758   2.690   9.441   1.422  0.0538 -2.0433 -0.6967
11943SOL    HW246759   2.822   9.536   1.430 -1.8379  0.7676 -1.9321
11944SOL     OW46760   1.376   0.623   4.337  0.4533  0.2680 -0.0036
11944SOL    HW146761   1.447   0.556   4.358 -1.0115 -2.2058 -2.5985
11944SOL    HW246762   1.409   0.686   4.267  0.8934  0.5436  0.4556
11945SOL     OW46763   0.285   4.114   1.002 -0.1641  0.0175  0.1320
11945SOL    HW146764   0.204   4.080   0.954  0.4662  0.3745 -1.1828
11945SOL    HW246765   0.338   4.036   1.036 -0.3350 -0.2431 -0.1975
11946SOL     OW46766   8.042   5.272   3.040 -0.3522 -0.2278  0.3455
11946SOL    HW146767   8.050   5.368   3.013  2.0723 -0.5411 -0.1981
11946SOL    HW246768   8.005   5.219   2.964  1.1799 -0.1976 -0.4371
11947SOL     OW46769   1.657   7.542   5.559  0.5143 -0.0029 -0.6980
11947SOL    HW146770   1.600   7.490   5.497  0.1308  1.2402 -1.4035
11947SOL    HW246771   1.737   7.488   5.585  0.3725 -0.7403 -1.8062
11948SOL     OW46772   9.477   8.339   4.279 -0.2165 -0.3912  0.1059
11948SOL    HW146773   9.481   8.423   4.225 -0.6054 -1.2020 -1.2056
11948SOL    HW246774   9.556   8.282   4.257  0.8138  0.2465  2.0569
11949SOL     OW46775   0.192   5.230   2.995  0.2695  0.1027  0.3756
11949SOL    HW146776   0.239   5.236   3.084  0.4037 -1.0136  0.3860
11949SOL    HW246777   0.255   5.258   2.922 -0.1529  2.0130  0.7124
11950SOL     OW46778   8.163   1.774   1.294  0.0823  0.8071 -0.2072
11950SOL    HW146779   8.103   1.716   1.348  0.7565  0.6229  0.3569
11950SOL    HW246780   8.163   1.744   1.199 -1.1486  1.1647 -0.3225
11951SOL     OW46781   8.914   8.085   4.375 -0.5816 -0.0349 -0.1357
11951SOL    HW146782   8.847   8.082   4.301  0.6918 -1.8377 -1.2733
11951SOL    HW246783   8.870   8.063   4.462 -1.9367  1.3442 -0.4419
11952SOL     OW46784   0.633   3.933   0.506  0.3362 -0.4616  0.1119
11952SOL    HW146785   0.540   3.909   0.479  0.1373 -0.3334  0.6704
11952SOL    HW246786   0.698   3.868   0.466 -0.1292 -1.4617  0.9647
11953SOL     OW46787   8.465   4.439   2.236  0.1568  0.0598  0.6801
11953SOL    HW146788   8.444   4.518   2.178  1.8567 -1.0245 -1.4810
11953SOL    HW246789   8.531   4.465   2.306  0.6220  0.5874  0.0513
11954SOL     OW46790   0.893   2.286   0.621  0.2601  0.4428  0.2537
11954SOL    HW146791   0.885   2.277   0.720  1.7336  0.2727  0.3779
11954SOL    HW246792   0.969   2.347   0.599  0.2008  0.1647 -0.7719
11955SOL     OW46793   2.203   6.851   2.546  0.2305  0.0180  0.1137
11955SOL    HW146794   2.223   6.759   2.581  0.2639  0.6537  1.8245
11955SOL    HW246795   2.127   6.890   2.597 -0.3178  0.6413 -1.1564
11956SOL     OW46796   1.741   7.670   0.916 -0.4578  0.0187 -0.8856
11956SOL    HW146797   1.696   7.740   0.861  1.4157  2.0625  0.1175
11956SOL    HW246798   1.779   7.599   0.856  0.2535  1.4382 -2.1290
11957SOL     OW46799   8.576   6.325   4.700 -0.8198 -0.1577  0.0296
11957SOL    HW146800   8.673   6.329   4.723 -1.4609 -1.6698  3.2951
11957SOL    HW246801   8.535   6.415   4.711  0.5846  1.0007 -3.5018
11958SOL     OW46802   7.739   4.884   5.061  0.1069  0.1774 -0.1936
11958SOL    HW146803   7.832   4.918   5.047 -0.4477  1.3129 -1.1827
11958SOL    HW246804   7.728   4.853   5.156  1.2972  0.6138  0.0890
11959SOL     OW46805   9.014   3.817   4.042 -0.2218  0.0618 -0.3414
11959SOL    HW146806   8.964   3.874   4.106  1.4385  0.5065  0.5979
11959SOL    HW246807   9.018   3.862   3.953  1.2010  1.5079  0.4305
11960SOL     OW46808   5.454   9.883   1.135  0.3995 -0.2751 -0.4104
11960SOL    HW146809   5.546   9.922   1.131  0.0338  0.9065  1.7977
11960SOL    HW246810   5.456   9.799   1.190  0.1170 -0.0713 -0.0845
11961SOL     OW46811   9.921   8.418   2.501 -0.3780 -0.4027 -0.1693
11961SOL    HW146812   9.990   8.467   2.448 -0.1287 -1.2717 -0.6576
11961SOL    HW246813   9.960   8.333   2.536 -0.8303 -0.3023  0.6084
11962SOL     OW46814   0.846   5.560   3.121 -0.5418  0.3624  0.0148
11962SOL    HW146815   0.925   5.594   3.070  0.2065  0.1717  1.0240
11962SOL    HW246816   0.845   5.601   3.212 -1.6857  0.4679 -0.0392
11963SOL     OW46817   3.241   4.705   3.159 -0.1327  0.1993 -0.2946
11963SOL    HW146818   3.200   4.668   3.242  0.6532 -0.2088 -0.0876
11963SOL    HW246819   3.231   4.805   3.158  0.1859  0.2393  0.4666
11964SOL     OW46820   4.722   8.287   2.565  0.4700 -0.6410 -0.0015
11964SOL    HW146821   4.708   8.344   2.645  1.0414 -0.4859 -0.0118
11964SOL    HW246822   4.790   8.217   2.585  1.5736  0.1995 -0.7458
11965SOL     OW46823   4.598   3.343   1.947  0.1336  0.2299  0.6388
11965SOL    HW146824   4.632   3.411   2.011 -0.7670 -0.2546  1.6414
11965SOL    HW246825   4.506   3.368   1.916 -0.4765 -0.8696  1.5359
11966SOL     OW46826   7.946   2.973   4.969  0.3531 -0.2775  0.0550
11966SOL    HW146827   7.919   2.974   4.873 -0.1941 -0.1904  0.2074
11966SOL    HW246828   8.039   3.007   4.978  0.8953 -1.5817 -0.5898
11967SOL     OW46829   5.035   3.199   1.529  0.1137 -0.1548  0.0587
11967SOL    HW146830   4.987   3.224   1.613  1.5276  1.6951  0.3402
11967SOL    HW246831   5.130   3.178   1.550  0.5456  0.5895 -1.1036
11968SOL     OW46832   9.775   0.524   5.170 -0.1310  0.0952 -0.0401
11968SOL    HW146833   9.759   0.455   5.241  0.1440  1.0266  0.9386
11968SOL    HW246834   9.687   0.561   5.139 -0.2262  0.0696  0.1963
11969SOL     OW46835   1.549   1.631   1.548 -0.4825  0.1677  0.0132
11969SOL    HW146836   1.553   1.677   1.460 -0.6175 -1.0237 -0.6267
11969SOL    HW246837   1.477   1.672   1.604 -0.6101  0.7116 -0.5466
11970SOL     OW46838   1.437   9.991   0.730 -0.4173 -0.0523  0.8653
11970SOL    HW146839   1.421   9.896   0.706 -1.1884 -0.1220  1.6532
11970SOL    HW246840   1.350  10.037   0.745 -0.1251  1.1465 -0.8921
11971SOL     OW46841   9.539   7.467   5.034 -0.1300 -0.3950  0.2755
11971SOL    HW146842   9.559   7.552   5.082  0.8454 -0.9128  0.8273
11971SOL    HW246843   9.469   7.482   4.965  2.1101  1.5278 -1.6763
11972SOL     OW46844   9.247   7.962   5.483  0.1443  0.6722 -0.4826
11972SOL    HW146845   9.186   7.961   5.562  1.3556 -0.1890  0.4519
11972SOL    HW246846   9.232   8.046   5.431 -1.4855  0.6986  0.0080
11973SOL     OW46847   8.203   5.496   1.494 -0.8199  0.3252 -0.2923
11973SOL    HW146848   8.299   5.517   1.477 -0.9277  1.0542 -0.0242
11973SOL    HW246849   8.176   5.534   1.582 -1.1103 -0.6769  0.0641
11974SOL     OW46850   0.705   3.240   0.253  0.2705 -0.6556  0.1018
11974SOL    HW146851   0.727   3.202   0.163  1.4367  1.1252 -0.3773
11974SOL    HW246852   0.739   3.178   0.324  1.4854 -0.8941 -0.6797
11975SOL     OW46853   3.188   8.637   1.689 -0.6358  0.8341  0.1048
11975SOL    HW146854   3.096   8.674   1.674 -0.6894  0.7008  0.1036
11975SOL    HW246855   3.240   8.639   1.604 -0.6710  0.8168  0.0835
11976SOL     OW46856   9.786   5.376   0.346  0.3900  0.7907 -0.6777
11976SOL    HW146857   9.697   5.399   0.306  0.6133 -0.0099 -1.6744
11976SOL    HW246858   9.789   5.279   0.367  1.3920  0.5886 -1.6485
11977SOL     OW46859   7.921   9.653   1.528 -0.0969  0.2527  0.1996
11977SOL    HW146860   7.954   9.662   1.434  1.0180  1.0924  0.6534
11977SOL    HW246861   7.918   9.557   1.553  3.0068  0.1762  0.4604
11978SOL     OW46862   0.738   0.163   1.619 -0.0893 -0.7176 -0.2076
11978SOL    HW146863   0.711   0.072   1.651  0.1008 -0.5621  0.4004
11978SOL    HW246864   0.668   0.229   1.646 -0.5714 -0.7906 -1.2568
11979SOL     OW46865   8.026   8.395   2.121  0.2644 -0.3875 -0.1598
11979SOL    HW146866   8.077   8.379   2.036  0.8593  2.2680 -0.3453
11979SOL    HW246867   8.059   8.333   2.192  1.1270 -1.2777 -1.3185
11980SOL     OW46868   2.369   1.038   0.609 -0.4921 -0.6514  0.5119
11980SOL    HW146869   2.290   0.977   0.617 -0.4423 -0.4936  2.4930
11980SOL    HW246870   2.432   1.020   0.685  0.6964  0.1936 -0.2625
11981SOL     OW46871   8.564   0.412   2.812 -0.0587 -0.0756  0.1723
11981SOL    HW146872   8.501   0.490   2.811  2.0981  1.7027  0.9473
11981SOL    HW246873   8.601   0.399   2.904  1.5073 -0.4439 -0.4910
11982SOL     OW46874   9.309   7.834   1.498 -0.2572 -0.7363  0.5677
11982SOL    HW146875   9.266   7.766   1.438 -0.7382  0.4290 -0.4187
11982SOL    HW246876   9.336   7.914   1.445 -1.0295  0.4703  1.9521
11983SOL     OW46877   1.145   3.013   4.579  0.2261  0.7027 -0.4687
11983SOL    HW146878   1.141   3.011   4.479 -0.7682  0.4283 -0.4262
11983SOL    HW246879   1.155   2.920   4.614 -2.2694  0.5069 -0.2113
11984SOL     OW46880   9.172   3.799   3.046  0.2437  0.0383  0.2097
11984SOL    HW146881   9.190   3.812   2.949  0.2745  0.4945  0.2774
11984SOL    HW246882   9.133   3.883   3.085 -1.5147 -0.7396  0.1805
11985SOL     OW46883   9.856   2.307   3.838  0.0711 -0.5336  0.1120
11985SOL    HW146884   9.838   2.340   3.745 -0.1426 -1.2251 -0.1004
11985SOL    HW246885   9.937   2.248   3.836 -1.3847 -2.5831 -0.1082
11986SOL     OW46886   9.996   4.072   2.296 -0.1784  0.2340 -0.2672
11986SOL    HW146887  10.090   4.092   2.268  0.5457 -0.6214  1.5141
11986SOL    HW246888   9.991   4.066   2.395 -1.5979 -2.2969 -0.4556
11987SOL     OW46889   1.709   0.373   3.385 -0.7012  0.8388 -0.0948
11987SOL    HW146890   1.753   0.383   3.474 -1.9139  0.2035  0.5809
11987SOL    HW246891   1.664   0.460   3.361 -1.5412  0.5952  0.5550
11988SOL     OW46892   2.259   5.295   1.108 -0.2896 -0.1434 -0.5408
11988SOL    HW146893   2.356   5.302   1.132 -0.7566 -0.9869  1.7283
11988SOL    HW246894   2.214   5.229   1.169 -2.0856 -0.5124 -2.2132
11989SOL     OW46895   1.625   9.055   4.394 -0.0629  0.5356 -0.5241
11989SOL    HW146896   1.634   8.961   4.426  2.0788  0.8105 -0.2084
11989SOL    HW246897   1.558   9.104   4.449  0.6455 -0.1191  0.9391
11990SOL     OW46898   1.336   7.309   1.273 -0.1560 -0.1056 -0.1816
11990SOL    HW146899   1.343   7.242   1.199 -1.9181  1.2055 -1.6001
11990SOL    HW246900   1.416   7.369   1.271  0.5828 -1.0813 -0.0004
11991SOL     OW46901   7.438   1.092   2.694  0.1729  0.1388  0.4683
11991SOL    HW146902   7.470   1.013   2.745 -0.5842  0.4396  1.4143
11991SOL    HW246903   7.345   1.115   2.722 -0.4306  0.0424 -1.3507
11992SOL     OW46904   9.225   1.504   0.677 -0.1483 -0.0654 -0.4404
11992SOL    HW146905   9.147   1.448   0.648  0.1519  0.1163 -1.6303
11992SOL    HW246906   9.291   1.446   0.724 -0.3875 -0.4876 -0.6132
11993SOL     OW46907   0.648   0.556   4.882  0.0620 -0.0297 -0.4314
11993SOL    HW146908   0.660   0.492   4.958  0.2334  0.1123 -0.3414
11993SOL    HW246909   0.589   0.513   4.813 -0.6061  0.0785  0.0584
11994SOL     OW46910   1.982   1.213   1.119 -0.3533  0.4268  0.0592
11994SOL    HW146911   1.974   1.309   1.148  1.3640  1.1013 -1.5445
11994SOL    HW246912   2.044   1.164   1.180  0.5943  0.9651 -0.4523
11995SOL     OW46913   9.620   6.523   5.151  0.5102  0.6751 -0.8663
11995SOL    HW146914   9.599   6.469   5.070 -0.4791 -0.2797  0.0224
11995SOL    HW246915   9.542   6.522   5.213  1.7255  0.3383  0.6751
11996SOL     OW46916   4.075   5.705   0.592  0.8087  0.0056  0.0026
11996SOL    HW146917   4.149   5.639   0.601  0.4142 -0.0860  3.1538
11996SOL    HW246918   3.989   5.664   0.624 -0.2983  0.6354 -2.0678
11997SOL     OW46919   2.194   4.947   2.882  0.2026  0.5598  0.2793
11997SOL    HW146920   2.142   4.975   2.962 -0.9356 -0.5637 -0.0626
11997SOL    HW246921   2.156   4.863   2.844 -0.6751  2.2121 -2.7360
11998SOL     OW46922   9.375   1.408   3.014 -0.4261 -0.0193  0.0139
11998SOL    HW146923   9.387   1.496   2.970 -1.6863  0.7415  1.1224
11998SOL    HW246924   9.285   1.371   2.990 -0.4403 -0.3664  0.5838
11999SOL     OW46925   6.967   7.854   3.948  0.1837 -0.4311 -0.7480
11999SOL    HW146926   7.044   7.869   4.010  1.3041 -3.5474 -1.3197
11999SOL    HW246927   6.945   7.940   3.902  1.9045  1.0021  1.0195
12000SOL     OW46928   2.361   6.733   5.366  0.0812 -0.2031 -0.4536
12000SOL    HW146929   2.456   6.749   5.336 -0.0739  1.8204  0.0407
12000SOL    HW246930   2.360   6.706   5.462  0.1579 -0.1364 -0.4338
12001SOL     OW46931   1.736   7.702   1.977 -0.2393 -0.1054 -0.7405
12001SOL    HW146932   1.709   7.606   1.966 -0.6996 -0.0780  0.1346
12001SOL    HW246933   1.654   7.757   1.995  0.1528  0.3061 -0.2326
12002SOL     OW46934   1.800   2.797   0.754  0.1085  0.9123  0.3596
12002SOL    HW146935   1.834   2.886   0.784 -0.1308  0.6196  1.5062
12002SOL    HW246936   1.775   2.742   0.833  2.6354 -1.1302 -0.2161
12003SOL     OW46937   3.089   5.788   0.488 -0.0986  0.9761  0.3817
12003SOL    HW146938   3.100   5.715   0.421 -1.9753  1.2988 -0.3128
12003SOL    HW246939   3.005   5.839   0.468 -0.0753  1.7986  2.2955
12004SOL     OW46940   0.538   9.312   0.252 -0.9465  0.2981  0.1125
12004SOL    HW146941   0.628   9.311   0.297 -0.6950  0.0666 -0.3991
12004SOL    HW246942   0.471   9.267   0.311 -0.7159  0.4185  0.4695
12005SOL     OW46943   8.145   2.501   0.933 -0.2494  0.2873  0.0243
12005SOL    HW146944   8.078   2.573   0.949  0.0314  0.6728 -0.4984
12005SOL    HW246945   8.130   2.460   0.843 -1.6469 -1.6744  1.1047
12006SOL     OW46946   1.667   6.699   1.049 -0.3404  0.1118  0.5029
12006SOL    HW146947   1.744   6.755   1.017 -0.4108 -0.2118 -0.2449
12006SOL    HW246948   1.673   6.689   1.148  0.7932 -0.2158  0.4180
12007SOL     OW46949   7.527   8.001   3.468 -0.0006 -0.2570 -0.2774
12007SOL    HW146950   7.616   8.009   3.511 -0.8507  1.1272  1.3095
12007SOL    HW246951   7.506   7.905   3.450  1.5610 -0.6280 -0.1674
12008SOL     OW46952   3.037   0.213   2.551  0.0617 -0.4043 -0.0659
12008SOL    HW146953   3.132   0.183   2.551 -0.0275 -0.7045  1.2796
12008SOL    HW246954   3.018   0.264   2.466  0.6057 -2.8266 -1.6854
12009SOL     OW46955   3.845   6.548   1.246  0.3059 -0.8178  0.1095
12009SOL    HW146956   3.764   6.606   1.244  0.2687 -0.8391  0.9380
12009SOL    HW246957   3.854   6.499   1.159  0.2251  0.2702 -0.5174
12010SOL     OW46958   1.184   3.066   0.685  0.0594 -0.2627 -0.2561
12010SOL    HW146959   1.190   2.967   0.700 -0.6051  0.0462  2.2475
12010SOL    HW246960   1.090   3.097   0.703  0.9541  1.2701  2.0104
12011SOL     OW46961   5.286   8.704   4.227 -0.1273  0.2295  0.0419
12011SOL    HW146962   5.323   8.641   4.159  0.6123  1.4120 -0.6598
12011SOL    HW246963   5.186   8.702   4.224 -0.1110 -0.8856  0.0165
12012SOL     OW46964   8.609   6.559   3.029  0.3473  0.3812  0.1416
12012SOL    HW146965   8.642   6.466   3.012  0.1311  0.2525  0.4303
12012SOL    HW246966   8.585   6.569   3.126  2.7114  1.4636  0.6502
12013SOL     OW46967   5.785   9.301   1.749 -0.2851 -0.5324 -0.0172
12013SOL    HW146968   5.846   9.224   1.727 -1.2232 -1.7530  1.5820
12013SOL    HW246969   5.713   9.270   1.811 -1.2734  1.4173 -0.1627
12014SOL     OW46970   0.068   4.681   4.006  0.3536 -0.3782 -0.2819
12014SOL    HW146971  -0.021   4.665   3.963  0.3960 -1.5742  0.0433
12014SOL    HW246972   0.109   4.764   3.969 -1.2161  0.5795  0.0693
12015SOL     OW46973   9.288   5.338   2.955 -0.0824 -0.3438 -0.2340
12015SOL    HW146974   9.269   5.418   2.899 -1.6449  0.6517  1.6506
12015SOL    HW246975   9.378   5.346   2.996 -0.4227  0.6907  0.3253
12016SOL     OW46976   3.209   2.138   5.015  0.1015  0.4204 -0.3580
12016SOL    HW146977   3.292   2.195   5.021  0.1746  0.4624 -1.6048
12016SOL    HW246978   3.149   2.174   4.944 -0.7160  0.0246  0.1214
12017SOL     OW46979   5.268   9.461   3.710 -0.5113  0.1367  0.2081
12017SOL    HW146980   5.230   9.551   3.692 -0.2715  0.4151  1.0655
12017SOL    HW246981   5.252   9.436   3.806 -0.2165 -0.5525  0.0849
12018SOL     OW46982   8.241   2.102   4.604  0.2134 -0.0715  0.6544
12018SOL    HW146983   8.290   2.048   4.536 -0.1522 -0.1023  0.4093
12018SOL    HW246984   8.238   2.053   4.691  0.3859 -0.1865  0.5935
12019SOL     OW46985   3.700   3.962   5.296 -0.1976 -0.1826  0.3902
12019SOL    HW146986   3.729   3.936   5.388  0.7548 -0.7471 -0.0573
12019SOL    HW246987   3.744   4.049   5.271  1.4482 -1.2131 -0.4231
12020SOL     OW46988   1.285   8.329   0.278 -0.1956 -0.0995  0.3670
12020SOL    HW146989   1.275   8.359   0.183 -0.2423 -0.3151  0.3025
12020SOL    HW246990   1.238   8.393   0.339 -0.2243  0.0004  0.2379
12021SOL     OW46991   0.270   2.174   1.677 -0.2812 -0.7632  0.0720
12021SOL    HW146992   0.234   2.239   1.611  0.6029  0.6739  0.9892
12021SOL    HW246993   0.329   2.109   1.630 -2.0348 -1.6093 -1.0260
12022SOL     OW46994   9.997   0.450   4.662  0.4092 -0.6299  0.3652
12022SOL    HW146995   9.971   0.416   4.752  0.8568 -0.1353  0.6817
12022SOL    HW246996  10.085   0.497   4.668  0.7243 -1.1116 -0.4473
12023SOL     OW46997   0.069   8.257   2.985  0.3182 -0.2127  0.0751
12023SOL    HW146998   0.082   8.158   2.978 -0.2084 -0.2213 -0.8785
12023SOL    HW246999   0.117   8.303   2.909 -0.2354  0.1877 -0.0393
12024SOL     OW47000   2.861   2.430   0.585  0.3867 -0.4365  0.0496
12024SOL    HW147001   2.882   2.385   0.499  0.7717  2.4134 -1.4004
12024SOL    HW247002   2.767   2.408   0.613 -1.3328  2.0883 -3.4090
12025SOL     OW47003   7.849   3.156   1.816  0.0638  0.2019 -0.5802
12025SOL    HW147004   7.839   3.255   1.811  4.2307  0.8437  0.9773
12025SOL    HW247005   7.915   3.126   1.747 -0.5380 -1.3582 -0.4883
12026SOL     OW47006   0.977   9.817   2.307 -0.2538  0.6072 -0.7729
12026SOL    HW147007   0.998   9.742   2.369 -0.4254  1.3968  0.2420
12026SOL    HW247008   1.033   9.897   2.330  0.3762  0.6160 -2.2281
12027SOL     OW47009   5.454   0.046   4.509  0.2937  0.3753  0.2168
12027SOL    HW147010   5.384   0.005   4.451 -0.2301  2.3633 -0.5956
12027SOL    HW247011   5.521  -0.024   4.536 -0.0135 -0.7782 -1.9616
12028SOL     OW47012   3.718   7.905   3.809 -0.0400  0.4420  0.5211
12028SOL    HW147013   3.726   7.871   3.716  1.9338  0.4823  0.6453
12028SOL    HW247014   3.635   7.960   3.818 -0.7266 -0.3307 -0.9489
12029SOL     OW47015   8.558   2.795   3.496  0.4546  0.2642 -0.0457
12029SOL    HW147016   8.555   2.846   3.411  0.3774  0.6934  0.2132
12029SOL    HW247017   8.578   2.857   3.572  1.9572 -0.3333  0.0734
12030SOL     OW47018   7.301   7.318   4.435  0.4984  0.5260  0.0329
12030SOL    HW147019   7.390   7.298   4.476 -0.3311  0.8653  2.0327
12030SOL    HW247020   7.298   7.414   4.408  0.4597  0.7214  0.7137
12031SOL     OW47021   8.548   7.271   1.915 -0.1143  0.3893  0.3805
12031SOL    HW147022   8.536   7.213   1.995 -1.6709 -0.3173 -0.3355
12031SOL    HW247023   8.469   7.332   1.905 -0.4221 -0.2369 -1.1613
12032SOL     OW47024   9.946   9.455   4.096  0.1303  0.3589 -0.2385
12032SOL    HW147025   9.977   9.549   4.106  1.1867 -0.0677  0.6732
12032SOL    HW247026   9.855   9.453   4.056 -0.4147  1.8214  0.9019
12033SOL     OW47027   8.531   3.980   3.503 -0.5744  0.4394  0.1795
12033SOL    HW147028   8.533   4.044   3.580 -1.3903 -2.0840  2.3762
12033SOL    HW247029   8.465   3.907   3.522  0.7863 -1.4291 -1.9808
12034SOL     OW47030   4.100   2.800   4.834 -0.4763  0.2151 -0.6822
12034SOL    HW147031   4.163   2.851   4.893  0.3721 -1.3337 -0.2325
12034SOL    HW247032   4.138   2.794   4.742 -0.4456  0.1557 -0.6656
12035SOL     OW47033   1.485   1.076   5.341 -0.3192 -0.6593  0.3615
12035SOL    HW147034   1.551   1.015   5.296  0.6101  2.2419 -2.3520
12035SOL    HW247035   1.392   1.041   5.327  0.2185 -1.5828 -0.9270
12036SOL     OW47036   9.072   0.882   4.664 -0.1227 -0.2151 -0.0721
12036SOL    HW147037   9.032   0.896   4.754 -2.8205  2.0452 -1.5587
12036SOL    HW247038   9.128   0.961   4.639  2.0907 -1.6079  0.3068
12037SOL     OW47039   7.499   4.384   5.400 -0.3511  0.2040  0.0556
12037SOL    HW147040   7.578   4.323   5.408  0.3387  1.3740  2.4403
12037SOL    HW247041   7.520   4.458   5.336 -0.0191 -0.2344 -0.3455
12038SOL     OW47042   2.694   0.268   4.771 -0.0375  0.4015  0.2630
12038SOL    HW147043   2.773   0.270   4.710  0.9464  0.2034  1.5008
12038SOL    HW247044   2.655   0.360   4.779  0.3105  0.5755 -0.0468
12039SOL     OW47045   0.282   4.342   4.998  0.4521  0.2080 -0.6838
12039SOL    HW147046   0.237   4.270   4.945  1.6098 -0.8615 -0.2331
12039SOL    HW247047   0.258   4.332   5.095 -1.1895  1.8104 -0.8882
12040SOL     OW47048   9.661   0.972   3.306 -0.0532 -0.1555 -0.8481
12040SOL    HW147049   9.691   1.019   3.223  1.6746 -1.6841 -1.1199
12040SOL    HW247050   9.566   0.996   3.326 -0.8427 -0.6059 -3.8862
12041SOL     OW47051   8.057   9.125   4.409 -0.2473  0.0797  0.8521
12041SOL    HW147052   8.145   9.087   4.382 -0.3529  0.2335  0.2911
12041SOL    HW247053   8.012   9.165   4.329 -0.6763  0.2977  1.2021
12042SOL     OW47054   4.335   8.869   3.307 -0.0352 -0.2156 -0.3450
12042SOL    HW147055   4.296   8.947   3.258  1.3903  0.2424 -0.7826
12042SOL    HW247056   4.435   8.874   3.304  0.0720 -1.4585  0.5912
12043SOL     OW47057   7.857   2.053   1.598 -0.2158 -0.1199 -0.1742
12043SOL    HW147058   7.771   2.049   1.648 -0.1550 -0.2031 -0.0781
12043SOL    HW247059   7.926   2.098   1.654  0.5280 -2.4434  0.7880
12044SOL     OW47060   3.938   9.547   3.969 -0.0889 -0.4497  0.0557
12044SOL    HW147061   3.871   9.593   4.026 -0.5398 -1.7378  0.5747
12044SOL    HW247062   4.004   9.499   4.026 -0.4616 -1.6310 -0.4843
12045SOL     OW47063   8.633   3.768   2.083  0.1920  0.1921  0.4090
12045SOL    HW147064   8.615   3.712   2.002  0.3742  0.9368 -0.1440
12045SOL    HW247065   8.551   3.771   2.140  0.1984 -0.7000  0.4794
12046SOL     OW47066   1.371   3.214   2.969  0.5071  0.1417 -0.1323
12046SOL    HW147067   1.324   3.202   3.056 -1.0008  2.5114 -0.5825
12046SOL    HW247068   1.377   3.125   2.923 -2.7202 -0.4363  0.3831
12047SOL     OW47069   2.079   7.717   2.927  0.2444  0.1187 -0.2059
12047SOL    HW147070   2.130   7.736   2.844  2.6735 -0.8904  1.0046
12047SOL    HW247071   2.026   7.633   2.915  0.5365  0.0134 -0.7605
12048SOL     OW47072   8.922   5.441   2.936 -0.2325 -0.3694 -0.6073
12048SOL    HW147073   8.855   5.516   2.937 -2.7148 -2.4913  2.2369
12048SOL    HW247074   8.910   5.386   2.854  0.1999  1.1138 -1.6815
12049SOL     OW47075   2.422   7.140   2.951 -0.3167 -0.9683  0.5224
12049SOL    HW147076   2.473   7.213   2.907 -1.8920  0.4314  0.9481
12049SOL    HW247077   2.346   7.111   2.892  0.2109 -2.1612  0.4191
12050SOL     OW47078   8.053   1.332   3.766  0.5241 -0.6405 -0.0520
12050SOL    HW147079   7.972   1.384   3.791  0.8053  1.0639 -2.5736
12050SOL    HW247080   8.036   1.234   3.783 -1.7099 -0.2171  0.2872
12051SOL     OW47081   9.032   7.350   1.107  0.1764  0.3974 -0.3410
12051SOL    HW147082   9.095   7.306   1.171 -1.3165 -0.6732  0.4233
12051SOL    HW247083   8.992   7.281   1.046  0.8356  1.2706 -1.7922
12052SOL     OW47084   8.316   4.138   0.127 -0.2184 -0.4047 -0.2099
12052SOL    HW147085   8.408   4.132   0.088 -0.3678  0.0956 -0.6564
12052SOL    HW247086   8.320   4.179   0.218 -0.1113  0.6261 -0.6753
12053SOL     OW47087   6.995   9.856   1.595 -0.3188 -0.1997 -0.5586
12053SOL    HW147088   7.083   9.874   1.550  0.1188  1.1589  0.8072
12053SOL    HW247089   6.921   9.893   1.539 -0.1509 -2.2845 -2.2499
12054SOL     OW47090   1.277   2.635   4.968  0.6816  0.0010 -0.3798
12054SOL    HW147091   1.251   2.696   5.043 -2.3305  0.3982 -1.6561
12054SOL    HW247092   1.338   2.683   4.906  0.0223  1.0345 -0.2436
12055SOL     OW47093   2.397   7.988   2.113 -0.1978  0.0002  0.1927
12055SOL    HW147094   2.439   8.043   2.040 -2.6465 -0.0611 -1.3529
12055SOL    HW247095   2.299   7.980   2.095 -0.5322 -1.5996  2.5420
12056SOL     OW47096   4.978   0.559   3.941 -0.2042  0.0337 -0.2679
12056SOL    HW147097   4.958   0.635   4.002  3.1397  0.7383  0.0216
12056SOL    HW247098   4.977   0.473   3.992 -1.0610  0.2049  0.0046
12057SOL     OW47099   0.784   0.392   5.128  0.0701  0.5975 -0.0894
12057SOL    HW147100   0.837   0.336   5.191 -1.0780 -0.7732 -0.3116
12057SOL    HW247101   0.839   0.469   5.097  1.0468  0.6073  1.6505
12058SOL     OW47102   1.229   2.313   5.250 -0.0337 -0.2520 -0.4554
12058SOL    HW147103   1.294   2.380   5.286  0.1784 -0.2965 -0.7483
12058SOL    HW247104   1.193   2.345   5.163  0.6874 -0.8927 -0.9969
12059SOL     OW47105   4.074   3.555   4.870  0.0227  0.3822  0.1356
12059SOL    HW147106   4.029   3.602   4.946  0.0088  1.4832 -0.5552
12059SOL    HW247107   4.165   3.594   4.855 -0.3815  0.8595 -1.0881
12060SOL     OW47108   4.137   5.958   0.705  0.2880 -0.0798  0.0552
12060SOL    HW147109   4.046   5.995   0.726 -0.5299 -0.3080 -2.8723
12060SOL    HW247110   4.128   5.873   0.654  2.1859 -0.9459  1.0967
12061SOL     OW47111   0.995   5.199   2.263  0.0555  0.5201  0.2869
12061SOL    HW147112   0.982   5.204   2.362 -2.5341  0.4693 -0.0272
12061SOL    HW247113   0.924   5.253   2.218  2.0068  1.6641 -1.5236
12062SOL     OW47114   8.404   1.100   1.206 -0.1966  0.3665  0.1447
12062SOL    HW147115   8.435   1.051   1.125  0.8862 -0.0026  0.7716
12062SOL    HW247116   8.383   1.195   1.183 -0.3034  0.1525 -0.6417
12063SOL     OW47117   3.792   3.713   5.210 -0.4861  0.1164  0.5788
12063SOL    HW147118   3.772   3.808   5.234 -1.9279 -0.1743  0.5860
12063SOL    HW247119   3.874   3.709   5.154  0.4771  1.2139  1.8962
12064SOL     OW47120   0.224   3.021   1.731  0.5478 -0.2184  0.1074
12064SOL    HW147121   0.295   3.081   1.694  1.0076 -0.3819  0.7146
12064SOL    HW247122   0.266   2.957   1.795 -0.0852 -0.5954  0.1393
12065SOL     OW47123   2.855   6.930   1.789  0.3636  0.5402 -0.5456
12065SOL    HW147124   2.806   6.852   1.750  0.1898 -0.2590  1.2185
12065SOL    HW247125   2.793   6.984   1.845  0.8435  1.0869 -0.5337
12066SOL     OW47126   4.437   9.393   5.353 -0.0757  0.1331  0.2288
12066SOL    HW147127   4.496   9.438   5.419  0.0691  0.4999 -0.1442
12066SOL    HW247128   4.474   9.302   5.332  0.3887  0.3786 -0.0375
12067SOL     OW47129   1.252   1.975   4.513  0.4973  0.3243 -0.2805
12067SOL    HW147130   1.207   1.987   4.425  1.1116 -0.2797 -0.6773
12067SOL    HW247131   1.267   1.878   4.531  1.0760  0.4864  0.1369
12068SOL     OW47132   9.919   1.694   3.001 -0.2873  0.0179  0.1039
12068SOL    HW147133   9.891   1.683   2.905  0.8073 -1.0527 -0.1040
12068SOL    HW247134   9.950   1.788   3.016 -2.1201  0.6835 -0.1423
12069SOL     OW47135   2.098   4.857   1.879  0.0199  0.5620  0.3936
12069SOL    HW147136   2.139   4.807   1.802  0.2950  0.0658  0.8564
12069SOL    HW247137   2.154   4.845   1.960 -1.5973 -1.0692  1.3341
12070SOL     OW47138   8.704   6.488   1.568 -0.4119  0.5931 -0.2496
12070SOL    HW147139   8.804   6.481   1.576 -0.3819  1.7738  0.5221
12070SOL    HW247140   8.664   6.397   1.578  0.4481  0.4030  1.7508
12071SOL     OW47141   2.629   2.380   4.233  0.1147 -0.8145  0.2810
12071SOL    HW147142   2.695   2.339   4.170  0.6280 -1.4040  1.1902
12071SOL    HW247143   2.618   2.321   4.313  0.6213  0.6415  1.4534
12072SOL     OW47144   7.951   0.496   3.817  0.0912  0.2537 -0.4003
12072SOL    HW147145   7.883   0.541   3.875 -0.4700  0.4696 -1.2154
12072SOL    HW247146   7.906   0.459   3.735  0.7890 -0.4914 -0.4543
12073SOL     OW47147   3.529   6.283   0.606 -0.0726 -0.0489 -0.5226
12073SOL    HW147148   3.440   6.289   0.651 -0.2461 -0.7292 -0.7795
12073SOL    HW247149   3.520   6.310   0.510 -0.3853 -2.0088 -1.0557
12074SOL     OW47150   8.079   0.040   1.875 -0.0172 -0.4925  0.1485
12074SOL    HW147151   8.074  -0.019   1.795  0.5298 -0.2823 -0.0396
12074SOL    HW247152   8.161   0.018   1.928 -0.1334 -0.3145  0.4046
12075SOL     OW47153   4.125   9.798   4.379  0.4973  0.0796 -0.2846
12075SOL    HW147154   4.195   9.840   4.437  0.2143 -0.6905  0.6323
12075SOL    HW247155   4.168   9.755   4.300  0.9951  0.2156 -0.0854
12076SOL     OW47156   3.034   8.858   0.550  0.2542  0.8322 -0.2847
12076SOL    HW147157   2.996   8.769   0.524 -0.3777  1.4400 -1.4939
12076SOL    HW247158   2.982   8.896   0.626 -0.4689  0.8677 -0.7942
12077SOL     OW47159   5.096   6.522   2.189 -0.0677 -0.1587 -0.0385
12077SOL    HW147160   5.114   6.480   2.277  0.5538  1.2323  0.5159
12077SOL    HW247161   5.098   6.452   2.117  3.0246 -0.7901  0.5699
12078SOL     OW47162   0.751   4.324   1.616  0.3660 -0.2125  0.5041
12078SOL    HW147163   0.667   4.372   1.587 -1.3094 -2.6791  1.1364
12078SOL    HW247164   0.774   4.352   1.709 -0.9698 -1.0651  1.1096
12079SOL     OW47165   2.980   4.633   4.708  0.3327 -0.0278 -0.2537
12079SOL    HW147166   2.940   4.562   4.766  0.2382  0.8375  0.7506
12079SOL    HW247167   2.965   4.723   4.749  2.9645  0.3590 -0.0384
12080SOL     OW47168   1.937   5.701   4.673 -0.2946 -0.3728 -0.1211
12080SOL    HW147169   1.903   5.624   4.620 -0.1100 -0.0055 -0.7735
12080SOL    HW247170   2.025   5.675   4.715 -0.6482 -0.8069  0.3545
12081SOL     OW47171   2.012   8.278   5.390  0.6264  0.3269  0.2150
12081SOL    HW147172   1.942   8.282   5.461  1.0108  0.2748  0.5996
12081SOL    HW247173   2.004   8.358   5.331  0.2301  0.3111  0.2462
12082SOL     OW47174   8.553   0.443   3.295  0.3144  1.0345  0.2538
12082SOL    HW147175   8.632   0.505   3.291  0.5127  0.8136  0.8185
12082SOL    HW247176   8.554   0.392   3.381 -0.7249  1.4056  0.5021
12083SOL     OW47177   7.864   3.744   2.834 -0.3325  0.0154  0.3473
12083SOL    HW147178   7.862   3.656   2.881 -0.8560  0.2783  0.8331
12083SOL    HW247179   7.831   3.815   2.897  1.3093  0.7623  0.4036
12084SOL     OW47180   3.061   0.755   1.476  0.3729 -0.4179  0.2534
12084SOL    HW147181   3.075   0.664   1.515  0.7268 -0.2717  0.4725
12084SOL    HW247182   3.080   0.824   1.545  0.6381 -0.1645 -0.0685
12085SOL     OW47183   1.947   6.892   2.680 -0.2675 -0.7076 -0.1207
12085SOL    HW147184   1.856   6.850   2.680 -0.5150 -0.1713  0.1740
12085SOL    HW247185   1.990   6.876   2.769  0.0598 -1.2418 -0.3702
12086SOL     OW47186   8.935   1.005   5.371  0.2963 -0.4003  0.3277
12086SOL    HW147187   8.937   1.098   5.409  0.3942  0.2216 -1.1803
12086SOL    HW247188   9.009   0.995   5.305  2.5652 -2.6883  3.0674
12087SOL     OW47189   2.503   9.260   0.075 -0.1446 -0.4692  0.1012
12087SOL    HW147190   2.528   9.354   0.098  0.1903 -0.7831  1.0163
12087SOL    HW247191   2.495   9.206   0.158 -0.9213 -1.1149 -0.3829
12088SOL     OW47192   5.098   8.580   4.638 -0.7570 -0.2916 -0.5587
12088SOL    HW147193   5.079   8.488   4.673 -1.8320 -0.5548 -1.7781
12088SOL    HW247194   5.093   8.579   4.538 -0.8105  1.1103 -0.5802
12089SOL     OW47195   8.206   2.407   5.051  0.0786  0.4477  0.0037
12089SOL    HW147196   8.187   2.471   4.977  0.8372  1.5032  0.7084
12089SOL    HW247197   8.301   2.379   5.048  0.5204  1.7282  1.5081
12090SOL     OW47198   9.945   0.114   4.344  0.0110  0.1307  0.9679
12090SOL    HW147199   9.846   0.111   4.333  0.0032  1.8726  0.4010
12090SOL    HW247200   9.967   0.129   4.441 -0.2591 -0.5505  1.1391
12091SOL     OW47201   1.881   6.245   4.975  0.1528  0.6443 -0.2851
12091SOL    HW147202   1.820   6.282   4.905 -1.0751  0.2853  0.5762
12091SOL    HW247203   1.921   6.320   5.027 -1.9302  0.8421  1.1186
12092SOL     OW47204   9.040   3.542   4.765 -0.0272 -0.5135 -0.2243
12092SOL    HW147205   9.137   3.518   4.752  0.4810  0.4286  1.6203
12092SOL    HW247206   9.031   3.642   4.770 -1.0512 -0.6119 -0.0858
12093SOL     OW47207   9.016   0.878   2.427 -0.2204  0.1493 -0.1350
12093SOL    HW147208   8.942   0.855   2.362  1.1892 -2.9543 -0.7465
12093SOL    HW247209   8.995   0.838   2.516  0.3266  0.0001 -0.0765
12094SOL     OW47210   8.531   5.071   3.964 -0.2744  0.6733  0.3521
12094SOL    HW147211   8.594   5.086   3.888 -0.6903  1.5709  0.1802
12094SOL    HW247212   8.512   4.973   3.972 -2.0623  0.7447 -2.2108
12095SOL     OW47213   0.546   3.545   3.129  0.1131 -0.4734  0.5114
12095SOL    HW147214   0.541   3.637   3.089  2.6238 -0.0435  1.1076
12095SOL    HW247215   0.455   3.503   3.127 -0.6069  1.1173 -1.8695
12096SOL     OW47216   3.263   2.192   2.209 -0.7646  0.3386  0.5108
12096SOL    HW147217   3.191   2.248   2.251 -0.9886  0.5436 -0.1344
12096SOL    HW247218   3.222   2.107   2.175 -0.5485  0.0854  0.8748
12097SOL     OW47219   1.985   5.639   0.067  0.1948  0.0869  0.3747
12097SOL    HW147220   2.038   5.639   0.152 -0.5979 -0.8099  0.8801
12097SOL    HW247221   2.046   5.621  -0.010  0.2627 -3.7745  1.2375
12098SOL     OW47222   1.313   8.800   5.618 -0.1058 -0.0129  0.3990
12098SOL    HW147223   1.328   8.843   5.707 -0.1271  1.7381 -0.4194
12098SOL    HW247224   1.251   8.857   5.563 -0.6575 -1.4234 -0.4847
12099SOL     OW47225   9.884   5.521   1.474 -0.6411 -0.1242  0.0582
12099SOL    HW147226   9.921   5.546   1.385 -1.5767  0.0120 -0.2927
12099SOL    HW247227   9.947   5.458   1.520  0.3449  0.6319 -0.2528
12100SOL     OW47228   4.847   5.748   2.200 -0.2959  0.3703  0.4298
12100SOL    HW147229   4.887   5.726   2.289  0.3594  0.4060  0.1519
12100SOL    HW247230   4.828   5.846   2.195  2.1979  0.8399 -0.4513
12101SOL     OW47231   3.251   6.237   1.275 -0.1838  0.3197  0.3477
12101SOL    HW147232   3.241   6.319   1.332 -1.1804 -2.0761  3.8236
12101SOL    HW247233   3.326   6.181   1.310 -0.7071 -1.1367 -0.8178
12102SOL     OW47234   7.225   0.372   1.599 -0.2537 -0.2164  1.2808
12102SOL    HW147235   7.161   0.444   1.629  0.2809  0.2131  1.3918
12102SOL    HW247236   7.256   0.391   1.506 -1.3010 -1.1308  0.7408
12103SOL     OW47237   0.963   4.618   3.602 -0.0514 -0.1826  0.2963
12103SOL    HW147238   0.917   4.674   3.671  0.2098  0.4039 -0.0014
12103SOL    HW247239   1.062   4.625   3.614 -0.0053 -0.1280 -0.0923
12104SOL     OW47240   2.877   9.652   4.585 -0.3777  0.2023  0.1137
12104SOL    HW147241   2.810   9.588   4.622 -2.5219  2.0383 -0.5041
12104SOL    HW247242   2.835   9.705   4.511  2.0385  0.7520 -0.8990
12105SOL     OW47243   7.640   5.910   4.411  0.3195  0.5150  0.1948
12105SOL    HW147244   7.730   5.878   4.442 -0.1246 -1.9432 -0.9612
12105SOL    HW247245   7.569   5.849   4.446 -0.5732  0.2673 -1.9897
12106SOL     OW47246   7.607   7.068   4.366  0.5978 -0.2287  0.2447
12106SOL    HW147247   7.612   6.985   4.422  2.9024 -0.3113 -0.0192
12106SOL    HW247248   7.566   7.047   4.278  0.5511 -0.9438  0.4357
12107SOL     OW47249   1.779   5.804   0.915  0.5304 -0.0960  0.0941
12107SOL    HW147250   1.806   5.851   0.831 -0.8182 -0.9253 -0.8410
12107SOL    HW247251   1.788   5.705   0.901 -0.9890 -0.2915  0.4580
12108SOL     OW47252   8.038   4.342   4.659  0.2114  0.5239 -0.1724
12108SOL    HW147253   8.126   4.361   4.703 -0.0398  1.5071 -0.0670
12108SOL    HW247254   7.966   4.341   4.729 -0.5762  4.6093 -0.7676
12109SOL     OW47255   4.588   7.115   2.179 -0.1483 -0.3906  0.1139
12109SOL    HW147256   4.663   7.094   2.117 -0.3538  0.5729 -0.4776
12109SOL    HW247257   4.534   7.032   2.196 -0.9401 -0.3698 -2.1496
12110SOL     OW47258   4.778   3.646   3.113 -0.2344  0.1629  0.2639
12110SOL    HW147259   4.835   3.706   3.057 -0.5789  0.2162 -0.0309
12110SOL    HW247260   4.834   3.571   3.149 -0.1935 -0.3694 -0.8784
12111SOL     OW47261   5.701   9.951   2.134 -0.9778 -0.3352 -0.1893
12111SOL    HW147262   5.657   9.978   2.220 -0.3756  0.9577 -0.2695
12111SOL    HW247263   5.646   9.882   2.088 -1.1371 -1.2921  1.4058
12112SOL     OW47264   8.510   3.474   1.613  0.3700 -0.1678  0.2202
12112SOL    HW147265   8.487   3.564   1.574 -0.1456  0.3148  1.5987
12112SOL    HW247266   8.608   3.470   1.630  0.7422 -0.7244 -1.9521
12113SOL     OW47267   8.873   6.615   2.821 -0.0300  0.3093 -0.0053
12113SOL    HW147268   8.874   6.575   2.913  2.9266 -1.5648 -0.8127
12113SOL    HW247269   8.895   6.713   2.828 -0.8644  0.4232  1.3514
12114SOL     OW47270   2.034   2.880   1.733 -0.3302 -1.0615  0.0471
12114SOL    HW147271   1.976   2.844   1.659  0.2099 -3.5583  0.7841
12114SOL    HW247272   2.114   2.820   1.745  1.1438  0.9656  0.6910
12115SOL     OW47273   0.153   7.499   4.724  0.1083  0.1551 -0.2773
12115SOL    HW147274   0.250   7.480   4.715  0.5445  1.5936  1.1781
12115SOL    HW247275   0.116   7.448   4.802 -0.2248 -0.0701 -0.5795
12116SOL     OW47276   3.409   2.413   2.904 -0.2174  0.1931  0.1146
12116SOL    HW147277   3.374   2.343   2.841 -0.8861 -0.1712  0.8858
12116SOL    HW247278   3.361   2.406   2.991  1.6787 -0.2312  1.1584
12117SOL     OW47279   6.445   0.508   3.522  0.3104 -0.4114 -0.2475
12117SOL    HW147280   6.466   0.434   3.586  1.0329 -1.0512 -1.1995
12117SOL    HW247281   6.351   0.498   3.489  0.2787 -0.6856 -0.0787
12118SOL     OW47282   4.969   2.581   3.378  0.3779  0.0701 -0.6051
12118SOL    HW147283   4.919   2.627   3.451  1.7037  0.9086 -0.2039
12118SOL    HW247284   5.054   2.630   3.359  1.6542 -1.9641 -0.4282
12119SOL     OW47285   9.293   1.424   2.654  0.1524 -0.0831  1.1495
12119SOL    HW147286   9.391   1.438   2.671  0.2461  1.2785 -0.4368
12119SOL    HW247287   9.241   1.491   2.708  0.2069  0.7126  0.2205
12120SOL     OW47288   5.039   0.920   4.271 -0.0764 -0.2471  0.0627
12120SOL    HW147289   5.120   0.868   4.244 -0.0125 -0.1017 -0.0191
12120SOL    HW247290   5.047   1.014   4.240  0.5869  0.2492  1.6805
12121SOL     OW47291   2.281   6.663   4.932  0.3342 -0.0619 -0.5369
12121SOL    HW147292   2.188   6.646   4.900 -0.1153 -1.2686  1.3051
12121SOL    HW247293   2.285   6.752   4.978  0.4287  0.6123 -1.8433
12122SOL     OW47294   5.147   1.208   2.477  0.1832  0.0453 -0.1354
12122SOL    HW147295   5.149   1.118   2.433 -2.6061 -0.0799 -0.0653
12122SOL    HW247296   5.166   1.279   2.410 -1.1167 -0.3604 -0.9535
12123SOL     OW47297   7.501   9.304   2.643  0.4622 -0.0803  0.1824
12123SOL    HW147298   7.563   9.356   2.585  0.3487 -0.2450 -0.0844
12123SOL    HW247299   7.532   9.310   2.738  0.3626  0.5959  0.1690
12124SOL     OW47300   0.774   7.931   1.421  0.1089 -0.5497  0.3918
12124SOL    HW147301   0.747   7.913   1.327  1.3653  2.2956 -0.5658
12124SOL    HW247302   0.810   8.024   1.428  0.1685 -0.7680  3.6570
12125SOL     OW47303   2.439   4.571   5.148 -0.4426 -0.1807 -0.2676
12125SOL    HW147304   2.412   4.508   5.075 -0.0845 -0.1998 -0.3843
12125SOL    HW247305   2.434   4.523   5.236  0.0820 -0.4535 -0.3833
12126SOL     OW47306   8.365   3.113   1.211 -0.3462  0.0340  0.6678
12126SOL    HW147307   8.427   3.190   1.226  0.6012 -0.3544 -1.0972
12126SOL    HW247308   8.384   3.042   1.278  1.2197 -0.1305  0.0690
12127SOL     OW47309   4.045   0.591   5.508  0.2824  0.2229  0.0737
12127SOL    HW147310   4.040   0.690   5.522  0.9953  0.1694  0.7475
12127SOL    HW247311   4.128   0.556   5.552 -0.7050 -0.8853  1.0489
12128SOL     OW47312   9.325   8.296   0.329  0.0916 -0.2663  0.4473
12128SOL    HW147313   9.300   8.206   0.362  0.3823 -0.6685 -0.4029
12128SOL    HW247314   9.250   8.333   0.273  0.7991 -0.8866 -0.9531
12129SOL     OW47315   2.863   1.440   1.973 -0.4046 -0.2046 -0.3197
12129SOL    HW147316   2.957   1.463   2.001 -0.6444 -1.1200  1.3800
12129SOL    HW247317   2.854   1.448   1.874  1.5726 -0.4023 -0.5385
12130SOL     OW47318   4.041   9.555   4.499  0.1626 -0.5206  0.6347
12130SOL    HW147319   4.054   9.650   4.471 -1.5211  0.0745  1.7949
12130SOL    HW247320   3.986   9.507   4.431 -1.8143  0.2546  1.6473
12131SOL     OW47321   4.221   0.336   0.734 -0.3293  0.3937  0.4059
12131SOL    HW147322   4.177   0.396   0.801  0.6115  0.2634  1.1585
12131SOL    HW247323   4.173   0.249   0.730  0.3823 -0.0753  1.8703
12132SOL     OW47324   5.072   5.741   2.368  0.5916  0.0316 -0.0079
12132SOL    HW147325   5.046   5.821   2.313 -2.0390 -0.5889  0.2563
12132SOL    HW247326   5.163   5.711   2.342  0.1527  0.8814 -2.7046
12133SOL     OW47327   5.765   9.154   1.313  0.4750 -0.2718  0.2530
12133SOL    HW147328   5.856   9.196   1.309  1.5876 -2.6006  0.4851
12133SOL    HW247329   5.707   9.208   1.374  1.8765  0.9119  0.5779
12134SOL     OW47330   1.346   5.547   3.569 -0.9910 -0.1641  0.6269
12134SOL    HW147331   1.293   5.468   3.540  1.7581 -2.4421  1.6212
12134SOL    HW247332   1.336   5.559   3.668  0.7564 -0.9825  0.9254
12135SOL     OW47333   7.656   9.655   5.617  0.6114 -0.5182 -0.5941
12135SOL    HW147334   7.750   9.642   5.587  0.3352 -0.1516 -1.6388
12135SOL    HW247335   7.625   9.573   5.664  1.0591 -1.1027 -1.3008
12136SOL     OW47336   1.783   6.889   3.587  0.1627 -0.1812 -0.2935
12136SOL    HW147337   1.856   6.947   3.624  0.7622 -0.6502 -0.7298
12136SOL    HW247338   1.775   6.903   3.489  1.0993 -1.6927 -0.5887
12137SOL     OW47339   2.442   8.391   2.596  0.0576 -0.0380  0.6428
12137SOL    HW147340   2.539   8.377   2.616  0.2256 -0.3959 -0.3877
12137SOL    HW247341   2.431   8.416   2.500 -0.7178  1.8070  1.1956
12138SOL     OW47342   9.657   1.331   4.760  0.3884  0.3009  0.2592
12138SOL    HW147343   9.630   1.408   4.701 -1.4560 -0.2665  0.3222
12138SOL    HW247344   9.748   1.348   4.797  0.8293  1.5186 -1.3176
12139SOL     OW47345   1.870   5.962   4.710 -0.0439  0.2810  0.2798
12139SOL    HW147346   1.890   5.866   4.693 -1.9302  0.0590 -0.8984
12139SOL    HW247347   1.931   5.998   4.780  0.2502 -1.9366  1.1715
12140SOL     OW47348   1.624   9.175   2.860 -0.1866 -0.0544  0.3907
12140SOL    HW147349   1.642   9.249   2.794 -1.5618 -1.0463 -1.1585
12140SOL    HW247350   1.556   9.206   2.926 -3.0215 -0.8507 -2.0476
12141SOL     OW47351   3.549   1.065   3.325  0.0254 -0.4864 -0.2363
12141SOL    HW147352   3.482   1.004   3.366  1.3618 -0.7107  1.6716
12141SOL    HW247353   3.631   1.014   3.302 -0.1916 -0.0823 -1.9324
12142SOL     OW47354   2.036   0.664   0.927 -0.0169  0.1678 -0.2085
12142SOL    HW147355   2.069   0.646   1.020  0.8600  0.3497 -0.4741
12142SOL    HW247356   1.970   0.594   0.901  2.2899 -1.8959 -0.7142
12143SOL     OW47357   0.429   7.066   1.848  0.0875  0.5259 -0.3024
12143SOL    HW147358   0.345   7.029   1.887  0.6991 -0.7041 -0.1095
12143SOL    HW247359   0.505   7.049   1.910  0.9793 -1.0003 -1.7348
12144SOL     OW47360   1.784   2.087   1.720 -0.4453  0.0841 -0.2732
12144SOL    HW147361   1.746   2.179   1.729  1.5991  0.8815  0.4185
12144SOL    HW247362   1.727   2.023   1.771 -0.9037  1.2526  0.7112
12145SOL     OW47363   8.581   6.899   4.990  0.8607  0.1467 -0.8321
12145SOL    HW147364   8.545   6.900   4.897  1.5068 -1.0977 -1.1046
12145SOL    HW247365   8.567   6.809   5.031 -0.0690  0.8958  0.5407
12146SOL     OW47366   2.338   6.552   4.271  0.3522 -0.4472 -0.3482
12146SOL    HW147367   2.428   6.595   4.270 -0.4906  1.3707 -1.0202
12146SOL    HW247368   2.279   6.597   4.204 -0.6429 -2.5349 -0.9068
12147SOL     OW47369   4.738   9.220   4.859  0.8198  0.3598 -0.4650
12147SOL    HW147370   4.774   9.145   4.805  1.9785  0.1286  0.6105
12147SOL    HW247371   4.812   9.282   4.885  0.2226  0.6979  0.4837
12148SOL     OW47372   1.615   5.636   5.393 -0.4755  0.6024  0.9040
12148SOL    HW147373   1.626   5.703   5.466 -1.1599  0.6622  0.9522
12148SOL    HW247374   1.689   5.568   5.398 -0.0137  1.1166  1.0995
12149SOL     OW47375   1.986   7.275   1.599 -0.5403  0.4964  0.1861
12149SOL    HW147376   2.004   7.209   1.526  4.1112  1.6006  0.1629
12149SOL    HW247377   1.943   7.357   1.560 -2.1681 -0.6889 -0.5377
12150SOL     OW47378   2.334   3.329   1.809 -0.2240 -0.0133  0.0659
12150SOL    HW147379   2.323   3.425   1.783 -0.1226  0.1365  0.5736
12150SOL    HW247380   2.334   3.272   1.727  0.5753  0.5067 -0.2989
12151SOL     OW47381   1.833   9.981   2.065 -0.3117  0.1532 -0.5240
12151SOL    HW147382   1.795   9.917   1.998  0.4629 -1.0540  0.1614
12151SOL    HW247383   1.871  10.060   2.018  0.7391 -0.9559 -1.5862
12152SOL     OW47384   7.514   2.719   3.497 -0.2181  0.3158  0.3860
12152SOL    HW147385   7.463   2.747   3.578  0.6042  1.0766  0.6469
12152SOL    HW247386   7.543   2.799   3.446  1.3977 -0.0639  0.6664
12153SOL     OW47387   7.341   3.077   0.209  0.4042 -0.2421 -0.1340
12153SOL    HW147388   7.290   3.153   0.248  1.1461 -0.4293  1.2270
12153SOL    HW247389   7.281   3.021   0.152 -0.4684  0.5629  0.0006
12154SOL     OW47390   5.845   0.125   1.964  0.2242  0.2334  0.0955
12154SOL    HW147391   5.935   0.160   1.990 -0.0270  0.2412  0.9641
12154SOL    HW247392   5.805   0.074   2.040 -0.6746  0.5444 -0.1562
12155SOL     OW47393   8.504   5.561   1.405 -0.4793  0.2836 -0.7354
12155SOL    HW147394   8.556   5.513   1.335  1.4968  1.6313 -0.2263
12155SOL    HW247395   8.490   5.656   1.378 -3.5351 -0.2560 -1.2980
12156SOL     OW47396   8.908   6.267   1.655  0.3640 -0.0331 -0.3956
12156SOL    HW147397   8.985   6.267   1.591  0.3420 -1.1677 -0.4423
12156SOL    HW247398   8.824   6.249   1.606  0.0302  1.4169 -0.3728
12157SOL     OW47399   1.874   1.589   4.373 -0.2396 -0.2231  0.1142
12157SOL    HW147400   1.844   1.683   4.355 -0.6539  0.0773  2.2562
12157SOL    HW247401   1.956   1.590   4.430 -1.0121 -1.1622  1.2711
12158SOL     OW47402   5.268   9.415   1.874  0.6121  0.2829  0.0705
12158SOL    HW147403   5.217   9.459   1.948  1.3992 -0.2491  0.9396
12158SOL    HW247404   5.318   9.485   1.823 -0.5601  0.7440 -0.4558
12159SOL     OW47405   0.489   8.095   0.362  0.3298  0.7780  0.2639
12159SOL    HW147406   0.509   8.043   0.446 -0.0054 -0.5561 -0.4772
12159SOL    HW247407   0.538   8.054   0.286 -0.2662  1.3152 -0.4087
12160SOL     OW47408   9.716   5.506   4.272 -0.3272 -0.2885  0.8616
12160SOL    HW147409   9.699   5.552   4.359 -1.0627 -0.7566  0.9749
12160SOL    HW247410   9.776   5.427   4.288 -1.0549 -0.8081  1.0734
12161SOL     OW47411   8.159   2.343   5.558 -0.0937 -0.1736 -0.2893
12161SOL    HW147412   8.148   2.344   5.459  2.1623  0.9741 -0.5740
12161SOL    HW247413   8.143   2.251   5.593 -2.7225 -0.1919 -1.4706
12162SOL     OW47414   9.313   8.904   1.292 -0.0181  0.1193 -0.0536
12162SOL    HW147415   9.310   8.925   1.195 -0.0464  1.5642  0.2552
12162SOL    HW247416   9.405   8.921   1.327 -0.3009  0.6877  0.4157
12163SOL     OW47417   4.776   4.804   5.575 -0.2275  0.0620  0.3809
12163SOL    HW147418   4.749   4.754   5.492 -0.7603  0.1998  0.4679
12163SOL    HW247419   4.858   4.858   5.556  1.1810 -1.9205  0.6759
12164SOL     OW47420   8.962   6.625   1.174  0.3771  0.4528  0.4144
12164SOL    HW147421   9.029   6.694   1.148  0.7802  0.8187  2.3187
12164SOL    HW247422   8.995   6.575   1.254  0.2359 -2.1876 -1.1326
12165SOL     OW47423   5.573   9.234   2.500  0.5354 -0.0583 -0.1557
12165SOL    HW147424   5.478   9.229   2.467  0.5710 -1.1568 -0.1087
12165SOL    HW247425   5.600   9.145   2.537  0.6238  1.0197  2.4945
12166SOL     OW47426   0.718   4.646   3.722  0.3751 -0.1303  0.5690
12166SOL    HW147427   0.664   4.639   3.805  1.3273 -1.8350  1.0714
12166SOL    HW247428   0.671   4.598   3.648  1.1991 -1.6761  1.0244
12167SOL     OW47429   0.251   3.538   0.889 -0.2736 -0.6825 -0.0673
12167SOL    HW147430   0.235   3.466   0.822  1.7314  1.4786 -3.0030
12167SOL    HW247431   0.180   3.607   0.881  0.2153 -0.2010 -0.2732
12168SOL     OW47432   8.255   0.530   4.840 -0.4720  0.2654  0.4086
12168SOL    HW147433   8.183   0.598   4.827 -1.6737 -0.6020  2.4681
12168SOL    HW247434   8.249   0.491   4.931  1.2664 -1.4061 -0.1575
12169SOL     OW47435   3.664   0.188   3.051 -0.4642  0.0869  0.5965
12169SOL    HW147436   3.740   0.252   3.042 -1.3356  1.0691  0.1961
12169SOL    HW247437   3.608   0.191   2.968 -1.6021  0.2220  1.3616
12170SOL     OW47438   6.766   9.285   3.945  0.3464  0.2857  0.4120
12170SOL    HW147439   6.812   9.206   3.987 -0.0687  0.3149  0.9237
12170SOL    HW247440   6.797   9.369   3.989  0.1992  0.3463  0.3984
12171SOL     OW47441   3.699   1.414   0.529 -0.1893 -0.3384  0.0966
12171SOL    HW147442   3.637   1.381   0.600 -1.3403 -0.4390 -0.9347
12171SOL    HW247443   3.721   1.339   0.466 -0.6448  0.1881 -0.6965
12172SOL     OW47444   0.512   5.421   3.005  0.6990 -0.3540 -0.5592
12172SOL    HW147445   0.466   5.351   2.950 -1.0735  0.5387 -0.2357
12172SOL    HW247446   0.445   5.488   3.036  2.1929  0.8334  0.1380
12173SOL     OW47447   8.083   9.871   1.656 -0.3617 -0.4112 -0.3598
12173SOL    HW147448   8.172   9.858   1.614 -0.4969 -0.8640 -0.5096
12173SOL    HW247449   8.016   9.810   1.613 -0.4994 -0.8956  0.5195
12174SOL     OW47450   7.767   9.138   3.313 -0.3232 -0.8570 -0.0163
12174SOL    HW147451   7.782   9.080   3.233  0.8621 -0.6887  0.0752
12174SOL    HW247452   7.847   9.133   3.373  0.2082  1.5891 -0.4728
12175SOL     OW47453   6.784   2.109   3.267 -0.4586  0.4630  0.3993
12175SOL    HW147454   6.820   2.021   3.297 -1.5731  0.0827  0.6269
12175SOL    HW247455   6.858   2.177   3.268  0.5737 -0.6154 -0.4477
12176SOL     OW47456   9.901   5.157   2.448 -0.3035 -0.5305 -0.1182
12176SOL    HW147457   9.912   5.130   2.543 -1.3484  0.3608  0.2576
12176SOL    HW247458   9.977   5.217   2.422 -0.1133 -0.6323  0.1986
12177SOL     OW47459   7.088   9.035   1.996  0.2937  0.5998  0.3650
12177SOL    HW147460   7.173   9.078   2.025  0.8022 -0.5404  0.5836
12177SOL    HW247461   7.027   9.105   1.958  1.5210  1.3425 -0.2760
12178SOL     OW47462   2.377   2.606   0.180 -0.2248 -0.1198 -0.2352
12178SOL    HW147463   2.419   2.608   0.090 -0.0560 -0.9807 -0.1821
12178SOL    HW247464   2.283   2.573   0.173 -0.7474  1.3395 -0.2908
12179SOL     OW47465   0.878   4.422   3.422 -0.0540  0.5377  0.5911
12179SOL    HW147466   0.942   4.346   3.433 -0.1989  0.6088  1.9263
12179SOL    HW247467   0.898   4.494   3.489 -0.2875  1.4263 -0.2760
12180SOL     OW47468   9.405   2.384   5.614 -0.5588 -0.7112  0.4020
12180SOL    HW147469   9.333   2.431   5.562 -0.6828  1.3012  2.3342
12180SOL    HW247470   9.467   2.339   5.550 -1.5882  0.3940 -1.4405
12181SOL     OW47471   0.748   9.130   1.621 -0.1122 -0.3189  0.5067
12181SOL    HW147472   0.670   9.167   1.672 -0.8366  0.2275 -0.9675
12181SOL    HW247473   0.816   9.096   1.685 -1.5802 -0.8447  1.8256
12182SOL     OW47474   8.309   4.841   1.638  0.1506  0.3085 -0.0316
12182SOL    HW147475   8.295   4.746   1.666 -0.2686  0.7756  1.4014
12182SOL    HW247476   8.305   4.847   1.538  1.1556 -1.3304 -0.1990
12183SOL     OW47477   4.664   1.597   3.237  0.2814  0.0386 -0.0755
12183SOL    HW147478   4.671   1.675   3.175  0.5283  0.3260  0.3065
12183SOL    HW247479   4.639   1.515   3.186 -1.4867  0.6721 -0.2750
12184SOL     OW47480   0.297   2.448   5.572 -0.3236  0.5023 -0.0554
12184SOL    HW147481   0.372   2.395   5.533 -1.5328 -0.5883 -0.9199
12184SOL    HW247482   0.257   2.398   5.649  0.0301  1.2259  0.6097
12185SOL     OW47483   2.596   6.791   0.978  0.0935  0.2107 -0.0856
12185SOL    HW147484   2.681   6.842   0.965  1.2639 -1.2206  1.7007
12185SOL    HW247485   2.519   6.854   0.977  1.3468  1.7783  0.1361
12186SOL     OW47486   6.071   1.179   0.879  0.1852 -0.0560 -0.3736
12186SOL    HW147487   6.023   1.188   0.967  0.2883 -0.9868 -0.2163
12186SOL    HW247488   6.043   1.254   0.818  0.0794  0.5686  0.4312
12187SOL     OW47489   6.011   7.487   4.407 -0.2693 -0.2191 -0.8342
12187SOL    HW147490   5.939   7.451   4.348 -0.4818 -0.6098 -0.3460
12187SOL    HW247491   6.029   7.421   4.480 -0.8736  0.7992  0.2462
12188SOL     OW47492   8.379   0.117   4.721  0.7431  0.4865  0.1459
12188SOL    HW147493   8.450   0.047   4.730  0.2583 -0.1067 -0.6067
12188SOL    HW247494   8.291   0.074   4.701 -0.0691  1.1284  2.1607
12189SOL     OW47495   9.745   0.944   4.241  0.1434  0.1858  0.1772
12189SOL    HW147496   9.796   0.875   4.190  0.2046 -0.1668  0.7072
12189SOL    HW247497   9.768   0.938   4.338 -0.7552  0.1547  0.3936
12190SOL     OW47498   9.737   8.089   5.601  0.3362  0.6086 -0.1807
12190SOL    HW147499   9.693   8.148   5.533  0.6378 -1.0012 -1.7957
12190SOL    HW247500   9.791   8.019   5.555 -0.5501 -1.3565  1.7058
12191SOL     OW47501   9.938   7.247   3.675  0.2509  0.2693  0.2748
12191SOL    HW147502   9.868   7.177   3.690  0.3675 -0.2059 -1.3193
12191SOL    HW247503  10.009   7.238   3.745  1.6443 -2.9586 -1.4468
12192SOL     OW47504   6.266   0.954   4.536 -0.1942  0.5073  0.8855
12192SOL    HW147505   6.186   0.941   4.593 -0.3177  0.5874  0.7293
12192SOL    HW247506   6.347   0.964   4.594 -0.0088 -1.4684  0.9970
12193SOL     OW47507   9.063   7.597   1.013  0.5205 -0.0337 -0.1108
12193SOL    HW147508   9.040   7.505   1.045 -1.7395  0.3362 -0.5834
12193SOL    HW247509   9.125   7.640   1.078  1.2941 -1.7610  0.3077
12194SOL     OW47510   3.358   2.454   3.185 -0.2698 -0.0762  0.0505
12194SOL    HW147511   3.305   2.370   3.198  1.0455 -0.8938  0.2070
12194SOL    HW247512   3.298   2.526   3.150 -1.5903 -0.8428  0.6913
12195SOL     OW47513   3.166   1.000   3.076  0.4747  0.1656  0.2748
12195SOL    HW147514   3.139   0.969   3.167  1.5644 -1.9282 -0.0938
12195SOL    HW247515   3.092   1.055   3.037 -1.1712 -1.2360  1.3061
12196SOL     OW47516   4.373   4.397   0.521 -0.5190  0.0521 -0.0360
12196SOL    HW147517   4.281   4.403   0.558 -1.5140 -1.6612 -2.1304
12196SOL    HW247518   4.369   4.363   0.427  2.3769 -2.1425  0.5663
12197SOL     OW47519   8.274   2.040   4.884  0.6971  0.0851  0.5192
12197SOL    HW147520   8.208   1.975   4.846  0.1654  1.7126 -1.4928
12197SOL    HW247521   8.313   2.003   4.968 -1.1690 -1.8623  0.5846
12198SOL     OW47522   1.899   7.798   0.321 -0.3856  0.0737  0.5384
12198SOL    HW147523   1.990   7.767   0.351 -0.6588 -0.2174  1.0681
12198SOL    HW247524   1.832   7.727   0.341 -0.9841  0.9156  1.5702
12199SOL     OW47525   5.528   9.068   3.733 -0.1873  0.3157  0.7910
12199SOL    HW147526   5.621   9.096   3.709 -0.5198 -0.1347 -1.0840
12199SOL    HW247527   5.521   8.968   3.725 -0.8043  0.3442  0.9988
12200SOL     OW47528   8.154   9.559   5.377 -0.2188  0.4235  0.5995
12200SOL    HW147529   8.115   9.646   5.406 -1.8841  0.0813 -0.5239
12200SOL    HW247530   8.155   9.554   5.277 -1.5651 -1.4304  0.6506
12201SOL     OW47531   1.795   5.202   1.032 -0.0921 -0.4059  0.2018
12201SOL    HW147532   1.782   5.272   1.102  1.5082 -0.7972  0.9232
12201SOL    HW247533   1.837   5.121   1.074 -0.7683 -1.3168 -0.8629
12202SOL     OW47534   7.090   1.343   4.177  0.4635  0.1974 -0.2630
12202SOL    HW147535   7.148   1.352   4.096 -1.2604  0.9684 -1.4514
12202SOL    HW247536   7.118   1.263   4.230  2.8621  0.7913 -0.5712
12203SOL     OW47537   4.938   8.534   3.436 -0.6969 -0.4566 -0.2796
12203SOL    HW147538   4.933   8.490   3.526  0.1843  0.4076  0.2063
12203SOL    HW247539   4.993   8.478   3.374  0.7221  0.1033  0.4400
12204SOL     OW47540   6.250   0.876   2.133  0.1135 -0.4332 -0.0985
12204SOL    HW147541   6.282   0.966   2.104  0.4903 -0.7428 -0.6630
12204SOL    HW247542   6.191   0.837   2.062  1.8081 -1.5968 -0.8850
12205SOL     OW47543   3.125   1.733   3.662  0.3262  0.1172  0.1384
12205SOL    HW147544   3.210   1.767   3.704  0.3646 -0.0876  0.2233
12205SOL    HW247545   3.134   1.738   3.563  0.7982 -0.7968  0.1315
12206SOL     OW47546   8.673   1.664   4.018  0.3508 -0.1495 -0.2561
12206SOL    HW147547   8.599   1.707   4.071 -0.6267 -1.4801 -0.5317
12206SOL    HW247548   8.713   1.732   3.957 -0.5500  0.6211 -0.0087
12207SOL     OW47549   9.112   2.676   5.319  0.0353 -0.5176  0.1257
12207SOL    HW147550   9.015   2.658   5.335 -0.6791  2.2656 -0.7898
12207SOL    HW247551   9.136   2.654   5.224  0.0136 -0.0786  0.0180
12208SOL     OW47552   0.336   5.089   5.267 -0.1698 -0.2616 -0.0979
12208SOL    HW147553   0.338   5.047   5.358  0.9718 -0.8219 -0.3722
12208SOL    HW247554   0.362   5.021   5.198  3.6803  1.3040 -0.3609
12209SOL     OW47555   9.961   7.434   4.567  0.0091  0.0514 -0.2202
12209SOL    HW147556   9.890   7.371   4.599  0.3919 -0.3525 -0.1639
12209SOL    HW247557  10.029   7.447   4.639 -0.0674  0.5266 -0.2329
12210SOL     OW47558   1.722   2.431   3.647  0.1004  0.0720  0.0339
12210SOL    HW147559   1.741   2.410   3.551  0.8013  0.3769  0.1017
12210SOL    HW247560   1.666   2.358   3.687 -0.0966 -0.1124 -0.5706
12211SOL     OW47561   9.006   7.938   4.930 -0.4195 -0.0861  0.1940
12211SOL    HW147562   9.016   7.902   5.023 -0.4441  1.8892  0.9931
12211SOL    HW247563   9.084   7.997   4.909  0.0297 -1.2173 -1.3865
12212SOL     OW47564   1.174   2.486   3.080  0.8840  0.2613 -0.2505
12212SOL    HW147565   1.147   2.546   3.154  2.3538  1.0061 -0.2865
12212SOL    HW247566   1.160   2.391   3.107 -0.0563  0.5741  0.3764
12213SOL     OW47567   5.427   7.134   2.459  0.4792  0.0878  0.3007
12213SOL    HW147568   5.485   7.078   2.518  1.8972 -0.1370 -1.2702
12213SOL    HW247569   5.371   7.076   2.401  2.1539  0.2572 -1.5268
12214SOL     OW47570   1.299   0.557   1.901 -0.1397  0.9417 -0.8112
12214SOL    HW147571   1.379   0.618   1.906  0.3328  0.2721  0.1077
12214SOL    HW247572   1.330   0.462   1.895 -0.8441  0.5636  1.1285
12215SOL     OW47573   4.621   0.508   0.405  0.1235  0.0943 -0.0792
12215SOL    HW147574   4.712   0.510   0.446  0.9799 -1.5435 -1.7670
12215SOL    HW247575   4.551   0.499   0.476  1.3671  0.1484  1.1540
12216SOL     OW47576   0.915   5.147   4.413  0.3680 -0.1496  0.4224
12216SOL    HW147577   0.955   5.237   4.430  0.6578 -0.3550  0.8390
12216SOL    HW247578   0.844   5.155   4.343  0.3859  0.4040  0.4618
12217SOL     OW47579   0.879   2.941   1.374  0.3185 -0.4440 -0.1835
12217SOL    HW147580   0.946   2.921   1.446 -0.5490 -2.2660  0.1415
12217SOL    HW247581   0.788   2.919   1.406 -0.0912 -1.1987 -1.8247
12218SOL     OW47582   8.516   9.723   3.058 -0.6875 -0.4005 -0.2638
12218SOL    HW147583   8.501   9.808   3.008 -1.1072 -1.1469 -1.4183
12218SOL    HW247584   8.528   9.743   3.156 -0.3256  1.0139 -0.5958
12219SOL     OW47585   0.895   2.493   4.437  0.1009  0.3779  0.7485
12219SOL    HW147586   0.983   2.492   4.389 -0.7707  0.0588 -0.8567
12219SOL    HW247587   0.827   2.539   4.381 -0.8129  0.4600  1.9141
12220SOL     OW47588   0.588   9.531   4.155  0.4023 -0.1144  0.0596
12220SOL    HW147589   0.628   9.616   4.191  0.5650 -0.4656  0.7154
12220SOL    HW247590   0.560   9.545   4.060  3.4093 -0.2502 -0.9056
12221SOL     OW47591   7.400   6.615   4.097 -0.0026  0.7520 -0.2275
12221SOL    HW147592   7.401   6.527   4.051  3.7560  2.0806 -2.9553
12221SOL    HW247593   7.308   6.654   4.093 -1.3389 -2.3074 -0.3396
12222SOL     OW47594   2.615   3.342   2.112 -0.0354  0.5164 -0.3834
12222SOL    HW147595   2.682   3.337   2.187  1.7780  2.5964 -1.8046
12222SOL    HW247596   2.602   3.438   2.086 -4.6118  0.3046  0.7184
12223SOL     OW47597   2.526   6.781   4.859  0.2906  0.2008  0.0232
12223SOL    HW147598   2.451   6.722   4.890  1.9922 -1.4607  1.1307
12223SOL    HW247599   2.583   6.731   4.793 -0.0085  1.7184 -1.4127
12224SOL     OW47600   2.467   2.162   3.220 -0.3003  0.5553  0.1715
12224SOL    HW147601   2.545   2.217   3.252 -0.7451  1.5982 -0.5156
12224SOL    HW247602   2.385   2.188   3.271 -0.3297 -0.1054  0.4620
12225SOL     OW47603   2.864   7.435   1.168 -0.1905  0.4323 -0.4577
12225SOL    HW147604   2.946   7.416   1.223  0.3814 -0.2594 -1.5210
12225SOL    HW247605   2.838   7.531   1.180  1.3632  0.9330 -0.8350
12226SOL     OW47606   1.008   8.481   2.672 -0.1003 -1.2119 -0.1494
12226SOL    HW147607   1.044   8.573   2.678 -1.7239 -0.6003  0.5140
12226SOL    HW247608   1.079   8.419   2.637  1.4629 -0.0128  0.8640
12227SOL     OW47609   4.551   5.214   4.989 -0.0259  0.2331 -0.2802
12227SOL    HW147610   4.524   5.118   4.980 -0.0942 -0.1950  3.5391
12227SOL    HW247611   4.469   5.270   5.005  0.3730  0.2525  1.8884
12228SOL     OW47612   9.103   7.143   2.443 -0.1581  0.1999 -0.1094
12228SOL    HW147613   9.045   7.207   2.393  0.3519  0.2887 -0.5915
12228SOL    HW247614   9.184   7.121   2.388  1.0299  1.2564  1.1811
12229SOL     OW47615   0.069   2.726   3.471  0.2950  0.6837 -0.9817
12229SOL    HW147616   0.107   2.790   3.405  0.8019  1.0571 -0.3310
12229SOL    HW247617  -0.028   2.748   3.487  0.7626  2.0479  0.1213
12230SOL     OW47618   2.425   9.397   3.966  0.5698 -0.4299  0.3476
12230SOL    HW147619   2.477   9.338   3.905  1.4588 -1.2510  1.8800
12230SOL    HW247620   2.343   9.349   3.998  0.5363 -0.3057  0.4518
12231SOL     OW47621   1.665   3.969   0.237  0.0380  0.0897 -0.3682
12231SOL    HW147622   1.695   3.976   0.141  1.4583  0.9015  0.1281
12231SOL    HW247623   1.735   3.922   0.290 -1.0860 -1.0242  0.1335
12232SOL     OW47624   0.262   1.530   3.945 -0.7155 -0.2780 -0.9733
12232SOL    HW147625   0.195   1.548   4.018 -1.3641 -1.7395 -1.1880
12232SOL    HW247626   0.276   1.432   3.937  1.4860  0.0130 -0.9376
12233SOL     OW47627   4.715   1.201   5.476  0.3711  0.0003 -0.6662
12233SOL    HW147628   4.787   1.132   5.479 -1.0137 -1.4445  2.3857
12233SOL    HW247629   4.635   1.163   5.430 -0.2947 -0.3757  0.7663
12234SOL     OW47630   0.679   5.118   3.323  0.4219 -0.4054  0.4825
12234SOL    HW147631   0.774   5.096   3.343  0.5400 -1.3654 -1.0681
12234SOL    HW247632   0.674   5.203   3.270  0.5442 -1.3706 -1.0821
12235SOL     OW47633   2.728   9.511   2.195 -0.4078 -0.0369  0.0602
12235SOL    HW147634   2.752   9.457   2.114  2.7093 -0.8479  1.4237
12235SOL    HW247635   2.695   9.601   2.166 -0.9392 -0.8862 -2.1312
12236SOL     OW47636   1.455   8.726   1.030 -0.0427 -0.4579  0.7709
12236SOL    HW147637   1.379   8.678   1.075  0.1880 -0.8178  0.7804
12236SOL    HW247638   1.421   8.771   0.948 -0.7858  1.4434  2.0689
12237SOL     OW47639   1.406   4.663   0.644  0.3455 -0.0329  0.1953
12237SOL    HW147640   1.416   4.592   0.714  1.5053 -0.0039  0.0699
12237SOL    HW247641   1.407   4.753   0.689  1.1553 -0.0118  0.1359
12238SOL     OW47642   9.319   9.774   0.421  0.3532 -0.5470 -0.2002
12238SOL    HW147643   9.305   9.679   0.394  0.5009 -0.9785  1.2216
12238SOL    HW247644   9.397   9.780   0.483 -0.2526  0.3698  0.4840
12239SOL     OW47645   3.066   0.761   0.542  0.2282  0.1769  0.2962
12239SOL    HW147646   2.997   0.753   0.614 -0.1681  1.8661  0.1020
12239SOL    HW247647   3.144   0.701   0.565  0.1362  0.7448  2.1688
12240SOL     OW47648   2.129   9.502   1.290  0.4265 -0.2521  0.1104
12240SOL    HW147649   2.031   9.488   1.280  0.3507  1.3259 -1.4850
12240SOL    HW247650   2.156   9.480   1.384 -1.2304 -1.8555  0.2358
12241SOL     OW47651   2.564   2.111   0.883  0.1096 -0.7097  0.4672
12241SOL    HW147652   2.549   2.129   0.980  1.1423 -1.3754  0.7540
12241SOL    HW247653   2.476   2.111   0.835 -0.4339 -0.7003  1.4550
12242SOL     OW47654   2.380   0.511   1.092 -0.1827 -0.3845  0.3919
12242SOL    HW147655   2.375   0.502   0.993  0.7952  0.3616  0.2741
12242SOL    HW247656   2.461   0.564   1.117 -2.0183  1.9873  1.4419
12243SOL     OW47657   3.365   0.785   4.600  0.3810  0.0616 -0.0735
12243SOL    HW147658   3.381   0.804   4.503 -1.2100 -0.7403 -0.5064
12243SOL    HW247659   3.319   0.697   4.610 -0.5188  0.6666  1.3385
12244SOL     OW47660   8.996   1.610   0.866  0.3989 -0.3796  0.2936
12244SOL    HW147661   8.948   1.683   0.915  0.3974 -0.2266  0.0619
12244SOL    HW247662   9.080   1.646   0.826  0.7078 -0.6459  0.6956
12245SOL     OW47663   0.481   7.346   0.642 -0.6834 -0.2771 -0.3605
12245SOL    HW147664   0.420   7.267   0.642 -1.0127 -0.0210 -0.5730
12245SOL    HW247665   0.535   7.346   0.558 -2.9495  1.4752 -1.8725
12246SOL     OW47666   1.491   7.252   1.805 -0.2845  0.0015  0.1076
12246SOL    HW147667   1.535   7.177   1.757 -1.6340 -0.9813  0.3912
12246SOL    HW247668   1.394   7.256   1.780 -0.5704  0.6718  1.2750
12247SOL     OW47669   2.252   8.014   0.004  0.2286  0.1708  0.1011
12247SOL    HW147670   2.238   8.034   0.100  0.1081  0.3681  0.0427
12247SOL    HW247671   2.260   8.099  -0.048  0.9198  0.0689  0.0280
12248SOL     OW47672   7.655   1.145   0.258  0.1008 -0.4860 -0.1193
12248SOL    HW147673   7.724   1.134   0.329  0.2344  0.9130 -0.0193
12248SOL    HW247674   7.698   1.176   0.174 -0.4691  0.8935  0.0891
12249SOL     OW47675   2.116   0.461   3.395  0.2090 -0.2072  0.2623
12249SOL    HW147676   2.063   0.410   3.327  2.0268 -3.9651  1.5533
12249SOL    HW247677   2.208   0.479   3.359 -0.5683  2.8628 -0.4123
12250SOL     OW47678   7.816   9.595   3.100 -0.3784 -0.0315  0.7858
12250SOL    HW147679   7.727   9.630   3.127 -0.1109  0.9030  0.4542
12250SOL    HW247680   7.821   9.497   3.121 -1.2371  0.0576  1.4042
12251SOL     OW47681   8.804   9.060   2.073  0.8455 -0.4148 -0.2118
12251SOL    HW147682   8.780   8.967   2.046  0.5214 -0.9275  1.7461
12251SOL    HW247683   8.802   9.068   2.173  2.2871  1.3070 -0.2717
12252SOL     OW47684   0.688   0.393   3.214 -0.1645 -0.0718 -0.0875
12252SOL    HW147685   0.682   0.340   3.129 -0.5696 -0.4999  0.2043
12252SOL    HW247686   0.692   0.331   3.292 -1.2511  0.3214  0.2971
12253SOL     OW47687   4.550   9.155   5.336  0.4845 -0.5115 -0.6736
12253SOL    HW147688   4.480   9.089   5.365 -0.2896  0.2385 -0.7948
12253SOL    HW247689   4.589   9.127   5.249  0.2942 -0.9061 -0.6336
12254SOL     OW47690   2.496   1.244   4.835  0.0116 -0.0294 -0.4210
12254SOL    HW147691   2.548   1.172   4.789  2.0612  0.3937  1.1637
12254SOL    HW247692   2.499   1.328   4.780  1.2625  0.0727 -0.2122
12255SOL     OW47693   0.381   5.541   5.351  0.5040 -0.8393  0.7765
12255SOL    HW147694   0.305   5.554   5.287 -0.2461  2.2983  2.1870
12255SOL    HW247695   0.465   5.524   5.299 -0.1416  1.3206 -1.0701
12256SOL     OW47696   9.323   1.752   5.383  0.0668  0.2453 -0.3469
12256SOL    HW147697   9.262   1.673   5.388 -0.1849  0.5403  1.5775
12256SOL    HW247698   9.372   1.761   5.469  1.4842  1.0978 -1.2305
12257SOL     OW47699   1.715   9.959   0.359  0.0469  0.0620 -0.2871
12257SOL    HW147700   1.690   9.874   0.405 -0.8318  0.1380 -0.6141
12257SOL    HW247701   1.814   9.973   0.366 -0.2971  1.1564  3.5098
12258SOL     OW47702   9.752   7.053   2.810  0.5274 -0.0321 -0.1567
12258SOL    HW147703   9.735   7.046   2.711 -0.7726  0.6983  0.0014
12258SOL    HW247704   9.669   7.028   2.859  0.7098  1.0732  0.7188
12259SOL     OW47705   1.545   8.892   4.955 -0.0182 -0.8867  0.0883
12259SOL    HW147706   1.493   8.967   4.995  1.8905  0.9282 -0.7475
12259SOL    HW247707   1.605   8.853   5.024 -0.1947 -0.9032  0.2323
12260SOL     OW47708   8.211   5.045   4.433 -0.5481  0.1391 -0.8725
12260SOL    HW147709   8.262   5.092   4.361  0.6622  1.0897  0.5868
12260SOL    HW247710   8.275   5.005   4.498 -1.6483  0.7864  0.6354
12261SOL     OW47711   4.932   1.025   0.395 -0.2262 -0.3011 -0.1210
12261SOL    HW147712   4.867   1.100   0.386  0.5984  0.5335  0.6938
12261SOL    HW247713   4.892   0.941   0.360 -1.4572  0.3601 -0.3159
12262SOL     OW47714   3.778   1.108   0.105 -0.0020 -0.0577 -0.4378
12262SOL    HW147715   3.725   1.028   0.078 -1.3249  0.5999  0.1876
12262SOL    HW247716   3.874   1.095   0.078 -0.2724 -1.6901 -0.6460
12263SOL     OW47717   3.698   6.951   2.864 -0.1103  0.4680 -0.2531
12263SOL    HW147718   3.672   6.917   2.774  2.0693 -2.5324  0.1734
12263SOL    HW247719   3.620   6.940   2.927 -1.0103  0.7738 -1.3038
12264SOL     OW47720   4.305   1.615   0.576  0.1076  0.0973  0.0848
12264SOL    HW147721   4.266   1.670   0.502  0.8496  2.2661  1.2735
12264SOL    HW247722   4.231   1.569   0.626 -0.6027  0.9624 -0.1705
12265SOL     OW47723   8.892   1.232   5.536 -0.0046  0.6659  0.5955
12265SOL    HW147724   8.906   1.326   5.569  0.3353  0.9086 -0.2374
12265SOL    HW247725   8.806   1.197   5.573  0.0086  1.1936  1.1540
12266SOL     OW47726   3.799   2.188   2.062  0.3335  0.4504 -0.4201
12266SOL    HW147727   3.713   2.216   2.020  0.2470 -0.1184 -0.6190
12266SOL    HW247728   3.814   2.242   2.146 -0.1926  0.5774 -0.4054
12267SOL     OW47729   9.696   4.133   4.449 -0.3526 -0.1223 -0.4603
12267SOL    HW147730   9.658   4.042   4.437  0.1302 -0.6642  1.8821
12267SOL    HW247731   9.628   4.193   4.492  0.0748 -0.0112  0.0758
12268SOL     OW47732   5.377   2.606   3.129 -0.3288 -0.4225  0.2779
12268SOL    HW147733   5.287   2.650   3.124 -0.4412 -0.6999 -0.2323
12268SOL    HW247734   5.449   2.676   3.131 -0.5641 -0.1964  0.9396
12269SOL     OW47735   0.908   6.962   1.566 -0.6439  0.1185 -0.5021
12269SOL    HW147736   0.942   6.872   1.594 -1.0309  0.4461  1.1011
12269SOL    HW247737   0.808   6.961   1.563 -0.6655  0.6194 -0.0155
12270SOL     OW47738   3.521   4.711   0.774 -0.2734  0.6827  0.4782
12270SOL    HW147739   3.424   4.735   0.774  0.2491  2.8796  1.2776
12270SOL    HW247740   3.541   4.654   0.854 -0.7962  0.5734  0.5373
12271SOL     OW47741   1.612   9.724   0.497 -0.3074 -0.7050  0.0714
12271SOL    HW147742   1.549   9.751   0.424 -1.9047 -0.6858  1.4165
12271SOL    HW247743   1.667   9.647   0.467 -1.8172 -1.4889 -0.7275
12272SOL     OW47744   2.075   6.504   1.984 -0.1088 -0.2624  0.1517
12272SOL    HW147745   2.131   6.566   1.930 -0.7767 -1.4893 -2.0171
12272SOL    HW247746   1.985   6.544   1.998  0.6466  0.8438  1.9276
12273SOL     OW47747   8.556   6.576   2.046  0.3601  0.1008  0.1210
12273SOL    HW147748   8.621   6.631   2.099 -0.9768  0.0225  1.8765
12273SOL    HW247749   8.529   6.627   1.965  3.7181 -0.4683 -1.4554
12274SOL     OW47750   5.420   7.498   3.519 -0.4711 -0.1023  0.6436
12274SOL    HW147751   5.430   7.592   3.485  1.1664 -1.6816 -3.5412
12274SOL    HW247752   5.505   7.470   3.564 -0.4886 -0.0046  0.7376
12275SOL     OW47753   3.758   8.686   4.814 -0.2674 -0.0585  0.0550
12275SOL    HW147754   3.673   8.634   4.827 -0.1254 -0.8345 -2.0018
12275SOL    HW247755   3.761   8.721   4.721  1.2143  0.8308  0.4309
12276SOL     OW47756   1.076   4.504   4.518 -0.5626  0.1871  0.0445
12276SOL    HW147757   1.159   4.471   4.563  0.2456 -0.1700 -1.7003
12276SOL    HW247758   1.010   4.430   4.510  0.3280 -0.4421 -1.7244
12277SOL     OW47759   8.972   8.378   2.989 -0.2223 -0.3147 -0.1218
12277SOL    HW147760   9.054   8.321   2.990  0.7336  1.0078 -1.8328
12277SOL    HW247761   8.956   8.415   3.080  1.3532 -0.1775  0.1080
12278SOL     OW47762   2.046   7.376   4.268  1.1780 -0.3428  0.0673
12278SOL    HW147763   2.022   7.298   4.327  0.9466 -1.2699 -1.2285
12278SOL    HW247764   2.044   7.460   4.322 -2.1421 -0.7555  0.6592
12279SOL     OW47765   8.413   3.654   1.016  0.0288 -0.0508 -0.0271
12279SOL    HW147766   8.406   3.599   1.100 -1.4522 -0.7514 -0.5775
12279SOL    HW247767   8.359   3.610   0.944  1.0508  0.7025 -1.2671
12280SOL     OW47768   1.193   6.023   1.397 -0.6361  0.8377  0.9730
12280SOL    HW147769   1.268   6.044   1.334 -0.3053 -1.3916  0.5784
12280SOL    HW247770   1.106   6.026   1.348 -0.8309  3.2043  1.3816
12281SOL     OW47771   4.110   2.089   4.331 -0.3507  0.0831 -0.0871
12281SOL    HW147772   4.178   2.128   4.394 -1.7792 -0.9333  2.1492
12281SOL    HW247773   4.067   2.163   4.280  2.2033  0.7773 -1.3500
12282SOL     OW47774   4.367   7.714   1.586  0.2533 -0.4130 -0.3035
12282SOL    HW147775   4.269   7.699   1.600  0.1986  0.1582 -0.0821
12282SOL    HW247776   4.419   7.640   1.630 -0.0666 -0.6012 -0.2424
12283SOL     OW47777   4.191   8.318   4.088 -0.3669  0.3490  0.1837
12283SOL    HW147778   4.148   8.391   4.035 -0.6820  0.0955  0.0889
12283SOL    HW247779   4.172   8.230   4.045 -0.5956  0.1440  0.6995
12284SOL     OW47780   1.771   1.806   3.248 -0.0247  0.0236 -0.3892
12284SOL    HW147781   1.836   1.839   3.316 -2.6245 -1.5274  2.9950
12284SOL    HW247782   1.732   1.884   3.199  2.7897  1.0797 -1.0484
12285SOL     OW47783   9.917   6.484   3.423  0.3086 -0.1953  0.0206
12285SOL    HW147784   9.895   6.571   3.381 -0.0809 -0.3892 -0.1765
12285SOL    HW247785   9.888   6.485   3.519 -4.4977 -1.9321 -1.2651
12286SOL     OW47786   5.838   9.741   1.548  0.2564 -0.6251 -0.0269
12286SOL    HW147787   5.771   9.792   1.494  0.7791 -0.7505 -0.8105
12286SOL    HW247788   5.845   9.782   1.639 -3.1605 -2.5091  1.1719
12287SOL     OW47789   4.793   8.976   4.400 -0.1906  0.3354 -0.0504
12287SOL    HW147790   4.767   9.051   4.461 -0.6036  1.1990 -1.2724
12287SOL    HW247791   4.885   8.945   4.423 -0.2055  0.8892  0.7761
12288SOL     OW47792   2.332   8.950   1.207 -0.4349 -0.5013  0.0989
12288SOL    HW147793   2.297   8.864   1.243  1.9710 -1.6470 -0.1996
12288SOL    HW247794   2.377   9.001   1.281 -0.1054 -0.4230 -0.1546
12289SOL     OW47795   9.978   1.235   2.505  0.7209  0.2794  0.5266
12289SOL    HW147796  10.078   1.237   2.514  0.6952  0.0328  0.8964
12289SOL    HW247797   9.937   1.286   2.580  0.5626  0.2597  0.4531
12290SOL     OW47798   8.783   7.317   1.772  0.2487 -0.4535 -0.7299
12290SOL    HW147799   8.704   7.300   1.830 -0.2160 -0.4104 -1.3399
12290SOL    HW247800   8.758   7.382   1.700  0.9844 -0.0425 -0.6159
12291SOL     OW47801   2.995   3.632   3.438 -0.4503  0.0638  0.6056
12291SOL    HW147802   2.991   3.715   3.493  0.4098  0.7792 -0.3747
12291SOL    HW247803   2.908   3.620   3.390 -1.7906 -1.4348  3.3077
12292SOL     OW47804   6.489   9.271   4.042 -0.5316  0.1529  0.1511
12292SOL    HW147805   6.494   9.264   4.142  0.8051  0.9711  0.1613
12292SOL    HW247806   6.581   9.268   4.004 -1.0564 -0.4526 -1.0855
12293SOL     OW47807   3.033   9.421   4.338  0.7187 -0.1049 -0.5754
12293SOL    HW147808   2.953   9.434   4.279 -0.5539 -1.7744  0.6939
12293SOL    HW247809   3.048   9.503   4.392  0.0612  0.3551 -1.0781
12294SOL     OW47810   1.504   1.243   5.577  0.0728 -0.2597  0.0498
12294SOL    HW147811   1.587   1.298   5.574  0.2927 -0.6680 -1.5596
12294SOL    HW247812   1.508   1.171   5.508 -1.7197 -0.1407 -0.2206
12295SOL     OW47813   2.704   4.118   1.447  0.0820  0.2209  0.4058
12295SOL    HW147814   2.633   4.172   1.403 -0.1480  0.0104  0.5201
12295SOL    HW247815   2.792   4.165   1.437 -0.3659  1.4220  1.8550
12296SOL     OW47816   1.530   8.651   1.330  0.2160  0.0358  0.6787
12296SOL    HW147817   1.562   8.738   1.294 -0.0049 -0.3221 -0.3921
12296SOL    HW247818   1.468   8.668   1.407  0.0318  0.8359  0.3585
12297SOL     OW47819   1.213   3.305   3.734 -0.8264  0.3879  0.0566
12297SOL    HW147820   1.255   3.298   3.824  0.2040 -0.9508 -0.4977
12297SOL    HW247821   1.218   3.399   3.701  0.4013  0.5396  0.6541
12298SOL     OW47822   6.823   0.933   2.171 -0.3424  0.2351 -0.0858
12298SOL    HW147823   6.900   0.923   2.234 -0.0298 -1.3097 -0.6888
12298SOL    HW247824   6.749   0.982   2.217  1.0662  1.9437  0.4207
12299SOL     OW47825   0.302   4.441   0.649  0.4149 -0.4686  0.0217
12299SOL    HW147826   0.401   4.428   0.638  0.2666 -0.4841 -1.3252
12299SOL    HW247827   0.266   4.492   0.572 -0.7883 -1.2434  0.0612
12300SOL     OW47828   7.598   7.266   3.600 -0.2293 -0.0820 -0.1356
12300SOL    HW147829   7.528   7.256   3.672  0.4139  0.0233  0.5105
12300SOL    HW247830   7.686   7.285   3.642  0.1636 -0.0557 -0.9633
12301SOL     OW47831   9.165   6.156   1.062  0.4896 -0.1151  0.2022
12301SOL    HW147832   9.262   6.160   1.037  0.2510  1.1956 -0.6005
12301SOL    HW247833   9.139   6.242   1.107 -0.8384  0.5288 -1.7108
12302SOL     OW47834   1.194   9.670   1.462  0.1013  0.0735  0.3683
12302SOL    HW147835   1.154   9.663   1.371 -1.0529  0.3433  0.8384
12302SOL    HW247836   1.267   9.603   1.472  1.1032  0.9060 -1.1870
12303SOL     OW47837   4.509   9.187   0.369 -0.2560  0.1537  0.2827
12303SOL    HW147838   4.462   9.217   0.286  1.5738  1.5931 -0.2620
12303SOL    HW247839   4.457   9.217   0.450 -1.3663 -0.1257 -0.3150
12304SOL     OW47840   8.000   6.951   3.739  0.4915 -0.0382  0.3198
12304SOL    HW147841   7.906   6.951   3.705  0.1795 -0.1372  1.1735
12304SOL    HW247842   8.060   6.907   3.671  0.0234  0.5397 -0.4783
12305SOL     OW47843   9.941   4.069   1.583 -0.1271  0.2548  0.3156
12305SOL    HW147844   9.918   4.079   1.680  2.4635 -0.7953  1.0783
12305SOL    HW247845   9.861   4.036   1.533 -0.6562 -2.1886  2.6584
12306SOL     OW47846   2.437   9.871   1.684  0.0265  0.5548 -0.4237
12306SOL    HW147847   2.368   9.888   1.755 -0.8000 -0.1495 -1.0529
12306SOL    HW247848   2.477   9.958   1.655  2.8344  0.6213  3.3366
12307SOL     OW47849   3.766   9.596   1.576 -0.7627 -0.0229 -0.0541
12307SOL    HW147850   3.728   9.504   1.584 -0.0752 -0.3373 -0.4241
12307SOL    HW247851   3.711   9.659   1.631 -0.9558 -0.7351  0.5778
12308SOL     OW47852   8.746   7.694   5.036  0.2756  0.4086 -0.0230
12308SOL    HW147853   8.673   7.655   5.093  0.7340 -0.3271  0.0572
12308SOL    HW247854   8.835   7.672   5.075  0.5388  2.0364  0.3490
12309SOL     OW47855   9.022   2.778   3.584 -0.0347  0.1177  0.5393
12309SOL    HW147856   9.113   2.741   3.564  0.7135  1.6659  1.0217
12309SOL    HW247857   9.029   2.847   3.656 -1.7003 -0.2720  1.0943
12310SOL     OW47858   9.122   1.560   5.387  0.2817  0.2570 -0.0097
12310SOL    HW147859   9.041   1.596   5.341 -0.8034 -3.6003 -1.2841
12310SOL    HW247860   9.094   1.494   5.457  2.3404 -4.4553 -3.4026
12311SOL     OW47861   9.253   9.932   1.349 -0.4238  0.4464 -0.0974
12311SOL    HW147862   9.269   9.983   1.265  0.5618  0.3667  0.0411
12311SOL    HW247863   9.254   9.834   1.330  1.0783  0.3912  0.2209
12312SOL     OW47864   3.523   3.558   0.578 -0.4279 -0.3433 -0.0801
12312SOL    HW147865   3.517   3.475   0.634  0.7946 -1.0414 -0.9668
12312SOL    HW247866   3.571   3.537   0.493  2.0118  1.8480  0.7174
12313SOL     OW47867   9.893   0.504   3.457  0.1133  0.3845  0.1954
12313SOL    HW147868   9.839   0.579   3.418  0.1178 -0.0756 -0.7095
12313SOL    HW247869   9.836   0.422   3.463  0.6740 -0.0849 -0.6956
12314SOL     OW47870   3.124   2.322   0.498  0.3562  0.7502  0.3736
12314SOL    HW147871   3.188   2.250   0.525 -1.2071 -0.9325 -0.2514
12314SOL    HW247872   3.102   2.379   0.577 -1.3794 -1.8849  1.8920
12315SOL     OW47873   1.425   4.608   1.168 -0.6265 -0.6161 -0.0070
12315SOL    HW147874   1.360   4.671   1.125 -0.7969 -1.1064 -0.4724
12315SOL    HW247875   1.515   4.621   1.127 -1.0040 -1.7887 -1.2402
12316SOL     OW47876   0.053   9.138   2.814  0.2747 -0.3817  0.3099
12316SOL    HW147877   0.065   9.067   2.884  1.7020  0.9438  1.4641
12316SOL    HW247878  -0.026   9.195   2.838 -0.5538 -1.2470 -0.3358
12317SOL     OW47879   6.354   0.000   1.545  0.4696  0.2863  0.1017
12317SOL    HW147880   6.431   0.035   1.598  0.8454  0.5072 -0.5854
12317SOL    HW247881   6.388  -0.052   1.467 -0.0567  1.2388 -0.7824
12318SOL     OW47882   2.130   9.992   5.230  0.2724 -0.0196  0.4967
12318SOL    HW147883   2.190   9.979   5.150  0.5202  1.0901  0.4919
12318SOL    HW247884   2.077   9.909   5.245  0.5053 -0.3844 -0.5963
12319SOL     OW47885   0.334   7.191   0.184 -0.1287 -0.4216 -0.8407
12319SOL    HW147886   0.351   7.153   0.093  1.0736 -1.6359 -0.1270
12319SOL    HW247887   0.247   7.240   0.184  0.7848  1.2755 -3.1651
12320SOL     OW47888   8.052   2.404   0.701 -0.6666 -0.3131  0.3446
12320SOL    HW147889   7.954   2.425   0.702 -0.5376  0.3994 -0.6244
12320SOL    HW247890   8.095   2.453   0.625  0.5926  0.0405  1.2804
12321SOL     OW47891   0.139   0.642   0.834  0.2192  0.3324  0.5890
12321SOL    HW147892   0.179   0.579   0.767  0.7881  1.1937  0.1177
12321SOL    HW247893   0.201   0.718   0.851 -0.8218  1.2242  0.5130
12322SOL     OW47894   9.033   5.468   3.783 -0.0756 -0.3876 -0.6164
12322SOL    HW147895   8.950   5.522   3.775  0.0218 -0.0849  0.4077
12322SOL    HW247896   9.042   5.408   3.703 -0.0831  1.2323 -1.8427
12323SOL     OW47897   3.403   6.068   4.702 -0.4451 -0.2770 -0.0874
12323SOL    HW147898   3.411   5.970   4.680  0.6490 -0.1173 -0.4483
12323SOL    HW247899   3.366   6.078   4.794  1.6283 -1.0909  0.8688
12324SOL     OW47900   4.434   8.536   4.036  0.2200  0.1411 -0.8098
12324SOL    HW147901   4.381   8.460   4.074  2.2250  1.3732  5.0621
12324SOL    HW247902   4.374   8.615   4.023 -0.8885 -0.8809 -2.0077
12325SOL     OW47903   2.582   0.184   0.808  0.2196  0.7398  0.1669
12325SOL    HW147904   2.667   0.224   0.842 -0.2102  2.0737 -0.2942
12325SOL    HW247905   2.598   0.142   0.718  1.2665 -2.4537  1.7732
12326SOL     OW47906   7.521   8.411   2.174  0.3868 -0.1025 -0.3277
12326SOL    HW147907   7.555   8.505   2.185 -0.4488  0.2024 -0.3572
12326SOL    HW247908   7.598   8.351   2.152  1.1161  0.3636  0.8790
12327SOL     OW47909   1.076   5.078   3.668  0.4817 -0.1671 -0.0967
12327SOL    HW147910   1.117   5.068   3.577 -1.2244 -0.4197 -0.8711
12327SOL    HW247911   0.987   5.032   3.669  0.0263  0.7117  1.3902
12328SOL     OW47912   2.882   5.357   2.661  0.4711 -0.7955 -0.1407
12328SOL    HW147913   2.792   5.389   2.691  0.8540  0.8042 -0.6184
12328SOL    HW247914   2.873   5.269   2.615 -1.2600  0.5560 -2.5170
12329SOL     OW47915   1.615   8.342   2.901  0.0836 -0.1406  0.5049
12329SOL    HW147916   1.605   8.243   2.889 -1.4419  0.1436 -0.7502
12329SOL    HW247917   1.707   8.370   2.873 -0.3732 -0.8495 -1.8417
12330SOL     OW47918   4.599   3.736   2.327 -0.0333 -0.0856  0.0212
12330SOL    HW147919   4.690   3.744   2.367  0.2083 -4.0334  0.4428
12330SOL    HW247920   4.607   3.706   2.232 -0.8632  1.0293 -0.4059
12331SOL     OW47921   9.585   3.072   0.353  0.0385 -0.3396 -0.0958
12331SOL    HW147922   9.504   3.016   0.335 -1.0024  0.9414  0.5728
12331SOL    HW247923   9.659   3.044   0.291 -0.7368 -1.8668 -0.3499
12332SOL     OW47924   3.338   7.025   1.072 -0.0902 -0.1312 -0.0420
12332SOL    HW147925   3.357   7.122   1.059 -1.7025  0.0902 -0.8474
12332SOL    HW247926   3.290   7.012   1.159  0.1911 -0.2149  0.1010
12333SOL     OW47927   2.205   9.955   2.980  0.2424 -0.4379 -0.2064
12333SOL    HW147928   2.250  10.041   3.006  0.1389 -0.4246 -0.0683
12333SOL    HW247929   2.110   9.957   3.012 -0.5732  0.5266 -2.5590
12334SOL     OW47930   1.658   8.537   2.336 -0.0882 -0.1023 -0.1615
12334SOL    HW147931   1.624   8.590   2.413  1.2175 -3.0737  2.5437
12334SOL    HW247932   1.758   8.537   2.336 -0.0635 -1.5594 -0.7900
12335SOL     OW47933   4.512   1.821   4.771  0.5728 -0.3711  0.2602
12335SOL    HW147934   4.489   1.840   4.866 -1.9235 -0.1065 -0.3800
12335SOL    HW247935   4.476   1.732   4.745  0.8826 -0.2636 -0.5625
12336SOL     OW47936   9.155   3.855   4.448  0.0649  0.0925  0.3773
12336SOL    HW147937   9.135   3.863   4.545 -0.0052  0.0674  0.3654
12336SOL    HW247938   9.192   3.942   4.414  1.1589 -0.2487  0.6703
12337SOL     OW47939   3.646   2.327   5.150 -0.6372 -0.4188 -0.5240
12337SOL    HW147940   3.731   2.367   5.115  0.6084 -2.1886  0.3346
12337SOL    HW247941   3.618   2.374   5.234  0.5174 -0.9633  0.1848
12338SOL     OW47942   2.552   6.831   1.283  0.5393 -0.6059 -0.4159
12338SOL    HW147943   2.496   6.833   1.200 -0.1168  2.5062  0.0307
12338SOL    HW247944   2.492   6.838   1.363  1.3593 -0.2541  0.1787
12339SOL     OW47945   1.375   3.373   1.801  0.4609 -0.7601  0.7650
12339SOL    HW147946   1.317   3.317   1.742 -0.8233  0.2688  1.0244
12339SOL    HW247947   1.421   3.444   1.747 -0.1392 -0.2835  0.8708
12340SOL     OW47948   9.927   5.298   5.451 -0.7114  0.6931 -0.1842
12340SOL    HW147949   9.954   5.381   5.499 -1.9718  1.7026 -1.1680
12340SOL    HW247950   9.993   5.278   5.378 -0.2061  0.6120  0.2933
12341SOL     OW47951   5.635   0.586   1.101  0.0107  0.3930  0.5132
12341SOL    HW147952   5.578   0.546   1.173 -1.1614  0.9943 -0.0595
12341SOL    HW247953   5.625   0.533   1.017 -0.5397  1.0990  0.1192
12342SOL     OW47954   1.867   2.199   4.938 -0.0340  0.3567  0.1168
12342SOL    HW147955   1.840   2.103   4.948 -0.5666  0.5487  0.5480
12342SOL    HW247956   1.891   2.218   4.843  0.5366 -0.3250  0.1206
12343SOL     OW47957   3.251   3.869   5.058  0.2052 -0.1905  0.0947
12343SOL    HW147958   3.231   3.895   4.964 -0.8399 -0.9213  0.1092
12343SOL    HW247959   3.323   3.929   5.094  0.9760 -0.2451 -1.3223
12344SOL     OW47960   7.210   9.234   4.007  0.2822 -0.2333 -0.0165
12344SOL    HW147961   7.201   9.150   4.062  0.3127 -1.6810 -2.1673
12344SOL    HW247962   7.192   9.313   4.065 -1.1569 -1.7906  1.7546
12345SOL     OW47963   2.932   8.033   1.817 -0.2352  0.1066  0.0647
12345SOL    HW147964   2.896   7.952   1.771 -0.0845 -0.1191  0.3446
12345SOL    HW247965   2.863   8.105   1.817 -1.2108 -0.8117  1.8660
12346SOL     OW47966   0.142   1.014   0.738  0.3959 -0.2397 -0.4471
12346SOL    HW147967   0.168   1.102   0.699 -0.7960 -0.2783 -1.3538
12346SOL    HW247968   0.069   1.028   0.805  0.3692 -0.5029 -0.4213
12347SOL     OW47969   1.465   9.405   1.715 -0.0244  0.4188  0.1588
12347SOL    HW147970   1.396   9.374   1.780 -1.8681  2.4362 -0.7495
12347SOL    HW247971   1.423   9.417   1.625  1.7053  0.9002 -0.6059
12348SOL     OW47972   8.409   6.383   0.094 -0.4955 -0.6753  0.0952
12348SOL    HW147973   8.444   6.325   0.020 -0.4848 -1.1283  0.4520
12348SOL    HW247974   8.484   6.438   0.132 -0.6253  0.0279 -0.6481
12349SOL     OW47975   9.329   3.801   5.166 -0.0901 -0.6157 -0.0559
12349SOL    HW147976   9.400   3.812   5.096 -0.5676 -1.8728 -0.7584
12349SOL    HW247977   9.351   3.720   5.222  0.2037  0.2887  1.1507
12350SOL     OW47978   7.524   0.040   1.329  0.1527  0.3809 -0.3328
12350SOL    HW147979   7.428   0.066   1.320 -0.0568 -0.2270  0.1608
12350SOL    HW247980   7.565   0.035   1.238 -1.6944 -4.7167 -1.0272
12351SOL     OW47981   9.560   5.792   3.843  0.0217  0.0580 -0.4001
12351SOL    HW147982   9.586   5.739   3.762 -1.3877  0.0880 -0.8865
12351SOL    HW247983   9.516   5.732   3.910 -1.8569  0.6494 -1.0779
12352SOL     OW47984   9.855   3.061   5.335 -0.2261  0.0019  0.5177
12352SOL    HW147985   9.950   3.079   5.312  0.4320  0.5487  3.4654
12352SOL    HW247986   9.800   3.143   5.320 -0.0235  0.0288 -0.0766
12353SOL     OW47987   7.190   1.349   2.433 -0.1849  0.6532  0.5920
12353SOL    HW147988   7.263   1.281   2.421 -0.6940 -0.1754  2.0575
12353SOL    HW247989   7.202   1.395   2.521 -0.4557  1.7226  0.0724
12354SOL     OW47990   0.147   1.851   2.294  0.6400 -1.0228  0.0426
12354SOL    HW147991   0.190   1.883   2.210  0.5087  2.2066  1.1539
12354SOL    HW247992   0.218   1.830   2.361  0.6368  1.3136  0.8179
12355SOL     OW47993   3.400   6.091   0.362 -0.5072  0.4108 -0.3897
12355SOL    HW147994   3.403   6.190   0.373  0.9110  0.3600 -0.2662
12355SOL    HW247995   3.374   6.048   0.448  0.1128  0.6068 -0.1042
12356SOL     OW47996   6.465   7.843   3.724  0.0615  0.3130 -0.9585
12356SOL    HW147997   6.561   7.823   3.743 -0.5142 -0.8445  0.7889
12356SOL    HW247998   6.438   7.800   3.637  0.5915 -1.0740 -0.4513
12357SOL     OW47999   2.686   9.883   3.314 -0.6122  0.0244 -0.0935
12357SOL    HW148000   2.719   9.959   3.258  1.1967 -0.0507  0.8563
12357SOL    HW248001   2.703   9.796   3.267 -1.5984  0.1127 -0.6397
12358SOL     OW48002   0.877   5.113   5.183  0.4925 -0.0854 -0.9091
12358SOL    HW148003   0.793   5.059   5.172  0.0270  0.7160 -1.3803
12358SOL    HW248004   0.859   5.208   5.156  1.2840  0.3201 -0.0235
12359SOL     OW48005   2.381   1.690   0.084 -0.4868  0.5679 -0.1934
12359SOL    HW148006   2.427   1.635   0.014 -1.3274  0.6709 -0.8401
12359SOL    HW248007   2.428   1.679   0.171  1.1310  1.1676 -0.9783
12360SOL     OW48008   1.143   2.048   0.761 -0.1309 -0.0012  0.6113
12360SOL    HW148009   1.169   2.034   0.665 -2.5967  1.1672 -0.2510
12360SOL    HW248010   1.226   2.052   0.817  1.4975  1.6850 -1.7997
12361SOL     OW48011   0.560   9.385   3.708 -0.1812  0.6115 -0.1994
12361SOL    HW148012   0.515   9.312   3.759  0.0586  0.7339  0.1914
12361SOL    HW248013   0.551   9.368   3.610  1.1171 -0.7156 -0.0994
12362SOL     OW48014   1.461   0.807   1.667 -0.5667 -0.0878  0.1720
12362SOL    HW148015   1.547   0.832   1.711  0.0370 -0.2283 -0.9081
12362SOL    HW248016   1.458   0.708   1.653 -1.2891 -0.1865  1.0001
12363SOL     OW48017   3.354   6.829   2.607  0.1446  0.8432 -0.5153
12363SOL    HW148018   3.299   6.806   2.527  2.0391  1.7828 -2.1451
12363SOL    HW248019   3.300   6.886   2.670 -2.0817 -1.7607 -0.0152
12364SOL     OW48020   7.397   0.394   4.272  0.0874 -0.1254 -0.3438
12364SOL    HW148021   7.482   0.424   4.229 -0.0550  2.0548  0.8294
12364SOL    HW248022   7.418   0.335   4.350  0.6261  2.3030  1.3702
12365SOL     OW48023   8.920   3.489   0.353  0.7946  0.7207 -0.0414
12365SOL    HW148024   8.981   3.558   0.314  0.5097  0.0527 -1.7435
12365SOL    HW248025   8.889   3.428   0.280 -0.1424 -0.2945  1.1874
12366SOL     OW48026   9.320   4.963   2.202  0.1157  0.0558 -0.2163
12366SOL    HW148027   9.247   5.011   2.251 -1.6211 -2.6060 -0.0865
12366SOL    HW248028   9.402   4.959   2.260  0.5020  3.2891 -0.4631
12367SOL     OW48029   3.843   5.598   0.685  0.0178  0.0739 -0.4384
12367SOL    HW148030   3.788   5.679   0.705 -0.0444 -0.5194  1.8918
12367SOL    HW248031   3.785   5.527   0.645 -0.5082  0.1585  0.1667
12368SOL     OW48032   5.213   1.287   1.782 -0.0517 -0.6546 -0.1331
12368SOL    HW148033   5.170   1.206   1.822  2.6595 -0.8449  2.5361
12368SOL    HW248034   5.306   1.264   1.752  1.4150  1.8571  2.3340
12369SOL     OW48035   1.055   3.832   5.137  0.6577 -0.2412 -0.1377
12369SOL    HW148036   1.030   3.929   5.133 -0.9708 -0.7033 -1.5064
12369SOL    HW248037   0.987   3.783   5.191  1.5467 -0.6227  0.6531
12370SOL     OW48038   0.911   0.498   3.906  0.1391  0.5014  0.0577
12370SOL    HW148039   0.820   0.526   3.879 -0.2467 -1.2444 -0.5015
12370SOL    HW248040   0.978   0.530   3.839 -0.1989  0.7075 -0.1772
12371SOL     OW48041   7.869   2.010   3.796 -0.2389 -0.2701 -0.0977
12371SOL    HW148042   7.961   2.044   3.819  0.4441 -0.7969 -1.9267
12371SOL    HW248043   7.801   2.076   3.827  0.7845  0.2747  1.0262
12372SOL     OW48044   0.851   1.613   1.156  0.3573 -0.1591 -0.0027
12372SOL    HW148045   0.924   1.663   1.111 -0.5066  1.1327  0.0035
12372SOL    HW248046   0.762   1.641   1.119 -0.3533  0.7168  2.2496
12373SOL     OW48047   9.754   7.587   3.445  0.9113 -0.4368  0.8123
12373SOL    HW148048   9.783   7.681   3.426  0.5378 -0.2646  1.0674
12373SOL    HW248049   9.736   7.539   3.359 -1.5669  0.5911  0.7185
12374SOL     OW48050   6.037   0.937   4.731 -0.0969  0.0095  0.2523
12374SOL    HW148051   6.033   0.956   4.829 -0.4853  1.9593 -0.1187
12374SOL    HW248052   5.947   0.952   4.690 -0.4544 -2.8018 -0.0803
12375SOL     OW48053   2.464   3.491   3.300  0.7985 -0.4232 -0.0049
12375SOL    HW148054   2.533   3.472   3.370 -1.0004 -0.1333  1.8986
12375SOL    HW248055   2.417   3.407   3.276  1.0998 -0.4391 -0.5659
12376SOL     OW48056   1.921   8.368   0.999 -0.3677  0.4738  0.1634
12376SOL    HW148057   1.920   8.270   1.017  0.4371  0.3328 -0.5295
12376SOL    HW248058   1.871   8.388   0.915  0.0696  0.5751 -0.0746
12377SOL     OW48059   4.702   0.832   5.327  0.3418  0.6258  0.4741
12377SOL    HW148060   4.745   0.898   5.265  0.6562  1.2366  1.3383
12377SOL    HW248061   4.761   0.752   5.337 -0.1025  0.1450 -0.6833
12378SOL     OW48062   3.848   9.903   2.492 -0.0930 -0.1430 -0.0970
12378SOL    HW148063   3.944   9.927   2.507 -0.7555  3.3582 -1.0083
12378SOL    HW248064   3.796   9.925   2.575 -0.1038 -2.2870  0.4921
12379SOL     OW48065   9.835   9.060   1.450  0.4205  0.0729  0.2681
12379SOL    HW148066   9.912   9.025   1.398 -0.4884 -1.0478 -0.3424
12379SOL    HW248067   9.801   9.144   1.408  1.5864  0.8237  0.8067
12380SOL     OW48068   9.717   6.189   3.746  0.7552 -0.4093 -0.1859
12380SOL    HW148069   9.658   6.178   3.826  0.9622 -0.6383 -0.0628
12380SOL    HW248070   9.765   6.103   3.727  0.0940 -0.5909 -1.0475
12381SOL     OW48071   7.662   6.811   4.426 -0.0469  0.0623  0.0039
12381SOL    HW148072   7.698   6.821   4.334 -0.3809  2.4553  0.1138
12381SOL    HW248073   7.738   6.801   4.490  0.2538  0.2119 -0.3273
12382SOL     OW48074   1.547   8.168   3.253 -0.0835  0.2537 -0.8510
12382SOL    HW148075   1.636   8.127   3.233  0.0297 -0.3274  0.7884
12382SOL    HW248076   1.474   8.105   3.223  0.0659  0.2494 -1.2084
12383SOL     OW48077   7.879   9.279   3.686 -0.0442  0.2758 -0.4816
12383SOL    HW148078   7.781   9.261   3.682 -0.0717  0.5336 -1.2438
12383SOL    HW248079   7.923   9.214   3.747 -0.9751  1.4097  1.4360
12384SOL     OW48080   3.792   4.030   4.097  0.7891  0.0218  0.4244
12384SOL    HW148081   3.863   4.016   4.166 -0.9302  0.1576  2.2254
12384SOL    HW248082   3.702   4.019   4.137 -0.2446 -2.2068 -2.3194
12385SOL     OW48083   1.986   0.524   4.591 -0.2921  0.4208 -0.2637
12385SOL    HW148084   1.944   0.536   4.681  1.1464 -1.1785  0.6353
12385SOL    HW248085   2.064   0.462   4.598 -0.3897 -0.0256 -2.6885
12386SOL     OW48086   3.936   2.526   0.394 -0.1616  0.1680 -0.3185
12386SOL    HW148087   3.923   2.608   0.449  0.5331 -0.3259  0.5968
12386SOL    HW248088   4.006   2.468   0.436 -1.7036 -1.6054 -0.1448
12387SOL     OW48089   8.768   5.447   2.472  0.0996 -0.3144 -0.1959
12387SOL    HW148090   8.802   5.427   2.380  0.5889  0.9151 -0.2923
12387SOL    HW248091   8.796   5.539   2.498 -1.0912 -0.2015  0.7051
12388SOL     OW48092   4.191   0.994   5.359  0.3310  0.0253  0.1855
12388SOL    HW148093   4.128   1.016   5.285  0.5860  1.5636  0.3938
12388SOL    HW248094   4.242   1.077   5.385  1.1211 -0.7720  1.2460
12389SOL     OW48095   0.786   5.000   2.376  0.1909 -0.2850  0.3116
12389SOL    HW148096   0.865   5.027   2.322  0.3018  0.4955  0.8653
12389SOL    HW248097   0.812   4.927   2.439 -0.2493 -2.1669 -1.5977
12390SOL     OW48098   0.177   8.911   4.576  0.4229  0.6187 -0.0205
12390SOL    HW148099   0.102   8.949   4.522  0.4521  2.6724  1.3299
12390SOL    HW248100   0.245   8.872   4.515  0.0870  2.1961 -1.4307
12391SOL     OW48101   9.732   1.150   3.092  0.0908  0.2399 -0.4824
12391SOL    HW148102   9.666   1.162   3.018  0.5964 -1.7203 -1.2702
12391SOL    HW248103   9.743   1.237   3.140 -2.0197  0.9427 -1.1942
12392SOL     OW48104   4.639   2.493   5.466  0.0645  0.1926 -0.1658
12392SOL    HW148105   4.556   2.470   5.515  1.3953 -0.4006  1.8734
12392SOL    HW248106   4.679   2.576   5.506  0.6127  0.2980 -0.9211
12393SOL     OW48107   1.636   3.645   3.898 -0.3279  0.5351  0.0923
12393SOL    HW148108   1.729   3.662   3.867  0.3669 -1.5098  0.9822
12393SOL    HW248109   1.604   3.722   3.953  1.4035  0.5676  1.0606
12394SOL     OW48110   8.062   0.732   4.847 -0.7068  0.1270 -0.2948
12394SOL    HW148111   7.963   0.723   4.859 -0.9244  0.3632 -1.7055
12394SOL    HW248112   8.079   0.796   4.771  0.5035 -0.7250 -0.7423
12395SOL     OW48113   2.690   7.454   5.597  0.3148  0.4825 -0.1916
12395SOL    HW148114   2.614   7.390   5.611  1.9415 -0.9066  2.7012
12395SOL    HW248115   2.766   7.406   5.553 -0.6230  2.0512 -3.7690
12396SOL     OW48116   0.917   6.021   4.391  0.3432  0.3748 -0.0273
12396SOL    HW148117   0.852   5.969   4.335  0.9276  0.0024 -0.3582
12396SOL    HW248118   0.976   5.958   4.441  2.5182  0.6981 -2.1142
12397SOL     OW48119   3.354   0.234   3.514 -0.1177 -0.1005 -0.3945
12397SOL    HW148120   3.409   0.316   3.527 -0.5726 -0.1071  1.6692
12397SOL    HW248121   3.276   0.236   3.576 -0.1651 -2.0696 -0.3729
12398SOL     OW48122   1.088   3.660   4.912  0.2101  0.0159 -0.2381
12398SOL    HW148123   1.015   3.602   4.947  1.2197  0.2041  2.2768
12398SOL    HW248124   1.087   3.748   4.960  3.0217 -0.5494  0.9635
12399SOL     OW48125   0.595   6.013   5.503  0.1818 -0.3568 -0.7464
12399SOL    HW148126   0.549   6.064   5.430 -1.1214 -1.1137 -0.4628
12399SOL    HW248127   0.685   6.053   5.520  0.0584  0.4862 -2.0359
12400SOL     OW48128   0.885   3.821   2.364 -0.1753 -0.1863 -0.7402
12400SOL    HW148129   0.815   3.790   2.428  1.1534 -1.7155  0.0316
12400SOL    HW248130   0.874   3.919   2.347  0.0338  0.4997  2.6422
12401SOL     OW48131   4.768   8.576   0.097  0.0604 -0.4461 -0.8291
12401SOL    HW148132   4.698   8.640   0.129 -0.6357 -0.9062 -1.4372
12401SOL    HW248133   4.812   8.533   0.176  0.6778  0.9229 -0.4013
12402SOL     OW48134   1.456   0.683   0.919 -0.2084  0.1741 -0.1085
12402SOL    HW148135   1.524   0.677   0.992 -0.9203 -0.0252  0.5532
12402SOL    HW248136   1.416   0.592   0.904  0.9104 -0.0700 -1.7057
12403SOL     OW48137   3.157   4.110   5.436 -0.4895  0.0062 -0.1113
12403SOL    HW148138   3.164   4.020   5.479  0.1145  0.9681  1.8627
12403SOL    HW248139   3.119   4.175   5.502 -0.3335  1.3464 -1.3220
12404SOL     OW48140   3.376   7.339   2.273  0.2475  0.0478 -0.3023
12404SOL    HW148141   3.446   7.357   2.204 -1.4822  0.4237 -2.0032
12404SOL    HW248142   3.343   7.245   2.263  0.6370 -0.1830  0.5983
12405SOL     OW48143   0.077   9.037   1.647  0.1191 -0.3788 -0.2196
12405SOL    HW148144   0.022   9.120   1.644  0.5044 -0.0651  0.9959
12405SOL    HW248145   0.022   8.962   1.683  0.3684 -0.1429  0.6804
12406SOL     OW48146   4.018   4.753   3.904 -0.5165 -0.3343 -0.2330
12406SOL    HW148147   4.007   4.656   3.927  0.1051 -0.9404 -2.4062
12406SOL    HW248148   3.947   4.780   3.839  0.5602  0.1181 -1.2414
12407SOL     OW48149   3.048   3.117   0.366 -0.2897  0.1363  0.8354
12407SOL    HW148150   3.050   3.090   0.462 -0.8275 -0.3023  0.7275
12407SOL    HW248151   2.956   3.147   0.342 -0.3713 -0.5549  0.2441
12408SOL     OW48152   3.807   5.643   2.844 -0.5647 -0.0683 -0.4283
12408SOL    HW148153   3.758   5.722   2.881 -1.2586 -0.8675  0.3626
12408SOL    HW248154   3.754   5.560   2.860  0.4913 -0.7898 -0.6215
12409SOL     OW48155   4.928   3.613   0.297  0.3855 -0.1745 -0.1125
12409SOL    HW148156   4.919   3.637   0.200 -0.7427 -2.0726 -0.4969
12409SOL    HW248157   5.001   3.546   0.308  1.6780  1.3337  0.5914
12410SOL     OW48158   7.046   0.478   0.342 -0.3331 -0.1747 -0.3382
12410SOL    HW148159   7.090   0.446   0.426 -0.3267  0.0201 -0.2678
12410SOL    HW248160   7.035   0.577   0.345 -0.2570 -0.1578 -0.6060
12411SOL     OW48161   9.173   2.064   3.086  0.5896  0.0911  0.0026
12411SOL    HW148162   9.258   2.014   3.071  1.6415  1.8276  0.0644
12411SOL    HW248163   9.173   2.103   3.178 -1.3276 -1.8687  0.8836
12412SOL     OW48164   7.248   0.483   3.395 -0.1551 -0.2641 -0.2505
12412SOL    HW148165   7.317   0.411   3.405 -0.5663 -0.5891  0.2657
12412SOL    HW248166   7.219   0.488   3.300 -0.0944 -0.7606 -0.2975
12413SOL     OW48167   8.260   9.750   0.047  0.2900 -0.3135  0.4020
12413SOL    HW148168   8.238   9.763  -0.050 -0.1828 -1.3539  0.3723
12413SOL    HW248169   8.233   9.832   0.098  0.4902  0.2175 -0.3312
12414SOL     OW48170   0.644   4.271   2.073 -0.2111  0.1689 -0.3520
12414SOL    HW148171   0.554   4.230   2.060  0.6638 -1.5908 -1.0401
12414SOL    HW248172   0.658   4.288   2.171 -1.9040  1.9617 -0.3860
12415SOL     OW48173   1.083   0.436   4.281  0.4356 -0.5214 -0.3935
12415SOL    HW148174   0.987   0.421   4.305 -0.1470  1.9835 -1.0279
12415SOL    HW248175   1.133   0.464   4.362 -0.5058  3.1948 -1.0079
12416SOL     OW48176   9.645   6.424   1.027 -0.1546  0.6942  0.0856
12416SOL    HW148177   9.723   6.377   0.985  0.0584  1.2027 -0.0917
12416SOL    HW248178   9.564   6.412   0.970 -0.2683 -0.0509  0.4001
12417SOL     OW48179   0.126   2.325   1.508 -0.0421  0.0627  0.4004
12417SOL    HW148180   0.101   2.284   1.420 -0.5139  0.2873  0.4252
12417SOL    HW248181   0.047   2.324   1.569  0.1160  0.4532  0.6132
12418SOL     OW48182   1.300   1.075   2.379 -0.1262  0.3321 -0.2223
12418SOL    HW148183   1.313   1.173   2.361  1.8369 -0.0059 -0.8199
12418SOL    HW248184   1.386   1.027   2.363 -1.1885 -1.5724 -0.3778
12419SOL     OW48185   1.122   0.653   4.736 -0.0313  0.8260 -0.0061
12419SOL    HW148186   1.037   0.680   4.781  0.2073  1.8780 -0.1602
12419SOL    HW248187   1.198   0.658   4.801  0.0616  0.8330 -0.1138
12420SOL     OW48188   3.720   8.485   3.639 -0.1983 -0.2679  0.4404
12420SOL    HW148189   3.783   8.412   3.610 -0.5514 -1.1541  1.8488
12420SOL    HW248190   3.767   8.547   3.702 -0.0661  0.3989 -0.3117
12421SOL     OW48191   0.244   2.125   5.497 -0.3160  0.7528 -0.2559
12421SOL    HW148192   0.232   2.147   5.400  0.3661  0.8507 -0.3215
12421SOL    HW248193   0.329   2.074   5.509  0.4429  2.1552  0.4949
12422SOL     OW48194   0.744   3.929   5.363 -0.6113 -0.3865  0.5666
12422SOL    HW148195   0.752   4.024   5.333 -1.8979 -0.5357 -0.2498
12422SOL    HW248196   0.657   3.891   5.332  0.4403 -2.2190 -0.1956
12423SOL     OW48197   5.778   0.642   1.810 -0.5441  0.2588  0.1589
12423SOL    HW148198   5.806   0.675   1.900  3.3664 -0.9362 -0.5045
12423SOL    HW248199   5.764   0.543   1.815 -2.5871  0.5265 -0.0569
12424SOL     OW48200   4.602   3.860   3.490 -0.4970 -0.1412  0.2621
12424SOL    HW148201   4.540   3.782   3.483 -0.3479 -0.2848  0.5206
12424SOL    HW248202   4.667   3.844   3.565 -0.6331  0.3460  0.4876
12425SOL     OW48203   1.790   8.030   2.012 -0.5292 -0.1932  0.3130
12425SOL    HW148204   1.717   8.094   1.988  0.3830  0.3870 -1.0022
12425SOL    HW248205   1.769   7.940   1.974 -0.9403 -0.2328  0.6253
12426SOL     OW48206   4.419   8.970   4.869  0.0332  0.1717  0.3750
12426SOL    HW148207   4.425   8.958   4.770 -1.4316 -1.2144  0.4228
12426SOL    HW248208   4.502   8.936   4.912  0.5145  0.4162 -0.3449
12427SOL     OW48209   4.852   3.190   1.749  0.2629 -0.4352  0.1428
12427SOL    HW148210   4.850   3.246   1.832 -0.8248  0.6714 -0.6070
12427SOL    HW248211   4.772   3.211   1.693  0.4702 -1.8854 -0.7291
12428SOL     OW48212   4.936   0.471   2.862  0.2744 -0.2597 -0.0662
12428SOL    HW148213   4.913   0.568   2.858  0.3227 -0.2558 -0.2836
12428SOL    HW248214   4.914   0.434   2.953 -0.3763 -0.2057 -0.1968
12429SOL     OW48215   5.332   0.586   0.977 -0.4901  0.1341 -0.4952
12429SOL    HW148216   5.312   0.678   0.943 -3.0210  0.0525  0.6643
12429SOL    HW248217   5.248   0.543   1.010  1.1559 -1.3795  1.9407
12430SOL     OW48218   1.777   2.820   0.185  0.3901 -0.2222  0.2963
12430SOL    HW148219   1.851   2.857   0.242  0.3540 -0.7017  0.6569
12430SOL    HW248220   1.806   2.821   0.089  0.0826  1.4759  0.2087
12431SOL     OW48221   3.834   7.191   2.930 -0.1109 -0.1074  0.1947
12431SOL    HW148222   3.792   7.133   2.861 -0.4361 -0.1292  0.4099
12431SOL    HW248223   3.763   7.234   2.986  0.0743  1.4226 -0.7135
12432SOL     OW48224   5.660   9.954   2.399  0.2345 -0.3561 -0.2033
12432SOL    HW148225   5.759   9.962   2.394  0.1416  1.0147 -0.1126
12432SOL    HW248226   5.631   9.954   2.495  0.0373  0.9708 -0.2494
12433SOL     OW48227   0.053   6.142   3.991 -0.3000  0.2215  0.3124
12433SOL    HW148228   0.042   6.043   4.006 -0.1189  0.0278 -0.7595
12433SOL    HW248229  -0.019   6.191   4.040 -0.5885 -0.4703  0.5884
12434SOL     OW48230   0.109   8.049   1.218 -0.0685 -0.0997 -0.7269
12434SOL    HW148231   0.118   7.950   1.234 -1.9237 -0.2877 -0.7466
12434SOL    HW248232   0.118   8.068   1.120  2.1945 -0.0147 -0.5196
12435SOL     OW48233   3.205   3.057   4.397 -0.0685  0.1166 -0.2923
12435SOL    HW148234   3.224   2.958   4.391  2.2833  0.4853  0.2786
12435SOL    HW248235   3.120   3.071   4.447  0.0541 -1.6072  0.4640
12436SOL     OW48236   9.771   8.516   4.060 -0.4033  0.3852 -0.3914
12436SOL    HW148237   9.858   8.532   4.013 -0.5359 -0.2817 -0.8802
12436SOL    HW248238   9.749   8.418   4.056 -1.1562  0.5474 -0.2374
12437SOL     OW48239   9.265   0.893   2.655  0.2798  0.6735 -0.0932
12437SOL    HW148240   9.192   0.956   2.681 -0.0224  0.9247 -1.4919
12437SOL    HW248241   9.340   0.944   2.614 -0.8547 -0.0237 -3.2058
12438SOL     OW48242   7.388   8.389   3.233  0.7322 -0.0875 -0.0500
12438SOL    HW148243   7.487   8.384   3.242  0.7382 -0.1370 -0.1428
12438SOL    HW248244   7.347   8.302   3.261  0.7785 -0.3800 -0.8802
12439SOL     OW48245   0.490   5.852   3.468  0.1330 -0.0638  0.4259
12439SOL    HW148246   0.569   5.843   3.529  0.2642 -0.2902  0.2241
12439SOL    HW248247   0.522   5.862   3.374 -0.0782 -0.0912  0.3518
12440SOL     OW48248   8.801   9.359   1.062  0.5456 -0.8374 -0.4392
12440SOL    HW148249   8.861   9.286   1.027 -0.4456 -2.7649  1.7940
12440SOL    HW248250   8.735   9.320   1.126 -1.3229  1.7305 -0.7477
12441SOL     OW48251   4.827   3.834   2.834  0.0976  0.4051 -0.3443
12441SOL    HW148252   4.844   3.924   2.875  0.1875 -0.0925  0.7235
12441SOL    HW248253   4.731   3.827   2.808 -0.2411  0.2885  0.8987
12442SOL     OW48254   6.890   3.866   0.076  0.1836 -0.1444 -0.1735
12442SOL    HW148255   6.924   3.813  -0.001 -2.6142  1.5069 -2.6927
12442SOL    HW248256   6.894   3.964   0.054 -0.9501  0.3530  1.6618
12443SOL     OW48257   9.765   5.234   1.593 -0.0745 -0.3889  0.4519
12443SOL    HW148258   9.741   5.153   1.539  0.0670 -1.4841  1.9737
12443SOL    HW248259   9.699   5.307   1.575 -2.7227 -2.2484  2.1283
12444SOL     OW48260   1.436   9.832   3.898  0.5775 -0.2141  0.0531
12444SOL    HW148261   1.535   9.835   3.910  0.6099 -1.4400  0.1433
12444SOL    HW248262   1.413   9.767   3.826 -0.2482 -1.0815  1.0879
12445SOL     OW48263   9.317   5.262   0.499 -0.3935  0.3278  0.6139
12445SOL    HW148264   9.383   5.239   0.571 -0.6183  1.1811  1.0907
12445SOL    HW248265   9.288   5.177   0.454  0.2564 -0.1524  1.0726
12446SOL     OW48266   1.594   5.720   3.484  0.3736 -0.3444 -0.0203
12446SOL    HW148267   1.645   5.762   3.559 -0.2236  1.1003 -0.4050
12446SOL    HW248268   1.536   5.647   3.519  2.0682 -1.4427  0.5354
12447SOL     OW48269   3.949   0.900   2.258 -0.4576 -0.1121 -0.3054
12447SOL    HW148270   4.006   0.975   2.291 -0.6228 -0.5321  0.9529
12447SOL    HW248271   3.853   0.918   2.281 -0.6312 -0.2189 -0.9207
12448SOL     OW48272   5.575   9.926   2.969  0.2751 -0.1130  0.1646
12448SOL    HW148273   5.574  10.010   3.023  0.9011  0.3793 -0.5719
12448SOL    HW248274   5.636   9.859   3.011  0.4172  0.1048  0.3048
12449SOL     OW48275   1.738   9.341   2.133 -0.5008  0.5702 -0.4270
12449SOL    HW148276   1.735   9.417   2.197 -1.3202  0.7024 -0.6124
12449SOL    HW248277   1.698   9.260   2.176 -0.6933  0.5561 -0.6286
12450SOL     OW48278   2.212   2.669   1.754  0.4511  0.1281  0.1364
12450SOL    HW148279   2.214   2.694   1.657  0.6271  0.8662  0.3295
12450SOL    HW248280   2.162   2.583   1.765  1.9078 -0.8712 -0.8093
12451SOL     OW48281   1.254   8.078   5.136  0.2235  0.2357  0.4082
12451SOL    HW148282   1.326   8.059   5.203 -1.6816 -1.4449  2.0395
12451SOL    HW248283   1.271   8.025   5.053  2.7072  2.4834 -0.6178
12452SOL     OW48284   0.591   3.007   1.817  0.3043 -0.0836 -0.2486
12452SOL    HW148285   0.515   2.942   1.819  0.6790 -0.6403 -2.6778
12452SOL    HW248286   0.654   2.982   1.744  2.5760  0.6891  1.4168
12453SOL     OW48287   8.452   3.466   3.213  0.6137 -0.4356 -0.0520
12453SOL    HW148288   8.491   3.436   3.126 -0.5373 -1.0942 -0.3482
12453SOL    HW248289   8.481   3.560   3.232  0.4948 -0.1186 -1.3876
12454SOL     OW48290   7.417   5.105   4.018 -0.3249  0.2884  0.6484
12454SOL    HW148291   7.404   5.043   4.096 -2.1355  1.5489  1.3644
12454SOL    HW248292   7.340   5.097   3.955  0.2117  0.6707 -0.0707
12455SOL     OW48293   3.397   7.959   5.230  0.0177 -0.2099 -0.1004
12455SOL    HW148294   3.440   7.880   5.274  0.7380  0.0273 -0.3715
12455SOL    HW248295   3.305   7.934   5.200 -0.2043 -0.5869  0.8830
12456SOL     OW48296   3.031   7.611   5.639 -0.6155 -0.0435  0.2837
12456SOL    HW148297   3.041   7.570   5.729  2.0327 -0.6318 -0.2316
12456SOL    HW248298   3.060   7.546   5.569  0.0253  1.3682 -0.7974
12457SOL     OW48299   0.818   5.157   1.235  0.0471 -0.1832  0.3658
12457SOL    HW148300   0.765   5.109   1.165  0.3023  0.3563 -0.2045
12457SOL    HW248301   0.902   5.194   1.194  0.4675 -0.3292  1.0797
12458SOL     OW48302   0.042   4.125   4.103 -0.3892  0.5268  0.7398
12458SOL    HW148303   0.051   4.026   4.091 -1.3798  0.7163 -1.8936
12458SOL    HW248304  -0.053   4.152   4.085  0.2869  2.1662 -0.5070
12459SOL     OW48305   8.628   9.810   1.635 -0.7915 -0.8063  0.0019
12459SOL    HW148306   8.625   9.710   1.641 -1.1812 -0.8919 -1.4876
12459SOL    HW248307   8.721   9.839   1.613 -1.0430 -0.9634 -1.3399
12460SOL     OW48308   2.517   6.065   2.771  0.8079 -0.5251 -0.0393
12460SOL    HW148309   2.604   6.031   2.807  0.6312 -2.4078 -1.3339
12460SOL    HW248310   2.531   6.103   2.680  0.4553  0.1961  0.1998
12461SOL     OW48311   9.861   8.398   0.051 -0.2713  0.1521  0.3904
12461SOL    HW148312   9.769   8.364   0.071  0.4961 -1.9539  0.4772
12461SOL    HW248313   9.927   8.325   0.066  1.5708  2.0036  1.5802
12462SOL     OW48314   2.898   5.217   1.371  0.2039  0.0447  0.6911
12462SOL    HW148315   2.928   5.142   1.430  0.1636 -1.1175 -0.7635
12462SOL    HW248316   2.801   5.234   1.387  0.5594  0.8636  2.1617
12463SOL     OW48317   0.787   3.765   0.365 -0.2021  0.1933 -0.2841
12463SOL    HW148318   0.803   3.672   0.334 -0.9389  0.4181 -1.3751
12463SOL    HW248319   0.855   3.827   0.324 -0.1793  0.2500 -0.1626
12464SOL     OW48320   1.592   0.184   0.286  0.2461  0.3799  0.1839
12464SOL    HW148321   1.507   0.198   0.338  0.8573 -0.0462  1.2960
12464SOL    HW248322   1.622   0.090   0.296  0.3358  0.2782 -1.0105
12465SOL     OW48323   8.628   7.494   0.238  0.4828 -0.0903 -0.1035
12465SOL    HW148324   8.676   7.570   0.282 -0.7290  0.3528  0.4855
12465SOL    HW248325   8.577   7.528   0.159  0.6308 -0.4419 -0.3496
12466SOL     OW48326   8.932   9.654   0.926  0.2904  0.1298 -0.6540
12466SOL    HW148327   8.838   9.653   0.893  0.0865  2.6781 -0.2162
12466SOL    HW248328   8.933   9.639   1.025  0.4578 -1.1111 -0.8308
12467SOL     OW48329   0.379   7.583   0.411 -0.1369  0.2447 -0.0114
12467SOL    HW148330   0.432   7.528   0.346  0.7150  1.2642 -0.1999
12467SOL    HW248331   0.313   7.525   0.458  1.2628 -1.1064  0.3342
12468SOL     OW48332   7.580   4.583   5.220  0.5533 -0.2965  0.5583
12468SOL    HW148333   7.534   4.622   5.140 -1.5997  0.1552  1.9683
12468SOL    HW248334   7.633   4.655   5.266  1.7587 -0.5468 -0.4003
12469SOL     OW48335   1.309   9.452   4.763  0.6902  0.5413  0.9752
12469SOL    HW148336   1.388   9.509   4.739  0.0197  0.7957 -0.6837
12469SOL    HW248337   1.282   9.397   4.684  0.0973 -0.6423  1.9695
12470SOL     OW48338   2.725   4.087   2.303  0.7551 -0.0950  0.2984
12470SOL    HW148339   2.754   4.100   2.209  1.1377  0.2842  0.4648
12470SOL    HW248340   2.625   4.084   2.307  0.7420 -0.2542 -0.1348
12471SOL     OW48341   9.856   1.007   2.870  0.0803 -0.2175 -0.5626
12471SOL    HW148342   9.807   1.050   2.946  0.2116  1.0454 -1.1944
12471SOL    HW248343   9.954   1.003   2.891  0.0779 -0.1437 -0.5383
12472SOL     OW48344   8.861   3.546   2.699  0.0174  0.3790  0.3453
12472SOL    HW148345   8.879   3.606   2.776  1.3798  0.2950  0.0994
12472SOL    HW248346   8.940   3.545   2.638 -1.3338  1.0364 -1.4520
12473SOL     OW48347   1.560   7.181   3.642  0.4216  0.1543 -0.1639
12473SOL    HW148348   1.659   7.188   3.629  0.5528 -0.3469  0.5972
12473SOL    HW248349   1.523   7.271   3.666  0.4066  0.7726 -2.3820
12474SOL     OW48350   9.133   4.334   2.528  0.2461  0.0450 -0.1159
12474SOL    HW148351   9.034   4.333   2.538  0.2047  0.6924 -0.3862
12474SOL    HW248352   9.160   4.277   2.451  0.1236 -0.5438  0.2779
12475SOL     OW48353   9.576   8.738   2.563  0.6656  0.5272 -0.0571
12475SOL    HW148354   9.657   8.795   2.579 -0.4316  1.5834  2.0321
12475SOL    HW248355   9.585   8.652   2.613  0.5449  0.6238  0.1352
12476SOL     OW48356   0.419   3.022   4.769  0.0764 -0.5430 -0.3772
12476SOL    HW148357   0.361   3.009   4.850  1.9017  1.0692  1.2258
12476SOL    HW248358   0.507   2.977   4.784  0.5309  0.0149 -1.3411
12477SOL     OW48359   2.557   5.304   1.205 -0.3261  0.0590 -0.4702
12477SOL    HW148360   2.575   5.293   1.107 -0.4496 -0.2364 -0.4607
12477SOL    HW248361   2.503   5.386   1.220 -0.7536 -0.1774 -0.7031
12478SOL     OW48362   0.608   0.926   2.834 -0.1341 -0.0860 -0.0469
12478SOL    HW148363   0.691   0.898   2.882 -0.6106 -1.8339 -0.2122
12478SOL    HW248364   0.632   0.953   2.740  0.1497 -1.4274 -0.3767
12479SOL     OW48365   5.247   0.932   1.712 -0.1786 -0.3662  0.3510
12479SOL    HW148366   5.172   0.956   1.649 -0.2638  0.1512  0.6528
12479SOL    HW248367   5.331   0.978   1.683 -0.6740  1.4770  1.7708
12480SOL     OW48368   7.245   0.129   2.490  0.2365  0.2352 -0.0071
12480SOL    HW148369   7.180   0.153   2.417 -0.7691  3.3728  1.8629
12480SOL    HW248370   7.202   0.062   2.551 -0.1132  0.0525 -0.4449
12481SOL     OW48371   4.085   0.958   2.653  0.9456  0.0469  0.0456
12481SOL    HW148372   4.112   0.884   2.592 -0.2922 -1.8615  1.7518
12481SOL    HW248373   4.136   1.041   2.629  0.1849 -0.4908 -3.8372
12482SOL     OW48374   5.755   0.721   3.978  0.2180  0.1362  0.2642
12482SOL    HW148375   5.747   0.769   3.890 -0.4547  0.9273  0.7588
12482SOL    HW248376   5.679   0.656   3.987  0.1500  0.2344  0.3828
12483SOL     OW48377   8.335   7.973   1.608  0.1358  0.1069 -0.2498
12483SOL    HW148378   8.382   7.971   1.696  2.3004  0.0634 -1.3622
12483SOL    HW248379   8.322   8.068   1.579  1.2437  0.1009 -0.7983
12484SOL     OW48380   9.717   5.560   2.495 -0.3870  0.1201 -0.4337
12484SOL    HW148381   9.639   5.499   2.481 -1.6492  1.6844 -0.3899
12484SOL    HW248382   9.783   5.548   2.421 -1.5497  0.1107 -1.4782
12485SOL     OW48383   3.607   1.352   2.008 -0.2376  0.6269  0.0857
12485SOL    HW148384   3.671   1.399   1.947 -1.1704 -0.4908 -1.7811
12485SOL    HW248385   3.609   1.254   1.989 -2.2074  0.5413  0.2671
12486SOL     OW48386   3.451   2.128   5.543 -0.5972 -0.0065  0.1676
12486SOL    HW148387   3.381   2.190   5.507 -0.8140 -0.5620 -0.3766
12486SOL    HW248388   3.419   2.086   5.628 -0.6520  0.2438  0.2708
12487SOL     OW48389   1.498   4.922   0.451  0.1796  0.2578  0.6861
12487SOL    HW148390   1.409   4.904   0.493 -0.3914  0.0630 -0.5772
12487SOL    HW248391   1.533   4.837   0.410 -2.2800  1.7383 -4.8511
12488SOL     OW48392   0.062   8.565   3.939 -0.3291  0.1090  0.4677
12488SOL    HW148393   0.086   8.625   4.015 -0.2310  0.1935  0.3700
12488SOL    HW248394   0.125   8.580   3.863 -1.0860  0.7966 -0.0367
12489SOL     OW48395   2.255   1.207   1.285  0.1225 -0.5983  0.1643
12489SOL    HW148396   2.183   1.225   1.351 -1.8238 -1.0856 -1.7495
12489SOL    HW248397   2.275   1.290   1.233 -0.8769 -1.0723 -1.0129
12490SOL     OW48398   2.179   7.536   0.082  0.0112  0.3569 -0.0269
12490SOL    HW148399   2.243   7.603   0.120  0.6141 -0.8825  1.2094
12490SOL    HW248400   2.101   7.583   0.040 -0.5590  1.8117  2.5470
12491SOL     OW48401   1.444   3.734   1.972 -0.7347  0.2423 -0.6548
12491SOL    HW148402   1.354   3.691   1.974 -0.6859 -0.2498 -4.4365
12491SOL    HW248403   1.511   3.668   1.937  0.7737  1.1668  0.4191
12492SOL     OW48404   0.268   1.904   2.004  0.0754 -0.0384  0.3323
12492SOL    HW148405   0.367   1.891   1.997 -0.0652 -2.0503  1.7547
12492SOL    HW248406   0.238   1.969   1.934  1.7801 -2.6374 -2.9236
12493SOL     OW48407   1.869   9.920   5.555  0.4043 -0.0076 -0.0066
12493SOL    HW148408   1.945   9.938   5.493  1.8013 -0.6795  1.4960
12493SOL    HW248409   1.851  10.001   5.610 -0.8233  0.5798 -1.2289
12494SOL     OW48410   1.499   7.795   4.641  0.5754  0.3248 -0.2059
12494SOL    HW148411   1.435   7.732   4.685  1.0380 -0.4747 -0.6668
12494SOL    HW248412   1.587   7.792   4.688  0.5465  0.7597 -0.1222
12495SOL     OW48413   1.232   6.868   0.343  0.4412  0.3756 -0.2792
12495SOL    HW148414   1.322   6.856   0.303 -0.5195  0.2498 -2.4522
12495SOL    HW248415   1.241   6.912   0.433  2.7209 -0.7180  0.0475
12496SOL     OW48416   6.484   1.313   4.250  0.0918 -0.2996  0.5152
12496SOL    HW148417   6.487   1.389   4.185  1.8903 -1.0729 -0.3549
12496SOL    HW248418   6.566   1.316   4.308 -0.5403 -0.7423  1.4329
12497SOL     OW48419   4.600   4.193   3.819 -0.3105 -0.7014 -0.0675
12497SOL    HW148420   4.503   4.198   3.793  0.3890 -1.9473 -3.0229
12497SOL    HW248421   4.639   4.284   3.818 -0.3487 -0.6592 -3.4286
12498SOL     OW48422   4.429   8.063   4.060  0.7941  0.8377  0.0941
12498SOL    HW148423   4.497   8.085   3.989  0.4155 -1.7651 -1.1495
12498SOL    HW248424   4.338   8.089   4.029  0.9522  2.2794  0.8227
12499SOL     OW48425   6.705   1.229   1.655  0.0078  0.1058 -0.3350
12499SOL    HW148426   6.622   1.196   1.700  1.3561 -1.4159  1.1009
12499SOL    HW248427   6.761   1.151   1.627  1.8983  1.1240  0.5279
12500SOL     OW48428   2.064   1.755   2.333 -1.1001  0.5312 -0.1946
12500SOL    HW148429   2.006   1.710   2.401 -1.4756  2.9062  1.0990
12500SOL    HW248430   2.151   1.705   2.325 -2.3507 -1.6710 -0.4145
12501SOL     OW48431   1.980   3.088   4.499  0.0789  0.4913 -0.5882
12501SOL    HW148432   1.904   3.028   4.526 -0.3472  1.0852 -0.4618
12501SOL    HW248433   2.044   3.097   4.575  0.9136 -0.9860 -1.0992
12502SOL     OW48434   5.310   3.841   0.560 -0.0374 -0.0455  0.4443
12502SOL    HW148435   5.278   3.915   0.619  0.2121  0.9321 -0.6290
12502SOL    HW248436   5.240   3.770   0.555 -0.6176  0.4947  0.8247
12503SOL     OW48437   7.982   1.011   0.748 -0.1828 -0.0381 -0.6562
12503SOL    HW148438   7.937   0.959   0.820 -1.0417 -0.6713 -1.6378
12503SOL    HW248439   8.070   0.970   0.727  0.6419  0.8851  0.8884
12504SOL     OW48440   5.923   7.341   3.588  0.5912  0.0736  0.0957
12504SOL    HW148441   5.867   7.317   3.509  1.0268  0.6412 -0.3938
12504SOL    HW248442   5.882   7.418   3.636  1.1178  0.7166 -0.4647
12505SOL     OW48443   9.081   4.476   1.291 -0.4487  0.0708  0.0443
12505SOL    HW148444   9.171   4.516   1.309 -0.6222  0.2291  0.5760
12505SOL    HW248445   9.089   4.407   1.219 -0.6922  3.3042 -3.2299
12506SOL     OW48446   9.625   4.525   0.391 -0.3031 -0.0806 -0.1913
12506SOL    HW148447   9.658   4.615   0.363 -0.1053 -0.0264  0.2134
12506SOL    HW248448   9.652   4.456   0.324  2.0320 -0.3040  0.9388
12507SOL     OW48449   2.498   9.750   4.247  0.0157  0.3620  0.2495
12507SOL    HW148450   2.456   9.832   4.208 -0.1475  0.0922 -0.1462
12507SOL    HW248451   2.502   9.759   4.347 -0.3341  0.6939  0.2362
12508SOL     OW48452   5.763   7.561   3.680 -0.6700 -0.9090  0.4739
12508SOL    HW148453   5.762   7.629   3.607 -0.2231 -0.3561  0.9748
12508SOL    HW248454   5.756   7.607   3.769 -3.9578 -1.7272  0.6826
12509SOL     OW48455   9.435   3.844   0.595 -0.3245  0.4460 -0.6066
12509SOL    HW148456   9.526   3.882   0.584  0.3036 -1.0796 -0.7649
12509SOL    HW248457   9.368   3.918   0.597  1.0241  1.6515  0.7429
12510SOL     OW48458   1.189   1.037   0.253 -0.3349  0.3291 -0.1986
12510SOL    HW148459   1.261   1.105   0.236 -0.9072  0.6768 -1.2673
12510SOL    HW248460   1.142   1.060   0.339 -0.0163  0.8321 -0.1542
12511SOL     OW48461   1.061   0.193   2.453  0.4090  0.0318 -0.5332
12511SOL    HW148462   1.097   0.286   2.444 -0.6892  0.4889 -0.3697
12511SOL    HW248463   0.982   0.194   2.514 -0.5422 -0.7412 -1.7085
12512SOL     OW48464   3.446   1.792   3.686  0.0870 -0.1332 -0.3413
12512SOL    HW148465   3.453   1.887   3.655  0.2444 -0.2340 -0.6206
12512SOL    HW248466   3.457   1.731   3.608 -0.0645 -0.3813 -0.1692
12513SOL     OW48467   8.816   3.163   1.574 -0.0779  0.5978 -0.0520
12513SOL    HW148468   8.865   3.209   1.648  2.7017 -1.7316 -0.3572
12513SOL    HW248469   8.815   3.221   1.494  2.0275  0.8035  0.0453
12514SOL     OW48470   2.175   3.676   1.551  0.5084 -0.0281 -0.5729
12514SOL    HW148471   2.135   3.591   1.585 -0.2999  1.2782  1.8128
12514SOL    HW248472   2.247   3.707   1.613 -0.1639  1.7768 -0.6650
12515SOL     OW48473   6.543   7.510   3.249  0.0669  0.3985  0.6614
12515SOL    HW148474   6.571   7.414   3.250 -1.2292  0.0166  1.6942
12515SOL    HW248475   6.443   7.516   3.255  0.0297  1.7875 -0.8715
12516SOL     OW48476   0.399   7.961   3.531  0.0355 -0.2208  0.1768
12516SOL    HW148477   0.490   7.927   3.555  0.3603  0.2399 -0.3780
12516SOL    HW248478   0.395   7.980   3.433 -0.9415 -1.0754  0.0383
12517SOL     OW48479   5.863   9.431   3.073  0.0898  0.3385  0.5611
12517SOL    HW148480   5.856   9.528   3.096 -0.4341  0.2130  0.9427
12517SOL    HW248481   5.952   9.413   3.032  0.6276  0.7693  1.5216
12518SOL     OW48482   9.596   1.799   3.306  0.5813  0.0159  0.3811
12518SOL    HW148483   9.628   1.735   3.236 -0.0134 -1.7498  1.7114
12518SOL    HW248484   9.657   1.795   3.385 -0.3406 -0.0300  1.0918
12519SOL     OW48485   8.288   9.276   2.178 -0.3512 -0.0201  0.3468
12519SOL    HW148486   8.365   9.266   2.240  0.3924 -0.2648 -0.5971
12519SOL    HW248487   8.317   9.326   2.096 -1.4534  0.7933  0.4348
12520SOL     OW48488   4.130   8.855   0.932 -0.2258  0.0482  0.4491
12520SOL    HW148489   4.095   8.862   1.025  1.4415 -0.5517  1.1285
12520SOL    HW248490   4.086   8.778   0.886 -1.2612  0.5175  0.6364
12521SOL     OW48491   2.512   7.295   4.066 -0.4692  0.1318 -0.3077
12521SOL    HW148492   2.516   7.391   4.039 -0.7976 -0.0751 -1.1153
12521SOL    HW248493   2.417   7.270   4.085 -0.2985  0.1516  0.6059
12522SOL     OW48494   6.031   0.202   2.193 -0.0743 -0.3114 -0.1259
12522SOL    HW148495   6.125   0.197   2.159 -0.7400 -0.3839 -1.9885
12522SOL    HW248496   6.018   0.131   2.263  1.3226 -0.1387  0.3357
12523SOL     OW48497   6.781   7.552   2.308  0.1455 -0.5516  0.0137
12523SOL    HW148498   6.728   7.469   2.325 -0.6015  0.0732  0.8055
12523SOL    HW248499   6.861   7.530   2.252  1.5411 -2.3107  2.6247
12524SOL     OW48500   8.267   6.648   0.928  0.6676 -0.1364 -0.0164
12524SOL    HW148501   8.253   6.614   0.835  1.3821  0.5617 -0.3795
12524SOL    HW248502   8.180   6.647   0.977  0.4895 -1.5474 -0.3351
12525SOL     OW48503   8.068   6.633   5.263 -0.5295 -0.4435 -0.4998
12525SOL    HW148504   8.078   6.650   5.164  1.9996 -3.3199 -0.8109
12525SOL    HW248505   7.985   6.581   5.279 -0.5960 -0.5729 -1.2191
12526SOL     OW48506   0.770   5.400   1.367 -0.5251  0.0368 -0.2037
12526SOL    HW148507   0.802   5.313   1.330 -0.2906  0.0360 -0.0038
12526SOL    HW248508   0.739   5.459   1.292  1.1831  0.5362 -0.5464
12527SOL     OW48509   1.144   3.549   1.667 -0.8188  0.3487  0.2249
12527SOL    HW148510   1.083   3.587   1.598 -1.3164 -0.6961  0.0868
12527SOL    HW248511   1.158   3.451   1.650 -1.0535  0.0432  1.6754
12528SOL     OW48512   7.575   3.657   4.707  0.2849  0.3350 -0.6669
12528SOL    HW148513   7.615   3.616   4.789 -2.4487 -0.9484  0.1114
12528SOL    HW248514   7.605   3.605   4.627 -1.0962 -1.7025  0.0698
12529SOL     OW48515   9.289   2.510   4.770  0.8004  0.8440  0.4582
12529SOL    HW148516   9.213   2.575   4.766  0.6381  0.6200 -0.2728
12529SOL    HW248517   9.265   2.429   4.717  0.3569 -0.4955  2.6526
12530SOL     OW48518   0.574   2.370   0.038 -0.1247  0.2776  0.3760
12530SOL    HW148519   0.650   2.387  -0.025  0.0505 -0.0830  0.4867
12530SOL    HW248520   0.537   2.457   0.070  0.6334  0.4464  0.7867
12531SOL     OW48521   1.802   4.872   2.651 -0.0871 -0.2777 -0.0231
12531SOL    HW148522   1.887   4.924   2.655 -0.1175 -0.2360  0.0925
12531SOL    HW248523   1.731   4.928   2.608 -0.0986 -0.2536  0.0274
12532SOL     OW48524   4.262   3.559   2.502 -0.9210 -0.4470 -0.0654
12532SOL    HW148525   4.354   3.522   2.484 -0.8245  0.1370 -0.7854
12532SOL    HW248526   4.212   3.564   2.416 -1.6626 -0.8459  0.3434
12533SOL     OW48527   6.420   4.293   0.450 -0.2243  0.0023  0.0151
12533SOL    HW148528   6.356   4.344   0.392 -1.4402 -1.1886  0.2771
12533SOL    HW248529   6.396   4.196   0.449  2.6060 -0.7593 -1.2298
12534SOL     OW48530   1.391   6.265   1.717 -0.5087  0.1995 -0.2489
12534SOL    HW148531   1.442   6.207   1.780 -1.9134 -1.1103 -0.2948
12534SOL    HW248532   1.455   6.325   1.667  0.8540 -0.6263  0.4867
12535SOL     OW48533   7.580   1.682   4.284  0.3584  0.9195 -0.2214
12535SOL    HW148534   7.506   1.653   4.224 -0.0684  0.3039  0.5971
12535SOL    HW248535   7.665   1.638   4.255 -0.1118 -0.4770  0.4570
12536SOL     OW48536   3.628   6.675   3.263 -0.1159  0.2142 -0.3917
12536SOL    HW148537   3.688   6.752   3.241 -1.1267  1.1387  0.0550
12536SOL    HW248538   3.573   6.652   3.183  0.2597 -0.1175 -0.5569
12537SOL     OW48539   7.986   5.838   4.979 -0.5101 -0.3385 -0.2494
12537SOL    HW148540   7.996   5.769   4.907 -1.8050 -0.3110 -0.4704
12537SOL    HW248541   7.964   5.794   5.065 -1.6934 -0.2002 -0.4653
12538SOL     OW48542   0.940   6.463   3.122  0.4332  0.0614 -0.0254
12538SOL    HW148543   0.867   6.471   3.190  1.1261  1.3020  0.5981
12538SOL    HW248544   0.911   6.507   3.037  0.2194 -0.0030  0.0128
12539SOL     OW48545   0.600   6.562   2.213 -0.5257  0.9768  0.3898
12539SOL    HW148546   0.692   6.591   2.240  0.5420 -0.7733 -1.2349
12539SOL    HW248547   0.577   6.477   2.259 -1.5010  1.6074  1.0783
12540SOL     OW48548   8.589   9.266   5.441 -0.3730  0.2605 -0.1975
12540SOL    HW148549   8.493   9.236   5.437 -0.8790  1.4239  2.0590
12540SOL    HW248550   8.597   9.354   5.394 -0.1563 -0.4049 -1.4191
12541SOL     OW48551   8.378   0.920   5.621  0.5254 -0.4048 -0.7521
12541SOL    HW148552   8.377   0.824   5.592  0.9393 -0.8304  0.5810
12541SOL    HW248553   8.381   0.924   5.721 -1.4154  1.0187 -0.7295
12542SOL     OW48554   4.200   6.336   2.079 -0.0681  0.3286  0.3377
12542SOL    HW148555   4.296   6.308   2.069 -0.4602 -1.0038  0.0737
12542SOL    HW248556   4.143   6.275   2.024 -1.2173  0.1424  1.7209
12543SOL     OW48557   9.846   4.441   1.101 -0.2279  0.0516  0.4191
12543SOL    HW148558   9.895   4.506   1.044 -0.2790 -0.2561  0.0201
12543SOL    HW248559   9.906   4.364   1.123 -0.2798  0.0600  0.5933
12544SOL     OW48560   2.575   4.470   3.733 -0.4921 -0.0838 -0.1322
12544SOL    HW148561   2.534   4.483   3.824 -2.3927  0.0401 -0.9809
12544SOL    HW248562   2.525   4.400   3.683 -0.1766  0.6378 -1.4973
12545SOL     OW48563   7.081   9.787   2.190 -0.1652 -0.4378  0.2337
12545SOL    HW148564   7.066   9.821   2.097  0.8944  0.1569  0.2816
12545SOL    HW248565   7.167   9.736   2.193  0.4009  0.5722  1.1672
12546SOL     OW48566   2.650   0.753   2.342  0.4900 -0.1328  0.2888
12546SOL    HW148567   2.585   0.690   2.384  0.0327  1.5470  2.1843
12546SOL    HW248568   2.724   0.772   2.406  0.0621  2.0651  0.1544
12547SOL     OW48569   8.401   2.928   2.884 -0.2747  0.1234  0.0634
12547SOL    HW148570   8.350   2.900   2.964  1.0731  0.4486  1.0585
12547SOL    HW248571   8.450   2.849   2.846  0.8315  0.4005  0.8742
12548SOL     OW48572   6.380   8.945   2.280 -0.5452  0.3338 -0.1530
12548SOL    HW148573   6.284   8.972   2.277 -0.4460  1.1716  2.7922
12548SOL    HW248574   6.387   8.851   2.313 -0.3079  0.4564  0.1414
12549SOL     OW48575   4.670   3.556   2.122  0.3125 -0.5706 -0.4316
12549SOL    HW148576   4.742   3.495   2.157  1.0958 -0.3550 -1.6413
12549SOL    HW248577   4.710   3.620   2.056 -1.2033 -1.2018 -1.9976
12550SOL     OW48578   0.817   4.074   1.518 -0.6661 -0.2924 -0.0171
12550SOL    HW148579   0.791   4.156   1.568  0.8530  0.0918  0.1932
12550SOL    HW248580   0.773   3.994   1.557 -1.3426  0.3022  0.4313
12551SOL     OW48581   9.283   8.042   0.482 -0.9561 -0.3248 -0.0783
12551SOL    HW148582   9.377   8.008   0.482 -0.6314  0.5685 -0.1702
12551SOL    HW248583   9.228   7.987   0.420 -0.7467 -1.5347  0.7870
12552SOL     OW48584   0.870   5.312   2.851 -0.1764  0.4885  0.0897
12552SOL    HW148585   0.821   5.399   2.857 -0.3245  0.3404  1.0503
12552SOL    HW248586   0.814   5.240   2.892  0.1328  0.0146 -0.3203
12553SOL     OW48587   5.244   8.514   3.539 -0.0899  0.8592  0.8029
12553SOL    HW148588   5.274   8.600   3.497 -1.1025  1.0423  0.4460
12553SOL    HW248589   5.177   8.534   3.611 -0.0685  0.3866  0.9502
12554SOL     OW48590   7.398   3.883   0.344 -0.2069 -0.0364  0.6233
12554SOL    HW148591   7.365   3.872   0.250 -0.4739  3.2269  0.2883
12554SOL    HW248592   7.332   3.935   0.397  0.2459 -1.2992  2.4877
12555SOL     OW48593   2.097   1.069   3.036 -0.2761  0.1380 -0.3141
12555SOL    HW148594   2.150   1.150   3.057  1.4628 -0.8595 -0.7837
12555SOL    HW248595   2.122   1.035   2.945  0.1045 -1.7520  0.4645
12556SOL     OW48596   1.187   6.111   2.019  0.5214  0.3956  0.1435
12556SOL    HW148597   1.089   6.131   2.030  0.2059  0.0400 -1.8272
12556SOL    HW248598   1.240   6.177   2.072 -0.8242 -0.5380  2.7139
12557SOL     OW48599   2.135   0.780   0.693 -0.0086  0.1150  0.1192
12557SOL    HW148600   2.100   0.737   0.776 -0.2912 -0.3200 -0.2207
12557SOL    HW248601   2.084   0.747   0.614 -1.4184  2.4327  0.0284
12558SOL     OW48602   1.070   7.336   0.019 -0.2313  0.0533 -0.1080
12558SOL    HW148603   1.110   7.426   0.039 -1.7517  0.9301 -0.9505
12558SOL    HW248604   0.995   7.318   0.082 -1.5441  0.4736 -1.5252
12559SOL     OW48605   4.204   3.694   1.512  0.3838 -0.5296 -0.3915
12559SOL    HW148606   4.253   3.625   1.458  0.8584 -0.6916  0.2374
12559SOL    HW248607   4.184   3.773   1.454  3.5073  0.5649 -0.1020
12560SOL     OW48608   2.957   6.779   3.728  0.2385 -0.0397 -1.3220
12560SOL    HW148609   3.037   6.754   3.673  0.3501 -0.8401 -0.8080
12560SOL    HW248610   2.922   6.867   3.698  0.2061 -0.5425 -2.7851
12561SOL     OW48611   4.008   4.751   5.197  0.0785 -0.6090 -0.7178
12561SOL    HW148612   3.938   4.713   5.137  0.0323 -2.7528  0.6554
12561SOL    HW248613   4.093   4.699   5.186 -0.3146 -1.8799  2.0358
12562SOL     OW48614   0.544   5.148   4.735 -1.2351  0.2135 -0.0401
12562SOL    HW148615   0.469   5.143   4.801  0.0993 -1.5600  1.3959
12562SOL    HW248616   0.595   5.233   4.750 -2.0066  0.6677  0.0300
12563SOL     OW48617   0.188   8.251   5.121 -0.1478 -0.1938 -0.2230
12563SOL    HW148618   0.158   8.179   5.183  0.2174 -0.2012 -0.0546
12563SOL    HW248619   0.108   8.296   5.081 -0.4110  0.5594  1.1128
12564SOL     OW48620   5.562   5.345   0.699  0.0712 -0.4402 -0.5587
12564SOL    HW148621   5.540   5.271   0.635  1.5042  0.3972 -2.0342
12564SOL    HW248622   5.529   5.432   0.662 -0.0600 -0.0904  0.3656
12565SOL     OW48623   7.664   3.852   0.023 -0.7491  0.0702 -0.0742
12565SOL    HW148624   7.666   3.765  -0.025 -0.8013  0.2100 -0.3308
12565SOL    HW248625   7.720   3.919  -0.025 -1.5224  0.4631 -0.4426
12566SOL     OW48626   2.045   9.267   4.909 -0.1153 -0.4078  0.3170
12566SOL    HW148627   2.091   9.347   4.873  0.7556 -0.3356  1.5925
12566SOL    HW248628   1.977   9.295   4.977 -1.9481 -0.5233 -1.4190
12567SOL     OW48629   4.862   8.785   2.927  0.1819 -0.0368  0.6901
12567SOL    HW148630   4.772   8.754   2.899  1.1104 -2.5274  0.3336
12567SOL    HW248631   4.920   8.795   2.846  0.6925 -0.0113  1.0559
12568SOL     OW48632   2.519   0.851   3.848 -0.2904  0.6441  0.5218
12568SOL    HW148633   2.483   0.944   3.856 -1.8648 -0.0147  1.4848
12568SOL    HW248634   2.505   0.818   3.755 -0.3444  1.1180  0.3592
12569SOL     OW48635   9.809   8.260   1.636 -0.7942  0.2489  0.1406
12569SOL    HW148636   9.822   8.289   1.731  0.0699  0.4737 -0.0433
12569SOL    HW248637   9.898   8.257   1.590 -1.3944  1.6831 -1.1138
12570SOL     OW48638   1.568   2.988   2.361  0.3335 -0.1088  0.3408
12570SOL    HW148639   1.587   3.016   2.267  2.0567 -1.1056  0.3777
12570SOL    HW248640   1.561   3.070   2.419 -0.4287  0.4918 -0.5854
12571SOL     OW48641   4.983   8.796   3.356 -0.5591 -0.1014 -0.4200
12571SOL    HW148642   4.987   8.698   3.374  3.1917  0.0085 -0.2363
12571SOL    HW248643   5.001   8.847   3.440  0.2541  0.6634 -1.0336
12572SOL     OW48644   8.191   3.122   2.412  0.5256 -0.3814  0.2240
12572SOL    HW148645   8.233   3.058   2.476 -0.6221 -0.6955  0.6633
12572SOL    HW248646   8.093   3.128   2.429  0.4112  0.5003 -0.6731
12573SOL     OW48647   3.730   2.306   3.391  0.1275 -0.0163 -0.2982
12573SOL    HW148648   3.705   2.285   3.296  0.4111 -0.0736 -0.3612
12573SOL    HW248649   3.667   2.374   3.428 -0.2649 -0.3360 -0.3787
12574SOL     OW48650   1.645   0.949   1.169 -0.6908  0.3897 -0.0743
12574SOL    HW148651   1.679   0.881   1.104  0.0112 -0.1372  0.8295
12574SOL    HW248652   1.622   1.033   1.121 -0.9685 -0.2728 -1.1187
12575SOL     OW48653   7.645   4.224   0.082  0.4776 -0.3822  0.3371
12575SOL    HW148654   7.552   4.253   0.058  0.9669  0.9684  0.0559
12575SOL    HW248655   7.642   4.167   0.165 -0.3182  1.8787  1.9007
12576SOL     OW48656   3.769   3.905   5.547 -0.0976 -0.0973 -0.4549
12576SOL    HW148657   3.740   3.996   5.577 -0.1826  0.7167 -2.8876
12576SOL    HW248658   3.720   3.836   5.600  0.3752  1.2384  1.8207
12577SOL     OW48659   1.562   8.812   3.411 -0.3602 -0.8397 -0.0616
12577SOL    HW148660   1.656   8.838   3.433 -0.2587 -0.8830 -0.4345
12577SOL    HW248661   1.505   8.821   3.492 -0.2674  0.2836 -0.1153
12578SOL     OW48662   1.217   4.588   0.215 -0.1281  0.7076  0.0642
12578SOL    HW148663   1.273   4.612   0.136 -1.9210 -0.3452 -1.5762
12578SOL    HW248664   1.230   4.491   0.237 -2.5299 -0.0035 -1.4285
12579SOL     OW48665   1.282   5.879   0.067 -0.5717 -0.1836  0.6133
12579SOL    HW148666   1.265   5.962   0.121  0.5750  0.2564  0.2957
12579SOL    HW248667   1.222   5.879  -0.013 -0.5478  0.3493  0.5929
12580SOL     OW48668   9.257   6.461   5.019  0.4172 -0.3899 -0.1372
12580SOL    HW148669   9.258   6.371   4.975 -2.9663  0.5251 -2.2417
12580SOL    HW248670   9.302   6.527   4.960 -1.0554  0.1487 -0.6835
12581SOL     OW48671   5.641   9.881   1.402 -0.1836 -0.3744 -0.1962
12581SOL    HW148672   5.574   9.943   1.442 -0.5985  0.6781 -2.4268
12581SOL    HW248673   5.674   9.920   1.316  3.1267 -0.9859  0.7397
12582SOL     OW48674   8.891   9.312   4.318 -0.3650  0.4317  0.3026
12582SOL    HW148675   8.793   9.313   4.299 -0.1037  0.4616 -1.0938
12582SOL    HW248676   8.930   9.225   4.286  0.0655  0.4104  0.8752
12583SOL     OW48677   4.572   2.277   0.169  0.3041  0.1366  0.3819
12583SOL    HW148678   4.499   2.254   0.233  0.6320 -1.6186  0.1322
12583SOL    HW248679   4.545   2.357   0.115 -0.6004  0.7068  1.6559
12584SOL     OW48680   1.077   3.813   4.063  0.6727 -0.1012  0.3410
12584SOL    HW148681   1.089   3.795   4.161 -1.8650  1.6789  1.0344
12584SOL    HW248682   1.090   3.910   4.045 -2.4076  0.2015 -0.4559
12585SOL     OW48683   7.128   9.651   4.464  0.2575  0.0803 -0.4030
12585SOL    HW148684   7.090   9.573   4.415 -1.5978  0.0325  1.0490
12585SOL    HW248685   7.091   9.736   4.425  1.3740  0.1923 -1.2308
12586SOL     OW48686   9.682   2.190   0.591  0.3291 -0.5770 -0.3307
12586SOL    HW148687   9.648   2.248   0.665  0.2587  0.3923 -1.1202
12586SOL    HW248688   9.680   2.094   0.621 -2.6428 -0.5169 -0.1373
12587SOL     OW48689   9.291   3.881   4.036  0.0301 -0.1686 -0.8515
12587SOL    HW148690   9.332   3.830   3.961 -1.0894 -1.6719 -0.4615
12587SOL    HW248691   9.191   3.878   4.029 -0.0720  2.2308 -0.9840
12588SOL     OW48692   3.576   8.513   0.647 -0.1184  0.6533 -0.1058
12588SOL    HW148693   3.522   8.449   0.701  0.6037 -1.6901 -2.0729
12588SOL    HW248694   3.638   8.564   0.708 -1.2870  0.0924  1.5787
12589SOL     OW48695   2.459   0.626   1.484 -0.5394 -0.0560 -0.3897
12589SOL    HW148696   2.509   0.545   1.455  1.7981  0.8840  0.8427
12589SOL    HW248697   2.436   0.682   1.405  0.3762 -0.5096 -0.9785
12590SOL     OW48698   1.607   8.934   2.615  0.7690 -0.2506  0.3100
12590SOL    HW148699   1.566   8.945   2.706  0.8480 -0.7711  0.4066
12590SOL    HW248700   1.581   8.846   2.576  0.1110  0.2898 -0.5018
12591SOL     OW48701   1.114   7.068   1.995 -0.1718  0.0854 -0.0665
12591SOL    HW148702   1.125   7.055   1.896  3.5058  0.5507  0.1990
12591SOL    HW248703   1.107   7.165   2.015  1.1817  0.1344  0.2535
12592SOL     OW48704   8.652   9.733   2.422 -0.3063  0.2618 -0.0658
12592SOL    HW148705   8.637   9.643   2.381  0.4243 -0.0977  0.4564
12592SOL    HW248706   8.606   9.802   2.366 -3.5021 -0.7318  1.2017
12593SOL     OW48707   3.628   1.922   3.001 -0.3300 -0.1478  0.0612
12593SOL    HW148708   3.715   1.951   2.960 -0.2237 -1.4329 -0.6508
12593SOL    HW248709   3.645   1.843   3.061 -1.2201 -1.3802 -1.2810
12594SOL     OW48710   4.643   9.111   5.092 -0.1083  0.0115 -0.1479
12594SOL    HW148711   4.652   9.012   5.080 -0.2070  0.0815 -0.8431
12594SOL    HW248712   4.667   9.156   5.006  0.8293  0.6393  0.4311
12595SOL     OW48713   0.652   9.918   1.677  0.2404 -0.4647  0.4880
12595SOL    HW148714   0.702   9.845   1.631  0.9353 -0.1301  0.7134
12595SOL    HW248715   0.555   9.893   1.683 -0.0143 -0.1158 -1.9518
12596SOL     OW48716   4.827   2.762   2.584 -0.5765  0.1061 -0.2717
12596SOL    HW148717   4.750   2.762   2.647 -0.5311  2.3157 -0.1767
12596SOL    HW248718   4.911   2.785   2.633 -0.7151  2.9623 -1.2690
12597SOL     OW48719   2.227   0.715   3.286 -0.3711 -0.3286  0.0747
12597SOL    HW148720   2.299   0.774   3.322 -0.1888 -1.2530  1.2591
12597SOL    HW248721   2.138   0.746   3.322 -0.2967 -0.6551  0.5428
12598SOL     OW48722   2.384   6.995   3.734 -0.7055  0.2060 -0.3913
12598SOL    HW148723   2.397   6.943   3.649  0.8630 -1.0019  0.5726
12598SOL    HW248724   2.419   7.088   3.721  2.0994 -0.7704 -0.2408
12599SOL     OW48725   6.489   0.768   2.742 -0.2213  0.1231  0.1490
12599SOL    HW148726   6.571   0.766   2.684 -0.4981  1.5852 -0.3129
12599SOL    HW248727   6.418   0.822   2.697 -0.5047  1.1252  1.7666
12600SOL     OW48728   1.496   4.723   5.358  0.1973  0.1869  0.0653
12600SOL    HW148729   1.566   4.693   5.423  0.0779 -0.0517  0.0843
12600SOL    HW248730   1.412   4.670   5.372  0.1617  0.1562 -0.2605
12601SOL     OW48731   8.225   8.846   3.007 -0.4883 -0.2304  0.3066
12601SOL    HW148732   8.173   8.924   3.043 -1.1843 -0.0113 -1.1410
12601SOL    HW248733   8.240   8.859   2.909  0.5852 -1.2626  0.3350
12602SOL     OW48734   8.234   0.771   5.052 -0.8830 -0.0060  0.4581
12602SOL    HW148735   8.162   0.734   4.993 -1.0003 -0.6256  0.9874
12602SOL    HW248736   8.251   0.866   5.027 -0.2950 -0.5142 -1.1825
12603SOL     OW48737   8.377   1.971   5.126  0.0784  0.2891 -0.0531
12603SOL    HW148738   8.279   1.981   5.143  0.0288  0.3318 -0.3572
12603SOL    HW248739   8.413   1.896   5.181 -0.0882  0.3913  0.1953
12604SOL     OW48740   3.463   6.149   3.330  0.2941  0.5954  0.0446
12604SOL    HW148741   3.364   6.155   3.343  0.6180  1.7688  2.1932
12604SOL    HW248742   3.497   6.234   3.288  0.3396 -0.0024 -1.1519
12605SOL     OW48743   9.057   8.072   1.327 -0.4995 -0.0148 -0.4315
12605SOL    HW148744   9.152   8.052   1.353  0.6189  0.5465 -3.7948
12605SOL    HW248745   9.048   8.170   1.310 -1.8277  0.0046  0.3919
12606SOL     OW48746   1.724   9.681   1.447 -0.1024 -0.5468  0.4171
12606SOL    HW148747   1.813   9.646   1.416  0.3879 -0.2503  1.4483
12606SOL    HW248748   1.692   9.627   1.524 -1.5268 -1.5547 -0.8417
12607SOL     OW48749   5.129   0.668   4.679  0.3054 -0.0337 -0.0415
12607SOL    HW148750   5.035   0.694   4.702  0.5050 -0.0977  0.8603
12607SOL    HW248751   5.175   0.745   4.635  0.3115  0.5224  0.9342
12608SOL     OW48752   6.136   0.658   4.730  0.5346  0.5499 -0.0574
12608SOL    HW148753   6.096   0.750   4.733 -0.4798  0.0590  2.9270
12608SOL    HW248754   6.074   0.597   4.679  0.5286  1.1845 -0.8246
12609SOL     OW48755   1.435   9.769   5.273  0.3595 -0.3732 -0.5178
12609SOL    HW148756   1.446   9.809   5.364  0.2515 -0.6389 -0.3896
12609SOL    HW248757   1.505   9.807   5.212 -0.7066  1.1866 -0.7983
12610SOL     OW48758   1.423   5.350   5.442 -0.4483 -0.5811  0.2462
12610SOL    HW148759   1.384   5.302   5.363 -0.8910 -2.2784  1.4840
12610SOL    HW248760   1.518   5.323   5.453 -0.3325 -0.1989  0.1864
12611SOL     OW48761   2.207   3.584   3.328 -0.1925 -0.2199  0.3077
12611SOL    HW148762   2.187   3.597   3.425  0.6589  3.2627  0.0762
12611SOL    HW248763   2.305   3.569   3.316 -0.1408  0.4984 -0.1377
12612SOL     OW48764   6.414   9.898   1.288  0.2909 -0.1645  0.2242
12612SOL    HW148765   6.440   9.802   1.298 -0.5259 -0.4523 -0.3842
12612SOL    HW248766   6.436   9.929   1.195 -1.0868 -0.2825 -0.1497
12613SOL     OW48767   4.814   8.381   2.841 -0.0412  0.2924 -0.5470
12613SOL    HW148768   4.759   8.299   2.856 -0.1827  0.3399 -0.8011
12613SOL    HW248769   4.755   8.462   2.840  0.4301  0.7747  2.9830
12614SOL     OW48770   8.117   3.644   3.559 -0.0750 -0.0565 -0.0397
12614SOL    HW148771   8.144   3.558   3.603  0.3834  0.2648  0.3134
12614SOL    HW248772   8.033   3.679   3.603 -0.2642 -0.3253 -0.1876
12615SOL     OW48773   1.484   2.934   4.993 -0.2939 -0.2791  0.3029
12615SOL    HW148774   1.419   3.009   4.979 -0.3468 -0.2235  0.8166
12615SOL    HW248775   1.496   2.919   5.091  1.2638  0.4000  0.2269
12616SOL     OW48776   9.169   6.660   4.212 -0.0642  0.8418  0.4635
12616SOL    HW148777   9.130   6.587   4.156  0.6658  1.7085 -1.2126
12616SOL    HW248778   9.254   6.628   4.255  0.1037  0.6143 -0.0378
12617SOL     OW48779   0.753   3.509   2.817 -0.5961  0.6336 -0.4840
12617SOL    HW148780   0.745   3.513   2.917 -0.8956  1.8451 -0.5500
12617SOL    HW248781   0.846   3.532   2.789 -0.0896 -1.1993 -0.4196
12618SOL     OW48782   1.228   2.033   3.542  0.5607  0.6274 -0.3104
12618SOL    HW148783   1.298   2.101   3.522  0.8833 -0.1160 -1.7602
12618SOL    HW248784   1.193   1.995   3.456 -1.3103  0.6845  0.4058
12619SOL     OW48785   8.618   9.138   0.895  0.4483 -1.0142 -0.1018
12619SOL    HW148786   8.533   9.089   0.916 -1.0607  1.0451 -1.2365
12619SOL    HW248787   8.661   9.169   0.979 -1.6551  0.7560  0.3593
12620SOL     OW48788   3.188   7.201   5.606 -0.0624 -0.1744 -0.3395
12620SOL    HW148789   3.239   7.154   5.677 -0.6158  1.9329  1.5167
12620SOL    HW248790   3.114   7.143   5.573  0.2230 -1.1812  0.7793
12621SOL     OW48791   1.451   4.042   5.066  0.7192 -0.4633 -0.0768
12621SOL    HW148792   1.374   3.998   5.020 -0.3341  1.8959 -0.6720
12621SOL    HW248793   1.506   4.091   4.999  1.0630  0.2783  0.7458
12622SOL     OW48794   8.814   7.467   3.088  0.5940  0.0772  0.0207
12622SOL    HW148795   8.847   7.481   2.995  0.1427 -1.0276 -0.3193
12622SOL    HW248796   8.721   7.429   3.085  0.8594 -0.6785  0.8979
12623SOL     OW48797   4.836   9.647   5.283  0.6038 -0.1406  0.6043
12623SOL    HW148798   4.841   9.557   5.239 -0.7787  0.7826 -1.5408
12623SOL    HW248799   4.740   9.668   5.304  0.7223  1.4896 -0.3853
12624SOL     OW48800   7.690   4.715   4.854 -0.1035  0.3730 -0.9631
12624SOL    HW148801   7.717   4.795   4.908 -0.6387 -0.1119  0.0318
12624SOL    HW248802   7.722   4.632   4.900 -1.0298 -0.0716 -1.1166
12625SOL     OW48803   0.019   2.486   3.224  0.4604  0.1806  0.0909
12625SOL    HW148804   0.077   2.521   3.298  1.2294  1.2023 -0.9731
12625SOL    HW248805  -0.075   2.514   3.239  0.5018 -0.2039  1.0510
12626SOL     OW48806   2.262   7.548   5.002 -0.1106  0.0111  0.4039
12626SOL    HW148807   2.328   7.619   5.028  0.4200 -0.5315  0.5529
12626SOL    HW248808   2.267   7.472   5.067  0.6556 -1.0052 -0.8135
12627SOL     OW48809   9.329   0.528   0.042  0.0568 -0.4433  0.4862
12627SOL    HW148810   9.408   0.497   0.096  1.5875 -1.3191 -2.1433
12627SOL    HW248811   9.322   0.628   0.047  1.3589 -0.3548  0.7089
12628SOL     OW48812   8.897   4.371   2.267  0.1383 -0.3235  0.0677
12628SOL    HW148813   8.826   4.337   2.205 -2.7116  0.5344  2.7084
12628SOL    HW248814   8.874   4.345   2.361  1.3185  3.2454  1.4120
12629SOL     OW48815   3.236   6.392   3.548  0.2381  0.2898  0.3274
12629SOL    HW148816   3.175   6.449   3.603  0.4244  0.1942  0.6330
12629SOL    HW248817   3.319   6.443   3.527 -0.3400  0.7633 -0.8924
12630SOL     OW48818   7.270   4.225   5.329 -0.4544  0.3809 -0.6660
12630SOL    HW148819   7.328   4.303   5.351 -0.4439  0.5743 -1.3767
12630SOL    HW248820   7.299   4.186   5.241 -1.1805  0.2640 -0.8511
12631SOL     OW48821   0.020   0.520   2.666 -0.8481 -0.0416 -0.2221
12631SOL    HW148822   0.031   0.471   2.580 -0.2995  0.9237 -0.6969
12631SOL    HW248823   0.074   0.475   2.738 -0.2786 -0.0788 -0.6754
12632SOL     OW48824   7.836   0.193   5.169 -0.0800  0.3404  0.2036
12632SOL    HW148825   7.918   0.230   5.212  0.6435 -0.5667 -0.3788
12632SOL    HW248826   7.769   0.168   5.239  1.4481 -1.9903  0.8593
12633SOL     OW48827   7.789   4.534   5.022  0.3677  0.4426  0.0410
12633SOL    HW148828   7.736   4.554   5.105  1.7189  1.0397  0.7711
12633SOL    HW248829   7.886   4.528   5.045  0.6274 -0.6195 -1.2945
12634SOL     OW48830   7.317   9.408   2.464  0.3374  0.4614 -0.5434
12634SOL    HW148831   7.226   9.435   2.496  0.7919  1.7074 -0.2660
12634SOL    HW248832   7.368   9.367   2.540  0.6220  1.3636 -0.2449
12635SOL     OW48833   3.519   1.301   5.245  1.0844  0.2697  0.0617
12635SOL    HW148834   3.579   1.313   5.165 -0.4288  1.9029 -0.8584
12635SOL    HW248835   3.453   1.376   5.249 -1.6571 -2.0554  0.3805
12636SOL     OW48836   8.390   4.823   4.559 -0.8734  0.3053 -0.5631
12636SOL    HW148837   8.296   4.803   4.587 -0.6478  0.6427  0.4579
12636SOL    HW248838   8.444   4.847   4.640 -0.2057  1.2723 -1.2903
12637SOL     OW48839   1.347   9.079   1.539  0.5643  0.3289  0.0740
12637SOL    HW148840   1.275   9.130   1.491 -0.4655  0.5744  1.8121
12637SOL    HW248841   1.348   9.106   1.635 -0.0266 -2.9244  1.0618
12638SOL     OW48842   8.999   4.220   5.197  0.1045  0.0749  0.6621
12638SOL    HW148843   9.034   4.127   5.213  0.5098  0.4373  1.9404
12638SOL    HW248844   8.924   4.239   5.261 -0.7412  0.2269 -0.3583
12639SOL     OW48845   2.327   5.626   4.163 -0.2174 -0.3704  0.4741
12639SOL    HW148846   2.302   5.538   4.203 -0.9851 -0.3381  0.0823
12639SOL    HW248847   2.410   5.616   4.109 -0.2639 -0.8429  0.4883
12640SOL     OW48848   4.416   0.941   2.336  0.2933 -0.3072  0.2969
12640SOL    HW148849   4.385   1.034   2.315 -1.2647 -1.0267 -0.6996
12640SOL    HW248850   4.514   0.941   2.352  0.4104  1.4051 -0.3488
12641SOL     OW48851   6.754   6.615   3.814 -0.1299  0.2791  0.2996
12641SOL    HW148852   6.828   6.548   3.826 -1.1522 -1.2144 -1.4825
12641SOL    HW248853   6.669   6.567   3.792 -0.6542  2.2131 -2.1137
12642SOL     OW48854   4.980   0.926   1.152 -0.1887  0.0642  0.2416
12642SOL    HW148855   5.029   1.013   1.162 -1.0004  0.3230  2.1454
12642SOL    HW248856   5.036   0.862   1.098  0.5991  1.6010 -0.8038
12643SOL     OW48857   0.369   0.046   1.534  0.4945 -0.3413  0.2948
12643SOL    HW148858   0.347  -0.013   1.456  1.8412  0.3916 -0.6528
12643SOL    HW248859   0.432   0.118   1.505 -0.1149  0.7955  1.7454
12644SOL     OW48860   7.847   2.675   0.586  0.7764  0.1064 -0.1007
12644SOL    HW148861   7.907   2.667   0.507  2.1710  0.5997  0.8958
12644SOL    HW248862   7.830   2.585   0.625  1.0164 -0.0079 -0.2637
12645SOL     OW48863   8.794   2.923   0.056  0.0421  0.2355  0.2164
12645SOL    HW148864   8.764   2.909   0.150  0.1685 -1.8334 -0.0428
12645SOL    HW248865   8.859   2.999   0.053 -0.1559  0.4800  1.7522
12646SOL     OW48866   1.576   0.088   4.322 -0.2301 -0.3735 -0.1486
12646SOL    HW148867   1.623   0.010   4.280  0.0910 -0.7248  0.8675
12646SOL    HW248868   1.481   0.089   4.292 -0.0169 -0.6578 -0.8470
12647SOL     OW48869   1.250   4.288   5.174  0.4082 -0.0851  0.4288
12647SOL    HW148870   1.322   4.347   5.137  0.7344  0.0844  1.3446
12647SOL    HW248871   1.267   4.271   5.271 -0.5177 -0.4508  0.5271
12648SOL     OW48872   4.665   2.897   3.346 -0.8738 -0.1025  0.4561
12648SOL    HW148873   4.617   2.829   3.290 -0.1749 -0.2619  0.0347
12648SOL    HW248874   4.636   2.888   3.441  0.0840 -1.7943  0.6065
12649SOL     OW48875   8.637   8.504   2.285 -0.2045  0.1020  0.1250
12649SOL    HW148876   8.586   8.466   2.362  0.6513  0.8791  1.0797
12649SOL    HW248877   8.702   8.436   2.251 -0.0527  0.0297  0.5672
12650SOL     OW48878   7.827   9.358   5.007 -0.2821  0.1133  0.3249
12650SOL    HW148879   7.729   9.370   4.992  0.0343 -0.2513 -2.4570
12650SOL    HW248880   7.848   9.260   5.006  0.2339  0.2282 -0.0680
12651SOL     OW48881   0.447   8.451   3.055  0.5436 -0.4659  0.3952
12651SOL    HW148882   0.429   8.538   3.101 -0.9604  0.4599 -1.8171
12651SOL    HW248883   0.545   8.431   3.059  0.7309  0.6703  2.0589
12652SOL     OW48884   1.356   2.809   0.262 -0.1655  0.5052 -0.3992
12652SOL    HW148885   1.288   2.831   0.191  0.3896  2.6541 -0.3011
12652SOL    HW248886   1.310   2.762   0.338 -1.5642  1.9888 -0.2983
12653SOL     OW48887   5.226   9.150   4.573 -0.4933 -0.2018 -0.3086
12653SOL    HW148888   5.133   9.182   4.557 -0.1204  1.4085  0.5508
12653SOL    HW248889   5.224   9.060   4.617 -1.6618  0.0868  0.2544
12654SOL     OW48890   8.561   6.236   5.563  0.2828  0.3058 -0.7069
12654SOL    HW148891   8.619   6.265   5.639  0.3465  1.8827 -1.3240
12654SOL    HW248892   8.570   6.138   5.549  2.3707  0.4310 -0.4216
12655SOL     OW48893   4.555   3.788   3.039 -0.3271  0.4412  0.3375
12655SOL    HW148894   4.614   3.711   3.064  0.6891  1.0838 -0.0330
12655SOL    HW248895   4.593   3.872   3.078 -0.5778  0.9715 -0.5535
12656SOL     OW48896   1.028   8.696   4.317 -0.1737  0.8454  0.1441
12656SOL    HW148897   1.082   8.737   4.390 -0.5700  1.9528 -0.1744
12656SOL    HW248898   0.995   8.767   4.255 -0.2837 -0.0236 -0.8253
12657SOL     OW48899   2.397   6.202   4.916 -0.0728 -0.3985 -0.2278
12657SOL    HW148900   2.442   6.188   5.004 -2.0699 -1.3867  0.6591
12657SOL    HW248901   2.425   6.290   4.878  0.6217  0.1433  1.4974
12658SOL     OW48902   0.403   8.107   1.952  0.7051 -0.6210  0.0724
12658SOL    HW148903   0.451   8.189   1.924 -0.0079 -0.0858  0.3936
12658SOL    HW248904   0.320   8.095   1.897 -0.0129 -0.2682  1.0549
12659SOL     OW48905   0.234   3.840   1.426  0.2255 -0.1198 -0.0828
12659SOL    HW148906   0.331   3.820   1.415  0.0592 -1.6157  1.0406
12659SOL    HW248907   0.185   3.756   1.449 -0.6615  1.3092  3.6716
12660SOL     OW48908   4.298   9.135   2.890  0.0508 -0.4101 -0.4517
12660SOL    HW148909   4.295   9.234   2.895 -0.6491 -0.5136  1.7043
12660SOL    HW248910   4.209   9.099   2.863  0.3021 -0.4651 -1.2272
12661SOL     OW48911   0.740   9.181   2.989 -0.2256 -0.6469 -0.4996
12661SOL    HW148912   0.765   9.085   2.995  1.7590 -0.0890  0.7836
12661SOL    HW248913   0.657   9.198   3.043 -1.0168 -1.7684 -1.3581
12662SOL     OW48914   1.530   6.291   0.471  0.1756 -0.2551 -0.2664
12662SOL    HW148915   1.511   6.372   0.416 -2.7236 -0.5286  0.2736
12662SOL    HW248916   1.505   6.209   0.419  0.1726 -0.6514  0.3596
12663SOL     OW48917   9.624   2.412   1.555 -1.0002 -0.2215 -0.1421
12663SOL    HW148918   9.650   2.326   1.600 -3.4267  0.0231  1.8980
12663SOL    HW248919   9.537   2.398   1.507 -1.4516  1.1033  0.2834
12664SOL     OW48920   2.317   4.469   4.878  0.1989  0.3763 -0.3505
12664SOL    HW148921   2.261   4.393   4.908  0.9873  0.2668  0.8970
12664SOL    HW248922   2.357   4.449   4.788 -0.7224 -0.0747 -0.6572
12665SOL     OW48923   0.594   4.773   5.539  0.1826 -0.0403  0.5956
12665SOL    HW148924   0.669   4.746   5.600  2.0783 -0.2167 -1.7145
12665SOL    HW248925   0.547   4.691   5.506  1.4499 -0.1773 -0.9321
12666SOL     OW48926   4.436   9.319   5.035  0.4907  0.3191  0.0663
12666SOL    HW148927   4.512   9.257   5.055  1.7814  2.0188  0.6059
12666SOL    HW248928   4.358   9.296   5.093  0.6385 -1.3671 -0.3870
12667SOL     OW48929   9.843   5.766   4.213 -0.0016  0.7091  0.5767
12667SOL    HW148930   9.858   5.676   4.253  0.5582  1.6390  2.4906
12667SOL    HW248931   9.768   5.812   4.260  0.8885  1.9567  0.7957
12668SOL     OW48932   8.885   3.983   2.842 -0.7095 -0.3238 -0.0710
12668SOL    HW148933   8.845   4.068   2.809 -1.0059  0.0994  1.3487
12668SOL    HW248934   8.985   3.988   2.837 -0.7493 -0.1721 -0.6679
12669SOL     OW48935   2.542   2.210   2.512  0.0174 -1.0757 -0.2270
12669SOL    HW148936   2.547   2.118   2.552 -0.2855 -1.1653 -0.3961
12669SOL    HW248937   2.461   2.257   2.547 -0.0734 -1.0378 -0.4846
12670SOL     OW48938   7.583   9.688   2.962 -0.0427  0.5047 -0.1511
12670SOL    HW148939   7.497   9.718   2.920 -0.1034  0.0434 -0.3644
12670SOL    HW248940   7.632   9.628   2.898  0.4893  0.8555 -0.0747
12671SOL     OW48941   2.418   4.720   4.684  0.0496  0.3629 -0.0170
12671SOL    HW148942   2.434   4.621   4.676 -0.0555  0.3722 -0.3631
12671SOL    HW248943   2.342   4.736   4.747  0.3377  0.2435  0.3625
12672SOL     OW48944   8.143   2.631   4.841  0.2072  0.5234  0.3602
12672SOL    HW148945   8.212   2.588   4.783 -1.3976  0.6624 -1.6916
12672SOL    HW248946   8.171   2.725   4.861  1.0014  0.3225  0.2207
12673SOL     OW48947   4.636   7.282   2.789 -0.2354 -0.1793 -0.5318
12673SOL    HW148948   4.616   7.189   2.822 -0.0894 -0.0937 -0.2071
12673SOL    HW248949   4.593   7.349   2.850  1.4303  0.0255  0.4487
12674SOL     OW48950   8.344   0.054   2.496 -0.4864 -0.4259  0.1317
12674SOL    HW148951   8.298   0.136   2.530 -1.9164 -1.2806  0.3008
12674SOL    HW248952   8.397   0.013   2.570 -0.0710  0.1225  0.1455
12675SOL     OW48953   2.998   7.896   2.348 -0.7503  0.4965 -0.2869
12675SOL    HW148954   3.016   7.893   2.249  0.5467 -0.6099 -0.0281
12675SOL    HW248955   3.004   7.990   2.380 -0.2625  0.7499 -1.1091
12676SOL     OW48956   0.546   4.494   4.156  0.5850 -0.3299  0.7779
12676SOL    HW148957   0.509   4.402   4.140 -0.0589  0.0317  0.1034
12676SOL    HW248958   0.580   4.531   4.069 -0.1501  0.4823  0.8332
12677SOL     OW48959   1.067   8.249   4.257 -0.0101 -0.0817 -0.4537
12677SOL    HW148960   1.083   8.332   4.204  1.1973 -0.7164 -1.0879
12677SOL    HW248961   1.098   8.263   4.351 -1.2367  0.7012 -0.1473
12678SOL     OW48962   3.579   4.687   2.504  0.0089 -0.1514  0.2497
12678SOL    HW148963   3.662   4.634   2.484  1.0864  0.4227  2.9988
12678SOL    HW248964   3.601   4.785   2.503 -0.4008 -0.0264  1.8736
12679SOL     OW48965   5.907   0.241   2.545 -0.0382 -0.1786  0.3017
12679SOL    HW148966   5.930   0.175   2.474 -3.1741  0.2075 -1.1759
12679SOL    HW248967   5.912   0.196   2.635  1.3670 -1.4076 -0.3748
12680SOL     OW48968   0.333   6.399   3.821 -0.1425 -0.3578 -0.0260
12680SOL    HW148969   0.235   6.381   3.828 -0.2260  0.0333 -0.1864
12680SOL    HW248970   0.367   6.368   3.732  0.1027 -1.5235  0.4663
12681SOL     OW48971   9.913   4.579   5.610  0.0408  0.2723  0.3588
12681SOL    HW148972   9.979   4.652   5.593 -1.8195  2.7854  3.3964
12681SOL    HW248973   9.833   4.617   5.656 -2.0807 -3.2962 -0.2362
12682SOL     OW48974   2.719   8.487   1.122  0.2461  0.0209  0.2538
12682SOL    HW148975   2.738   8.426   1.045  0.3583 -0.4600  0.6532
12682SOL    HW248976   2.650   8.554   1.096 -0.7291 -0.9973  0.1584
12683SOL     OW48977   6.641   7.727   1.791 -0.0597 -0.1995  0.5074
12683SOL    HW148978   6.650   7.825   1.812 -0.9830 -0.3507  1.6796
12683SOL    HW248979   6.548   7.708   1.760 -0.3850 -0.9635  1.8692
12684SOL     OW48980   7.946   9.723   3.435 -0.0151 -0.4794  0.1054
12684SOL    HW148981   7.923   9.697   3.528  1.7824  2.2743  1.3759
12684SOL    HW248982   8.045   9.736   3.427  0.0917 -2.5495 -2.7086
12685SOL     OW48983   3.838   7.782   4.004  0.7498 -0.0410 -0.1659
12685SOL    HW148984   3.780   7.713   4.047  1.6207 -0.0044  1.0642
12685SOL    HW248985   3.782   7.838   3.942 -0.7348  0.6016  1.7070
12686SOL     OW48986   5.943   7.668   4.118 -0.2246  0.6073  0.4816
12686SOL    HW148987   5.848   7.672   4.148 -0.3850  0.6459 -0.0282
12686SOL    HW248988   6.003   7.691   4.194 -0.5524 -1.0348  1.2480
12687SOL     OW48989   3.242   4.581   1.111  0.0910 -0.5703 -0.5062
12687SOL    HW148990   3.327   4.633   1.118 -1.7473  2.4713  0.1292
12687SOL    HW248991   3.224   4.560   1.015 -1.0643  3.4819 -1.2932
12688SOL     OW48992   0.381   0.970   1.094 -0.5138  0.3830 -0.0416
12688SOL    HW148993   0.295   0.941   1.137 -0.1310  0.3869  0.7369
12688SOL    HW248994   0.458   0.924   1.138 -0.0673  0.8726 -0.3017
12689SOL     OW48995   0.473   0.686   2.796  0.0508  0.6507 -0.4061
12689SOL    HW148996   0.520   0.774   2.805 -0.0535  0.6953 -0.2961
12689SOL    HW248997   0.541   0.614   2.780  0.1194  0.7802 -0.6976
12690SOL     OW48998   9.162   1.638   3.334 -0.7064  0.2619 -0.2084
12690SOL    HW148999   9.078   1.611   3.287 -0.8932 -0.4928  0.5476
12690SOL    HW249000   9.165   1.595   3.424  0.1632  0.8373  0.0406
12691SOL     OW49001   7.811   0.840   4.644  0.1690  0.4299  0.1701
12691SOL    HW149002   7.799   0.781   4.724  1.2763 -1.3929 -0.9570
12691SOL    HW249003   7.732   0.900   4.633 -0.5012 -0.1134  1.9503
12692SOL     OW49004   4.192   5.033   4.492  0.7270 -0.2532 -0.1666
12692SOL    HW149005   4.237   4.959   4.544 -0.5461  0.4707  2.0574
12692SOL    HW249006   4.193   5.117   4.546 -2.8766 -0.0994 -0.1902
12693SOL     OW49007   6.490   2.181   3.337 -0.4891 -0.1437  0.2317
12693SOL    HW149008   6.581   2.145   3.316 -0.4795 -0.4218  0.7659
12693SOL    HW249009   6.426   2.106   3.349 -1.0148  0.0721 -1.1551
12694SOL     OW49010   1.440   8.507   4.034  0.0369  0.5106  0.5326
12694SOL    HW149011   1.485   8.426   4.072  0.1992  0.2918 -0.1201
12694SOL    HW249012   1.488   8.589   4.065  0.0807  0.3379  0.9188
12695SOL     OW49013   0.628   4.889   3.013  0.7274  0.3821 -0.0516
12695SOL    HW149014   0.558   4.913   3.081 -0.6396 -0.4658 -1.1335
12695SOL    HW249015   0.674   4.805   3.041  0.7579  0.5017  0.2576
12696SOL     OW49016   8.155   4.268   0.373  0.0153 -0.7622  0.0353
12696SOL    HW149017   8.088   4.270   0.448  0.0173  0.1740  0.0142
12696SOL    HW249018   8.111   4.231   0.292 -0.8642  1.0010 -0.3269
12697SOL     OW49019   4.315   8.675   0.310 -0.2622 -0.1000  0.0425
12697SOL    HW149020   4.323   8.577   0.324  1.1371  0.1195  0.9470
12697SOL    HW249021   4.240   8.711   0.366 -0.9510 -0.6858 -0.5031
12698SOL     OW49022   3.118   9.280   2.991 -0.0420  0.0359  0.3129
12698SOL    HW149023   3.217   9.266   2.989 -0.0874 -0.7630  2.1758
12698SOL    HW249024   3.090   9.333   2.911  1.9285  0.5635 -0.0606
12699SOL     OW49025   2.593   5.302   0.542  0.1304  0.2614  0.2348
12699SOL    HW149026   2.615   5.223   0.600  0.2516  0.8382  0.9903
12699SOL    HW249027   2.671   5.324   0.484 -0.2234 -0.7252 -0.6239
12700SOL     OW49028   8.595   1.227   3.833 -0.4012  0.1766 -0.3822
12700SOL    HW149029   8.659   1.304   3.834 -0.1680 -0.0157 -0.5482
12700SOL    HW249030   8.501   1.262   3.837 -0.2849  0.4517  0.0288
12701SOL     OW49031   3.463   8.580   4.310  0.0343 -0.1059  0.7799
12701SOL    HW149032   3.458   8.652   4.241 -2.9336 -0.5072  0.4780
12701SOL    HW249033   3.477   8.621   4.400  0.2420  0.7192  0.3751
12702SOL     OW49034   9.348   6.815   3.182  0.6854  0.2299 -0.4391
12702SOL    HW149035   9.297   6.887   3.136  0.4962  0.2166 -0.2501
12702SOL    HW249036   9.441   6.847   3.201  0.4808  0.5607 -0.0037
12703SOL     OW49037   0.097   1.534   4.165  0.0654 -0.0088 -0.1130
12703SOL    HW149038   0.137   1.566   4.251 -1.7727  0.4956  0.5622
12703SOL    HW249039   0.062   1.441   4.178 -0.2787  0.0964 -0.2957
12704SOL     OW49040   0.184   3.618   3.865  1.0168  0.2600  0.4954
12704SOL    HW149041   0.276   3.651   3.888  1.2964  1.5849 -2.3605
12704SOL    HW249042   0.189   3.561   3.783 -0.2360 -2.7175  2.4091
12705SOL     OW49043   0.621   9.658   2.469  0.0736  0.4746 -0.1138
12705SOL    HW149044   0.522   9.646   2.457  0.1972  0.0904 -0.8115
12705SOL    HW249045   0.669   9.608   2.397  0.7567  1.4823 -0.3644
12706SOL     OW49046   3.440   5.548   2.244 -0.2226 -0.3986 -0.0556
12706SOL    HW149047   3.369   5.616   2.222 -0.8083 -0.8634  0.3893
12706SOL    HW249048   3.401   5.456   2.237  0.7606 -0.7254 -1.3562
12707SOL     OW49049   3.294   7.467   5.640  0.4121 -0.1339 -0.5409
12707SOL    HW149050   3.237   7.386   5.629 -0.4424  0.3805  0.0316
12707SOL    HW249051   3.288   7.523   5.558 -0.7764  0.4556 -0.0621
12708SOL     OW49052   1.467   7.058   4.242  0.1716  0.1230 -0.0918
12708SOL    HW149053   1.561   7.088   4.262  0.7310 -1.6384 -0.0110
12708SOL    HW249054   1.455   6.964   4.273 -1.6321  0.3326 -0.1353
12709SOL     OW49055   0.898   8.563   1.841 -0.1474 -0.1412 -0.2823
12709SOL    HW149056   0.848   8.568   1.927  1.8854  1.9275  0.8075
12709SOL    HW249057   0.880   8.646   1.787 -1.1545 -1.2744 -1.7379
12710SOL     OW49058   9.111   9.028   1.554 -1.0473  0.3072  0.0282
12710SOL    HW149059   9.206   9.010   1.532 -0.5529  1.9402  0.7564
12710SOL    HW249060   9.063   9.060   1.472 -0.5862  0.9817  0.0217
12711SOL     OW49061   4.712   0.662   1.445  0.8463 -0.2775  0.5215
12711SOL    HW149062   4.732   0.733   1.378  0.0362  0.4034  1.0042
12711SOL    HW249063   4.792   0.648   1.504  1.0758  0.0829  0.2962
12712SOL     OW49064   2.864   4.179   3.804 -0.2517 -0.7574 -0.8412
12712SOL    HW149065   2.919   4.149   3.881 -0.3187 -0.9152 -0.8542
12712SOL    HW249066   2.771   4.199   3.836  0.2070  0.9552 -0.5424
12713SOL     OW49067   2.839   6.859   3.295 -1.2267  0.3592  0.0551
12713SOL    HW149068   2.845   6.947   3.249  0.2277  0.3603  0.2305
12713SOL    HW249069   2.893   6.861   3.379  0.0829 -1.1686 -0.7204
12714SOL     OW49070   9.342   0.983   2.012 -0.3099  0.5508  0.3947
12714SOL    HW149071   9.438   0.987   1.984 -0.1633 -0.0384  0.7977
12714SOL    HW249072   9.326   1.051   2.084  0.0509 -0.0157  1.0253
12715SOL     OW49073   3.063   8.505   3.082  0.0675 -0.2481  0.2329
12715SOL    HW149074   3.082   8.449   3.163 -0.0655 -1.3680 -0.4856
12715SOL    HW249075   3.029   8.445   3.008 -0.3794  0.8368 -0.4529
12716SOL     OW49076   5.054   0.462   4.998  0.3233 -0.2856  0.4945
12716SOL    HW149077   4.957   0.445   5.017  0.1159  0.4798  0.1449
12716SOL    HW249078   5.092   0.382   4.952 -0.3298 -0.3080 -0.0243
12717SOL     OW49079   6.260   0.214   3.564 -0.4375  0.2798 -0.7209
12717SOL    HW149080   6.341   0.194   3.619 -0.9430  0.2085  0.0088
12717SOL    HW249081   6.216   0.129   3.535 -0.0626  0.3154 -1.4084
12718SOL     OW49082   8.406   8.097   5.404 -0.2340 -0.5811 -0.1953
12718SOL    HW149083   8.430   8.011   5.359 -0.0649 -1.0497  0.7685
12718SOL    HW249084   8.349   8.078   5.485 -1.1832  0.2891 -0.6410
12719SOL     OW49085   0.587   9.821   1.353 -0.2488 -0.0929 -0.3336
12719SOL    HW149086   0.603   9.725   1.376 -1.1808 -0.4145 -0.9793
12719SOL    HW249087   0.490   9.842   1.364 -0.1445  0.6302 -0.7170
12720SOL     OW49088   7.977   5.526   1.363  0.0265 -0.4114 -0.2664
12720SOL    HW149089   7.934   5.442   1.330  1.2780 -0.8863 -0.7355
12720SOL    HW249090   8.056   5.504   1.419 -1.1399  0.4384  1.7479
12721SOL     OW49091   2.340   6.255   2.490 -0.2034 -0.0079 -0.0615
12721SOL    HW149092   2.283   6.186   2.534  0.0129  0.4768  0.9921
12721SOL    HW249093   2.296   6.345   2.498  0.2770  0.2261 -0.0211
12722SOL     OW49094   2.802   8.353   0.152  0.0189  0.3825 -0.7665
12722SOL    HW149095   2.860   8.272   0.158  0.6908  0.8734 -0.5393
12722SOL    HW249096   2.750   8.352   0.067 -0.0380 -0.3282 -0.7218
12723SOL     OW49097   1.513   6.989   5.202 -0.0095  0.2037  0.4646
12723SOL    HW149098   1.561   6.931   5.267 -1.7922  0.8958  2.4557
12723SOL    HW249099   1.571   7.067   5.179  0.0018  0.8687  2.5929
12724SOL     OW49100   7.465   1.905   0.473 -0.1394 -0.0035  0.0149
12724SOL    HW149101   7.444   1.829   0.411 -0.7310 -0.0643  0.2848
12724SOL    HW249102   7.494   1.984   0.420 -2.5516  0.5857 -0.4820
12725SOL     OW49103   4.073   9.745   3.588  0.1115  0.4117  0.0136
12725SOL    HW149104   4.140   9.689   3.540  0.5707  1.6427 -0.7998
12725SOL    HW249105   4.097   9.841   3.579  0.2619  0.6853  2.8242
12726SOL     OW49106   0.145   5.449   1.846  0.3401  0.3103  0.5148
12726SOL    HW149107   0.155   5.493   1.935 -0.0404 -1.0073  1.2075
12726SOL    HW249108   0.058   5.400   1.842 -0.9337  2.6071 -1.5722
12727SOL     OW49109   9.306   4.628   5.582 -0.3609 -0.0496  0.4260
12727SOL    HW149110   9.384   4.688   5.596 -0.1717 -0.1769 -0.0916
12727SOL    HW249111   9.334   4.533   5.595  0.0056 -0.2324 -1.6021
12728SOL     OW49112   2.620   3.099   3.653 -0.0845 -0.9409 -0.0008
12728SOL    HW149113   2.558   3.176   3.642  1.0728  0.1231  0.8019
12728SOL    HW249114   2.576   3.028   3.707 -1.3148 -1.0536 -1.1132
12729SOL     OW49115   0.170   3.030   2.342 -0.3516 -0.1515 -0.6667
12729SOL    HW149116   0.156   2.990   2.433  1.4327  2.2405  0.7305
12729SOL    HW249117   0.261   3.005   2.308 -0.3355  0.3684 -1.0245
12730SOL     OW49118   5.519   1.245   1.238  0.4387 -0.4427  0.8817
12730SOL    HW149119   5.609   1.249   1.193  0.0071  2.0222  0.1543
12730SOL    HW249120   5.493   1.150   1.251  1.7462 -1.2216 -1.7624
12731SOL     OW49121   1.477   6.073   0.295 -0.2640 -0.9887  0.6378
12731SOL    HW149122   1.378   6.081   0.280 -0.0165 -1.3049 -1.2419
12731SOL    HW249123   1.497   5.985   0.337 -0.5086 -2.2019 -1.7114
12732SOL     OW49124   9.163   0.806   5.240 -0.0404  0.2398 -0.3462
12732SOL    HW149125   9.176   0.851   5.152  0.7567 -0.2019 -0.4661
12732SOL    HW249126   9.096   0.733   5.231  1.9274 -1.5134 -1.2304
12733SOL     OW49127   1.460   5.923   3.328  0.4014  0.3245  0.3021
12733SOL    HW149128   1.517   5.870   3.390  0.6362 -0.4132 -0.5238
12733SOL    HW249129   1.490   5.906   3.233 -1.5626 -0.5403 -0.1819
12734SOL     OW49130   0.561   2.797   3.753  0.0055  0.4195 -0.5978
12734SOL    HW149131   0.482   2.841   3.711 -0.7737  0.1640  0.6194
12734SOL    HW249132   0.532   2.718   3.806  1.0597  0.3782 -0.0667
12735SOL     OW49133   4.944   0.848   2.520  0.0955  0.1261  0.3240
12735SOL    HW149134   4.917   0.832   2.425 -0.8776  0.2094  0.5765
12735SOL    HW249135   5.016   0.783   2.546 -0.6073 -0.8235 -0.0513
12736SOL     OW49136   8.068   8.914   4.130 -0.1660 -0.8449  0.2846
12736SOL    HW149137   7.980   8.949   4.161 -0.2085 -1.0080  0.3443
12736SOL    HW249138   8.092   8.958   4.043  0.8352  1.0050  1.4506
12737SOL     OW49139   4.501   2.885   0.805  0.0301  0.1513 -0.2137
12737SOL    HW149140   4.599   2.900   0.820 -0.3362 -1.0483  3.7845
12737SOL    HW249141   4.486   2.789   0.782 -0.2228  0.3709 -0.9880
12738SOL     OW49142   9.456   5.251   5.408  0.0102  0.1585  0.1232
12738SOL    HW149143   9.399   5.282   5.483 -0.2213  1.1521 -0.4532
12738SOL    HW249144   9.400   5.202   5.341 -0.0844  0.7611 -0.2352
12739SOL     OW49145   8.610   3.670   2.707 -0.1877 -0.3177 -0.5701
12739SOL    HW149146   8.702   3.633   2.715  0.4993  1.6041  0.9914
12739SOL    HW249147   8.547   3.619   2.765  0.7377  0.8615  1.5254
12740SOL     OW49148   1.436   9.828   5.542  0.9028  0.8898  0.2959
12740SOL    HW149149   1.404   9.754   5.602  0.8643  1.6019  1.1591
12740SOL    HW249150   1.518   9.870   5.581  2.1944 -0.1053 -1.2862
12741SOL     OW49151   9.129   8.672   0.706 -0.4866 -0.8193 -0.0277
12741SOL    HW149152   9.221   8.676   0.666 -0.0341  0.5265  1.0962
12741SOL    HW249153   9.079   8.754   0.683 -0.9479 -0.9635  0.4489
12742SOL     OW49154   4.567   1.337   2.890  0.3942  0.2880  0.5571
12742SOL    HW149155   4.587   1.312   2.985  3.6818 -0.1157 -0.1713
12742SOL    HW249156   4.546   1.254   2.838  2.4764  0.0010  0.1149
12743SOL     OW49157   7.123   1.372   4.487 -0.2145  0.0230 -0.3024
12743SOL    HW149158   7.123   1.456   4.432  1.5275 -0.5406 -1.1864
12743SOL    HW249159   7.059   1.306   4.447 -1.5087  0.8706  0.3318
12744SOL     OW49160   1.197   1.650   4.520  0.0458 -0.2717  0.8305
12744SOL    HW149161   1.157   1.562   4.495 -0.2597  0.5466 -1.7305
12744SOL    HW249162   1.296   1.640   4.530  0.0198 -0.9050  0.4789
12745SOL     OW49163   8.708   1.164   0.539 -0.2191  0.0117 -0.3299
12745SOL    HW149164   8.749   1.136   0.453  1.0530 -0.0146  0.2864
12745SOL    HW249165   8.623   1.214   0.520  0.3504  0.5050 -1.6100
12746SOL     OW49166   8.006   7.054   1.957 -0.0804  0.2540  0.3893
12746SOL    HW149167   7.997   6.985   1.886  0.7958  0.1115  0.4118
12746SOL    HW249168   8.015   7.145   1.915 -0.2960  0.2525  0.3390
12747SOL     OW49169   9.392   1.288   1.614  0.6959 -0.1896  0.0255
12747SOL    HW149170   9.492   1.282   1.611  0.8746  1.2508  1.7713
12747SOL    HW249171   9.365   1.384   1.602 -0.4822 -0.5822 -0.4674
12748SOL     OW49172   1.432   4.678   2.067  0.0339 -0.1648 -0.0089
12748SOL    HW149173   1.353   4.650   2.012  0.4524  1.4501 -1.4810
12748SOL    HW249174   1.405   4.752   2.128 -0.8954 -3.1813  3.3661
12749SOL     OW49175   8.291   1.121   0.377 -0.0564 -0.3810  0.0121
12749SOL    HW149176   8.316   1.059   0.303  0.1587 -2.6524  1.9372
12749SOL    HW249177   8.191   1.129   0.381 -0.0604 -0.0536 -0.6698
12750SOL     OW49178   9.310   1.106   0.744  0.0918  0.1081 -0.2180
12750SOL    HW149179   9.231   1.047   0.758 -1.0520  1.1437 -2.0747
12750SOL    HW249180   9.342   1.098   0.649  1.8632  0.1402  0.3504
12751SOL     OW49181   6.895   0.971   1.900  0.8726  0.5263  0.4356
12751SOL    HW149182   6.854   0.986   1.990 -1.2123 -4.0297  0.4053
12751SOL    HW249183   6.834   1.009   1.830 -0.5777 -1.2309  0.6962
12752SOL     OW49184   0.875   8.881   4.134  0.3237 -0.2035 -0.6093
12752SOL    HW149185   0.786   8.925   4.139 -0.2847 -1.6194  2.1670
12752SOL    HW249186   0.866   8.790   4.095  0.1188 -1.2582  1.7901
12753SOL     OW49187   2.230   4.727   5.348  0.2964 -0.0839 -0.1333
12753SOL    HW149188   2.317   4.676   5.350  1.3666  1.7382  1.9136
12753SOL    HW249189   2.245   4.815   5.303 -0.4825  0.2394  0.2401
12754SOL     OW49190   0.038   1.280   0.652  0.3225 -0.3007 -0.1820
12754SOL    HW149191   0.084   1.358   0.695  0.5861  1.5248 -3.6463
12754SOL    HW249192  -0.053   1.308   0.621 -0.3351 -1.9350  0.2132
12755SOL     OW49193   1.093   8.588   1.603 -0.5798  0.3028 -0.4064
12755SOL    HW149194   1.046   8.510   1.644 -0.9363  0.6954 -0.0583
12755SOL    HW249195   1.059   8.604   1.510 -0.3958 -0.0500 -0.5338
12756SOL     OW49196   3.380   9.017   2.066 -0.2479 -0.3672 -0.5212
12756SOL    HW149197   3.405   8.961   2.145 -1.1422 -0.7363 -0.4936
12756SOL    HW249198   3.342   8.958   1.994  2.8550 -0.3997 -2.2334
12757SOL     OW49199   1.329   6.387   1.225  0.3502  0.7487 -0.8595
12757SOL    HW149200   1.406   6.435   1.268  0.7615 -0.1058 -0.6316
12757SOL    HW249201   1.316   6.422   1.132  1.1465  0.7744 -0.9685
12758SOL     OW49202   9.545   6.483   2.618 -0.1140 -0.3694 -0.1382
12758SOL    HW149203   9.645   6.479   2.607  0.0718 -1.7979  1.6625
12758SOL    HW249204   9.522   6.557   2.681 -0.0609 -0.9662  0.5914
12759SOL     OW49205   2.597   3.920   2.593 -0.2119  0.2759 -0.0008
12759SOL    HW149206   2.578   3.830   2.632 -0.4018  0.0340 -0.6402
12759SOL    HW249207   2.686   3.919   2.548 -0.9297 -0.0927 -1.4596
12760SOL     OW49208   1.023   4.137   1.721 -0.0738 -0.4441 -0.0606
12760SOL    HW149209   0.960   4.115   1.795 -1.3030  0.1505 -0.9063
12760SOL    HW249210   0.974   4.131   1.634  1.4556 -1.5387 -0.8580
12761SOL     OW49211   3.645   0.893   0.003 -0.3780  0.0157  0.5645
12761SOL    HW149212   3.549   0.915  -0.014  0.3535  2.5502 -0.5630
12761SOL    HW249213   3.682   0.841  -0.075 -0.2431  1.1137 -0.1281
12762SOL     OW49214   0.188   6.160   3.085  0.2959  0.1259  0.0777
12762SOL    HW149215   0.201   6.258   3.100  1.0652 -0.1151  1.0110
12762SOL    HW249216   0.277   6.115   3.081 -0.0554 -0.5260 -0.4305
12763SOL     OW49217   3.164   3.593   0.283  0.0019 -0.3940 -0.1217
12763SOL    HW149218   3.168   3.497   0.312  0.6959  0.1031  1.4928
12763SOL    HW249219   3.241   3.612   0.222 -0.5476 -1.0446 -1.0274
12764SOL     OW49220   0.199   6.706   3.290 -0.2200  0.0342  0.1447
12764SOL    HW149221   0.252   6.645   3.348  0.5187 -0.0970 -0.6517
12764SOL    HW249222   0.116   6.735   3.338  0.2463 -0.2825  1.1504
12765SOL     OW49223   2.229   8.963   3.651  0.1677 -0.0535 -0.4449
12765SOL    HW149224   2.234   9.036   3.583  0.5096  1.1876  0.8904
12765SOL    HW249225   2.264   8.997   3.739 -1.2611 -1.3082  0.6273
12766SOL     OW49226   4.019   6.150   2.542  0.2296 -0.1547 -0.6727
12766SOL    HW149227   3.956   6.075   2.522  1.5947 -1.7658  0.8948
12766SOL    HW249228   4.032   6.206   2.460 -0.5860 -1.8036 -1.9523
12767SOL     OW49229   3.563   0.175   0.399  1.0878 -0.1761  0.4679
12767SOL    HW149230   3.584   0.132   0.311  0.6152  0.5377  0.0004
12767SOL    HW249231   3.648   0.207   0.442  1.1270  1.3299 -0.7042
12768SOL     OW49232   4.057   2.157   3.789  0.1260 -0.1359 -0.3698
12768SOL    HW149233   4.119   2.157   3.710  0.1758 -0.2336 -0.3322
12768SOL    HW249234   4.082   2.081   3.849 -2.2882 -2.4110 -2.1214
12769SOL     OW49235   4.375   9.967   0.767 -0.3673  0.6532 -0.2316
12769SOL    HW149236   4.396   9.869   0.771 -0.3507  0.7204  1.7391
12769SOL    HW249237   4.341   9.990   0.676 -0.1984 -1.1481 -0.7686
12770SOL     OW49238   9.670   1.493   2.011 -0.2072  0.3363 -0.2846
12770SOL    HW149239   9.714   1.404   1.998 -1.1213 -0.2299  0.3865
12770SOL    HW249240   9.580   1.491   1.969  0.5317  1.6204 -1.9890
12771SOL     OW49241   0.571   4.954   1.891  0.1114 -0.4669 -0.2744
12771SOL    HW149242   0.500   4.891   1.860  0.8784 -1.8182  0.6755
12771SOL    HW249243   0.657   4.905   1.904  0.5821  0.6570  1.0399
12772SOL     OW49244   1.685   1.502   0.200 -0.2984  0.1907  0.6057
12772SOL    HW149245   1.672   1.480   0.103  0.5612  0.7936  0.3427
12772SOL    HW249246   1.628   1.580   0.225 -0.8276 -0.2230  0.6884
12773SOL     OW49247   4.850   3.075   2.459 -0.7584 -0.3993  0.3568
12773SOL    HW149248   4.899   2.991   2.436  0.9640  1.0781 -1.6078
12773SOL    HW249249   4.778   3.091   2.391 -0.1779  0.4021 -0.0811
12774SOL     OW49250   8.271   8.827   1.361 -0.4643  0.1484  0.2092
12774SOL    HW149251   8.337   8.755   1.341  0.4722  0.6298  1.4697
12774SOL    HW249252   8.314   8.897   1.419 -1.6795  1.1580 -0.0696
12775SOL     OW49253   8.417   6.044   2.572 -0.6491  0.1703  0.1682
12775SOL    HW149254   8.468   6.128   2.552 -0.6483  0.6648  2.2229
12775SOL    HW249255   8.460   5.967   2.525  1.2907  0.7764  0.9133
12776SOL     OW49256   3.141   0.187   4.015  0.0158  0.2466 -0.2602
12776SOL    HW149257   3.194   0.262   3.977  0.6903 -0.3277 -0.4682
12776SOL    HW249258   3.096   0.217   4.099  1.1791  0.5605  0.2641
12777SOL     OW49259   6.132   9.270   3.006  0.3703 -0.5941  0.1297
12777SOL    HW149260   6.121   9.202   3.079 -0.0803  0.3699  0.9793
12777SOL    HW249261   6.228   9.273   2.978  0.7982 -0.1085  1.5709
12778SOL     OW49262   1.334   2.068   2.673 -0.0822 -0.1722 -1.2161
12778SOL    HW149263   1.340   1.971   2.698 -2.7595 -0.4759 -1.5794
12778SOL    HW249264   1.397   2.086   2.597  0.3045 -1.6775 -1.2801
12779SOL     OW49265   0.495   5.197   4.442 -0.0528 -0.5266  0.4611
12779SOL    HW149266   0.520   5.159   4.531  1.9826  0.2692  0.2625
12779SOL    HW249267   0.431   5.135   4.396 -1.9449 -0.4577  2.8688
12780SOL     OW49268   6.368   7.629   1.800  0.5535 -0.1842 -0.0156
12780SOL    HW149269   6.277   7.659   1.829  0.9028  0.8463  0.0320
12780SOL    HW249270   6.366   7.532   1.779 -0.1814 -0.5190  1.5475
12781SOL     OW49271   8.943   2.519   1.248 -0.0281  0.1679 -0.3711
12781SOL    HW149272   8.848   2.497   1.227  0.7385 -3.7371 -0.2630
12781SOL    HW249273   9.000   2.500   1.168  0.7560  2.0078 -0.2849
12782SOL     OW49274   9.071   9.060   4.278  0.5088 -1.3052  0.2541
12782SOL    HW149275   9.043   8.966   4.299 -0.9584 -1.4753 -2.2288
12782SOL    HW249276   9.145   9.058   4.210 -2.1515 -0.6571 -2.7578
12783SOL     OW49277   0.189   6.674   1.458 -0.1587 -0.1891 -0.3802
12783SOL    HW149278   0.283   6.708   1.461 -0.4853  0.8304 -1.5514
12783SOL    HW249279   0.186   6.588   1.407  0.3030 -0.7921  0.5961
12784SOL     OW49280   6.516   9.607   4.214  0.4573 -0.3479  0.3846
12784SOL    HW149281   6.557   9.606   4.123  0.8661 -2.2522  0.5755
12784SOL    HW249282   6.420   9.580   4.207  1.0864 -2.7770  0.7741
12785SOL     OW49283   9.186   8.634   3.929 -0.6031  0.2111  0.2452
12785SOL    HW149284   9.216   8.540   3.946 -0.7924 -0.1858 -1.6090
12785SOL    HW249285   9.235   8.695   3.991  1.5405 -0.8035 -0.3978
12786SOL     OW49286   0.574   0.184   4.620 -0.1358  0.9784  0.3043
12786SOL    HW149287   0.586   0.251   4.547  0.7897  1.4985  0.9239
12786SOL    HW249288   0.623   0.214   4.701 -0.4946  0.0056  0.8911
12787SOL     OW49289   2.816   1.432   5.282 -0.2595 -0.1418  0.6237
12787SOL    HW149290   2.777   1.346   5.315 -0.1481 -0.6624 -0.5594
12787SOL    HW249291   2.916   1.429   5.288 -0.3424  0.8302  2.7824
12788SOL     OW49292   8.048   6.780   4.414 -0.3016 -0.4671  0.1987
12788SOL    HW149293   8.123   6.734   4.462 -0.6524 -0.5491  0.6644
12788SOL    HW249294   7.975   6.801   4.478  1.0151  3.2502  0.6020
12789SOL     OW49295   2.351   9.826   2.626  0.9214  0.3507 -0.5587
12789SOL    HW149296   2.324   9.777   2.708  0.9184  1.5287  0.1626
12789SOL    HW249297   2.270   9.847   2.571  0.6230  1.6598  0.3441
12790SOL     OW49298   7.186   9.898   4.653 -0.0251 -0.1456 -0.3518
12790SOL    HW149299   7.267   9.841   4.658  1.3026  1.6994 -0.3526
12790SOL    HW249300   7.107   9.847   4.688  1.4477 -1.3544  1.2883
12791SOL     OW49301   0.630   9.253   2.618 -0.4164  0.0609 -0.5133
12791SOL    HW149302   0.692   9.180   2.589 -1.9257 -1.4636  0.0410
12791SOL    HW249303   0.556   9.261   2.552  0.0735  1.5605 -0.9139
12792SOL     OW49304   4.744   0.845   5.631  0.1438 -0.2426  0.6100
12792SOL    HW149305   4.769   0.789   5.552  1.0824  0.3052  0.5134
12792SOL    HW249306   4.659   0.894   5.611 -0.6601 -1.5754  0.6728
12793SOL     OW49307   4.233   2.395   1.099 -0.0939 -0.0445  0.7573
12793SOL    HW149308   4.185   2.313   1.067 -0.5004  0.6677 -0.5002
12793SOL    HW249309   4.166   2.465   1.123  0.2925  0.7067 -0.3293
12794SOL     OW49310   3.807   0.038   5.539  0.4664 -0.1505 -0.0941
12794SOL    HW149311   3.864  -0.044   5.532 -0.1771 -0.5544 -0.8023
12794SOL    HW249312   3.739   0.037   5.465  1.8996  2.1680 -1.5129
12795SOL     OW49313   8.223   3.517   0.902  0.6810 -0.5154  0.6936
12795SOL    HW149314   8.216   3.452   0.977  1.2987 -0.0809  1.1213
12795SOL    HW249315   8.136   3.566   0.893  0.1438 -1.5273  0.2434
12796SOL     OW49316   8.284   6.868   2.937 -0.0940  0.1638  0.2268
12796SOL    HW149317   8.205   6.810   2.915  0.9024 -1.4115  0.6906
12796SOL    HW249318   8.340   6.879   2.855  0.2391 -0.3673  0.3798
12797SOL     OW49319   9.731   2.902   3.993  0.4945  0.8012  0.0442
12797SOL    HW149320   9.783   2.879   4.075 -1.4522  1.6114  1.5335
12797SOL    HW249321   9.717   2.819   3.939 -0.2214 -0.2032  1.7193
12798SOL     OW49322   9.797   2.721   3.739 -0.1259 -0.2461 -0.1994
12798SOL    HW149323   9.890   2.714   3.776 -0.2261  0.7563  0.2752
12798SOL    HW249324   9.802   2.744   3.641  0.1263 -1.3877 -0.4642
12799SOL     OW49325   1.591   3.087   2.108 -0.0525 -0.3943 -0.6857
12799SOL    HW149326   1.591   3.152   2.032 -1.0173 -0.9739 -1.1989
12799SOL    HW249327   1.546   3.002   2.079 -0.9016 -0.4300  0.6921
12800SOL     OW49328   3.530   5.988   0.876 -0.0483 -0.1615 -0.2093
12800SOL    HW149329   3.561   6.000   0.781  1.1279 -0.6611  0.1033
12800SOL    HW249330   3.523   6.078   0.920 -0.4994  0.0651 -0.7281
12801SOL     OW49331   1.895   0.815   2.724 -0.4866  0.3738 -0.3940
12801SOL    HW149332   1.867   0.732   2.676  0.3262  0.4432 -0.9950
12801SOL    HW249333   1.872   0.895   2.668  0.3828  0.4598 -0.6301
12802SOL     OW49334   8.532   3.890   0.031  0.1568  0.3538  0.0867
12802SOL    HW149335   8.538   3.930   0.123  0.3169  1.9728 -0.6172
12802SOL    HW249336   8.576   3.800   0.032  1.4281  0.9576  1.2732
12803SOL     OW49337   4.049   8.479   3.940 -0.1702  0.0721  0.4895
12803SOL    HW149338   4.074   8.434   3.854 -0.3437 -1.1667  1.0679
12803SOL    HW249339   3.959   8.522   3.929  1.0667  2.4344 -0.8288
12804SOL     OW49340   8.495   1.946   2.382  0.1935 -0.2934  0.0453
12804SOL    HW149341   8.518   1.868   2.325  2.4532  0.2307  0.1793
12804SOL    HW249342   8.429   2.004   2.334 -0.7762 -1.7651 -0.4431
12805SOL     OW49343   2.295   6.919   1.902  0.2476 -0.0089  0.0249
12805SOL    HW149344   2.330   6.991   1.843 -0.5336 -0.1248 -0.5738
12805SOL    HW249345   2.234   6.959   1.971  0.8014  0.0639  0.4834
12806SOL     OW49346   4.895   1.150   1.663 -0.1413 -0.4846  0.2974
12806SOL    HW149347   4.935   1.241   1.653  1.5141 -1.0646  1.4525
12806SOL    HW249348   4.800   1.151   1.630 -0.5970  1.9792  1.5529
12807SOL     OW49349   6.606   1.122   2.299  0.3237 -0.0831 -0.1227
12807SOL    HW149350   6.527   1.156   2.349 -0.3149 -2.4290  0.5053
12807SOL    HW249351   6.668   1.198   2.279 -0.5111  1.2581  2.2239
12808SOL     OW49352   9.856   0.015   5.427 -0.1758  0.2046 -0.0490
12808SOL    HW149353   9.929  -0.021   5.369 -0.6919 -0.3538 -0.3644
12808SOL    HW249354   9.797   0.075   5.373 -0.5422 -0.1588 -0.0563
12809SOL     OW49355   1.484   0.507   5.624  0.6316 -0.0714 -0.4296
12809SOL    HW149356   1.464   0.601   5.599  2.6332  0.5500  0.1480
12809SOL    HW249357   1.399   0.455   5.633 -0.4162  1.3299 -2.0596
12810SOL     OW49358   9.065   4.763   1.174 -0.0381 -0.5711 -0.6056
12810SOL    HW149359   9.108   4.753   1.264  0.7953 -0.3266 -0.9741
12810SOL    HW249360   9.070   4.859   1.146  0.9272 -0.8782 -1.5119
12811SOL     OW49361   6.091   0.584   3.443  0.2770  0.1605 -0.3388
12811SOL    HW149362   6.134   0.657   3.495  0.7282 -0.0610 -0.3991
12811SOL    HW249363   6.132   0.579   3.352 -0.1937  0.2500 -0.5569
12812SOL     OW49364   3.816   2.725   4.750  0.3827  0.4739 -0.0727
12812SOL    HW149365   3.907   2.735   4.789  0.8132  2.2145 -1.4316
12812SOL    HW249366   3.748   2.719   4.824  1.4140  1.1521  0.9416
12813SOL     OW49367   2.260   7.665   2.377  0.1766 -0.1743 -0.2600
12813SOL    HW149368   2.312   7.749   2.359 -1.0213  0.8874  1.0585
12813SOL    HW249369   2.162   7.686   2.373 -0.1218 -1.1387  1.7744
12814SOL     OW49370   9.159   6.236   1.500 -0.3974 -0.1980 -0.0343
12814SOL    HW149371   9.132   6.156   1.447 -1.7127  0.3838 -0.2604
12814SOL    HW249372   9.253   6.225   1.531  0.0137 -1.0681 -1.5205
12815SOL     OW49373   8.834   9.486   3.396  0.4856  0.0474 -0.2791
12815SOL    HW149374   8.829   9.574   3.349 -0.3082 -0.2117 -0.6824
12815SOL    HW249375   8.818   9.412   3.330  0.9293 -0.3925  0.0996
12816SOL     OW49376   5.532   0.470   1.334  0.2088  0.8467  0.0260
12816SOL    HW149377   5.505   0.381   1.299 -0.0825  1.7044 -2.0193
12816SOL    HW249378   5.457   0.509   1.388  0.1606  0.0616  0.5249
12817SOL     OW49379   9.576   3.250   5.196 -0.5138 -0.0071  0.5226
12817SOL    HW149380   9.579   3.165   5.143 -3.7011 -0.3886  0.8806
12817SOL    HW249381   9.526   3.319   5.144 -1.1967  0.4810  1.8028
12818SOL     OW49382   5.285   9.572   2.407  0.7866  0.4222  0.0302
12818SOL    HW149383   5.334   9.559   2.322 -0.6658 -0.4543 -0.6933
12818SOL    HW249384   5.339   9.629   2.469  1.4526  1.8519 -1.8254
12819SOL     OW49385   8.161   4.512   4.210  0.0582  0.1088 -0.0139
12819SOL    HW149386   8.231   4.582   4.228  0.0883 -0.0526  0.5086
12819SOL    HW249387   8.099   4.506   4.288 -0.0118 -0.3712 -0.1078
12820SOL     OW49388   2.015   9.980   4.098 -0.1216 -0.2487 -0.0698
12820SOL    HW149389   2.050   9.932   4.178  0.8058 -0.6681 -0.7263
12820SOL    HW249390   1.919  10.003   4.113  0.0385 -0.3388  1.1539
12821SOL     OW49391   3.144   6.117   5.394 -0.2611  0.4365 -0.2769
12821SOL    HW149392   3.129   6.208   5.433 -0.6905  0.0925  0.3789
12821SOL    HW249393   3.242   6.099   5.385 -0.1695  0.6905  0.2416
12822SOL     OW49394   2.244   1.884   3.759 -0.1663 -0.3575  0.4222
12822SOL    HW149395   2.252   1.959   3.825  0.1286 -0.3226  0.3482
12822SOL    HW249396   2.237   1.921   3.666  1.2933 -0.4461  0.2634
12823SOL     OW49397   2.856   7.778   0.431 -0.0854  0.5190 -0.5292
12823SOL    HW149398   2.955   7.771   0.428 -0.1534 -0.7529 -0.0779
12823SOL    HW249399   2.815   7.697   0.388 -0.9235  0.3745  0.5180
12824SOL     OW49400   2.670   8.132   1.088 -0.5131  0.3238  0.4811
12824SOL    HW149401   2.667   8.137   1.188 -0.0485  0.1202  0.5069
12824SOL    HW249402   2.582   8.160   1.050 -1.4261 -1.7835  1.0180
12825SOL     OW49403   9.187   4.649   3.825  0.6633  0.2892  0.1479
12825SOL    HW149404   9.158   4.733   3.872 -1.2738 -0.7233  0.8288
12825SOL    HW249405   9.207   4.670   3.729 -0.1465  1.4754  0.2260
12826SOL     OW49406   1.083   9.538   4.881 -0.1186  0.0005 -0.0323
12826SOL    HW149407   1.063   9.636   4.891  1.0319  0.0447  2.1361
12826SOL    HW249408   1.155   9.526   4.812 -2.5213  0.3750 -2.7211
12827SOL     OW49409   1.829   4.911   3.285  0.4469 -0.2182 -0.1890
12827SOL    HW149410   1.878   4.974   3.345  0.0016 -0.0745  0.0216
12827SOL    HW249411   1.754   4.960   3.240  2.1105  0.2476 -2.5344
12828SOL     OW49412   9.534   9.297   2.095  0.0778 -0.1797 -0.1130
12828SOL    HW149413   9.480   9.319   2.013  0.7528 -1.5853 -0.9446
12828SOL    HW249414   9.615   9.355   2.097  0.2683 -0.4226 -0.6557
12829SOL     OW49415   9.158   8.952   3.629  0.0303  0.8157 -0.5032
12829SOL    HW149416   9.156   9.031   3.568  0.6724  0.4527 -1.0005
12829SOL    HW249417   9.249   8.943   3.669  0.8691 -1.4204 -2.7902
12830SOL     OW49418   7.889   2.282   0.088 -0.0411  0.9155  0.6160
12830SOL    HW149419   7.912   2.353   0.154  0.9812  1.9897 -0.8549
12830SOL    HW249420   7.790   2.277   0.077 -0.1031  2.4969  0.3420
12831SOL     OW49421   1.808   5.405   3.221 -0.1319  0.2013 -0.0781
12831SOL    HW149422   1.721   5.452   3.235 -0.3812 -0.8147  1.9299
12831SOL    HW249423   1.877   5.443   3.283  0.3586 -0.3131 -0.3067
12832SOL     OW49424   7.471   6.600   4.381  0.4209  0.0496 -0.3972
12832SOL    HW149425   7.539   6.668   4.410  0.1415  0.2699 -0.2581
12832SOL    HW249426   7.426   6.631   4.298 -1.2818  1.0992  0.8783
12833SOL     OW49427   3.397   5.285   0.795 -0.2528 -0.5608  0.4873
12833SOL    HW149428   3.405   5.272   0.893  0.3686 -0.0437  0.5077
12833SOL    HW249429   3.399   5.383   0.774 -0.3712 -0.6689 -0.0368
12834SOL     OW49430   6.115   6.577   3.304 -0.0829 -0.1207 -0.2679
12834SOL    HW149431   6.053   6.637   3.355 -1.8702 -0.6054 -1.7940
12834SOL    HW249432   6.160   6.629   3.232  1.2741  0.2172  0.8025
12835SOL     OW49433   3.532   1.717   2.609  0.6412  0.0172  0.1357
12835SOL    HW149434   3.549   1.815   2.618  2.7972 -0.5197  2.0845
12835SOL    HW249435   3.568   1.685   2.521  0.0410  0.9298 -0.4534
12836SOL     OW49436   7.089   9.022   1.566 -0.2207 -0.0625 -0.0054
12836SOL    HW149437   7.016   9.080   1.530 -0.1483  0.9057  1.3731
12836SOL    HW249438   7.170   9.077   1.582 -0.3584 -0.3934  1.9453
12837SOL     OW49439   0.956   9.634   4.309 -0.7185  0.5100  1.0431
12837SOL    HW149440   0.886   9.699   4.281 -1.2991  0.0720  1.4626
12837SOL    HW249441   0.951   9.552   4.251  0.5601  1.1735 -0.0375
12838SOL     OW49442   8.952   7.503   2.529  0.2264 -0.5307  0.1548
12838SOL    HW149443   9.011   7.466   2.458  0.5135  0.2104 -0.0011
12838SOL    HW249444   8.938   7.601   2.513  1.1386 -0.1215  1.6769
12839SOL     OW49445   2.707   1.127   3.681  0.0561 -0.0532  0.1361
12839SOL    HW149446   2.746   1.218   3.689  1.8628 -0.8952  1.3387
12839SOL    HW249447   2.752   1.066   3.747  1.5886 -2.7199 -3.2192
12840SOL     OW49448   9.080   6.050   4.229 -0.0124  0.2042 -0.8791
12840SOL    HW149449   9.128   5.963   4.234  0.8181  0.4550 -3.6780
12840SOL    HW249450   9.080   6.083   4.135 -2.0959  2.2460 -0.2166
12841SOL     OW49451   1.024   3.870   0.258 -0.1461 -0.0157 -0.4219
12841SOL    HW149452   1.093   3.850   0.328 -1.2141 -1.2576  0.2899
12841SOL    HW249453   1.062   3.850   0.167  1.0958  1.1966 -0.1893
12842SOL     OW49454   0.040   5.772   5.354 -0.4662 -0.0405  0.3053
12842SOL    HW149455   0.019   5.870   5.349  0.6186  0.1516 -0.6312
12842SOL    HW249456   0.007   5.736   5.441 -1.5405  0.9961  0.3520
12843SOL     OW49457   4.723   4.309   2.106  0.3221 -0.2210 -0.1239
12843SOL    HW149458   4.724   4.282   2.010 -1.2047 -0.1173 -0.1779
12843SOL    HW249459   4.787   4.251   2.157  0.2902 -1.0441 -0.9977
12844SOL     OW49460   7.994   6.345   3.882  0.2394  0.0761  0.0846
12844SOL    HW149461   8.057   6.422   3.893  0.9802  0.0305 -3.1772
12844SOL    HW249462   8.043   6.259   3.897  0.4134  0.1158 -0.2524
12845SOL     OW49463   5.465   5.025   0.820  0.2310 -0.3333  0.1818
12845SOL    HW149464   5.554   5.057   0.787  0.1834 -1.6883 -1.2839
12845SOL    HW249465   5.393   5.078   0.777  0.2369 -0.9062 -0.5362
12846SOL     OW49466   0.742   2.657   3.252  0.6174 -0.2074  0.6746
12846SOL    HW149467   0.722   2.666   3.349 -1.9536  2.0774  0.0015
12846SOL    HW249468   0.696   2.576   3.216  1.9550 -1.3218  1.4192
12847SOL     OW49469   8.396   2.343   4.653  0.1577 -0.3087 -0.2603
12847SOL    HW149470   8.338   2.263   4.672 -0.4372 -0.0829 -1.1076
12847SOL    HW249471   8.348   2.405   4.592  1.5891 -0.4841 -1.5954
12848SOL     OW49472   2.711   3.403   3.386  0.4495  0.6041 -0.3326
12848SOL    HW149473   2.730   3.340   3.311 -1.3102  0.0753 -0.3730
12848SOL    HW249474   2.724   3.497   3.354  2.5628  0.2954 -0.4246
12849SOL     OW49475   6.292   1.114   1.021  0.4763  0.8745  0.1596
12849SOL    HW149476   6.219   1.159   0.968  1.3454  2.8486  0.5821
12849SOL    HW249477   6.376   1.114   0.968  0.5903  0.1193  0.3414
12850SOL     OW49478   9.151   7.967   4.435 -0.2821 -0.5744  0.9742
12850SOL    HW149479   9.160   7.868   4.431 -0.0417 -0.6169  2.3622
12850SOL    HW249480   9.061   7.994   4.401 -0.1096 -1.2175  0.0081
12851SOL     OW49481   6.045   9.990   2.885  0.3911  0.3185 -0.4954
12851SOL    HW149482   6.079   9.896   2.896  1.1860  0.6626  0.0011
12851SOL    HW249483   6.065  10.042   2.968  1.5548  1.4351 -1.4616
12852SOL     OW49484   5.642   7.657   3.379 -0.4529 -0.4200  0.1665
12852SOL    HW149485   5.653   7.572   3.329 -2.7360 -1.2858  1.0272
12852SOL    HW249486   5.638   7.734   3.315  0.7754 -1.0397 -0.6694
12853SOL     OW49487   2.344   9.570   0.043  0.0238  0.1199  0.3882
12853SOL    HW149488   2.277   9.510   0.000 -0.8668  1.8238 -0.6473
12853SOL    HW249489   2.407   9.604  -0.026 -0.2359  1.3524  0.7502
12854SOL     OW49490   5.524   0.553   3.549 -0.3189  0.4629 -0.3681
12854SOL    HW149491   5.575   0.467   3.557  1.6441  1.7472  1.1803
12854SOL    HW249492   5.461   0.562   3.626 -0.1568  0.6573 -0.2583
12855SOL     OW49493   2.472   8.148   0.320  0.4262  0.2196 -0.4042
12855SOL    HW149494   2.556   8.093   0.321 -0.5374 -1.2834  1.9710
12855SOL    HW249495   2.401   8.102   0.373 -1.0916  2.7661 -0.1398
12856SOL     OW49496   0.586   5.746   1.022 -0.3836 -0.1019 -0.0767
12856SOL    HW149497   0.605   5.843   1.006 -0.3823  0.0782  1.0239
12856SOL    HW249498   0.494   5.725   0.989 -0.3921  0.2725 -0.3057
12857SOL     OW49499   3.374   8.055   1.267 -0.0585  0.0937  0.5264
12857SOL    HW149500   3.447   8.059   1.200 -0.8225  0.3424 -0.2949
12857SOL    HW249501   3.372   7.963   1.308  0.6245  0.0504  0.4678
12858SOL     OW49502   8.729   7.357   2.537  0.2019  0.2662 -0.4481
12858SOL    HW149503   8.810   7.416   2.528 -0.4748  1.1552 -0.7656
12858SOL    HW249504   8.728   7.290   2.463  0.7220  0.1558 -0.3585
12859SOL     OW49505   0.331   8.990   2.116  0.4807 -0.2728 -0.1418
12859SOL    HW149506   0.292   8.987   2.024  0.8442 -2.8856 -0.2469
12859SOL    HW249507   0.263   8.961   2.183  1.1064 -1.2212  0.0902
12860SOL     OW49508   8.166   5.348   3.426  0.5754 -0.2290  0.3761
12860SOL    HW149509   8.223   5.429   3.416  0.4476 -0.2615 -0.5785
12860SOL    HW249510   8.109   5.336   3.345  1.6176 -2.0779 -0.1110
12861SOL     OW49511   6.350   0.994   1.525  0.2741 -0.5461  0.1113
12861SOL    HW149512   6.322   0.902   1.497 -0.9165 -0.7496  1.9249
12861SOL    HW249513   6.293   1.062   1.479  0.8242 -0.7150 -0.8412
12862SOL     OW49514   9.333   8.517   4.851 -0.0910  0.4609 -0.3292
12862SOL    HW149515   9.428   8.486   4.846  0.1395  1.2737 -1.1191
12862SOL    HW249516   9.319   8.567   4.936  0.4763  1.2829 -0.7171
12863SOL     OW49517   1.484   0.936   0.474  0.0678 -0.6338  0.1725
12863SOL    HW149518   1.501   0.870   0.546  0.9770 -0.4743  0.1083
12863SOL    HW249519   1.437   1.016   0.512 -1.5191 -1.5317  0.1501
12864SOL     OW49520   3.912   7.967   1.114 -0.4418 -0.0509 -0.6025
12864SOL    HW149521   3.830   7.984   1.169 -1.7900 -1.5475 -2.0911
12864SOL    HW249522   3.938   7.871   1.123  1.0262  0.3586 -0.3518
12865SOL     OW49523   0.868   3.704   5.306  0.1700  0.2999 -0.2154
12865SOL    HW149524   0.826   3.793   5.322 -1.6240 -0.9366  2.3330
12865SOL    HW249525   0.799   3.641   5.271  0.6439 -0.8771  0.9237
12866SOL     OW49526   2.076   8.590   0.261 -0.1579 -0.3957  0.2622
12866SOL    HW149527   2.017   8.645   0.319  0.9167 -1.3654  2.2996
12866SOL    HW249528   2.056   8.493   0.275  0.3155 -0.6557 -0.7847
12867SOL     OW49529   1.489   8.446   4.554 -0.3953  0.0566 -0.1427
12867SOL    HW149530   1.525   8.527   4.599 -0.4087  1.1699 -2.0817
12867SOL    HW249531   1.406   8.470   4.504 -0.3119 -1.1160 -0.8650
12868SOL     OW49532   3.691   0.968   2.362  0.3923 -0.3233  0.4870
12868SOL    HW149533   3.653   0.877   2.342  2.3485 -1.2238  0.7254
12868SOL    HW249534   3.623   1.038   2.341 -0.5027 -1.7302 -1.4722
12869SOL     OW49535   3.134   2.890   0.174  0.3629 -0.0231  0.0026
12869SOL    HW149536   3.209   2.927   0.228 -0.0962  0.4968  0.2872
12869SOL    HW249537   3.065   2.960   0.160 -0.9088 -0.9987  1.2416
12870SOL     OW49538   3.335   3.376   1.826  0.1705 -0.5855 -0.1215
12870SOL    HW149539   3.423   3.343   1.862 -0.0327  0.0568  1.0217
12870SOL    HW249540   3.284   3.300   1.788  0.5298 -1.2616  0.7144
12871SOL     OW49541   7.558   1.095   3.369  0.2579 -0.0071 -0.2902
12871SOL    HW149542   7.601   1.060   3.286 -1.0466  0.0558 -1.0124
12871SOL    HW249543   7.594   1.186   3.390 -0.5206  0.6374 -1.6752
12872SOL     OW49544   6.715   8.929   4.784 -0.0329  0.3152 -0.7271
12872SOL    HW149545   6.796   8.977   4.819 -0.6567 -0.1061  1.3781
12872SOL    HW249546   6.726   8.831   4.800 -1.5018  0.3681  0.8085
12873SOL     OW49547   1.527   5.268   0.090 -0.3617  0.1445 -0.0307
12873SOL    HW149548   1.545   5.203   0.164 -1.6599 -0.3500 -0.1485
12873SOL    HW249549   1.437   5.251   0.051 -0.5980  1.8201 -0.2623
12874SOL     OW49550   9.909   1.740   4.140 -0.2615 -0.3796  0.3702
12874SOL    HW149551   9.964   1.656   4.142 -2.0092 -1.5540  0.0933
12874SOL    HW249552   9.926   1.790   4.055 -0.1095 -1.0671 -0.0047
12875SOL     OW49553   1.598   5.592   3.245 -0.4073  0.2963  0.2883
12875SOL    HW149554   1.504   5.600   3.214 -0.3992 -0.0067  0.1857
12875SOL    HW249555   1.610   5.641   3.331 -0.2427  1.8516 -0.5923
12876SOL     OW49556   1.121   6.196   3.854 -0.1374  0.2320  0.5913
12876SOL    HW149557   1.197   6.206   3.790 -0.4566  2.4572  0.5251
12876SOL    HW249558   1.151   6.225   3.945 -0.2852 -0.9955  1.0478
12877SOL     OW49559   2.352   9.746   1.067  0.4441  0.7398  0.1904
12877SOL    HW149560   2.352   9.785   0.975  1.7751  3.4218  1.2876
12877SOL    HW249561   2.269   9.773   1.115  0.3996  0.4792  0.2656
12878SOL     OW49562   1.427   4.457   0.815 -0.3421  0.2601 -0.2773
12878SOL    HW149563   1.374   4.413   0.743  0.6437  0.1078 -0.9173
12878SOL    HW249564   1.507   4.401   0.837  0.6818  1.5039 -0.7860
12879SOL     OW49565   3.285   6.826   1.299 -0.0348  0.2076 -0.3886
12879SOL    HW149566   3.232   6.806   1.381 -0.3696 -1.1723 -0.9292
12879SOL    HW249567   3.377   6.854   1.325 -0.6521  1.4474  0.5163
12880SOL     OW49568   8.094   8.420   5.441 -0.3286  0.1991 -0.2656
12880SOL    HW149569   8.117   8.408   5.538  0.3659  0.0149 -0.4457
12880SOL    HW249570   7.999   8.393   5.425 -0.5834  0.6531  0.4469
12881SOL     OW49571   0.129   7.801   1.341 -0.5371  0.8057 -0.0510
12881SOL    HW149572   0.057   7.825   1.407 -0.7889 -1.2545  0.4667
12881SOL    HW249573   0.216   7.793   1.388 -0.4261  0.8325 -0.2513
12882SOL     OW49574   2.806   8.043   0.084  0.4924  0.1889 -0.8972
12882SOL    HW149575   2.730   8.059   0.020 -1.0377 -0.5451  0.6797
12882SOL    HW249576   2.883   8.002   0.035 -0.1371  0.9045 -2.5233
12883SOL     OW49577   0.353   4.066   3.339 -0.9368  0.3658  0.1244
12883SOL    HW149578   0.388   4.064   3.245 -0.2621 -0.9217  0.3817
12883SOL    HW249579   0.279   4.000   3.348 -1.3516  0.8662  0.3642
12884SOL     OW49580   1.442   3.534   5.024 -0.2801  0.9191  0.0333
12884SOL    HW149581   1.380   3.536   5.102  1.0357 -1.5165  1.1850
12884SOL    HW249582   1.522   3.479   5.046  1.9849  3.4322 -1.6836
12885SOL     OW49583   1.874   7.457   5.016 -0.1768 -0.2853 -0.1941
12885SOL    HW149584   1.913   7.401   4.944  0.5850 -0.9227  0.7078
12885SOL    HW249585   1.938   7.531   5.039  0.6484 -1.4731  1.4522
12886SOL     OW49586   9.917   5.855   0.684 -0.5945 -0.0311 -0.1365
12886SOL    HW149587   9.869   5.767   0.683 -1.1375  0.2623 -0.6841
12886SOL    HW249588   9.852   5.928   0.662 -0.2161  0.5429  0.6604
12887SOL     OW49589   3.194   6.934   2.812  0.4959 -0.1924 -0.1082
12887SOL    HW149590   3.284   6.975   2.822  1.0198 -0.6696 -2.6854
12887SOL    HW249591   3.127   7.005   2.792  0.5196 -0.0071  0.4557
12888SOL     OW49592   5.401   1.207   3.079  0.5001 -0.3314 -0.3463
12888SOL    HW149593   5.429   1.117   3.045 -0.5553 -0.5017 -0.7750
12888SOL    HW249594   5.460   1.277   3.039  1.6078 -0.8649  0.3247
12889SOL     OW49595   9.226   8.176   5.332  0.2188  0.0906 -0.2319
12889SOL    HW149596   9.247   8.239   5.258  0.9730 -0.1339 -0.2182
12889SOL    HW249597   9.187   8.226   5.409  0.2500  0.4501 -0.4511
12890SOL     OW49598   4.213   7.402   3.940 -0.1878  0.5059 -0.1019
12890SOL    HW149599   4.176   7.310   3.954  0.5683  0.0827 -0.8677
12890SOL    HW249600   4.193   7.458   4.020 -1.6250 -0.0011 -0.0876
12891SOL     OW49601   1.634   8.518   0.981  0.2590  0.1117  0.5564
12891SOL    HW149602   1.699   8.524   1.057 -0.3530  3.5962  0.8800
12891SOL    HW249603   1.566   8.590   0.989 -1.8197 -1.5178 -1.5343
12892SOL     OW49604   5.050   2.790   0.360  0.3975  0.1745 -0.5488
12892SOL    HW149605   5.057   2.857   0.286  0.0266  0.2423 -0.5227
12892SOL    HW249606   5.011   2.705   0.324 -0.9093  0.6045 -0.1820
12893SOL     OW49607   0.850   6.942   4.858  0.0113  0.1993 -0.0936
12893SOL    HW149608   0.826   6.899   4.770  0.5612 -1.5240  0.5732
12893SOL    HW249609   0.773   6.931   4.922  0.5596 -0.7880  0.4166
12894SOL     OW49610   1.470   2.586   1.796 -0.4319  0.3381 -0.2468
12894SOL    HW149611   1.529   2.595   1.876  1.6396 -1.7355 -1.4798
12894SOL    HW249612   1.383   2.545   1.824  0.1218 -0.0016  1.0073
12895SOL     OW49613   9.958   3.247   3.220  0.7503  0.0055  0.0815
12895SOL    HW149614   9.929   3.165   3.268  0.7615  0.3973  0.7564
12895SOL    HW249615   9.887   3.276   3.156  0.9048 -0.7406 -0.4364
12896SOL     OW49616   2.324   9.190   5.478  0.5663 -0.0885  0.1956
12896SOL    HW149617   2.375   9.236   5.551 -1.3848  1.0098  0.9129
12896SOL    HW249618   2.270   9.116   5.516 -0.5523  0.5622 -0.0879
12897SOL     OW49619   1.639   1.188   3.001 -0.0057 -0.4822 -0.6397
12897SOL    HW149620   1.631   1.101   2.951 -3.2978 -1.5494  1.5755
12897SOL    HW249621   1.698   1.175   3.081 -0.9664 -0.8536  0.0146
12898SOL     OW49622   6.579   8.074   4.117  0.1338  0.2962  0.1393
12898SOL    HW149623   6.584   7.989   4.169 -1.5098  0.4017  0.4679
12898SOL    HW249624   6.640   8.067   4.038 -1.1310 -1.7897 -0.6901
12899SOL     OW49625   0.992   8.885   4.925 -0.2105 -0.6592  0.0015
12899SOL    HW149626   0.989   8.985   4.914 -0.6776 -0.7170 -0.4041
12899SOL    HW249627   1.084   8.853   4.903  0.0500 -0.2716  0.5172
12900SOL     OW49628   8.595   4.692   1.838  0.7886 -0.2550 -0.1767
12900SOL    HW149629   8.609   4.738   1.750 -0.0423  0.5418  0.1043
12900SOL    HW249630   8.585   4.594   1.823  2.1326 -0.3154 -0.8278
12901SOL     OW49631   7.510   2.000   4.024  0.1467  0.1379 -0.0301
12901SOL    HW149632   7.579   1.966   4.088 -0.0916  0.4079  0.3747
12901SOL    HW249633   7.540   2.089   3.988 -1.7754  2.1385  3.1164
12902SOL     OW49634   3.313   5.218   1.733  0.1854  0.3603  0.1545
12902SOL    HW149635   3.233   5.175   1.774 -0.0956  0.3698 -0.3746
12902SOL    HW249636   3.340   5.168   1.651  0.4090  0.6579  0.0436
12903SOL     OW49637   2.361   5.689   5.348 -0.0322 -0.0706  0.2963
12903SOL    HW149638   2.354   5.665   5.251  0.5227  1.5488 -0.1620
12903SOL    HW249639   2.452   5.667   5.382  0.8179  2.2547 -0.3921
12904SOL     OW49640   8.899   0.234   0.763  0.0560 -0.1209  0.2311
12904SOL    HW149641   8.992   0.272   0.769 -0.0342  0.1547 -0.0990
12904SOL    HW249642   8.895   0.149   0.815  1.1221 -1.3645 -1.6596
12905SOL     OW49643   1.401   8.662   0.269  0.6153  0.3696  0.3320
12905SOL    HW149644   1.458   8.662   0.351  2.1781 -0.4832 -0.7547
12905SOL    HW249645   1.345   8.745   0.268 -0.3613 -0.2236  2.9047
12906SOL     OW49646   7.692   3.694   0.606  0.3510  0.1496 -0.2154
12906SOL    HW149647   7.717   3.780   0.650  0.0078  0.0235  0.2238
12906SOL    HW249648   7.593   3.690   0.592  0.0411 -1.2631  2.0991
12907SOL     OW49649   9.008   2.153   2.465 -0.7185  0.3216  0.5290
12907SOL    HW149650   8.915   2.116   2.475 -0.7655  0.5459  0.9382
12907SOL    HW249651   9.019   2.188   2.372 -1.3677  1.1464  0.7459
12908SOL     OW49652   7.832   2.297   5.457  0.0574  0.5191 -0.1040
12908SOL    HW149653   7.760   2.227   5.454  0.7098 -0.1042 -1.7566
12908SOL    HW249654   7.867   2.304   5.550 -1.2908 -0.0463  0.4619
12909SOL     OW49655   0.498   6.091   4.614 -0.0104 -0.6815  0.5064
12909SOL    HW149656   0.505   6.189   4.592  0.2500 -0.5008  1.3925
12909SOL    HW249657   0.421   6.076   4.676 -1.2103 -1.3011 -1.1012
12910SOL     OW49658   3.779   7.470   4.970  0.4283  0.2697 -0.5625
12910SOL    HW149659   3.806   7.418   4.888  1.6083 -1.4194  0.8637
12910SOL    HW249660   3.860   7.515   5.008  0.1525 -0.0762  0.4461
12911SOL     OW49661   7.431   5.846   4.139 -0.3993  0.2766  0.3878
12911SOL    HW149662   7.444   5.923   4.076 -0.8793  1.6915  1.9740
12911SOL    HW249663   7.511   5.839   4.200 -0.9899  0.4360  1.1917
12912SOL     OW49664   1.038   3.108   5.158  0.0229  0.0521 -0.0960
12912SOL    HW149665   0.956   3.161   5.180  0.8176  2.4539 -2.6460
12912SOL    HW249666   1.119   3.155   5.195  0.4947 -0.8734  0.0559
12913SOL     OW49667   1.277   7.745   2.608 -0.1485 -0.1228 -0.4375
12913SOL    HW149668   1.201   7.803   2.638  1.0219  1.2055  0.0432
12913SOL    HW249669   1.319   7.702   2.687 -0.0791 -0.4458 -0.6511
12914SOL     OW49670   2.674   0.943   1.693 -0.3927 -0.2120 -0.6286
12914SOL    HW149671   2.593   0.910   1.740 -0.7291 -0.1246 -1.1508
12914SOL    HW249672   2.701   1.031   1.733 -1.2319  0.3240 -1.2211
12915SOL     OW49673   1.857   6.638   2.495  0.8206 -0.2779 -0.2397
12915SOL    HW149674   1.937   6.592   2.532  0.6153 -0.4568 -0.0126
12915SOL    HW249675   1.814   6.693   2.567  0.5490 -0.4472 -0.2701
12916SOL     OW49676   9.247   2.034   1.581 -0.1088 -0.3616  0.1090
12916SOL    HW149677   9.259   1.996   1.489 -0.5105 -1.2002  0.4001
12916SOL    HW249678   9.153   2.019   1.612 -0.7407  2.3887 -0.4354
12917SOL     OW49679   9.998   7.043   2.365 -0.5398 -0.1487 -0.7245
12917SOL    HW149680  10.012   6.952   2.327  0.9684 -0.0970 -0.3354
12917SOL    HW249681  10.022   7.112   2.296  1.2279 -0.0592 -0.0644
12918SOL     OW49682   1.266   6.862   5.120 -0.5876  0.3883  0.6469
12918SOL    HW149683   1.307   6.793   5.060 -0.8141 -0.9322  1.9953
12918SOL    HW249684   1.329   6.939   5.130  0.0920 -0.0661 -0.0656
12919SOL     OW49685   0.854   5.742   2.426 -0.4597 -0.0257  0.2386
12919SOL    HW149686   0.946   5.770   2.395 -0.4125 -1.2496 -0.7557
12919SOL    HW249687   0.841   5.771   2.521  0.6320  0.9179  0.1190
12920SOL     OW49688   1.991   8.675   2.231  0.3084 -0.1759  0.2863
12920SOL    HW149689   2.028   8.644   2.143  0.8910  2.1849 -0.3190
12920SOL    HW249690   1.965   8.595   2.285  1.2434 -1.7127 -1.4558
12921SOL     OW49691   3.379   7.916   2.564  0.1405 -0.0913 -0.5535
12921SOL    HW149692   3.446   7.947   2.631 -1.1864  1.3855  0.1054
12921SOL    HW249693   3.399   7.957   2.475  1.3396 -1.3151 -0.8731
12922SOL     OW49694   9.180   8.286   4.790 -0.4485  0.0887 -0.1356
12922SOL    HW149695   9.226   8.374   4.800  0.6024 -0.5913  1.2696
12922SOL    HW249696   9.215   8.240   4.708 -0.2391  0.5286 -0.2933
12923SOL     OW49697   8.085   9.475   0.947 -0.7771 -0.1511 -0.0414
12923SOL    HW149698   8.115   9.395   0.896 -1.8574 -1.5371  1.4681
12923SOL    HW249699   8.159   9.507   1.006  0.0722  0.7435 -1.5557
12924SOL     OW49700   9.619   5.119   1.222  0.1879 -0.1575  0.1596
12924SOL    HW149701   9.617   5.217   1.199  1.2009 -0.1735 -0.0258
12924SOL    HW249702   9.539   5.096   1.278  0.0910  0.8298  0.4337
12925SOL     OW49703   2.413   3.321   0.180 -0.2710 -0.3235 -0.2747
12925SOL    HW149704   2.313   3.333   0.179 -0.2040  0.2236 -0.6980
12925SOL    HW249705   2.442   3.275   0.096 -0.2256 -1.0280  0.1181
12926SOL     OW49706   9.690   3.796   3.801 -0.2370  0.1155 -0.5942
12926SOL    HW149707   9.759   3.740   3.846  1.4177  2.3934 -0.2590
12926SOL    HW249708   9.599   3.772   3.837  0.4421 -2.1715 -0.3144
12927SOL     OW49709   5.445   3.053   1.110 -0.6810  0.0284  0.1770
12927SOL    HW149710   5.462   3.056   1.012 -0.6365 -1.3978  0.1286
12927SOL    HW249711   5.362   3.104   1.132 -2.5796 -2.4253 -1.0490
12928SOL     OW49712   4.184   7.851   1.342 -0.4142 -0.1567  0.1582
12928SOL    HW149713   4.160   7.885   1.433  1.9747  0.3971  0.6199
12928SOL    HW249714   4.271   7.803   1.346 -1.1512 -1.6926 -1.5259
12929SOL     OW49715   0.780   0.712   4.450 -0.0151 -0.2483 -0.0038
12929SOL    HW149716   0.762   0.615   4.436 -0.1426 -0.5413  1.9437
12929SOL    HW249717   0.814   0.726   4.543 -0.8775  1.6878  0.0538
12930SOL     OW49718   9.367   6.410   5.480 -0.0667 -0.4045 -0.4721
12930SOL    HW149719   9.303   6.352   5.430 -2.0393  0.5977  0.8391
12930SOL    HW249720   9.354   6.505   5.452 -1.4303  0.2159  2.1175
12931SOL     OW49721   0.044   9.810   5.332  1.4653  0.5937  0.3031
12931SOL    HW149722   0.020   9.717   5.304 -0.1032  1.0186  0.1816
12931SOL    HW249723   0.140   9.828   5.309  1.6709 -0.8503 -0.0237
12932SOL     OW49724   6.769   1.928   2.960  0.0181 -0.0293  0.1659
12932SOL    HW149725   6.828   1.959   3.035 -0.5120 -1.5634  1.2288
12932SOL    HW249726   6.694   1.874   2.997 -0.8745  0.1425 -1.3855
12933SOL     OW49727   1.720   1.359   2.634 -0.3630  0.2271 -0.0147
12933SOL    HW149728   1.793   1.315   2.687  0.6573  0.6952 -1.0076
12933SOL    HW249729   1.646   1.387   2.695  0.4096 -0.0206  1.0404
12934SOL     OW49730   6.445   0.649   3.169  0.2891 -0.3370  0.2135
12934SOL    HW149731   6.528   0.690   3.208  0.6353  0.8497 -1.6776
12934SOL    HW249732   6.468   0.560   3.129  0.7225  0.0901 -0.5083
12935SOL     OW49733   0.354   6.490   4.079  0.3576  0.4693 -0.4627
12935SOL    HW149734   0.311   6.579   4.094  2.1212  1.6129 -2.0155
12935SOL    HW249735   0.331   6.457   3.988 -1.7044 -1.5206  0.7201
12936SOL     OW49736   3.316   1.584   5.549 -0.0714  0.6356 -0.6838
12936SOL    HW149737   3.411   1.559   5.570 -0.6064  0.0729  1.1944
12936SOL    HW249738   3.312   1.678   5.515  1.2946  0.2148 -2.0838
12937SOL     OW49739   0.555   5.703   4.086 -0.3624  0.6920  0.3874
12937SOL    HW149740   0.477   5.765   4.076 -1.1703 -0.3492 -0.0094
12937SOL    HW249741   0.521   5.608   4.086  1.0111  0.1893 -0.8953
12938SOL     OW49742   9.302   4.124   2.676 -0.2874  0.1923  1.0090
12938SOL    HW149743   9.391   4.165   2.694  0.6329 -1.6771  0.7555
12938SOL    HW249744   9.276   4.141   2.581  1.5423 -2.4806 -0.0105
12939SOL     OW49745   5.816   8.994   3.787 -0.2201  0.4173 -0.1769
12939SOL    HW149746   5.888   9.018   3.852 -0.1724  0.7447 -0.3471
12939SOL    HW249747   5.755   8.926   3.828  0.1385  0.2009 -0.0046
12940SOL     OW49748   8.501   5.385   0.214 -0.4707  0.2119 -0.1620
12940SOL    HW149749   8.496   5.423   0.306  1.3095  2.2522 -0.8669
12940SOL    HW249750   8.559   5.304   0.214 -1.3082 -0.3905  0.6919
12941SOL     OW49751   1.401   0.770   5.550 -0.2993  0.2142  0.5330
12941SOL    HW149752   1.498   0.788   5.564 -0.5073  1.0817  0.9478
12941SOL    HW249753   1.348   0.851   5.577 -1.1599 -0.3808  0.6733
12942SOL     OW49754   9.911   9.139   5.354 -0.2216  0.5505  0.2705
12942SOL    HW149755  10.010   9.138   5.367 -0.3554 -0.7494  1.3710
12942SOL    HW249756   9.890   9.155   5.258  1.1862 -3.6928 -0.8829
12943SOL     OW49757   9.278   6.400   3.558  0.1863  0.8156 -0.5274
12943SOL    HW149758   9.220   6.347   3.621 -0.0954  1.2866 -0.3822
12943SOL    HW249759   9.355   6.439   3.609 -0.4573  1.8265 -0.3129
12944SOL     OW49760   5.533   1.531   1.797  0.8706 -0.5282 -0.6914
12944SOL    HW149761   5.580   1.469   1.860 -0.0128 -1.0124 -0.4952
12944SOL    HW249762   5.482   1.600   1.850 -0.6080 -1.4836 -0.8496
12945SOL     OW49763   2.974   1.329   2.313 -0.0197 -0.0818  0.4802
12945SOL    HW149764   2.898   1.306   2.252  1.5392 -0.0910 -1.5439
12945SOL    HW249765   3.022   1.246   2.339  0.0973  0.0370  0.6433
12946SOL     OW49766   2.112   7.948   4.001  0.2555 -0.2291 -0.0100
12946SOL    HW149767   2.166   7.867   4.026  0.2888  0.4694  2.2514
12946SOL    HW249768   2.015   7.925   4.004  0.3274 -0.9732 -2.2735
12947SOL     OW49769   4.197   2.957   1.963 -0.0338  0.5952  0.6646
12947SOL    HW149770   4.157   2.868   1.980 -1.1922  1.2021  1.1604
12947SOL    HW249771   4.267   2.977   2.031  3.0719 -1.5922 -1.7217
12948SOL     OW49772   2.659   1.074   2.065 -0.1737  0.0033  0.1462
12948SOL    HW149773   2.595   1.031   2.128  0.8588 -0.9463  0.5810
12948SOL    HW249774   2.691   1.160   2.103  1.4626 -1.1970  1.5813
12949SOL     OW49775   8.216   6.308   1.900 -0.0747 -0.3811  0.4214
12949SOL    HW149776   8.313   6.312   1.925  0.2946 -2.6449 -0.5658
12949SOL    HW249777   8.161   6.317   1.983  0.9550  1.0846  0.9762
12950SOL     OW49778   5.422   0.584   3.802  0.0859 -0.2069  0.4213
12950SOL    HW149779   5.493   0.655   3.801  0.3970 -0.5119 -0.3483
12950SOL    HW249780   5.360   0.599   3.878 -1.4609  2.4793 -1.2859
12951SOL     OW49781   3.034   0.986   2.761 -0.1500 -0.2885  0.6059
12951SOL    HW149782   3.051   1.077   2.800  1.4051 -1.2207  2.1826
12951SOL    HW249783   3.105   0.923   2.793  0.3903 -1.4378 -2.6834
12952SOL     OW49784   3.624   8.273   3.956  0.1607  0.1168  0.1667
12952SOL    HW149785   3.600   8.368   3.935  1.1325 -0.0159 -1.6664
12952SOL    HW249786   3.724   8.264   3.961  0.0846 -0.8543  0.0773
12953SOL     OW49787   0.537   9.835   0.080 -0.0470 -0.0539 -0.0780
12953SOL    HW149788   0.603   9.761   0.094 -0.0312 -0.0482 -0.1178
12953SOL    HW249789   0.501   9.864   0.168  0.1476  0.0737 -0.0402
12954SOL     OW49790   3.859   2.121   1.658  0.2891 -0.2455  0.2854
12954SOL    HW149791   3.872   2.214   1.692  0.5567 -0.7293  1.5199
12954SOL    HW249792   3.944   2.087   1.618 -0.7353  1.3164 -3.4044
12955SOL     OW49793   9.633   9.949   4.168  0.1624 -0.4215  0.3063
12955SOL    HW149794   9.663   9.923   4.076  0.4059 -0.2470  0.3379
12955SOL    HW249795   9.610   9.866   4.220  0.7907 -0.5673  0.3520
12956SOL     OW49796   8.054   6.161   4.665 -0.2138 -0.0678  0.0435
12956SOL    HW149797   8.007   6.186   4.580 -3.9820  0.7143  2.2572
12956SOL    HW249798   8.119   6.232   4.690 -0.3426  0.5213 -1.2651
12957SOL     OW49799   0.844   4.536   4.242  0.3236 -0.2331 -0.3652
12957SOL    HW149800   0.873   4.564   4.333 -0.2298  3.1476 -1.1526
12957SOL    HW249801   0.776   4.463   4.250 -0.2138  0.4812  1.9568
12958SOL     OW49802   0.161   8.546   1.934 -0.2889 -0.0964 -0.3308
12958SOL    HW149803   0.150   8.634   1.981  1.6708  0.6089 -1.1345
12958SOL    HW249804   0.208   8.561   1.846  1.6441 -2.1369  0.3028
12959SOL     OW49805   3.703   5.311   2.535 -0.0558  0.3229  0.1839
12959SOL    HW149806   3.663   5.223   2.560  0.4238 -0.0807 -0.4543
12959SOL    HW249807   3.719   5.314   2.436  0.1253  1.0465  0.2274
12960SOL     OW49808   8.407   2.983   3.725  0.1657 -0.1250  0.2711
12960SOL    HW149809   8.400   3.075   3.686  1.3848  0.7061  1.8831
12960SOL    HW249810   8.504   2.959   3.735 -0.1224 -0.7711  1.6643
12961SOL     OW49811   3.328   6.419   1.039  0.3209 -0.0930 -0.6640
12961SOL    HW149812   3.297   6.390   1.130 -1.1532 -0.7835 -1.3549
12961SOL    HW249813   3.368   6.510   1.045 -2.5175  1.1792  0.2247
12962SOL     OW49814   4.100   9.548   4.778 -0.0220 -0.3665  0.1956
12962SOL    HW149815   4.116   9.449   4.774 -1.1887 -0.5223 -1.2435
12962SOL    HW249816   4.074   9.581   4.688 -0.4563  1.1217  0.8488
12963SOL     OW49817   7.944   1.750   0.102 -0.5539  0.1027 -0.0613
12963SOL    HW149818   7.959   1.677   0.035 -0.0673  0.1397 -0.0006
12963SOL    HW249819   7.857   1.736   0.148 -0.3954 -0.5204  0.0494
12964SOL     OW49820   1.692   7.836   5.615 -0.8706  0.3018  0.1599
12964SOL    HW149821   1.699   7.834   5.714 -2.7093  1.3233  0.3447
12964SOL    HW249822   1.658   7.748   5.581  0.5235 -0.3211  0.3429
12965SOL     OW49823   9.428   1.626   0.549 -0.4158  0.2698 -0.4637
12965SOL    HW149824   9.474   1.670   0.626 -1.2170  1.1444 -0.4680
12965SOL    HW249825   9.351   1.573   0.583  1.0399 -1.8392 -0.3776
12966SOL     OW49826   3.946   1.089   3.626  0.1297 -0.0901  0.2561
12966SOL    HW149827   4.018   1.155   3.605  0.0557  0.1603  0.7869
12966SOL    HW249828   3.954   1.060   3.722  0.6155 -1.4137 -0.1638
12967SOL     OW49829   0.641   9.549   1.431  0.2072 -0.0604  0.1406
12967SOL    HW149830   0.660   9.510   1.521 -0.8841  1.0135  0.8559
12967SOL    HW249831   0.727   9.567   1.383  0.8128 -0.2391  1.1524
12968SOL     OW49832   4.334   4.399   5.631  0.2383  0.1330  0.0676
12968SOL    HW149833   4.237   4.422   5.640 -0.4693 -3.1043  1.4753
12968SOL    HW249834   4.373   4.389   5.723  1.6641  0.4477 -0.5049
12969SOL     OW49835   8.221   3.998   2.297  0.0452 -0.2402 -0.3406
12969SOL    HW149836   8.288   3.967   2.365  0.5069 -0.7477 -1.0296
12969SOL    HW249837   8.212   4.097   2.302 -1.8412 -0.4743  2.2622
12970SOL     OW49838   0.645   2.044   1.736  0.1929 -0.3558  0.0246
12970SOL    HW149839   0.719   2.040   1.669  0.1992  2.3943 -0.1753
12970SOL    HW249840   0.670   1.990   1.817  2.5528  0.7709  0.0837
12971SOL     OW49841   3.810   0.442   0.931  0.4047  0.1337  0.2946
12971SOL    HW149842   3.712   0.424   0.935  0.2845  0.8414  0.7308
12971SOL    HW249843   3.850   0.426   1.021  0.7512 -0.4756  0.0355
12972SOL     OW49844   2.737   4.957   3.555 -0.0401 -0.0373 -0.0401
12972SOL    HW149845   2.712   4.860   3.561  0.0235 -0.1052 -0.7565
12972SOL    HW249846   2.721   4.989   3.461 -0.2511  0.6986  0.2438
12973SOL     OW49847   6.677   9.172   3.734 -0.5047 -0.8437 -0.1911
12973SOL    HW149848   6.697   9.216   3.822  2.5886  0.5789 -1.5012
12973SOL    HW249849   6.727   9.086   3.728  0.2987 -0.3271 -1.0312
12974SOL     OW49850   2.598   2.079   2.134  0.5908 -0.1115 -0.3166
12974SOL    HW149851   2.527   2.037   2.189 -0.9152  0.7708 -1.5289
12974SOL    HW249852   2.676   2.104   2.192 -0.7287  0.3233  1.3014
12975SOL     OW49853   0.891   2.119   1.356  0.2855 -0.4217 -0.0744
12975SOL    HW149854   0.812   2.179   1.340  1.9075  1.2511 -2.1260
12975SOL    HW249855   0.876   2.066   1.440 -2.8468  0.1035 -0.2336
12976SOL     OW49856   8.463   7.567   2.078 -0.1853 -0.0380  0.0276
12976SOL    HW149857   8.501   7.528   2.162 -1.7506  0.9456  1.2391
12976SOL    HW249858   8.416   7.496   2.026  0.4764 -0.5834  0.1778
12977SOL     OW49859   4.581   0.612   4.395  0.0340  0.3344 -0.3553
12977SOL    HW149860   4.640   0.550   4.345 -1.0859  0.2043 -1.5237
12977SOL    HW249861   4.551   0.569   4.480  0.5244 -0.1118 -0.4079
12978SOL     OW49862   8.502   4.502   1.438 -0.2725 -0.3036  0.2303
12978SOL    HW149863   8.556   4.480   1.357 -0.3785 -0.2759  0.1526
12978SOL    HW249864   8.494   4.421   1.496  1.5992  0.2153  1.2604
12979SOL     OW49865   4.521   5.855   1.201  0.1690 -0.3542 -0.2661
12979SOL    HW149866   4.451   5.921   1.173 -0.4004 -1.3567 -1.2156
12979SOL    HW249867   4.572   5.824   1.121 -0.3720 -1.9847  0.0075
12980SOL     OW49868   5.149   3.587   0.014 -0.0108  0.3018  0.5310
12980SOL    HW149869   5.201   3.557   0.094  0.8012  0.9737  0.2566
12980SOL    HW249870   5.113   3.679   0.030 -1.3577 -0.2498  0.8252
12981SOL     OW49871   1.384   5.140   2.299 -0.0438  0.3202  0.0213
12981SOL    HW149872   1.329   5.175   2.374 -1.5848 -0.1475 -0.8789
12981SOL    HW249873   1.456   5.206   2.276 -0.9917  1.4855  0.3818
12982SOL     OW49874   8.057   4.510   5.094  0.6727  0.3171 -0.3991
12982SOL    HW149875   8.092   4.417   5.095 -0.1581 -0.0912 -3.9560
12982SOL    HW249876   8.132   4.574   5.111  1.3585 -0.9164  1.4168
12983SOL     OW49877   8.553   6.849   1.906 -0.0201 -0.7761 -0.0534
12983SOL    HW149878   8.519   6.922   1.848 -1.5284 -1.4379 -0.0163
12983SOL    HW249879   8.645   6.823   1.876 -0.1211  0.0265 -1.0728
12984SOL     OW49880   1.785   8.029   0.543 -0.8219  0.4877 -0.3267
12984SOL    HW149881   1.785   8.055   0.446 -1.2176  1.1652 -0.1533
12984SOL    HW249882   1.840   8.095   0.595 -1.5474  0.7937  0.0709
12985SOL     OW49883   8.658   4.684   0.743 -0.9177  0.3736  0.4683
12985SOL    HW149884   8.693   4.627   0.668 -0.3668  0.4166  0.6851
12985SOL    HW249885   8.566   4.715   0.722 -0.3732  1.2622 -0.6699
12986SOL     OW49886   3.904   8.144   3.991 -0.1896 -0.2695  0.5613
12986SOL    HW149887   3.977   8.097   3.942  0.0192 -0.8147  1.3828
12986SOL    HW249888   3.878   8.091   4.072 -1.0301  0.2530  0.6443
12987SOL     OW49889   2.429   7.035   5.573 -0.0244  0.0800  0.2375
12987SOL    HW149890   2.351   6.983   5.538  0.7160 -2.4769  2.1894
12987SOL    HW249891   2.495   6.972   5.615  2.4607  2.3273 -0.1760
12988SOL     OW49892   4.555   8.730   0.204 -0.0337 -0.0100  0.1161
12988SOL    HW149893   4.604   8.785   0.272  0.6069  1.1300 -1.2317
12988SOL    HW249894   4.470   8.697   0.243  0.7759 -0.1817  1.7925
12989SOL     OW49895   5.710   8.719   3.507 -0.2180  0.2652  0.3981
12989SOL    HW149896   5.655   8.734   3.425  0.5629  2.0546  0.1663
12989SOL    HW249897   5.778   8.792   3.515 -0.9739  0.7359  3.2076
12990SOL     OW49898   0.081   0.134   5.211  0.1000  0.1126 -0.6309
12990SOL    HW149899   0.068   0.228   5.244 -0.1510  0.4426 -1.6125
12990SOL    HW249900   0.138   0.136   5.129 -2.6149 -0.2056 -2.6255
12991SOL     OW49901   9.922   6.672   5.510  0.5795  0.2701 -0.1531
12991SOL    HW149902   9.925   6.572   5.513 -0.2062  0.2478  0.1511
12991SOL    HW249903   9.883   6.707   5.595 -0.9258  0.7331 -1.0145
12992SOL     OW49904   4.409   2.940   0.248  0.6193 -0.2578  0.0498
12992SOL    HW149905   4.410   2.843   0.272  1.5893 -0.0816  0.7485
12992SOL    HW249906   4.445   2.952   0.156 -0.8414 -0.6939 -0.5984
12993SOL     OW49907   1.707   1.454   5.571 -0.2684  0.0682  0.1668
12993SOL    HW149908   1.713   1.428   5.475 -0.9932 -0.8837  0.3730
12993SOL    HW249909   1.730   1.551   5.581  1.8150 -0.3187 -0.6946
12994SOL     OW49910   8.438   8.526   4.323  0.0604 -0.2322 -0.2634
12994SOL    HW149911   8.413   8.621   4.305  2.8611  0.9294  1.4348
12994SOL    HW249912   8.399   8.466   4.254 -1.7513  2.1676 -1.3653
12995SOL     OW49913   2.379   4.230   5.398 -0.4523 -0.1174  0.3566
12995SOL    HW149914   2.424   4.200   5.482 -0.6493  2.0968  1.2783
12995SOL    HW249915   2.282   4.242   5.415 -0.4891  0.3715 -0.1997
12996SOL     OW49916   9.753   4.169   4.027 -0.3763 -0.0804 -0.1669
12996SOL    HW149917   9.683   4.109   4.064  0.4424 -1.2005 -0.4025
12996SOL    HW249918   9.736   4.263   4.056 -1.8867 -0.3633 -0.1195
12997SOL     OW49919   0.995   9.304   4.780  0.0044  0.3792 -0.5160
12997SOL    HW149920   0.901   9.303   4.747  0.1581 -0.3268 -0.9259
12997SOL    HW249921   1.013   9.392   4.826 -1.1466  0.1392  0.4282
12998SOL     OW49922   8.407   4.059   4.721 -0.0007  0.4001  0.4897
12998SOL    HW149923   8.324   4.004   4.710  1.5156 -2.1874  1.4908
12998SOL    HW249924   8.409   4.099   4.812  0.3705 -0.5124  0.8966
12999SOL     OW49925   4.034   4.571   3.348 -0.1504 -0.2744 -0.2893
12999SOL    HW149926   4.105   4.548   3.281 -0.1851  0.6911 -0.6708
12999SOL    HW249927   4.076   4.583   3.438  0.4361  1.9321 -0.8320
13000SOL     OW49928   1.810   3.482   2.322 -0.4493 -0.7047  0.1544
13000SOL    HW149929   1.815   3.382   2.330  1.9014 -0.6463 -0.4313
13000SOL    HW249930   1.777   3.507   2.231  1.1309 -0.9229 -0.4860
13001SOL     OW49931   3.027   4.050   0.941 -0.0539 -0.2869  0.6522
13001SOL    HW149932   3.006   4.007   0.853 -0.2776  0.8169  0.1583
13001SOL    HW249933   2.961   4.021   1.010 -1.6272  1.0970 -0.2457
13002SOL     OW49934   4.792   0.535   4.234  0.2623 -0.3929 -0.2662
13002SOL    HW149935   4.829   0.455   4.188 -0.7790 -0.4433 -1.0229
13002SOL    HW249936   4.813   0.618   4.181  1.1421 -0.1784  0.4002
13003SOL     OW49937   1.610   0.613   1.983 -0.8163  0.1485 -0.3930
13003SOL    HW149938   1.586   0.517   1.999 -0.4818 -0.0230 -0.8816
13003SOL    HW249939   1.707   0.619   1.959 -0.6822  0.6834  0.2771
13004SOL     OW49940   9.204   9.139   2.536 -0.6538 -0.1109 -0.0297
13004SOL    HW149941   9.286   9.088   2.510  0.7141  1.2340  1.4889
13004SOL    HW249942   9.206   9.229   2.494 -2.1085 -0.6034 -1.1730
13005SOL     OW49943   4.549   0.326   5.081 -0.1008 -0.4024 -0.2872
13005SOL    HW149944   4.574   0.231   5.103  0.1230 -0.3149 -0.1621
13005SOL    HW249945   4.520   0.331   4.985  0.3773 -0.5031 -0.4394
13006SOL     OW49946   8.896   8.870   1.059 -0.6708  0.1660  0.3041
13006SOL    HW149947   8.817   8.812   1.041 -0.7098  0.6196 -1.0290
13006SOL    HW249948   8.941   8.840   1.143 -2.7405  0.4536  1.5397
13007SOL     OW49949   3.018   8.816   2.226  0.3887 -0.2246 -0.4726
13007SOL    HW149950   3.040   8.913   2.235 -2.1069  0.2521  1.0786
13007SOL    HW249951   3.002   8.794   2.129  0.9614  0.9189 -0.8265
13008SOL     OW49952   9.299   3.209   4.175  0.2685 -0.5752  0.3129
13008SOL    HW149953   9.257   3.247   4.257 -0.6628  1.8550 -1.2452
13008SOL    HW249954   9.392   3.245   4.165  0.2322 -0.5485  0.0700
13009SOL     OW49955   2.307   9.492   0.435  0.0794 -0.2604 -0.1268
13009SOL    HW149956   2.391   9.512   0.484  0.7404 -0.1753 -1.2704
13009SOL    HW249957   2.228   9.523   0.488  0.8845  1.6701 -0.0426
13010SOL     OW49958   6.734   1.058   3.078 -0.8384  0.1279 -0.2797
13010SOL    HW149959   6.636   1.051   3.100 -0.9075  0.2935 -0.5259
13010SOL    HW249960   6.769   1.146   3.110 -1.2107  0.8620 -1.8293
13011SOL     OW49961   2.424   4.170   1.220  0.0435  0.5425  0.5971
13011SOL    HW149962   2.371   4.085   1.220 -0.8600  1.1010 -0.0040
13011SOL    HW249963   2.497   4.164   1.153 -0.9908  0.8276 -0.5703
13012SOL     OW49964   8.638   6.274   2.876  0.1963 -0.4848  0.2718
13012SOL    HW149965   8.610   6.250   2.783 -2.2162 -0.4261  0.9406
13012SOL    HW249966   8.737   6.275   2.882  0.3902  0.0977 -2.4576
13013SOL     OW49967   3.698   3.523   1.125  1.3459  0.0385  0.1590
13013SOL    HW149968   3.752   3.474   1.193 -1.5539 -0.6728  2.0351
13013SOL    HW249969   3.639   3.589   1.171  1.3743  1.5793 -1.9336
13014SOL     OW49970   7.661   9.740   0.397 -0.3737 -0.4488  0.5785
13014SOL    HW149971   7.683   9.785   0.484 -2.7886  1.6845  0.1492
13014SOL    HW249972   7.628   9.647   0.416  1.1283 -0.7730  1.7599
13015SOL     OW49973   8.516   0.462   1.673  0.0316  1.0275 -0.0069
13015SOL    HW149974   8.483   0.492   1.762 -0.9490  1.3617 -0.4792
13015SOL    HW249975   8.440   0.424   1.620  0.6497  0.6204 -0.6155
13016SOL     OW49976   8.041   5.132   4.816  0.0083 -0.0280  0.5953
13016SOL    HW149977   8.020   5.174   4.727  1.3500  0.4980  0.5150
13016SOL    HW249978   8.136   5.101   4.816  0.9774  2.7109  2.8651
13017SOL     OW49979   8.216   0.779   3.702  0.2852  0.3064 -0.0182
13017SOL    HW149980   8.235   0.728   3.786 -2.1111  1.1589  1.0984
13017SOL    HW249981   8.230   0.876   3.718  0.7778  0.3833 -0.9015
13018SOL     OW49982   9.478   4.307   1.659 -0.2799 -0.0754  0.1741
13018SOL    HW149983   9.455   4.391   1.611 -1.4030 -0.7667 -0.5214
13018SOL    HW249984   9.436   4.308   1.750  0.9482  0.7629  0.7358
13019SOL     OW49985   5.578   1.501   3.779  0.4087  0.3466  0.7222
13019SOL    HW149986   5.522   1.441   3.721 -0.5324  0.6556  1.3052
13019SOL    HW249987   5.563   1.478   3.875 -0.9715  2.3681  1.0234
13020SOL     OW49988   2.555   8.072   4.321  0.1031 -0.2590  0.2910
13020SOL    HW149989   2.631   8.007   4.317 -0.4294 -1.0125  2.0028
13020SOL    HW249990   2.589   8.163   4.342  0.4354 -0.7848  2.0520
13021SOL     OW49991   3.119   0.106   0.473 -0.0521  0.1166  0.1252
13021SOL    HW149992   3.147   0.109   0.377 -1.8974  0.5292 -0.4182
13021SOL    HW249993   3.066   0.188   0.495  1.5696  0.7447  1.9022
13022SOL     OW49994   2.164   5.577   2.853 -0.1004  0.3251 -0.3135
13022SOL    HW149995   2.128   5.623   2.772  0.3439  0.5878 -0.3615
13022SOL    HW249996   2.094   5.514   2.889 -0.3945  0.4020 -0.7419
13023SOL     OW49997   7.242   1.524   5.632 -0.3093  0.0604  0.4400
13023SOL    HW149998   7.145   1.498   5.640  0.2146 -1.7396  1.0974
13023SOL    HW249999   7.299   1.450   5.667  1.3221  1.0496 -0.1072
13024SOL     OW50000   1.187   0.754   1.003  0.1552 -0.4497 -0.1309
13024SOL    HW150001   1.224   0.720   1.090 -0.5708  0.5139  0.5603
13024SOL    HW250002   1.258   0.803   0.953 -0.3287  2.0235  1.5205
13025SOL     OW50003   2.141   0.798   5.196 -0.6568 -0.2979  0.0702
13025SOL    HW150004   2.229   0.834   5.165 -0.6156 -0.6504 -0.2156
13025SOL    HW250005   2.104   0.859   5.266 -0.5227  0.2330 -0.3187
13026SOL     OW50006   2.227   5.775   2.329 -0.0814  0.5244 -0.4284
13026SOL    HW150007   2.153   5.710   2.313 -1.7714  2.5057 -0.8333
13026SOL    HW250008   2.300   5.759   2.262 -0.0492 -1.5355  0.0690
13027SOL     OW50009   2.646   7.842   1.079  0.7932 -0.2312  0.1702
13027SOL    HW150010   2.553   7.803   1.082  1.4552 -2.0516 -1.4624
13027SOL    HW250011   2.640   7.941   1.082 -1.1961 -0.3279  0.5168
13028SOL     OW50012   0.511   1.690   2.851  0.1876 -0.3735 -0.0711
13028SOL    HW150013   0.587   1.753   2.838 -0.8443  0.7264 -0.8631
13028SOL    HW250014   0.516   1.650   2.943  0.7129  1.0550  0.5291
13029SOL     OW50015   2.120   1.634   3.835  0.8548  0.4854  0.0929
13029SOL    HW150016   2.135   1.729   3.807 -2.3518  1.2688  0.9193
13029SOL    HW250017   2.150   1.623   3.930  0.2925  0.9196  0.3210
13030SOL     OW50018   4.460   9.529   1.809  0.2852 -0.2357  0.1035
13030SOL    HW150019   4.498   9.577   1.888  0.0559 -0.0257  0.0844
13030SOL    HW250020   4.404   9.592   1.755  0.2779 -0.4302 -0.1165
13031SOL     OW50021   0.328   4.574   3.387 -0.3233 -0.1286 -0.3038
13031SOL    HW150022   0.287   4.658   3.353 -1.4208 -0.8547 -0.8326
13031SOL    HW250023   0.322   4.503   3.316  0.5201 -0.6699  0.1517
13032SOL     OW50024   1.892   1.982   0.001  0.3797  0.5035 -0.4443
13032SOL    HW150025   1.909   1.894   0.045  0.3829  0.5219 -0.4091
13032SOL    HW250026   1.851   2.045   0.066 -0.7982  0.1279 -0.8158
13033SOL     OW50027   0.517   3.536   0.456 -0.0186  0.2439 -0.5962
13033SOL    HW150028   0.459   3.564   0.380  0.6041  0.9655 -0.8110
13033SOL    HW250029   0.492   3.588   0.538 -0.2657 -0.0747 -0.4721
13034SOL     OW50030   4.768   1.735   4.980 -0.0057 -0.0879 -0.1486
13034SOL    HW150031   4.703   1.760   4.908 -0.4133 -0.6411  0.0226
13034SOL    HW250032   4.837   1.673   4.943 -1.1653 -1.6964  0.3123
13035SOL     OW50033   3.716   2.978   3.402 -0.1088  0.2400  0.1383
13035SOL    HW150034   3.699   2.978   3.303  1.3796  0.9454 -0.1293
13035SOL    HW250035   3.751   3.068   3.429 -0.9896  0.2061  1.3970
13036SOL     OW50036   0.200   8.709   3.001  0.5218 -0.3384 -0.7300
13036SOL    HW150037   0.272   8.716   3.071 -0.4574 -0.4722  0.2997
13036SOL    HW250038   0.120   8.762   3.030 -0.2092 -1.1013 -1.3465
13037SOL     OW50039   9.150   5.661   5.602 -1.0080 -0.4676  0.6130
13037SOL    HW150040   9.212   5.589   5.569 -0.7673 -0.5350  1.2101
13037SOL    HW250041   9.179   5.691   5.693 -0.1917  1.4355 -0.2282
13038SOL     OW50042   6.210   8.304   2.021 -0.1359  0.2447 -0.1029
13038SOL    HW150043   6.223   8.341   1.929 -0.6985 -1.2509 -0.8044
13038SOL    HW250044   6.114   8.313   2.047  0.0597  0.8462  0.4253
13039SOL     OW50045   2.128   2.236   0.133  0.6196 -0.1404 -0.3866
13039SOL    HW150046   2.075   2.184   0.201 -1.1286 -0.5107 -1.9861
13039SOL    HW250047   2.221   2.200   0.128  0.3046 -1.1320  0.6903
13040SOL     OW50048   1.806   1.051   1.595  0.3863  0.1154  0.0697
13040SOL    HW150049   1.756   1.032   1.680  0.3199  0.5647  0.1339
13040SOL    HW250050   1.844   0.966   1.559 -1.3508 -0.4005 -0.5735
13041SOL     OW50051   2.185   8.484   5.576 -0.4323  0.1400 -0.2694
13041SOL    HW150052   2.214   8.410   5.515  0.8421  0.6889 -0.3472
13041SOL    HW250053   2.265   8.533   5.609 -1.1278  0.0900  1.5548
13042SOL     OW50054   3.657   5.185   1.534  0.6290 -0.4240  0.5033
13042SOL    HW150055   3.661   5.089   1.561  2.5732 -0.3989  0.3376
13042SOL    HW250056   3.666   5.192   1.435  0.1352 -0.0935  0.4815
13043SOL     OW50057   4.056   4.331   1.845 -0.0775 -0.2610 -0.2298
13043SOL    HW150058   4.074   4.264   1.917 -1.2076  0.7011  0.9631
13043SOL    HW250059   3.966   4.371   1.859  0.7702  1.8419 -0.6599
13044SOL     OW50060   2.919   1.279   5.576  0.5080 -0.4605 -0.4106
13044SOL    HW150061   2.847   1.347   5.587  0.3781 -0.2973 -2.2566
13044SOL    HW250062   2.996   1.319   5.526  0.3807 -1.7106 -1.6293
13045SOL     OW50063   2.108   6.649   3.232  0.5577 -0.1764  0.3195
13045SOL    HW150064   2.038   6.578   3.237 -1.2882  1.5328 -0.6278
13045SOL    HW250065   2.146   6.652   3.139  2.2587 -1.4218  0.9541
13046SOL     OW50066   2.880   0.600   5.429  0.0199 -0.4989  0.4373
13046SOL    HW150067   2.880   0.514   5.379 -1.3640 -0.8473  1.0066
13046SOL    HW250068   2.786   0.626   5.452  0.1573  2.5869 -2.1587
13047SOL     OW50069   3.316   3.999   1.838 -0.6213 -0.0467 -0.5202
13047SOL    HW150070   3.413   3.990   1.859 -0.1779  0.8390 -2.1067
13047SOL    HW250071   3.262   3.951   1.907  0.8523  1.0007  1.3819
13048SOL     OW50072   5.173   1.242   1.486 -0.0980 -0.0983 -0.1278
13048SOL    HW150073   5.133   1.264   1.575 -1.0709  1.3410 -0.9073
13048SOL    HW250074   5.238   1.313   1.460  0.6628 -0.8476 -0.2817
13049SOL     OW50075   3.612   5.413   5.261 -0.6427 -0.3848  0.5720
13049SOL    HW150076   3.525   5.368   5.281 -0.4768 -0.5156  1.0007
13049SOL    HW250077   3.598   5.512   5.254 -1.2925 -0.6005 -1.8576
13050SOL     OW50078   3.411   1.000   5.551  0.4559 -0.6350 -0.1005
13050SOL    HW150079   3.371   1.079   5.597  2.0832  0.9771 -1.4120
13050SOL    HW250080   3.403   1.011   5.452  3.5739 -0.5665 -0.3815
13051SOL     OW50081   8.754   5.232   1.401 -0.2722  0.0101  0.2420
13051SOL    HW150082   8.792   5.208   1.491 -0.6812  0.4508  0.5381
13051SOL    HW250083   8.748   5.150   1.345  0.8626 -0.1100  0.2867
13052SOL     OW50084   6.078   0.974   2.337  0.4451 -0.2465  0.2026
13052SOL    HW150085   6.072   1.067   2.300  2.5909 -0.4768 -0.8233
13052SOL    HW250086   6.127   0.916   2.272  2.8003 -1.0992  2.6462
13053SOL     OW50087   9.524   4.055   1.887  0.0379 -0.3742  0.0535
13053SOL    HW150088   9.540   4.054   1.788 -0.0119  1.1004  0.0181
13053SOL    HW250089   9.513   3.962   1.919  1.9117 -1.0102 -1.0348
13054SOL     OW50090   0.307   2.445   4.215 -0.6105  0.0857 -0.2539
13054SOL    HW150091   0.255   2.361   4.226 -2.1748  1.1355  0.5146
13054SOL    HW250092   0.275   2.513   4.281  0.6922  1.2555 -0.8063
13055SOL     OW50093   9.182   3.192   3.871  0.1396 -0.3829  0.5270
13055SOL    HW150094   9.097   3.241   3.854 -0.3232 -1.4456 -0.3010
13055SOL    HW250095   9.188   3.168   3.967 -0.9700 -1.1523  0.4110
13056SOL     OW50096   0.295   7.155   0.578 -0.0652 -0.1733  0.0687
13056SOL    HW150097   0.270   7.101   0.497 -1.1313 -1.0754  0.9876
13056SOL    HW250098   0.276   7.102   0.661  0.0412  1.1432  0.9495
13057SOL     OW50099   6.254   9.657   4.752  0.2512  0.3140  0.1404
13057SOL    HW150100   6.210   9.569   4.736  0.3206  0.2680  0.2010
13057SOL    HW250101   6.217   9.725   4.688  0.1390  0.2604  0.1484
13058SOL     OW50102   2.346   8.056   3.504 -0.2251 -0.0397 -0.1298
13058SOL    HW150103   2.322   8.064   3.600  1.4858 -0.9886  0.3964
13058SOL    HW250104   2.405   8.132   3.478  0.8701 -0.8156  0.0700
13059SOL     OW50105   5.299   0.475   2.538  0.2578 -0.3908 -0.0143
13059SOL    HW150106   5.367   0.463   2.610  0.6671 -1.7915 -0.6217
13059SOL    HW250107   5.344   0.499   2.453 -0.1768  0.6851  0.0571
13060SOL     OW50108   0.083   7.932   4.946  0.1364  0.0385 -0.1274
13060SOL    HW150109   0.085   7.873   4.866 -0.6127 -1.8765  1.2495
13060SOL    HW250110   0.176   7.958   4.970  0.3059  1.5752 -2.2732
13061SOL     OW50111   2.325   7.241   1.445 -0.3283 -0.2967  0.8684
13061SOL    HW150112   2.287   7.267   1.534 -2.6748 -2.2208  0.4792
13061SOL    HW250113   2.305   7.145   1.427  2.5348 -0.6797 -0.5531
13062SOL     OW50114   8.403   8.732   5.588  0.5465  0.2667 -0.5925
13062SOL    HW150115   8.410   8.650   5.645 -0.4804  1.1554  0.8105
13062SOL    HW250116   8.392   8.704   5.492 -0.3679 -1.2453 -0.0668
13063SOL     OW50117   1.983   3.915   1.873 -0.6008 -0.0868 -0.7203
13063SOL    HW150118   1.890   3.914   1.837 -0.6564  0.6594 -0.6067
13063SOL    HW250119   2.029   4.000   1.844 -0.2140 -0.0911 -0.1269
13064SOL     OW50120   8.303   5.168   3.042  0.0459  0.1745 -0.5550
13064SOL    HW150121   8.223   5.225   3.021 -0.5518 -0.4382  0.0068
13064SOL    HW250122   8.285   5.117   3.126  0.8885 -0.2525 -0.6351
13065SOL     OW50123   8.255   4.120   1.193 -0.4799  0.5047  0.1450
13065SOL    HW150124   8.178   4.057   1.184  0.6207 -0.5607 -2.5451
13065SOL    HW250125   8.266   4.171   1.108  1.0812  1.4701  0.9019
13066SOL     OW50126   9.379   6.021   2.147  0.5322 -0.0693  0.4641
13066SOL    HW150127   9.418   5.997   2.236  0.2322 -1.0567  0.3354
13066SOL    HW250128   9.434   5.980   2.074  0.4385  0.2541  0.2075
13067SOL     OW50129   3.472   3.469   4.982  0.2902 -0.2388  0.2863
13067SOL    HW150130   3.502   3.519   5.063  0.5762  0.9029 -0.5124
13067SOL    HW250131   3.542   3.475   4.911 -1.0112  0.9089 -0.9342
13068SOL     OW50132   0.061   7.156   3.916 -0.8691 -0.6437  0.0460
13068SOL    HW150133   0.031   7.232   3.974 -0.6804 -0.5548  0.0306
13068SOL    HW250134   0.153   7.127   3.944 -1.0959 -1.1218  0.2987
13069SOL     OW50135   4.371   8.871   4.358  0.3394 -0.6769 -0.0585
13069SOL    HW150136   4.450   8.832   4.310  0.2921 -0.6550 -0.1536
13069SOL    HW250137   4.400   8.902   4.449  1.1727  2.2048 -1.2630
13070SOL     OW50138   3.026   4.134   2.234 -0.0839  0.3170 -0.1124
13070SOL    HW150139   3.037   4.182   2.147 -0.8745  0.4684 -0.1320
13070SOL    HW250140   3.000   4.199   2.305  1.9327  0.4322  0.5597
13071SOL     OW50141   9.094   6.264   3.737 -0.0658  0.9374  0.2949
13071SOL    HW150142   8.994   6.273   3.735 -0.3417 -1.4329  0.9732
13071SOL    HW250143   9.121   6.216   3.820  1.4193 -0.6022 -1.0406
13072SOL     OW50144   7.961   7.068   4.743  0.0926 -0.0102  0.6137
13072SOL    HW150145   7.913   7.153   4.760 -0.4859  0.1973 -1.8329
13072SOL    HW250146   8.056   7.088   4.719  1.0183 -0.3208  3.7466
13073SOL     OW50147   0.915   4.814   2.561  0.3645  0.7122  0.3568
13073SOL    HW150148   0.960   4.889   2.608  0.6936  0.5851  0.2422
13073SOL    HW250149   0.929   4.729   2.612  0.6589  0.5873  0.0704
13074SOL     OW50150   1.251   3.544   5.241 -0.3794  0.1524 -0.3812
13074SOL    HW150151   1.309   3.602   5.298 -0.7969  0.1872  0.0104
13074SOL    HW250152   1.166   3.593   5.220 -1.8116 -1.2127  1.9733
13075SOL     OW50153   1.572   4.919   0.093  0.1988  0.8400 -0.0615
13075SOL    HW150154   1.562   4.956   0.185 -1.1773 -0.6454  0.4140
13075SOL    HW250155   1.512   4.840   0.082  0.9499  0.4996 -1.9754
13076SOL     OW50156   1.143   1.836   5.584 -0.1305  0.3869  0.1830
13076SOL    HW150157   1.067   1.783   5.620  1.0331 -0.1454  1.9098
13076SOL    HW250158   1.229   1.791   5.606  0.7447  1.5151 -0.8462
13077SOL     OW50159   3.145   3.086   5.518 -0.6907  0.0367  0.0907
13077SOL    HW150160   3.141   3.086   5.418  0.0541 -1.1822  0.0456
13077SOL    HW250161   3.053   3.075   5.556 -0.7436 -1.7274 -0.5022
13078SOL     OW50162   8.468   4.373   0.873  0.0137 -0.0665 -0.5372
13078SOL    HW150163   8.461   4.351   0.776 -1.9189  2.7154 -1.0697
13078SOL    HW250164   8.527   4.453   0.886 -0.1270 -0.1245  0.5399
13079SOL     OW50165   0.830   2.592   0.279  0.0065  0.0162  0.3471
13079SOL    HW150166   0.883   2.652   0.338  0.3418  0.8733 -0.7984
13079SOL    HW250167   0.761   2.645   0.230  0.7194 -0.3991 -1.1431
13080SOL     OW50168   1.442   1.658   4.620  0.7631  0.2716 -0.1407
13080SOL    HW150169   1.513   1.599   4.660  0.7728 -1.4438 -2.5856
13080SOL    HW250170   1.484   1.716   4.550 -0.0256  0.1227 -0.7369
13081SOL     OW50171   9.455   7.813   0.971  0.1457 -0.2077  0.0667
13081SOL    HW150172   9.377   7.807   0.909 -0.0742  1.0679  0.2001
13081SOL    HW250173   9.444   7.747   1.046 -1.0585  0.3184  0.3607
13082SOL     OW50174   0.284   0.515   0.378  0.5888 -0.2349  0.1470
13082SOL    HW150175   0.221   0.577   0.425 -1.6975 -0.4898 -2.4829
13082SOL    HW250176   0.355   0.569   0.333  0.7755  0.2184  0.9727
13083SOL     OW50177   3.307   2.755   3.511  0.2662 -0.0893  0.3386
13083SOL    HW150178   3.406   2.756   3.497  0.3195  0.0632  0.7142
13083SOL    HW250179   3.266   2.831   3.461  0.5068  0.7391  1.3677
13084SOL     OW50180   1.374   2.005   2.318 -0.4213 -0.3405 -0.2039
13084SOL    HW150181   1.369   2.073   2.246  0.6107  0.0964  0.1273
13084SOL    HW250182   1.469   1.975   2.330 -0.5644 -0.3697  0.9949
13085SOL     OW50183   4.978   4.860   5.261  0.6454  0.3183  0.1018
13085SOL    HW150184   4.993   4.880   5.358  2.0051 -0.9192  0.1681
13085SOL    HW250185   4.935   4.939   5.217 -3.2823 -0.3463  2.4303
13086SOL     OW50186   7.381   0.719   0.442  0.3908  0.1066 -0.1571
13086SOL    HW150187   7.438   0.647   0.404  1.5913  1.0159 -0.1215
13086SOL    HW250188   7.285   0.702   0.419  0.9379 -0.0736 -2.4358
13087SOL     OW50189   4.923   7.775   3.014  0.0626 -0.0946  0.0173
13087SOL    HW150190   4.907   7.772   2.915  0.4237  0.6951 -0.0718
13087SOL    HW250191   5.019   7.801   3.031  0.6821 -2.6310  0.5463
13088SOL     OW50192   2.146   5.563   1.180 -0.3167 -0.4842 -0.2027
13088SOL    HW150193   2.224   5.501   1.177  0.0598  0.0219 -1.0092
13088SOL    HW250194   2.124   5.594   1.087 -0.2017  0.9463  0.2381
13089SOL     OW50195   9.312   8.565   2.854  0.1375  0.1658  0.3152
13089SOL    HW150196   9.361   8.652   2.846  2.0900 -0.6793  2.4847
13089SOL    HW250197   9.217   8.578   2.826  0.5424  2.8468  0.0145
13090SOL     OW50198   2.132   0.419   0.571  0.1069  0.7931  0.7335
13090SOL    HW150199   2.184   0.446   0.490 -0.4294  0.4854  0.2796
13090SOL    HW250200   2.053   0.480   0.582 -0.7134 -0.1288  0.1069
13091SOL     OW50201   3.289   2.709   5.640 -0.2927  0.3103 -0.0309
13091SOL    HW150202   3.316   2.618   5.672  1.1056  1.0914  1.0417
13091SOL    HW250203   3.199   2.731   5.678  0.2852  0.2308  1.4199
13092SOL     OW50204   1.581   5.963   3.882  0.6619  0.1975 -0.5235
13092SOL    HW150205   1.489   5.989   3.850  1.0678  1.1902 -0.9043
13092SOL    HW250206   1.630   5.916   3.809  1.0509  1.1496 -0.8904
13093SOL     OW50207   2.293   0.232   3.526  0.0224  0.3624 -0.0733
13093SOL    HW150208   2.353   0.184   3.590  0.0108 -0.2176 -0.4952
13093SOL    HW250209   2.222   0.171   3.494 -0.6791  0.9949  0.2603
13094SOL     OW50210   3.112   6.870   1.838  0.2628  0.0802  0.1206
13094SOL    HW150211   3.126   6.771   1.838  0.7940  0.1502 -0.5881
13094SOL    HW250212   3.015   6.890   1.824 -0.0947 -0.3623  1.8795
13095SOL     OW50213   8.953   9.980   3.111  0.3894 -0.4797  0.0512
13095SOL    HW150214   8.885   9.979   3.038 -0.8425 -1.4392  1.1725
13095SOL    HW250215   8.913  10.023   3.193  2.1079  1.5749 -0.1567
13096SOL     OW50216   9.225   6.525   2.372  0.5558 -0.1047 -0.1111
13096SOL    HW150217   9.188   6.515   2.279  0.5696 -2.0238  0.0719
13096SOL    HW250218   9.180   6.602   2.417  0.5312  0.8432 -1.6875
13097SOL     OW50219   5.040   7.362   3.344 -0.3101  0.6247 -0.1461
13097SOL    HW150220   5.064   7.384   3.439  0.9990  0.1771 -0.3554
13097SOL    HW250221   4.958   7.305   3.343  0.1688 -0.1055  0.7796
13098SOL     OW50222   4.723   4.069   0.048  0.0593 -0.1983  0.0928
13098SOL    HW150223   4.795   4.069  -0.022 -1.3564  0.4958 -1.3886
13098SOL    HW250224   4.728   3.984   0.100  1.1794 -0.6981 -0.8073
13099SOL     OW50225   0.268   1.304   1.163  0.1310  0.1843 -0.3911
13099SOL    HW150226   0.326   1.350   1.230 -0.8657 -0.0668  0.6510
13099SOL    HW250227   0.326   1.267   1.090  1.0590  2.1294 -0.6973
13100SOL     OW50228   1.175   7.002   2.688  0.5924 -0.3220  0.6382
13100SOL    HW150229   1.106   7.074   2.680 -2.1588 -2.5995  2.4799
13100SOL    HW250230   1.246   7.030   2.751  0.2818  1.3034  0.2811
13101SOL     OW50231   2.477   2.711   2.203  0.0264 -0.0136  0.2728
13101SOL    HW150232   2.521   2.629   2.239  1.8166  0.6425 -0.3554
13101SOL    HW250233   2.386   2.688   2.170  1.1665 -2.1530 -1.5289
13102SOL     OW50234   9.948   3.981   1.983 -0.5206 -0.6373  0.1182
13102SOL    HW150235   9.953   4.027   2.072 -0.1038  0.8674 -0.6688
13102SOL    HW250236  10.041   3.961   1.951 -0.6317 -0.1728 -0.4913
13103SOL     OW50237   9.132   8.638   5.037 -0.1889  0.6388  0.3383
13103SOL    HW150238   9.075   8.562   5.006 -1.0531  1.4100  0.0049
13103SOL    HW250239   9.105   8.663   5.130  0.0955  0.5394  0.4486
13104SOL     OW50240   4.519   5.536   0.727 -0.3383 -0.6737  0.1212
13104SOL    HW150241   4.469   5.555   0.812 -0.0332 -0.3789  0.2356
13104SOL    HW250242   4.594   5.601   0.717 -0.2184 -0.8661 -0.2505
13105SOL     OW50243   4.820   8.629   1.815  0.4749 -0.1527  0.1339
13105SOL    HW150244   4.854   8.628   1.721  1.3215 -0.4712  0.4387
13105SOL    HW250245   4.848   8.714   1.860 -1.5138  0.8518 -0.4601
13106SOL     OW50246   6.149   7.371   2.828  0.0850  0.6377 -0.1251
13106SOL    HW150247   6.155   7.440   2.900 -0.1258  0.1326  0.3729
13106SOL    HW250248   6.117   7.414   2.743  0.3037  1.2204  0.0853
13107SOL     OW50249   4.344   1.350   5.627 -0.0497 -0.0762 -0.5342
13107SOL    HW150250   4.378   1.372   5.718 -0.6764  1.3234 -0.6183
13107SOL    HW250251   4.333   1.434   5.574 -0.8940 -0.7521 -1.4679
13108SOL     OW50252   9.607   8.912   1.369 -0.1023  0.5373 -0.1100
13108SOL    HW150253   9.549   8.867   1.437 -0.6235  1.1974 -0.1075
13108SOL    HW250254   9.689   8.949   1.414  0.0035  0.1738 -0.0023
13109SOL     OW50255   1.789   1.450   3.489 -0.1509  0.2758 -0.4606
13109SOL    HW150256   1.759   1.411   3.576  1.1471  0.3561  0.0346
13109SOL    HW250257   1.712   1.453   3.425 -1.7724  2.6150  1.5286
13110SOL     OW50258   2.240   3.672   1.271 -0.0780 -0.2119 -0.0547
13110SOL    HW150259   2.316   3.621   1.233 -0.8741 -0.8465 -0.8226
13110SOL    HW250260   2.251   3.681   1.370  0.7001 -0.7863 -0.0912
13111SOL     OW50261   0.047   7.620   1.160  0.1628  0.7253 -1.3480
13111SOL    HW150262   0.035   7.676   1.242 -0.9562 -0.9585 -0.3190
13111SOL    HW250263   0.144   7.609   1.141  0.4406  0.6935  0.0570
13112SOL     OW50264   8.296   4.589   1.729 -0.7904 -0.0551  0.0987
13112SOL    HW150265   8.269   4.500   1.692 -2.1540  0.4562 -0.1529
13112SOL    HW250266   8.320   4.578   1.826  2.7242 -1.3735 -0.8328
13113SOL     OW50267   1.282   7.647   4.733 -0.3739  0.3030 -0.3978
13113SOL    HW150268   1.223   7.702   4.792 -0.2860 -0.4993  0.4503
13113SOL    HW250269   1.274   7.551   4.758 -1.0650 -0.1733 -2.3427
13114SOL     OW50270   8.770   8.945   0.771 -0.3287 -0.2398 -0.3830
13114SOL    HW150271   8.788   8.875   0.840  0.3208 -0.4468 -0.7651
13114SOL    HW250272   8.732   9.026   0.816  0.1471 -0.3519  0.2297
13115SOL     OW50273   4.321   8.044   1.587  0.3849 -0.1462 -0.3972
13115SOL    HW150274   4.391   8.085   1.645  0.3279 -1.8997  0.9560
13115SOL    HW250275   4.350   7.952   1.560 -0.3824 -0.0136 -1.6984
13116SOL     OW50276   8.323   1.519   0.518 -0.3676 -0.4071  0.7010
13116SOL    HW150277   8.223   1.514   0.522 -0.4944  0.1109 -1.2835
13116SOL    HW250278   8.350   1.590   0.453  1.2947 -1.2351  0.4669
13117SOL     OW50279   6.698   0.803   0.227  0.8086  0.3450  0.1794
13117SOL    HW150280   6.768   0.842   0.287 -0.5141 -1.4736  3.0053
13117SOL    HW250281   6.608   0.814   0.268 -0.0272 -1.8466 -0.9630
13118SOL     OW50282   1.125   2.515   0.879 -0.6564  0.0224 -0.1468
13118SOL    HW150283   1.084   2.552   0.962 -2.0885  0.1319 -0.8954
13118SOL    HW250284   1.218   2.484   0.899 -0.7665  0.6134  1.3449
13119SOL     OW50285   3.323   2.937   1.829 -0.0138 -0.0214 -0.5588
13119SOL    HW150286   3.343   2.974   1.920 -0.1246  3.6868 -1.9904
13119SOL    HW250287   3.269   2.853   1.839  0.0461  0.2546  2.7687
13120SOL     OW50288   1.441   1.865   4.801  0.2915  0.1145  0.3069
13120SOL    HW150289   1.394   1.794   4.750  0.4036  0.2338  0.0373
13120SOL    HW250290   1.522   1.895   4.751  0.9079 -0.4000  0.9761
13121SOL     OW50291   1.053   6.383   4.998  0.5160 -0.0103 -0.5040
13121SOL    HW150292   1.088   6.325   4.924  0.6902 -0.8418  0.2287
13121SOL    HW250293   1.124   6.447   5.026  0.2661  0.6802 -1.4342
13122SOL     OW50294   2.050   6.026   3.183  0.7738 -0.2285 -0.4292
13122SOL    HW150295   1.959   6.059   3.161  0.5308  0.0629  1.0131
13122SOL    HW250296   2.046   5.929   3.206  0.8662 -0.2659 -0.5660
13123SOL     OW50297   2.541   9.759   2.871 -0.3203  0.0957  0.4146
13123SOL    HW150298   2.512   9.776   2.965 -0.3077  1.2614  0.2129
13123SOL    HW250299   2.597   9.835   2.839  1.3965 -1.2451  0.1505
13124SOL     OW50300   9.133   0.983   1.845 -0.2225 -0.0153 -0.5723
13124SOL    HW150301   9.213   0.947   1.893  1.3101 -0.4090 -3.3156
13124SOL    HW250302   9.115   0.928   1.764 -0.9362  2.3609 -2.0856
13125SOL     OW50303   6.930   9.777   4.756  0.4152  0.4779  0.5228
13125SOL    HW150304   6.917   9.861   4.807 -0.0088  0.3842  0.5692
13125SOL    HW250305   6.847   9.755   4.705  0.5186  0.0816  0.5190
13126SOL     OW50306   7.578   2.610   2.340 -0.0217 -0.7625 -0.1705
13126SOL    HW150307   7.667   2.584   2.304  0.2926 -2.1048  1.5090
13126SOL    HW250308   7.586   2.695   2.392  0.5035 -1.4281  0.8537
13127SOL     OW50309   2.995   0.301   3.476  0.1342 -0.0154  0.2069
13127SOL    HW150310   2.931   0.281   3.402  0.7185 -1.7890  0.1527
13127SOL    HW250311   3.019   0.398   3.475  0.5726 -0.1322 -2.2820
13128SOL     OW50312   9.587   2.389   0.750 -0.0995  0.1619 -0.7558
13128SOL    HW150313   9.496   2.409   0.784 -0.2056 -0.9512 -0.3668
13128SOL    HW250314   9.655   2.439   0.804 -0.4259  0.3390 -0.5098
13129SOL     OW50315   1.113   8.268   3.221 -0.2293  0.1205 -0.3976
13129SOL    HW150316   1.133   8.226   3.309  1.2587 -0.2823 -0.9165
13129SOL    HW250317   1.174   8.230   3.151 -1.5185  0.2924 -1.6422
13130SOL     OW50318   0.478   9.338   4.722 -0.4865 -0.6552  0.0116
13130SOL    HW150319   0.478   9.253   4.669  0.7105 -0.6361 -0.0273
13130SOL    HW250320   0.467   9.317   4.819 -3.2572 -0.6599 -0.2390
13131SOL     OW50321   7.478   1.944   2.958 -0.9438  0.1840  0.3962
13131SOL    HW150322   7.444   1.850   2.953  2.3635 -1.0517 -0.2031
13131SOL    HW250323   7.517   1.961   3.048  2.0717 -0.4016 -0.7302
13132SOL     OW50324   9.083   2.642   2.810  0.3357 -0.4110  0.2668
13132SOL    HW150325   9.092   2.594   2.722 -1.4481  0.3202 -0.3421
13132SOL    HW250326   9.126   2.732   2.803  1.4169 -0.8964  0.5932
13133SOL     OW50327   0.080   6.309   3.783  0.3744 -0.1092 -0.3972
13133SOL    HW150328  -0.013   6.345   3.770  0.7879  1.0812 -0.1485
13133SOL    HW250329   0.078   6.234   3.850 -0.1945  0.9470  0.7964
13134SOL     OW50330   3.111   7.703   1.853  0.2571 -0.1940  0.0772
13134SOL    HW150331   3.110   7.603   1.855  2.5371 -0.2446  0.9152
13134SOL    HW250332   3.204   7.734   1.830 -0.2065  1.7310  0.7294
13135SOL     OW50333   1.515   1.492   4.095 -0.0148 -0.1564  0.6277
13135SOL    HW150334   1.566   1.573   4.125  0.4493  0.5349 -1.9644
13135SOL    HW250335   1.575   1.413   4.096 -0.0932 -0.2140  1.8081
13136SOL     OW50336   2.969   4.799   0.979 -0.3107  0.2468  0.2501
13136SOL    HW150337   3.017   4.796   0.892 -2.4595  1.4875 -1.0252
13136SOL    HW250338   2.900   4.726   0.983  0.0906 -0.1024  1.1244
13137SOL     OW50339   9.082   2.340   3.666 -0.3705 -0.3276  0.0508
13137SOL    HW150340   9.150   2.404   3.630 -1.0451  0.5895  0.4063
13137SOL    HW250341   9.093   2.331   3.765 -1.9278  1.2080  0.3688
13138SOL     OW50342   8.539   7.732   4.810 -0.1544 -0.4632  0.3733
13138SOL    HW150343   8.566   7.682   4.892 -2.9400  1.5810  2.6266
13138SOL    HW250344   8.492   7.671   4.747  1.8703 -2.0136  0.3155
13139SOL     OW50345   8.382   4.711   0.839  0.2432  0.1637  0.0102
13139SOL    HW150346   8.393   4.810   0.850  1.4703 -0.1730  2.2679
13139SOL    HW250347   8.356   4.671   0.927 -1.8740 -1.3344 -1.2638
13140SOL     OW50348   1.691   6.158   0.137  0.0411 -0.3094 -0.0654
13140SOL    HW150349   1.667   6.114   0.050  0.5701 -3.9449  1.5383
13140SOL    HW250350   1.619   6.141   0.204  0.8079  0.2979  0.9372
13141SOL     OW50351   4.724   0.105   3.108 -0.1807 -0.4440  0.5190
13141SOL    HW150352   4.793   0.035   3.125 -0.7797 -1.3700 -0.7964
13141SOL    HW250353   4.635   0.071   3.136 -0.7902 -1.0251 -2.0784
13142SOL     OW50354   6.290   1.189   3.712 -0.2535  0.0896 -0.7369
13142SOL    HW150355   6.346   1.140   3.645  0.8650 -0.9079  0.8888
13142SOL    HW250356   6.347   1.217   3.789 -1.0272  3.3947 -1.3245
13143SOL     OW50357   4.232   0.884   2.107  0.0403  0.2915 -0.3144
13143SOL    HW150358   4.302   0.936   2.156 -1.6375  3.0820 -0.7751
13143SOL    HW250359   4.215   0.798   2.155  2.1661  0.5984  1.0444
13144SOL     OW50360   1.397   6.962   4.828 -0.0316  0.7200  0.0688
13144SOL    HW150361   1.473   6.904   4.799  0.7505  2.2002 -0.8934
13144SOL    HW250362   1.311   6.918   4.806  0.5545  0.3439 -1.5122
13145SOL     OW50363   8.284   1.683   4.950 -0.1667 -0.0302 -0.1566
13145SOL    HW150364   8.370   1.649   4.990  0.5950  1.1768 -0.7375
13145SOL    HW250365   8.227   1.722   5.023 -0.2526 -0.8641  0.2360
13146SOL     OW50366   3.055   3.691   5.102  0.8749 -0.4448 -0.2754
13146SOL    HW150367   3.061   3.619   5.033 -0.4702  0.8531 -1.8040
13146SOL    HW250368   3.132   3.754   5.091  0.6767 -0.2544 -0.5992
13147SOL     OW50369   1.911   1.649   2.520 -0.0834  0.3360 -0.5482
13147SOL    HW150370   1.854   1.567   2.515 -0.5227  0.5845  0.3036
13147SOL    HW250371   1.947   1.659   2.613 -0.2682  1.2693 -0.5742
13148SOL     OW50372   2.571   1.807   4.526  0.8253 -0.1895 -0.2878
13148SOL    HW150373   2.624   1.888   4.552 -2.6440  2.3597 -0.8752
13148SOL    HW250374   2.595   1.779   4.433  1.7565  0.3755 -0.2224
13149SOL     OW50375   1.482   3.316   0.613  0.7670 -0.1087 -0.6682
13149SOL    HW150376   1.510   3.220   0.625  2.3269  0.5692  1.3938
13149SOL    HW250377   1.556   3.367   0.569  0.1487  0.2863 -1.2600
13150SOL     OW50378   1.942   6.420   4.318 -0.5544  0.1313 -0.0684
13150SOL    HW150379   1.950   6.414   4.417 -2.7052 -0.7019  0.0734
13150SOL    HW250380   1.870   6.486   4.293 -1.0018 -0.6996 -1.0311
13151SOL     OW50381   9.750   4.110   3.744  0.4626 -0.0217  0.3207
13151SOL    HW150382   9.754   4.145   3.838 -1.0609  0.1086  0.3595
13151SOL    HW250383   9.703   4.021   3.744  0.7825 -0.1893 -0.2698
13152SOL     OW50384   2.720   1.805   2.898 -0.2050  0.6107  0.0129
13152SOL    HW150385   2.699   1.770   2.989 -1.0816 -1.6249 -1.0130
13152SOL    HW250386   2.776   1.888   2.906  1.9111 -1.0045  2.5319
13153SOL     OW50387   2.754   3.970   0.660 -0.1974 -0.1834 -0.4317
13153SOL    HW150388   2.684   4.034   0.692 -0.6434 -0.4281 -0.9129
13153SOL    HW250389   2.828   4.021   0.615  0.7135  0.2207  1.4524
13154SOL     OW50390   0.272   5.900   3.779 -0.6267  0.3437  0.2357
13154SOL    HW150391   0.283   5.932   3.873 -1.7306  0.0531  0.4740
13154SOL    HW250392   0.209   5.822   3.778  0.2528 -0.3631 -0.6104
13155SOL     OW50393   7.046   9.359   1.809 -0.5904  0.2374  0.4428
13155SOL    HW150394   7.046   9.392   1.714  0.6548 -1.7454 -0.2944
13155SOL    HW250395   6.978   9.286   1.818  0.6864 -0.9659  0.5260
13156SOL     OW50396   1.786   0.015   4.986  0.3157  0.5200 -0.2973
13156SOL    HW150397   1.774   0.093   4.925 -2.4274  1.6569  1.6094
13156SOL    HW250398   1.834   0.044   5.069 -0.3966  0.1204  0.2631
13157SOL     OW50399   9.690   7.509   0.787  0.2091 -0.0187  0.2964
13157SOL    HW150400   9.696   7.596   0.836  0.3696  0.1159  0.0386
13157SOL    HW250401   9.774   7.493   0.735  0.9260 -1.2058  1.7729
13158SOL     OW50402   1.241   1.445   1.071  0.1582 -0.6478 -0.4961
13158SOL    HW150403   1.185   1.413   1.148  0.5162 -1.2938 -0.5026
13158SOL    HW250404   1.277   1.536   1.091 -0.7331 -0.3109 -0.4079
13159SOL     OW50405   7.805   0.988   1.181  0.9940 -0.3771  0.0633
13159SOL    HW150406   7.841   0.895   1.184  2.5102  0.1489 -1.4514
13159SOL    HW250407   7.819   1.031   1.271  0.8571 -1.3893  0.5796
13160SOL     OW50408   7.748   3.781   4.196 -0.4735  0.1619  0.5043
13160SOL    HW150409   7.802   3.739   4.269 -1.4098 -0.4506  0.8560
13160SOL    HW250410   7.717   3.872   4.225 -0.7070 -0.0136  0.8120
13161SOL     OW50411   9.985   1.992   5.500 -0.7184  0.2508  0.4946
13161SOL    HW150412  10.048   2.048   5.553 -1.0450  0.2253  0.9148
13161SOL    HW250413  10.036   1.919   5.454 -0.3104  0.8234  0.0328
13162SOL     OW50414   1.256   7.111   4.564 -0.4506  0.5375  0.2827
13162SOL    HW150415   1.285   7.050   4.638 -2.1791 -1.3350 -0.5428
13162SOL    HW250416   1.335   7.163   4.531  1.6737 -3.2898 -0.9053
13163SOL     OW50417   7.895   4.271   0.488 -0.2305 -0.2017 -0.3894
13163SOL    HW150418   7.852   4.181   0.498 -1.5356  0.6883  2.5115
13163SOL    HW250419   7.865   4.331   0.562  1.2181  2.4176 -1.8398
13164SOL     OW50420   9.406   1.485   5.052  0.3049  0.0965 -0.6321
13164SOL    HW150421   9.419   1.404   4.994  2.3566  0.1969 -0.3385
13164SOL    HW250422   9.378   1.562   4.994  0.2643 -0.3243 -1.1863
13165SOL     OW50423   4.530   7.663   3.977 -0.0854  0.1998 -0.5030
13165SOL    HW150424   4.492   7.711   3.898 -0.6613 -0.9315 -0.9393
13165SOL    HW250425   4.578   7.581   3.946 -0.6708 -0.4718  0.3468
13166SOL     OW50426   8.043   8.982   3.185  0.0430 -0.9016 -0.5305
13166SOL    HW150427   7.975   8.909   3.177 -0.0904 -0.9247  0.8155
13166SOL    HW250428   8.101   8.966   3.265 -0.5116  0.8968  0.2642
13167SOL     OW50429   8.122   3.728   1.476 -0.3464 -0.1940 -0.2227
13167SOL    HW150430   8.218   3.746   1.456  0.1430 -1.8539  0.5092
13167SOL    HW250431   8.097   3.771   1.563 -0.6359  1.3079 -1.0225
13168SOL     OW50432   0.176   3.839   0.109  0.0497  0.3904 -0.3445
13168SOL    HW150433   0.118   3.785   0.170  1.0784 -0.2496  0.0702
13168SOL    HW250434   0.246   3.886   0.163  0.5756  0.3269 -0.9691
13169SOL     OW50435   2.846   6.550   2.200 -0.0672  0.1565 -0.1785
13169SOL    HW150436   2.749   6.574   2.196 -0.0162  0.4458  0.3109
13169SOL    HW250437   2.900   6.634   2.207  0.3797  0.1733 -3.1959
13170SOL     OW50438   6.603   0.071   3.328 -0.5896  0.1514 -0.2845
13170SOL    HW150439   6.607   0.050   3.230 -1.7385  1.4157 -0.6186
13170SOL    HW250440   6.678   0.026   3.375  0.9826  0.9226 -2.0147
13171SOL     OW50441   0.612   5.894   4.471 -0.0351  0.5534 -0.6420
13171SOL    HW150442   0.560   5.954   4.532  0.7066  1.1665 -0.6088
13171SOL    HW250443   0.573   5.802   4.475 -2.0738  1.3326 -1.7808
13172SOL     OW50444   9.722   7.396   4.862  0.1149 -0.1465  0.6891
13172SOL    HW150445   9.695   7.319   4.804 -0.2199 -0.1959  0.9093
13172SOL    HW250446   9.649   7.417   4.927  0.0735  0.5545  0.4288
13173SOL     OW50447   0.512   5.170   1.690 -0.7734 -0.2716 -0.5064
13173SOL    HW150448   0.433   5.120   1.655 -1.8834  1.0470  0.0412
13173SOL    HW250449   0.556   5.117   1.762 -2.1962 -0.2896  0.3776
13174SOL     OW50450   2.440   7.084   3.423  0.1215  0.6263  0.0035
13174SOL    HW150451   2.412   7.134   3.341  3.0064  0.7177 -1.0026
13174SOL    HW250452   2.458   7.149   3.497  1.1836  0.8702 -0.4608
13175SOL     OW50453   9.984   1.953   0.632 -0.0616 -0.3289  0.4125
13175SOL    HW150454   9.887   1.939   0.611 -0.4815  2.0797  0.6323
13175SOL    HW250455  10.032   1.982   0.549  0.4838 -1.5652  0.2932
13176SOL     OW50456   2.644   3.662   0.339  0.9317  0.5286  0.0068
13176SOL    HW150457   2.726   3.652   0.395  0.9666 -1.4722 -0.3514
13176SOL    HW250458   2.665   3.637   0.245 -0.2402 -0.6946  0.0520
13177SOL     OW50459   8.776   4.358   0.790 -0.0267  0.3820 -0.5248
13177SOL    HW150460   8.843   4.392   0.724 -0.2929  0.5665 -0.7006
13177SOL    HW250461   8.697   4.322   0.741  0.2887 -0.5739 -0.3443
13178SOL     OW50462   1.432   7.219   2.764 -0.5892 -0.4616  0.0096
13178SOL    HW150463   1.477   7.132   2.785  0.3191  0.1308  0.5298
13178SOL    HW250464   1.377   7.248   2.842  1.9859  1.2308  1.2762
13179SOL     OW50465   0.311   5.611   3.418  0.1160 -0.1951 -0.1234
13179SOL    HW150466   0.239   5.678   3.400 -0.0170  0.4437  2.5128
13179SOL    HW250467   0.396   5.658   3.440  0.2757 -0.8740  0.7745
13180SOL     OW50468   8.059   6.980   4.002 -0.1404 -0.2154 -0.5174
13180SOL    HW150469   8.072   6.955   3.906  0.9206 -1.4453 -0.0702
13180SOL    HW250470   7.968   7.019   4.015 -0.3157 -0.1188 -2.0035
13181SOL     OW50471   2.732   3.947   3.145 -0.1761  0.1342 -0.5340
13181SOL    HW150472   2.832   3.941   3.138 -0.0972  2.6675 -2.3263
13181SOL    HW250473   2.695   3.984   3.060 -2.3667  2.2222  1.2697
13182SOL     OW50474   9.526   5.439   0.359 -0.1294 -0.2400 -0.0849
13182SOL    HW150475   9.458   5.386   0.410 -0.9568  1.5494  0.7393
13182SOL    HW250476   9.499   5.443   0.263 -0.8330 -0.1279  0.1121
13183SOL     OW50477   8.203   4.561   3.858 -0.2663  0.2509  0.3277
13183SOL    HW150478   8.118   4.587   3.905 -0.0078 -0.6805  1.3302
13183SOL    HW250479   8.182   4.495   3.786 -0.2461 -0.9791  1.4345
13184SOL     OW50480   9.026   9.984   2.498  0.3334 -0.0838 -0.3123
13184SOL    HW150481   8.973   9.910   2.540  1.3376 -0.8083 -0.3078
13184SOL    HW250482   8.971  10.029   2.428 -0.4983 -0.4330  0.1067
13185SOL     OW50483   0.039   6.590   0.450 -0.1270 -0.2423 -0.4022
13185SOL    HW150484   0.095   6.529   0.506  1.3078 -0.7233 -2.3104
13185SOL    HW250485  -0.019   6.534   0.390 -0.8228  0.2754 -0.2175
13186SOL     OW50486   1.217   4.686   3.217 -0.3902 -0.3301  0.2415
13186SOL    HW150487   1.230   4.712   3.121 -2.6030  0.9011  0.2245
13186SOL    HW250488   1.246   4.592   3.231  0.9199 -0.1925 -1.4057
13187SOL     OW50489   8.980   5.229   0.368  0.0795 -0.6607 -0.6755
13187SOL    HW150490   8.908   5.161   0.376  0.9237 -1.7053 -1.8467
13187SOL    HW250491   8.996   5.271   0.458 -1.3037 -1.1009 -0.2090
13188SOL     OW50492   2.321   1.500   3.506  0.0584 -0.5227 -0.4741
13188SOL    HW150493   2.361   1.571   3.565 -2.9232  0.1894  0.8263
13188SOL    HW250494   2.255   1.447   3.559  0.0202 -2.2924 -2.2623
13189SOL     OW50495   0.455   1.614   2.564 -0.4446 -0.4802 -0.0444
13189SOL    HW150496   0.443   1.617   2.663  0.5283  1.5159  0.0443
13189SOL    HW250497   0.547   1.583   2.542  0.8168  3.0737 -0.1551
13190SOL     OW50498   6.731   7.804   3.738  0.1112  0.0571 -0.4173
13190SOL    HW150499   6.790   7.725   3.759  0.5029  0.0135 -1.6386
13190SOL    HW250500   6.788   7.881   3.710 -0.4329 -0.2829 -2.5669
13191SOL     OW50501   7.952   2.646   2.995  0.1406  0.5960  0.3121
13191SOL    HW150502   7.895   2.674   3.072 -0.2412 -0.8896  0.5694
13191SOL    HW250503   7.899   2.590   2.932  0.7124  1.0267 -0.5726
13192SOL     OW50504   0.745   0.575   3.579 -0.0243 -0.2605 -0.2323
13192SOL    HW150505   0.778   0.627   3.657  1.4241 -0.7700 -0.4758
13192SOL    HW250506   0.661   0.616   3.544  0.4076  1.1642  0.3542
13193SOL     OW50507   1.140   8.984   5.217  0.3192  0.2608  0.6261
13193SOL    HW150508   1.072   9.031   5.161  1.2735  1.1811  0.2102
13193SOL    HW250509   1.231   8.996   5.175  1.2387  2.0734  3.0188
13194SOL     OW50510   9.668   7.533   1.660  0.3864 -0.5577  0.1236
13194SOL    HW150511   9.588   7.518   1.718 -0.2005 -0.7763 -0.7326
13194SOL    HW250512   9.658   7.620   1.612  0.0560 -1.1791 -0.9547
13195SOL     OW50513   2.567   0.206   2.183  0.5030 -0.6492  0.5159
13195SOL    HW150514   2.498   0.233   2.115 -0.1882  1.5639  2.0405
13195SOL    HW250515   2.542   0.117   2.222 -0.2217 -0.9494 -0.5908
13196SOL     OW50516   6.789   9.456   2.203  0.3265 -0.6651 -0.7987
13196SOL    HW150517   6.721   9.384   2.216  0.5220 -0.7152 -0.0709
13196SOL    HW250518   6.754   9.542   2.240 -0.1395 -0.2503 -2.1678
13197SOL     OW50519   0.084   2.309   0.103 -0.1933  0.0792 -0.4550
13197SOL    HW150520   0.125   2.224   0.136  0.6319  1.1423  1.3765
13197SOL    HW250521   0.072   2.305   0.004  1.1184 -1.6181 -0.5584
13198SOL     OW50522   8.411   2.041   3.144 -0.4312 -0.4841 -0.3063
13198SOL    HW150523   8.341   1.974   3.120 -0.9541 -0.9317  2.3097
13198SOL    HW250524   8.474   2.001   3.210 -0.5406  1.4882  1.0436
13199SOL     OW50525   9.737   7.614   1.399  0.4179 -0.3031  0.3489
13199SOL    HW150526   9.739   7.554   1.480  0.6418  1.1466  1.4411
13199SOL    HW250527   9.790   7.697   1.419  0.1179  0.2509 -1.1532
13200SOL     OW50528   3.358   5.359   0.130 -0.0477  0.5401  0.3944
13200SOL    HW150529   3.293   5.417   0.082  0.9186  1.6015  0.3468
13200SOL    HW250530   3.309   5.290   0.183 -1.1641  0.3495 -0.8610
13201SOL     OW50531   0.484   4.518   3.861  0.8706  0.4131  0.3863
13201SOL    HW150532   0.502   4.504   3.763  1.9860 -1.0619  0.7834
13201SOL    HW250533   0.385   4.518   3.877  0.6716  1.0625 -0.7922
13202SOL     OW50534   9.488   5.414   0.900  0.0685  0.0128 -0.0684
13202SOL    HW150535   9.474   5.330   0.847  1.6870  0.3996 -1.1220
13202SOL    HW250536   9.507   5.490   0.839 -3.8938  1.7778  0.6928
13203SOL     OW50537   3.484   0.581   2.127 -0.0580 -0.4111  0.3823
13203SOL    HW150538   3.481   0.607   2.030 -1.5658  1.0137  0.7749
13203SOL    HW250539   3.529   0.493   2.137  1.7193  0.2381 -1.4415
13204SOL     OW50540   3.978   7.233   2.476 -0.0540 -0.1689 -0.7926
13204SOL    HW150541   3.940   7.155   2.525  0.7547 -1.1885 -1.7719
13204SOL    HW250542   4.071   7.212   2.448  1.2057  2.1971  1.3758
13205SOL     OW50543   8.928   2.216   3.489 -0.2986 -0.6121  0.2597
13205SOL    HW150544   8.996   2.255   3.551 -0.3070 -0.6598  0.2989
13205SOL    HW250545   8.899   2.286   3.423 -1.1023 -0.2367  0.9970
13206SOL     OW50546   7.993   4.488   4.429  0.2844  0.6991 -0.0567
13206SOL    HW150547   7.941   4.573   4.439 -1.0843 -0.1294 -0.0720
13206SOL    HW250548   8.024   4.457   4.519 -0.8264  0.2171  0.1633
13207SOL     OW50549   2.185   8.727   4.271  0.3022 -0.0236 -0.5504
13207SOL    HW150550   2.118   8.801   4.276 -1.4954 -1.4906 -2.3772
13207SOL    HW250551   2.148   8.645   4.315  2.1830  0.0175  1.2453
13208SOL     OW50552   8.527   7.419   3.675  0.4438  0.0893 -0.0862
13208SOL    HW150553   8.571   7.497   3.631 -0.8149 -0.3621 -2.1783
13208SOL    HW250554   8.456   7.382   3.616 -0.1827 -1.5605  1.6356
13209SOL     OW50555   5.794   1.798   1.657 -0.0855  0.3892 -0.1733
13209SOL    HW150556   5.731   1.730   1.621 -0.2337 -0.4131  1.5642
13209SOL    HW250557   5.745   1.882   1.677 -0.0986  0.6637 -1.2976
13210SOL     OW50558  10.000   6.131   0.224 -0.2370 -0.0045 -0.0382
13210SOL    HW150559  10.090   6.152   0.185 -0.6979 -1.1189 -1.7997
13210SOL    HW250560  10.008   6.120   0.323  1.0235  2.7130  0.1971
13211SOL     OW50561   7.648   9.743   4.213 -0.6087  0.3317  0.3405
13211SOL    HW150562   7.557   9.741   4.253 -1.1038 -0.8815 -0.7907
13211SOL    HW250563   7.701   9.818   4.253 -2.6783  2.1669 -0.2761
13212SOL     OW50564   8.461   7.058   0.318  0.4228 -0.0220 -0.3179
13212SOL    HW150565   8.500   6.979   0.271  2.4359  0.4899  0.4375
13212SOL    HW250566   8.533   7.105   0.369 -1.0031  1.5653  0.2730
13213SOL     OW50567   3.131   6.459   2.887 -0.2014 -0.1915 -0.1965
13213SOL    HW150568   3.229   6.475   2.875 -0.1902  0.3250  0.5833
13213SOL    HW250569   3.080   6.533   2.844 -0.1778  1.2167  2.1308
13214SOL     OW50570   0.875   1.421   2.353 -0.3420 -0.0840  0.0561
13214SOL    HW150571   0.865   1.362   2.433  0.6503  0.3213  0.4865
13214SOL    HW250572   0.831   1.509   2.370  0.4045  0.2276  0.4001
13215SOL     OW50573   0.851   4.861   0.333  0.0324 -0.1046  0.4472
13215SOL    HW150574   0.926   4.894   0.276 -1.0022 -0.6374 -1.2681
13215SOL    HW250575   0.829   4.930   0.403  0.6256  1.0163 -0.4527
13216SOL     OW50576   4.684   8.455   1.959 -0.2607 -0.0753  0.3238
13216SOL    HW150577   4.732   8.511   1.892  0.1987  0.8347  1.3803
13216SOL    HW250578   4.621   8.512   2.011 -0.7346 -0.7965  0.5498
13217SOL     OW50579   9.038   9.906   5.600 -0.0912 -0.2813 -0.4084
13217SOL    HW150580   9.026   9.993   5.554 -2.6635 -2.0992 -3.3483
13217SOL    HW250581   9.000   9.911   5.692  0.1119  1.7657 -0.4145
13218SOL     OW50582   8.275   5.163   2.523  0.0909 -0.3768  0.0831
13218SOL    HW150583   8.373   5.182   2.525  0.0781 -0.0709 -1.3884
13218SOL    HW250584   8.259   5.075   2.479 -0.3192 -0.1783 -0.1742
13219SOL     OW50585   0.730   8.323   4.018  0.6095  0.1522 -0.4405
13219SOL    HW150586   0.781   8.238   4.027 -0.2122 -0.3818 -0.7978
13219SOL    HW250587   0.764   8.389   4.086  1.7055 -0.2152 -0.6155
13220SOL     OW50588   8.538   7.263   3.235  0.3160 -0.2030  0.1249
13220SOL    HW150589   8.622   7.226   3.275 -0.6384 -3.3932 -0.7253
13220SOL    HW250590   8.554   7.285   3.138  0.6840  1.0045  0.4511
13221SOL     OW50591   5.456   7.679   2.411 -0.5646  0.1270 -0.2803
13221SOL    HW150592   5.364   7.643   2.431 -0.3875 -1.1550 -1.7068
13221SOL    HW250593   5.525   7.614   2.443 -0.1040  1.6824  1.9485
13222SOL     OW50594   0.326   5.000   4.352 -0.2747  0.7999 -0.0324
13222SOL    HW150595   0.288   4.932   4.415  0.2189  0.2975 -0.2672
13222SOL    HW250596   0.382   4.953   4.283  0.5515  1.5005  0.1554
13223SOL     OW50597   0.022   3.842   4.134 -0.1681 -0.2967 -0.6023
13223SOL    HW150598  -0.033   3.843   4.218  0.1086  1.8144 -0.4003
13223SOL    HW250599   0.118   3.826   4.157 -0.0325  0.6834 -0.4547
13224SOL     OW50600   9.284   1.857   3.955 -0.4753  0.1040 -0.3772
13224SOL    HW150601   9.187   1.841   3.939 -0.5121  1.7651 -1.8940
13224SOL    HW250602   9.304   1.845   4.052 -2.0654 -0.8664 -0.1591
13225SOL     OW50603   3.434   1.960   5.166  0.0658 -0.4746  0.0013
13225SOL    HW150604   3.384   2.023   5.105 -0.1983 -0.3772  0.3134
13225SOL    HW250605   3.374   1.884   5.190  0.6351 -1.2394 -0.9705
13226SOL     OW50606   3.112   5.751   3.556 -0.4012  0.1932  0.2646
13226SOL    HW150607   3.082   5.766   3.462 -0.8751  0.3509  0.4401
13226SOL    HW250608   3.141   5.656   3.567  0.4421  0.3883 -0.2552
13227SOL     OW50609   1.247   2.203   3.187 -0.0227 -0.0121 -0.2250
13227SOL    HW150610   1.325   2.194   3.250  0.1506  1.4163 -0.2346
13227SOL    HW250611   1.269   2.155   3.101  0.5425 -0.2608  0.0517
13228SOL     OW50612   3.537   8.549   3.924 -0.0233 -0.3741 -0.3202
13228SOL    HW150613   3.551   8.608   3.845 -0.1794 -0.9651 -0.7898
13228SOL    HW250614   3.468   8.590   3.984  0.3786  0.2622 -0.2964
13229SOL     OW50615   4.847   9.852   3.457 -0.4233  0.7481 -0.5042
13229SOL    HW150616   4.905   9.808   3.389  0.9665  0.9933  0.5130
13229SOL    HW250617   4.753   9.819   3.447 -0.5609  1.8284 -3.4804
13230SOL     OW50618   2.098   5.868   1.826  0.5251  0.4945  0.4419
13230SOL    HW150619   2.157   5.788   1.833  0.5913  0.6502  1.9574
13230SOL    HW250620   2.117   5.917   1.741  0.7049 -0.9082 -0.3406
13231SOL     OW50621   5.925   8.728   4.196 -0.1151  0.2523 -0.1853
13231SOL    HW150622   5.920   8.646   4.253 -0.8658  0.2606 -0.2298
13231SOL    HW250623   5.918   8.809   4.254  0.4256  0.2772 -0.1593
13232SOL     OW50624   1.430   8.446   3.754 -0.1895  0.5124 -0.0977
13232SOL    HW150625   1.414   8.476   3.848 -1.6361 -0.4756 -0.0229
13232SOL    HW250626   1.502   8.503   3.713 -1.0250  2.3228  0.9099
13233SOL     OW50627   4.001   2.278   3.438 -0.7837 -0.4713 -0.5004
13233SOL    HW150628   4.024   2.352   3.502 -0.9493  2.3980 -3.6034
13233SOL    HW250629   3.904   2.286   3.411 -0.4824 -1.0596 -1.8057
13234SOL     OW50630   0.532   6.949   2.078  0.3613 -0.1463  0.3787
13234SOL    HW150631   0.528   6.850   2.096  2.1375 -0.7238 -2.0581
13234SOL    HW250632   0.625   6.974   2.053 -0.1788  2.0984  0.5110
13235SOL     OW50633   4.539   1.465   5.116 -0.4174  0.1962  0.2802
13235SOL    HW150634   4.449   1.509   5.118 -0.0872  0.8305  2.5010
13235SOL    HW250635   4.611   1.535   5.120  0.1646 -0.3792  0.0366
13236SOL     OW50636   4.239   5.909   1.047  0.5163 -0.6118 -0.1845
13236SOL    HW150637   4.305   5.961   0.994  0.6145 -0.9314 -0.3717
13236SOL    HW250638   4.201   5.835   0.992  0.0986 -0.5130 -0.0386
13237SOL     OW50639   7.438   9.231   4.822 -0.0810  0.0301  0.2456
13237SOL    HW150640   7.482   9.214   4.734  0.7729 -1.6570  0.9925
13237SOL    HW250641   7.341   9.248   4.808  0.1218  0.1787 -1.0494
13238SOL     OW50642   1.367   6.456   0.341 -0.0243 -0.3903 -0.4273
13238SOL    HW150643   1.323   6.481   0.255 -4.3613  2.3067  2.3228
13238SOL    HW250644   1.327   6.372   0.377 -2.0461  1.2724  1.3687
13239SOL     OW50645   4.903   8.800   2.244 -0.1607  0.3986 -0.0229
13239SOL    HW150646   4.869   8.706   2.234 -0.6584  0.6276 -0.5110
13239SOL    HW250647   5.001   8.799   2.260 -0.1918 -0.2162  0.1245
13240SOL     OW50648   1.788   6.718   4.597  0.1043 -0.4400 -0.2913
13240SOL    HW150649   1.825   6.721   4.690 -1.0981  0.0220  0.1833
13240SOL    HW250650   1.726   6.795   4.583 -1.1423 -1.5246 -0.8617
13241SOL     OW50651   0.949   9.804   1.799  0.0035 -0.0134 -0.4456
13241SOL    HW150652   0.874   9.783   1.861  0.3488 -2.0622 -0.7078
13241SOL    HW250653   0.912   9.842   1.714 -0.5400  1.5642  0.4614
13242SOL     OW50654   9.833   2.883   2.284 -0.1700 -0.0894  0.1474
13242SOL    HW150655   9.831   2.792   2.325  0.6605  0.4717  1.4273
13242SOL    HW250656   9.839   2.874   2.184 -0.0199 -1.4274  0.2669
13243SOL     OW50657   0.024   7.768   2.409  0.1108  0.2706 -0.2245
13243SOL    HW150658  -0.020   7.765   2.499 -0.6871 -0.2065 -0.6239
13243SOL    HW250659  -0.022   7.836   2.351 -1.1205 -1.3123 -1.1514
13244SOL     OW50660   9.484   0.298   5.526 -0.0949  0.1176 -0.0290
13244SOL    HW150661   9.542   0.224   5.561 -0.6714  0.3640  1.4603
13244SOL    HW250662   9.448   0.351   5.602 -2.1257  0.0982 -0.9570
13245SOL     OW50663   4.278   8.259   4.333  0.2341 -0.0534  0.6078
13245SOL    HW150664   4.253   8.284   4.240  0.0002  0.2333  0.7472
13245SOL    HW250665   4.215   8.190   4.368  0.1156  0.0894  0.6756
13246SOL     OW50666   0.180   5.503   5.176 -0.0658 -0.3162 -0.7174
13246SOL    HW150667   0.100   5.554   5.145 -0.7792 -1.1190 -0.2174
13246SOL    HW250668   0.151   5.428   5.235  1.3159  1.8196  2.8293
13247SOL     OW50669   0.738   5.069   2.843  0.2933  0.2193  0.4615
13247SOL    HW150670   0.701   5.032   2.758  1.6878  0.2341 -0.1671
13247SOL    HW250671   0.698   5.020   2.921 -0.0077 -0.6718 -0.2464
13248SOL     OW50672   7.813   1.804   2.174 -0.0933 -0.5546 -0.0421
13248SOL    HW150673   7.867   1.744   2.235 -0.0817 -1.0172 -0.5056
13248SOL    HW250674   7.875   1.857   2.117 -0.1165 -0.7623 -0.2630
13249SOL     OW50675   8.284   3.124   4.020  0.4407 -0.2360  0.6797
13249SOL    HW150676   8.233   3.120   3.934 -0.2788  0.6543  1.0657
13249SOL    HW250677   8.312   3.031   4.046 -1.3423 -0.7826  0.6844
13250SOL     OW50678   2.753   5.602   5.217  0.0766 -0.2930  0.3228
13250SOL    HW150679   2.840   5.596   5.166  0.0001 -1.4327  0.3340
13250SOL    HW250680   2.690   5.532   5.185 -0.9817  0.7438  0.0826
13251SOL     OW50681   3.142   8.944   4.312  1.5389 -0.0915  0.3655
13251SOL    HW150682   3.059   8.889   4.321  1.5982 -0.0734  1.0455
13251SOL    HW250683   3.129   9.014   4.242  1.5799 -1.1954 -0.7751
13252SOL     OW50684   3.345   5.904   4.944  0.2479  0.6551 -0.8917
13252SOL    HW150685   3.259   5.927   4.988  1.5390  1.9170  1.0215
13252SOL    HW250686   3.350   5.805   4.931  0.6098  0.0282  3.4820
13253SOL     OW50687   3.693   2.035   5.176 -0.1378 -0.2742  0.7388
13253SOL    HW150688   3.598   2.005   5.172 -0.4516  0.6515  1.1688
13253SOL    HW250689   3.697   2.135   5.170  0.8562 -0.3510 -0.1128
13254SOL     OW50690   2.138   5.271   0.465 -0.0568  0.4205  0.1977
13254SOL    HW150691   2.113   5.305   0.374  0.6008  0.7833  0.1502
13254SOL    HW250692   2.142   5.347   0.529  3.1101  0.7481 -0.2820
13255SOL     OW50693   5.612   9.033   2.674  0.8091  0.1747 -0.3549
13255SOL    HW150694   5.586   9.067   2.764  1.7284 -0.5611  0.1990
13255SOL    HW250695   5.581   8.939   2.664  0.7531  0.2396 -0.7940
13256SOL     OW50696   7.087   8.747   3.467  0.4272  0.3795 -0.2289
13256SOL    HW150697   7.150   8.675   3.498 -0.4165 -0.2202  0.1329
13256SOL    HW250698   7.122   8.789   3.384  1.0236 -0.3389 -0.3488
13257SOL     OW50699   1.516   2.336   4.105  0.0818  0.2586 -0.2665
13257SOL    HW150700   1.425   2.307   4.074 -0.5285  0.5267  1.2348
13257SOL    HW250701   1.556   2.263   4.160  0.7652  0.1678 -0.8756
13258SOL     OW50702   2.654   6.139   2.507 -1.2752 -0.0562  0.1992
13258SOL    HW150703   2.643   6.219   2.448 -1.0519 -1.6596 -2.1002
13258SOL    HW250704   2.601   6.063   2.469 -0.7890 -1.2483  1.8626
13259SOL     OW50705   9.257   3.285   2.656  0.2411  0.0592 -0.1284
13259SOL    HW150706   9.352   3.272   2.625  0.4106  0.0225  0.3964
13259SOL    HW250707   9.243   3.381   2.680  0.2174  0.0173  0.0259
13260SOL     OW50708   3.308   5.410   2.565 -0.1186  0.4047  0.1137
13260SOL    HW150709   3.250   5.402   2.646  0.0914  0.0807  0.2290
13260SOL    HW250710   3.305   5.325   2.513  1.4234 -0.1571  0.9005
13261SOL     OW50711   0.488   3.639   2.025  0.3018 -0.5600  0.0955
13261SOL    HW150712   0.525   3.571   2.088  0.9673 -0.8001 -0.5465
13261SOL    HW250713   0.507   3.611   1.930  1.6251  1.0995 -0.1439
13262SOL     OW50714   3.134   7.454   1.033 -0.3195 -0.2863  0.3144
13262SOL    HW150715   3.148   7.549   1.060 -0.3769 -0.0639 -0.4564
13262SOL    HW250716   3.040   7.426   1.054  0.0985 -0.6008  1.8384
13263SOL     OW50717   8.718   3.303   4.987  0.1398  0.4740 -0.5642
13263SOL    HW150718   8.812   3.325   4.965 -0.1635  1.7156 -0.6552
13263SOL    HW250719   8.670   3.272   4.905  0.4447 -0.0978 -0.5283
13264SOL     OW50720   2.528   6.371   3.526 -0.5259 -0.0514 -0.1581
13264SOL    HW150721   2.436   6.336   3.537 -0.1613 -0.4346  1.9067
13264SOL    HW250722   2.572   6.379   3.616  0.7433  2.0257 -0.9162
13265SOL     OW50723   0.052   5.392   4.035  0.6559 -0.6744  0.6882
13265SOL    HW150724   0.066   5.446   4.118  1.3647 -0.5086  0.4676
13265SOL    HW250725   0.030   5.452   3.959  0.2130 -0.8078  0.7116
13266SOL     OW50726   2.039   6.042   4.930 -0.4968 -0.6880  0.1035
13266SOL    HW150727   1.970   6.112   4.948  1.0949  0.9904 -0.2371
13266SOL    HW250728   2.096   6.029   5.011  2.3362  1.9925 -1.3693
13267SOL     OW50729   7.354   1.197   4.003 -0.3617 -0.3316 -0.0187
13267SOL    HW150730   7.448   1.185   4.035 -0.9679 -2.0087  1.1960
13267SOL    HW250731   7.316   1.108   3.978 -0.6529  0.6465 -3.3817
13268SOL     OW50732   3.544   5.314   3.522 -0.4028  0.1291 -0.3903
13268SOL    HW150733   3.452   5.332   3.558 -0.2932 -1.0888  0.5322
13268SOL    HW250734   3.607   5.384   3.557 -0.3926 -0.7707  1.4817
13269SOL     OW50735   2.820   5.883   4.078  0.3497 -0.0697  0.1491
13269SOL    HW150736   2.859   5.953   4.018 -1.1526  0.8368  0.1823
13269SOL    HW250737   2.734   5.918   4.118  1.1894 -0.7358  2.6414
13270SOL     OW50738   3.790   9.035   3.261 -0.2862  0.3362  0.6091
13270SOL    HW150739   3.820   8.939   3.261 -1.4149 -0.0265  0.3906
13270SOL    HW250740   3.840   9.086   3.331  0.1523 -0.4623  0.8836
13271SOL     OW50741   0.375   5.324   2.588  0.0462  0.1925 -0.5055
13271SOL    HW150742   0.383   5.321   2.488 -2.7388  1.2408 -0.8095
13271SOL    HW250743   0.284   5.357   2.613  0.9939  0.7216  2.4071
13272SOL     OW50744   2.089   0.345   2.681 -0.0783  0.1168  0.3739
13272SOL    HW150745   1.999   0.365   2.642 -0.2526  1.5150  1.4328
13272SOL    HW250746   2.094   0.248   2.705 -0.9928 -0.1508 -0.4613
13273SOL     OW50747   2.899   2.620   0.057 -0.2609  0.5294  0.1290
13273SOL    HW150748   2.860   2.680  -0.012 -0.7665 -1.0775 -1.0240
13273SOL    HW250749   2.913   2.529   0.017  0.7208 -0.0429  1.7533
13274SOL     OW50750   3.224   3.625   1.776 -0.5240 -0.0332 -0.3463
13274SOL    HW150751   3.264   3.534   1.781  0.8846  0.6449  1.4045
13274SOL    HW250752   3.243   3.675   1.861 -2.9521  1.2136 -0.4788
13275SOL     OW50753   2.524   8.815   3.264 -0.0935  0.3245  0.0169
13275SOL    HW150754   2.583   8.781   3.190 -0.7739 -2.1022  0.5529
13275SOL    HW250755   2.547   8.768   3.349 -2.7916 -0.6481  0.2411
13276SOL     OW50756   9.131   9.225   0.834 -0.7655  0.1273  0.2880
13276SOL    HW150757   9.227   9.198   0.824 -1.0229 -0.0481 -1.7889
13276SOL    HW250758   9.087   9.227   0.745 -1.9424  3.0686  0.8821
13277SOL     OW50759   0.181   2.210   5.251 -0.0519 -0.1864 -0.4808
13277SOL    HW150760   0.241   2.289   5.236 -0.3269  0.1237  0.0571
13277SOL    HW250761   0.179   2.154   5.168 -0.4995  0.8032 -1.1463
13278SOL     OW50762   8.310   4.168   4.967 -0.1748 -0.0668 -0.1596
13278SOL    HW150763   8.246   4.120   4.907  0.7296  0.1741 -1.3445
13278SOL    HW250764   8.263   4.196   5.051 -2.2300  2.2249 -2.0109
13279SOL     OW50765   2.310   6.437   5.464 -0.4898  0.4623 -0.3605
13279SOL    HW150766   2.389   6.377   5.454 -1.3803 -0.7555 -0.1711
13279SOL    HW250767   2.325   6.520   5.410  0.4671 -0.2047 -1.1542
13280SOL     OW50768   6.367   2.056   2.686  0.9079 -0.2229  0.3830
13280SOL    HW150769   6.271   2.081   2.672  0.2378 -2.0043  1.6369
13280SOL    HW250770   6.396   2.087   2.777  1.2151 -0.6033  0.4133
13281SOL     OW50771   9.789   1.194   3.461  0.4686 -0.6672 -0.5629
13281SOL    HW150772   9.842   1.211   3.378 -1.5731  0.3918 -1.6881
13281SOL    HW250773   9.693   1.178   3.437 -0.3750  0.7735  1.6604
13282SOL     OW50774   3.598   7.746   1.430 -0.1146  0.5600 -0.5078
13282SOL    HW150775   3.577   7.710   1.521  0.5004  0.8010 -0.2693
13282SOL    HW250776   3.695   7.730   1.410 -0.3907 -0.0752 -1.3860
13283SOL     OW50777   4.442   1.826   2.142 -0.1169 -0.0272  0.6485
13283SOL    HW150778   4.437   1.780   2.053  1.0133 -0.3806  0.7523
13283SOL    HW250779   4.369   1.894   2.148 -1.9116 -1.8925  0.5674
13284SOL     OW50780   1.214   7.122   3.719 -0.3591 -0.3453  0.5526
13284SOL    HW150781   1.172   7.081   3.638  0.0490  0.3148  0.0058
13284SOL    HW250782   1.297   7.072   3.743  0.0166  0.0184  0.0191
13285SOL     OW50783   1.656   9.088   3.620 -0.0078  0.2043 -0.1310
13285SOL    HW150784   1.755   9.087   3.630  0.1451 -0.7349 -1.5878
13285SOL    HW250785   1.632   9.073   3.524 -1.5477  1.0186  0.1026
13286SOL     OW50786   0.107   3.162   5.234  0.4871  0.2261  0.3089
13286SOL    HW150787   0.173   3.173   5.159  3.6266 -0.4598  2.8540
13286SOL    HW250788   0.068   3.251   5.257  1.6401  0.8980 -0.2740
13287SOL     OW50789   0.986   3.401   2.181  0.2972 -0.2162  0.5740
13287SOL    HW150790   0.935   3.393   2.267  1.1852 -1.3610  1.0137
13287SOL    HW250791   1.084   3.403   2.202  0.5460 -1.5041 -0.4924
13288SOL     OW50792   9.868   5.626   1.862  0.7202  0.3439 -0.3916
13288SOL    HW150793   9.933   5.560   1.901 -0.0207 -1.1309 -1.5795
13288SOL    HW250794   9.879   5.627   1.762 -1.1906 -0.0397 -0.6174
13289SOL     OW50795   9.041   3.442   0.054  0.0360  0.4117 -0.1124
13289SOL    HW150796   9.081   3.516   0.108  1.1240  0.9607 -1.6332
13289SOL    HW250797   8.954   3.415   0.094 -0.7597  3.0674  0.0115
13290SOL     OW50798   9.569   6.120   2.839  0.0918  0.3579  0.1985
13290SOL    HW150799   9.662   6.127   2.875 -0.2313 -0.6027  1.2261
13290SOL    HW250800   9.530   6.212   2.830  0.7194  0.6951  0.8822
13291SOL     OW50801   2.748   4.294   2.832  0.6656 -0.5702  0.3076
13291SOL    HW150802   2.744   4.248   2.744 -1.2931 -0.2068  0.1859
13291SOL    HW250803   2.832   4.349   2.837  0.4442 -0.0230 -1.6060
13292SOL     OW50804   1.839   0.269   0.409  0.5886  0.3085  0.4066
13292SOL    HW150805   1.910   0.296   0.344 -0.7313 -0.0865 -1.2393
13292SOL    HW250806   1.766   0.221   0.360  0.0239 -0.8468  2.3482
13293SOL     OW50807   8.418   3.375   4.082 -0.3046  0.1901  0.3670
13293SOL    HW150808   8.368   3.435   4.145 -0.1109 -0.9494  1.6347
13293SOL    HW250809   8.367   3.290   4.070  0.3081 -0.1272  0.0060
13294SOL     OW50810   9.706   4.324   1.313  0.4176  0.2922  0.3788
13294SOL    HW150811   9.759   4.373   1.244 -1.5487  2.2767  0.2333
13294SOL    HW250812   9.719   4.366   1.402  1.5093 -1.1546  0.9342
13295SOL     OW50813   1.837   3.048   0.875 -0.3983  0.2726 -0.6409
13295SOL    HW150814   1.928   3.085   0.891  0.2402 -1.1857 -0.8223
13295SOL    HW250815   1.794   3.028   0.963 -0.1352 -0.0004 -0.5733
13296SOL     OW50816   1.020   5.532   0.802  0.0948  0.0373  0.3998
13296SOL    HW150817   0.980   5.443   0.824 -1.0362  1.0890  2.7375
13296SOL    HW250818   1.094   5.552   0.865  1.1694  0.2473 -0.8964
13297SOL     OW50819   3.925   3.883   2.592  0.3472 -1.1216 -0.1075
13297SOL    HW150820   3.981   3.913   2.669 -2.3352  1.7355  0.8478
13297SOL    HW250821   3.958   3.926   2.508  1.5565 -2.0376 -0.1164
13298SOL     OW50822   8.477   4.253   4.536  0.3453 -0.2424 -0.2496
13298SOL    HW150823   8.457   4.178   4.600 -0.7219 -1.7768 -2.3188
13298SOL    HW250824   8.408   4.254   4.463  0.6542  2.4387 -0.5664
13299SOL     OW50825   9.183   8.259   3.704 -0.0828 -0.3103 -0.2842
13299SOL    HW150826   9.229   8.286   3.788 -0.6958 -1.9229  0.5888
13299SOL    HW250827   9.149   8.341   3.657  3.3240  0.9112 -0.8015
13300SOL     OW50828   9.482   1.467   1.256 -0.3320 -0.2828  0.2626
13300SOL    HW150829   9.487   1.512   1.345  0.4684  0.0495  0.0564
13300SOL    HW250830   9.572   1.431   1.232 -1.3376 -3.6572  1.2732
13301SOL     OW50831   5.214   0.782   1.307  0.1404 -0.4650  0.1692
13301SOL    HW150832   5.147   0.852   1.331  1.1176  0.4229  0.3369
13301SOL    HW250833   5.168   0.704   1.265 -1.1557 -0.4518  1.5307
13302SOL     OW50834   3.762   8.574   2.231 -0.6809 -0.7165 -0.1293
13302SOL    HW150835   3.826   8.510   2.273 -1.6164 -0.6765  1.3874
13302SOL    HW250836   3.727   8.637   2.301 -1.5229 -0.0302 -1.1532
13303SOL     OW50837   1.391   2.578   0.648 -0.3378 -0.0669  0.1661
13303SOL    HW150838   1.369   2.482   0.633  0.5833 -0.2096 -0.3292
13303SOL    HW250839   1.479   2.599   0.604  0.2884  0.5837  1.6906
13304SOL     OW50840   9.935   7.101   2.021  0.2696  0.2667 -0.0819
13304SOL    HW150841   9.934   7.194   1.985  0.1787 -0.0308 -0.8601
13304SOL    HW250842   9.869   7.094   2.096 -1.1031  0.3466 -1.2650
13305SOL     OW50843   0.707   7.835   2.618  0.1769 -0.3179  0.0210
13305SOL    HW150844   0.781   7.899   2.598 -0.4787  0.2853 -0.5193
13305SOL    HW250845   0.619   7.881   2.604 -0.2977 -1.2893 -0.2035
13306SOL     OW50846   5.961   2.163   2.987  0.2561 -0.5466  0.0303
13306SOL    HW150847   6.007   2.154   3.075 -0.9395  0.0280  0.7241
13306SOL    HW250848   5.869   2.200   3.001 -0.7289 -2.4583 -1.2630
13307SOL     OW50849   7.798   1.447   0.088  0.5341 -0.1701  0.0428
13307SOL    HW150850   7.851   1.439   0.173  2.2781  0.4888 -0.9709
13307SOL    HW250851   7.749   1.534   0.088  0.2584 -0.3197  0.5149
13308SOL     OW50852   4.655   0.568   1.954  0.5031  0.7344 -0.4525
13308SOL    HW150853   4.581   0.583   1.889 -0.3494 -2.1849 -0.2413
13308SOL    HW250854   4.739   0.544   1.904  0.3602  0.4617 -0.5625
13309SOL     OW50855   4.968   8.744   5.153 -0.6856 -0.3762  0.3055
13309SOL    HW150856   4.928   8.820   5.205  1.7204  2.1815 -1.4180
13309SOL    HW250857   4.937   8.750   5.058  0.6810 -0.6556 -0.1636
13310SOL     OW50858   8.370   1.345   3.797 -0.4004  0.1808 -0.4277
13310SOL    HW150859   8.370   1.445   3.788 -1.9205  0.3248  0.9021
13310SOL    HW250860   8.281   1.310   3.771 -0.2566 -0.7160  0.2781
13311SOL     OW50861   0.774   9.017   2.543  0.1916 -0.1540 -0.2743
13311SOL    HW150862   0.830   9.032   2.625  1.6025  0.2055 -1.2704
13311SOL    HW250863   0.754   8.920   2.533  0.6917 -0.2953  0.0835
13312SOL     OW50864   6.834   9.064   3.251 -0.3316 -0.1907 -0.2662
13312SOL    HW150865   6.828   9.037   3.347  0.2240  1.6393  0.2833
13312SOL    HW250866   6.759   9.021   3.200 -0.1690 -1.7879  0.8196
13313SOL     OW50867   5.401   2.839   2.157 -0.1872  0.3226  0.8125
13313SOL    HW150868   5.373   2.930   2.186 -0.7267 -0.6034  3.2980
13313SOL    HW250869   5.468   2.802   2.221  0.3552 -0.8852 -0.4067
13314SOL     OW50870   9.758   9.731   2.919 -0.1226  0.4854 -0.0387
13314SOL    HW150871   9.767   9.829   2.933 -0.0049  0.7542 -1.8152
13314SOL    HW250872   9.713   9.714   2.831 -0.1190 -1.0486  0.2389
13315SOL     OW50873   0.495   7.434   0.219  0.0932  0.2732 -0.5033
13315SOL    HW150874   0.546   7.470   0.141 -0.8205 -0.2168 -1.3322
13315SOL    HW250875   0.437   7.358   0.190 -0.3945  0.1972  0.6187
13316SOL     OW50876   2.711   0.497   1.340 -0.2866 -0.2297 -0.1949
13316SOL    HW150877   2.728   0.595   1.328  1.5585 -0.3291  1.4217
13316SOL    HW250878   2.742   0.468   1.430 -1.8624 -2.0973 -0.2154
13317SOL     OW50879   7.512   0.852   5.595 -0.3587  0.5634 -0.1589
13317SOL    HW150880   7.570   0.931   5.574 -0.8262  0.7030 -0.9142
13317SOL    HW250881   7.511   0.838   5.694  0.2798  1.0850 -0.0743
13318SOL     OW50882   7.370   2.244   2.378  0.2632 -0.2614 -0.5965
13318SOL    HW150883   7.324   2.164   2.338 -0.6407 -0.2055  0.3372
13318SOL    HW250884   7.469   2.231   2.371  0.1267 -1.4089 -0.5606
13319SOL     OW50885   0.880   4.364   4.863 -0.7025  0.3072  0.4241
13319SOL    HW150886   0.796   4.326   4.823 -0.3250  0.3529 -0.4309
13319SOL    HW250887   0.876   4.464   4.860  0.8068  0.3379 -2.7487
13320SOL     OW50888   2.340   3.269   4.038  0.2170  0.2396 -0.2282
13320SOL    HW150889   2.290   3.206   3.979  0.1477  0.5070 -0.4591
13320SOL    HW250890   2.438   3.252   4.029  0.2203  0.4878 -0.6596
13321SOL     OW50891   9.859   1.407   2.708  0.5359 -0.0810 -0.4574
13321SOL    HW150892   9.880   1.375   2.800  0.5751  0.2210 -0.3640
13321SOL    HW250893   9.885   1.503   2.698 -0.0774  0.0782 -0.5761
13322SOL     OW50894   3.032   4.481   4.393 -0.4377 -0.0299  0.2336
13322SOL    HW150895   3.004   4.389   4.368 -0.0814 -0.0788 -0.0009
13322SOL    HW250896   3.081   4.479   4.480 -0.3063 -0.0843  0.1593
13323SOL     OW50897   0.544   9.944   3.605 -0.0459 -0.0252  0.2434
13323SOL    HW150898   0.620   9.993   3.563  0.1133  0.5388  1.1623
13323SOL    HW250899   0.558   9.940   3.704 -2.5805  2.5101  0.7511
13324SOL     OW50900   8.103   6.323   5.526 -0.2983  0.4760  0.4141
13324SOL    HW150901   8.201   6.316   5.506 -0.0731 -1.2247  1.9828
13324SOL    HW250902   8.088   6.395   5.594 -0.0171  0.0382  0.9414
13325SOL     OW50903   7.281   9.404   0.789  0.5733  0.2717  0.1373
13325SOL    HW150904   7.228   9.392   0.873 -0.1789 -0.1432 -0.3894
13325SOL    HW250905   7.274   9.499   0.759 -3.5155 -0.6371 -2.2793
13326SOL     OW50906   1.376   8.567   2.244 -0.2776 -0.1794 -0.0549
13326SOL    HW150907   1.389   8.567   2.145 -0.3276 -2.0714 -0.0799
13326SOL    HW250908   1.461   8.540   2.289 -0.6268 -0.6228  0.3475
13327SOL     OW50909   5.266   8.706   2.527  0.2385 -0.2042 -0.2293
13327SOL    HW150910   5.254   8.803   2.508  1.6417 -0.1545 -0.9520
13327SOL    HW250911   5.181   8.657   2.508 -0.4223  0.8620 -0.0219
13328SOL     OW50912   4.228   7.444   1.748 -0.3161 -0.2063  0.1478
13328SOL    HW150913   4.319   7.442   1.706 -0.3683 -0.1179  0.0285
13328SOL    HW250914   4.196   7.350   1.763 -0.2218 -0.2380  0.1536
13329SOL     OW50915   9.252   6.945   0.419  0.0638 -0.7475 -0.0977
13329SOL    HW150916   9.267   6.936   0.320  0.6465 -1.2897  0.0385
13329SOL    HW250917   9.313   7.015   0.456 -0.9915  0.3103 -0.3153
13330SOL     OW50918   4.141   8.744   4.439 -0.0630  0.1914  0.2224
13330SOL    HW150919   4.085   8.717   4.361 -0.9228  0.4373  0.7407
13330SOL    HW250920   4.225   8.787   4.407  0.8157 -2.0614 -0.5942
13331SOL     OW50921   3.028   8.274   0.766 -0.2322  0.0200 -0.0871
13331SOL    HW150922   2.955   8.211   0.792 -0.1179 -0.0672  0.0250
13331SOL    HW250923   2.993   8.368   0.765 -0.4122 -0.0490 -0.2908
13332SOL     OW50924   3.843   5.579   1.129  0.7528 -0.4872  0.6630
13332SOL    HW150925   3.903   5.658   1.140  0.9055 -0.4545 -0.3581
13332SOL    HW250926   3.883   5.514   1.065 -0.8882  0.1506 -1.0484
13333SOL     OW50927   2.199   1.693   1.905 -0.3226  0.7498  0.0096
13333SOL    HW150928   2.099   1.689   1.900 -0.2253 -0.3739 -1.2817
13333SOL    HW250929   2.234   1.736   1.822  0.4609 -2.3790 -1.3342
13334SOL     OW50930   0.348   4.226   3.562 -0.4681 -0.4409  0.1589
13334SOL    HW150931   0.272   4.215   3.625 -2.1096 -1.3934 -1.9206
13334SOL    HW250932   0.324   4.186   3.473  1.3365  1.7859 -1.4088
13335SOL     OW50933   0.357   0.644   4.931  0.6519  0.0820  0.0122
13335SOL    HW150934   0.404   0.720   4.975  1.4194 -0.5356  0.2569
13335SOL    HW250935   0.417   0.602   4.863  0.5641 -0.8944  0.5296
13336SOL     OW50936   1.207   3.381   4.965 -0.0144 -0.1262  0.0317
13336SOL    HW150937   1.290   3.436   4.973  0.5866 -0.8497 -1.1141
13336SOL    HW250938   1.127   3.440   4.967  0.4199  0.4602  2.8367
13337SOL     OW50939   1.135   2.695   4.343  0.2067 -0.3431 -0.5397
13337SOL    HW150940   1.065   2.736   4.402  0.8396  0.0119 -0.0252
13337SOL    HW250941   1.142   2.748   4.259  0.6659  0.3142 -0.0937
13338SOL     OW50942   5.126   2.684   1.997  0.2044 -0.7478 -0.0771
13338SOL    HW150943   5.109   2.778   2.028 -1.8561 -1.3265  0.6483
13338SOL    HW250944   5.132   2.624   2.077 -1.6030 -1.6879 -0.6110
13339SOL     OW50945   3.385   2.163   2.459  0.1073  0.1746  0.2125
13339SOL    HW150946   3.358   2.184   2.365 -0.7452  0.1369  0.4409
13339SOL    HW250947   3.362   2.067   2.479 -3.0066  1.1362  1.5723
13340SOL     OW50948   0.680   1.369   3.080  0.3913 -0.2280  0.1659
13340SOL    HW150949   0.777   1.392   3.077  0.1510  0.7135 -0.2538
13340SOL    HW250950   0.625   1.452   3.086 -0.4540 -0.6854 -0.9972
13341SOL     OW50951   6.307   1.058   3.132 -0.1681  0.4658  0.4507
13341SOL    HW150952   6.337   1.017   3.218 -0.6074  0.6548  0.6978
13341SOL    HW250953   6.260   1.144   3.151  0.6687  1.0336 -0.0679
13342SOL     OW50954   2.558   3.172   4.565  0.0143  0.0905 -0.0613
13342SOL    HW150955   2.507   3.212   4.641 -0.3194 -1.1339  0.3726
13342SOL    HW250956   2.518   3.200   4.478  0.1611  1.1881  0.2227
13343SOL     OW50957   1.847   1.189   3.171  0.1131  0.3815 -0.5361
13343SOL    HW150958   1.928   1.152   3.125 -0.4326 -1.1491 -0.2792
13343SOL    HW250959   1.875   1.231   3.257  0.6095 -0.3935 -0.3125
13344SOL     OW50960   8.942   0.837   4.929  0.2873  0.2347  0.0593
13344SOL    HW150961   8.902   0.892   5.002  0.8415  2.5427 -1.3124
13344SOL    HW250962   8.874   0.773   4.894 -0.7983  0.9709  0.7827
13345SOL     OW50963   9.878   1.686   1.922 -0.2990 -0.1612 -0.0329
13345SOL    HW150964   9.807   1.640   1.975 -0.7198 -0.8236 -1.1661
13345SOL    HW250965   9.967   1.669   1.964 -0.5723 -1.1362  0.1580
13346SOL     OW50966   7.787   0.871   4.171 -0.1559 -0.2524 -0.1798
13346SOL    HW150967   7.823   0.962   4.191 -0.2025 -0.3211  0.2106
13346SOL    HW250968   7.792   0.855   4.072 -0.8953  0.4865 -0.3412
13347SOL     OW50969   0.231   8.606   5.458 -0.0993  0.0071  0.2644
13347SOL    HW150970   0.221   8.521   5.406  0.5486 -0.9346  1.6262
13347SOL    HW250971   0.154   8.615   5.522  0.4142 -0.1133  0.8982
13348SOL     OW50972   0.046   5.228   3.735  0.2293 -0.1200 -0.3288
13348SOL    HW150973  -0.045   5.195   3.760  0.8373 -1.2782  0.3350
13348SOL    HW250974   0.109   5.216   3.811  0.4206  2.8231  0.0615
13349SOL     OW50975   3.423   8.296   0.168 -0.2376  0.7469  0.4248
13349SOL    HW150976   3.327   8.313   0.192 -0.1093  0.5073  1.1392
13349SOL    HW250977   3.471   8.263   0.249  0.2868  0.1981 -0.1099
13350SOL     OW50978   8.605   2.926   0.640 -0.0849  0.5315  0.2841
13350SOL    HW150979   8.557   3.000   0.687  1.1789  0.2771  2.0431
13350SOL    HW250980   8.566   2.838   0.668 -0.7541  0.4605 -0.8370
13351SOL     OW50981   2.725   6.598   2.644  0.1767  0.5471 -0.6917
13351SOL    HW150982   2.647   6.592   2.582 -0.4925  1.5742  0.0276
13351SOL    HW250983   2.692   6.602   2.738  0.9901  3.0805 -0.4714
13352SOL     OW50984   3.108   3.731   1.529  0.1542  0.1484 -0.1280
13352SOL    HW150985   3.036   3.794   1.557  0.8923  1.2437 -0.6483
13352SOL    HW250986   3.163   3.706   1.608  1.1726  1.8638 -0.2681
13353SOL     OW50987   1.359   5.426   2.479  0.0952  0.1841  0.3917
13353SOL    HW150988   1.418   5.491   2.528  1.4085  0.4781 -1.5390
13353SOL    HW250989   1.381   5.333   2.509  0.2394  0.4187  1.0309
13354SOL     OW50990   5.244   5.172   0.696 -0.2031  0.0057  0.8318
13354SOL    HW150991   5.208   5.244   0.637  0.9941  0.1699  0.2759
13354SOL    HW250992   5.202   5.177   0.786  0.3107  1.7876  0.9787
13355SOL     OW50993   9.101   2.556   0.391  0.6362  0.0801 -0.2794
13355SOL    HW150994   9.073   2.541   0.486  1.6001  0.4895  0.0742
13355SOL    HW250995   9.048   2.496   0.331 -1.1802  1.0344  0.3402
13356SOL     OW50996   9.177   3.034   2.116 -0.2237 -0.9917  0.3474
13356SOL    HW150997   9.194   2.944   2.156 -0.1323 -1.1516 -0.0569
13356SOL    HW250998   9.168   3.101   2.190  1.9613 -0.9241  0.6035
13357SOL     OW50999   3.550   3.793   0.806  0.3001 -0.3560  0.0059
13357SOL    HW151000   3.616   3.840   0.748 -0.4448 -1.5170 -1.8123
13357SOL    HW251001   3.532   3.702   0.770  0.3440 -1.3775  2.4633
13358SOL     OW51002   9.685   6.530   4.558  0.0509  0.1600 -0.3770
13358SOL    HW151003   9.586   6.527   4.568  0.1987 -2.0853  0.6626
13358SOL    HW251004   9.723   6.592   4.627 -0.5252  0.0693  0.0243
13359SOL     OW51005   9.910   6.669   1.468  0.1130  0.5240  0.1850
13359SOL    HW151006  10.010   6.675   1.473  0.0644  0.6000  1.0221
13359SOL    HW251007   9.876   6.741   1.408  0.5099  0.8673  0.3713
13360SOL     OW51008   2.343   2.002   5.133  0.0884  0.1966  0.6455
13360SOL    HW151009   2.246   1.994   5.154 -0.3753  0.3003 -1.3913
13360SOL    HW251010   2.396   1.963   5.209 -1.5686 -1.5116  0.9845
13361SOL     OW51011   2.213   3.253   2.876  0.3820 -0.1428 -0.4184
13361SOL    HW151012   2.117   3.256   2.905  1.1487  0.8020  2.1708
13361SOL    HW251013   2.255   3.169   2.912  1.0393  0.4520  0.2128
13362SOL     OW51014   1.766   8.399   3.466 -0.0574 -0.2798 -0.3264
13362SOL    HW151015   1.692   8.356   3.414 -0.2140 -0.0845 -0.2700
13362SOL    HW251016   1.727   8.453   3.541  0.1365 -0.0931 -0.3574
13363SOL     OW51017   4.426   9.198   2.602 -0.3050  0.1886  0.1829
13363SOL    HW151018   4.453   9.182   2.698  0.7358  1.8881  0.1998
13363SOL    HW251019   4.326   9.198   2.595 -0.3908 -1.7854  0.9217
13364SOL     OW51020   1.818   2.721   1.068 -0.2614 -0.1060  0.0489
13364SOL    HW151021   1.807   2.622   1.063 -1.4544  0.0368 -0.5185
13364SOL    HW251022   1.792   2.753   1.159  2.2419 -0.5377  0.9509
13365SOL     OW51023   8.920   5.031   4.099 -0.8166 -0.5510 -0.1950
13365SOL    HW151024   8.969   5.090   4.164  0.6006 -1.9129  0.0084
13365SOL    HW251025   8.828   5.067   4.084 -0.1805  1.3838  0.3720
13366SOL     OW51026   2.251   8.800   0.194 -0.6103  0.3189  0.0732
13366SOL    HW151027   2.192   8.722   0.216 -1.7168  1.3023  0.6251
13366SOL    HW251028   2.197   8.883   0.190  0.7446  1.2393  0.5423
13367SOL     OW51029   0.640   2.735   0.098  0.6933 -0.2830 -0.1945
13367SOL    HW151030   0.563   2.673   0.113 -0.3897  0.9913 -0.4018
13367SOL    HW251031   0.669   2.732   0.002 -0.5882  0.9104 -0.6355
13368SOL     OW51032   7.611   1.155   4.405 -0.4530  0.3629 -0.3771
13368SOL    HW151033   7.655   1.245   4.407 -2.0138  1.1372  0.1859
13368SOL    HW251034   7.662   1.094   4.345  0.5930  1.6436 -0.8129
13369SOL     OW51035   3.641   0.367   2.215  1.2166  0.6266  0.1264
13369SOL    HW151036   3.711   0.389   2.283  1.7594 -0.5377 -0.0347
13369SOL    HW251037   3.584   0.292   2.248 -0.5769  2.1891  0.6524
13370SOL     OW51038   4.691   1.151   2.504 -0.6000  0.0304  0.2609
13370SOL    HW151039   4.780   1.124   2.541 -0.4454  0.1793  0.0020
13370SOL    HW251040   4.672   1.097   2.422  1.0952  2.7751 -2.0276
13371SOL     OW51041   1.894   8.707   1.832 -0.2134 -0.2422 -0.0130
13371SOL    HW151042   1.870   8.804   1.836 -0.5289 -0.2854 -0.8071
13371SOL    HW251043   1.821   8.653   1.874 -0.4321 -0.1948 -0.3272
13372SOL     OW51044   9.250   4.482   4.856 -0.2979  0.5339 -0.5506
13372SOL    HW151045   9.316   4.557   4.850 -0.1760  0.6291  1.7713
13372SOL    HW251046   9.205   4.483   4.945 -2.6864 -0.1778 -1.7062
13373SOL     OW51047   9.224   7.226   1.865  0.2567 -0.2376 -0.8599
13373SOL    HW151048   9.162   7.201   1.792 -2.6185  1.3387  0.9435
13373SOL    HW251049   9.225   7.326   1.876  0.3248 -0.4628  1.4848
13374SOL     OW51050   9.828   9.511   4.394 -0.0454  0.2429 -0.1534
13374SOL    HW151051   9.880   9.525   4.310  0.3831 -0.3827  0.0119
13374SOL    HW251052   9.809   9.600   4.436  1.3481  0.4355  0.0687
13375SOL     OW51053   8.735   6.683   2.198 -0.0138 -0.4500 -0.3999
13375SOL    HW151054   8.761   6.636   2.282 -1.6585 -0.5482  0.0852
13375SOL    HW251055   8.815   6.694   2.139  1.1240 -0.5712  1.0784
13376SOL     OW51056   7.620   2.816   2.500 -0.3978  0.5881  0.1785
13376SOL    HW151057   7.645   2.797   2.594 -0.7263  0.2310  0.1952
13376SOL    HW251058   7.558   2.895   2.497 -0.1591  0.7794  0.2322
13377SOL     OW51059   5.177   1.347   4.016  0.5699  0.2985 -0.2619
13377SOL    HW151060   5.097   1.327   3.959  1.1457 -0.7856 -0.6965
13377SOL    HW251061   5.209   1.440   3.998  0.4909  0.1110 -1.4026
13378SOL     OW51062   8.476   5.786   2.115 -0.2826 -0.4333 -0.1027
13378SOL    HW151063   8.569   5.806   2.083 -0.5925 -0.1362 -0.8200
13378SOL    HW251064   8.424   5.743   2.041 -1.0541  0.3957 -0.0476
13379SOL     OW51065   2.736   2.745   0.428  0.5031 -0.3765  0.5524
13379SOL    HW151066   2.677   2.665   0.414  0.7863 -0.4748 -0.1462
13379SOL    HW251067   2.831   2.718   0.412  0.5126  0.3219 -0.6622
13380SOL     OW51068   7.834   3.053   0.331 -0.0764  0.4645 -0.4064
13380SOL    HW151069   7.781   2.989   0.277 -0.9518  0.6751  0.1924
13380SOL    HW251070   7.809   3.147   0.307  0.6652  0.5793 -0.7531
13381SOL     OW51071   6.315   9.972   4.829  0.1503  0.1652 -0.3029
13381SOL    HW151072   6.237  10.026   4.860  1.2665  1.5818  0.0622
13381SOL    HW251073   6.295   9.875   4.843 -0.9029  0.5924  1.2789
13382SOL     OW51074   3.067   4.787   4.482  0.4849 -0.1079  0.5578
13382SOL    HW151075   3.014   4.721   4.536  0.0376  0.7836  1.2181
13382SOL    HW251076   3.123   4.843   4.543  0.1530  0.7548  0.0869
13383SOL     OW51077   4.576   7.829   3.564 -0.7183  0.6450  0.5858
13383SOL    HW151078   4.491   7.877   3.586  0.3270  2.9824 -0.3512
13383SOL    HW251079   4.566   7.784   3.475 -0.9713  0.8598  0.5047
13384SOL     OW51080   4.553   1.037   2.844 -0.2527 -0.4401  0.1848
13384SOL    HW151081   4.590   0.955   2.799 -1.2950  0.0402 -1.5836
13384SOL    HW251082   4.453   1.029   2.850 -0.0996 -0.7304  2.9280
13385SOL     OW51083   9.537   3.844   1.252  0.3017  0.1644 -0.2389
13385SOL    HW151084   9.506   3.884   1.166 -0.8661 -0.2739 -0.0304
13385SOL    HW251085   9.465   3.855   1.322  1.1321  0.2887  0.6027
13386SOL     OW51086   9.735   1.751   3.568 -0.2207  0.4742  0.6927
13386SOL    HW151087   9.696   1.763   3.659 -0.5314 -0.7726  0.7378
13386SOL    HW251088   9.776   1.660   3.561 -1.4626 -0.0025 -0.8701
13387SOL     OW51089   9.037   8.051   3.790  0.6325  0.0311  0.1530
13387SOL    HW151090   9.084   7.966   3.769  1.1509  0.2417  0.4367
13387SOL    HW251091   9.087   8.128   3.749  1.5109  0.4184  1.9131
13388SOL     OW51092   8.509   3.136   0.016 -0.1972  0.2890  0.0140
13388SOL    HW151093   8.560   3.132  -0.070  0.9617 -0.1568  0.7187
13388SOL    HW251094   8.556   3.197   0.080 -0.9735  0.4955  0.3973
13389SOL     OW51095   9.257   0.386   2.934 -0.3811 -0.7056  0.1090
13389SOL    HW151096   9.337   0.364   2.879 -0.1954  1.7982 -0.7071
13389SOL    HW251097   9.199   0.305   2.944  1.9478 -2.4006  0.2396
13390SOL     OW51098   7.559   6.487   3.723  0.5396  0.3563 -0.0109
13390SOL    HW151099   7.541   6.582   3.745 -0.2552  0.9513 -2.9668
13390SOL    HW251100   7.474   6.434   3.728 -0.1406  0.9698 -3.5747
13391SOL     OW51101   9.106   7.789   3.238 -0.1606 -0.1582 -0.2451
13391SOL    HW151102   9.091   7.699   3.197 -0.1936 -0.3136  0.1061
13391SOL    HW251103   9.190   7.829   3.201  1.0625 -1.2912  1.2370
13392SOL     OW51104   1.484   3.568   4.740 -0.2863 -0.2559  0.3180
13392SOL    HW151105   1.479   3.540   4.836  0.3990 -0.4383  0.3030
13392SOL    HW251106   1.397   3.550   4.695 -1.4022  1.9711  1.4920
13393SOL     OW51107   4.571   8.546   3.662 -0.2132  0.7908 -0.2400
13393SOL    HW151108   4.620   8.465   3.697  1.0161  1.3979 -0.5326
13393SOL    HW251109   4.551   8.608   3.738 -2.8780 -0.6328  0.3167
13394SOL     OW51110   7.339   1.109   3.089  0.0048 -0.2676 -0.0442
13394SOL    HW151111   7.292   1.021   3.095 -0.5542 -0.0027 -0.4139
13394SOL    HW251112   7.356   1.144   3.182  0.4997 -0.9042  0.1050
13395SOL     OW51113   1.998   4.567   5.311 -0.4459  0.1109 -0.8419
13395SOL    HW151114   1.918   4.624   5.294 -1.2953 -1.0119 -0.7281
13395SOL    HW251115   2.081   4.623   5.312 -1.3176  1.3936 -0.1888
13396SOL     OW51116   3.267   9.446   1.308  0.2025  0.5016 -0.1243
13396SOL    HW151117   3.196   9.421   1.374  2.0145 -0.1854  1.6137
13396SOL    HW251118   3.225   9.461   1.219 -2.1226  0.0890  0.8489
13397SOL     OW51119   0.832   4.780   5.253 -0.7148  0.0387  0.5449
13397SOL    HW151120   0.748   4.831   5.268 -0.5115  0.5250  0.0807
13397SOL    HW251121   0.878   4.816   5.171 -0.4310 -0.7090  0.3715
13398SOL     OW51122   7.314   8.979   3.829  0.2701 -0.2867  0.2772
13398SOL    HW151123   7.328   9.004   3.733  0.1007  1.0868  0.6030
13398SOL    HW251124   7.341   9.055   3.888 -0.9341 -0.5963  1.2561
13399SOL     OW51125   7.903   8.568   3.390 -0.3919  0.7250  0.2805
13399SOL    HW151126   7.945   8.515   3.315  0.7495  1.6731  0.2356
13399SOL    HW251127   7.935   8.662   3.386 -0.4932  0.8406  1.8395
13400SOL     OW51128   8.823   2.250   0.998 -0.0817 -0.6069  0.1658
13400SOL    HW151129   8.911   2.234   1.043 -0.0783  2.5539  1.3977
13400SOL    HW251130   8.758   2.289   1.064 -0.9675  1.4198 -1.8192
13401SOL     OW51131   8.594   8.308   2.674  0.1182  0.2080  0.1434
13401SOL    HW151132   8.561   8.218   2.644  0.8890  0.2451 -0.8239
13401SOL    HW251133   8.520   8.375   2.667 -0.2278 -0.1766  0.1025
13402SOL     OW51134   3.340   9.859   0.164 -0.1675  0.3588  0.0486
13402SOL    HW151135   3.326   9.926   0.092  0.1299  0.5680  0.1838
13402SOL    HW251136   3.301   9.771   0.136  2.2903 -0.2738 -1.4900
13403SOL     OW51137   7.128   6.329   4.391 -0.2895  0.1412 -0.3163
13403SOL    HW151138   7.111   6.327   4.490  1.4102  3.6994  0.1244
13403SOL    HW251139   7.058   6.384   4.346  0.1377  0.2953 -0.7946
13404SOL     OW51140   3.184   5.141   5.536  0.1404  0.0078 -0.4253
13404SOL    HW151141   3.221   5.096   5.617 -0.0057  0.9719  0.1844
13404SOL    HW251142   3.227   5.103   5.454  0.3418 -0.9225  0.1021
13405SOL     OW51143   9.154   0.024   4.401  0.3124  0.1138  0.4501
13405SOL    HW151144   9.167   0.122   4.387 -2.3311  0.2788 -1.2041
13405SOL    HW251145   9.171  -0.025   4.315  2.0410 -0.9301  1.3738
13406SOL     OW51146   1.770   2.857   2.567  0.3369  0.0881 -0.2350
13406SOL    HW151147   1.762   2.879   2.470 -0.9593  1.0017  0.0684
13406SOL    HW251148   1.795   2.940   2.618 -1.0574  0.0946  0.4667
13407SOL     OW51149   6.511   1.764   2.990  0.1647  0.0527  0.5016
13407SOL    HW151150   6.565   1.687   3.024  1.1668  0.3261 -0.4156
13407SOL    HW251151   6.495   1.753   2.892 -1.1595  0.1579  0.7005
13408SOL     OW51152   6.680   7.023   4.148  0.8987 -0.2533  0.6127
13408SOL    HW151153   6.744   7.004   4.222  3.5420  3.6553 -0.4956
13408SOL    HW251154   6.642   7.115   4.159 -1.7132 -1.0945 -0.7986
13409SOL     OW51155   3.496   0.938   3.763  0.4950 -0.8014  0.5846
13409SOL    HW151156   3.470   0.969   3.854 -0.1394  1.0603 -0.2098
13409SOL    HW251157   3.563   1.002   3.724 -0.9016 -0.3330 -1.1175
13410SOL     OW51158   0.065   3.718   0.811  0.2737 -0.0297 -0.2021
13410SOL    HW151159  -0.030   3.691   0.823  0.1379  0.5988  0.1323
13410SOL    HW251160   0.072   3.817   0.810  1.0440 -0.0693  0.7020
13411SOL     OW51161   1.336   4.254   5.423 -0.7355  0.3295 -0.7643
13411SOL    HW151162   1.274   4.271   5.500 -1.0675 -3.3074 -0.1360
13411SOL    HW251163   1.428   4.238   5.458 -0.8582 -1.1966 -1.0765
13412SOL     OW51164   3.996   3.790   5.436 -0.3195  0.8514  0.5461
13412SOL    HW151165   3.910   3.834   5.462 -0.5961  1.8719 -1.9840
13412SOL    HW251166   3.979   3.696   5.407 -0.5344  0.9433  0.3752
13413SOL     OW51167   7.283   1.134   3.706 -0.8255  0.0147 -0.1193
13413SOL    HW151168   7.323   1.225   3.699  0.1841 -0.5140 -1.3842
13413SOL    HW251169   7.317   1.089   3.789  0.4520 -0.0656 -0.6820
13414SOL     OW51170   3.737   4.346   2.511 -0.0947 -0.1347 -0.0358
13414SOL    HW151171   3.725   4.423   2.574  0.0504  0.2268 -0.4453
13414SOL    HW251172   3.767   4.266   2.562 -1.8991 -0.3895  0.6375
13415SOL     OW51173   1.670   4.817   4.285  0.0764  0.3328  0.0881
13415SOL    HW151174   1.677   4.913   4.256  0.8677 -0.1099 -1.2167
13415SOL    HW251175   1.577   4.784   4.269  0.0607  0.5954 -0.3623
13416SOL     OW51176   3.131   7.343   3.808 -0.4920  0.9228 -0.0726
13416SOL    HW151177   3.069   7.266   3.790 -0.6710  0.6495  1.5905
13416SOL    HW251178   3.225   7.314   3.792 -0.7143  1.0998 -1.8225
13417SOL     OW51179   2.876   1.979   1.411 -0.6875 -0.0701 -0.2207
13417SOL    HW151180   2.865   1.937   1.501  2.0049 -1.1773 -0.3761
13417SOL    HW251181   2.857   2.077   1.417 -0.9499 -0.2159  1.4354
13418SOL     OW51182   2.733   7.399   2.412  0.1275  0.1336  0.2448
13418SOL    HW151183   2.658   7.465   2.417  0.7491  1.2013 -3.2074
13418SOL    HW251184   2.821   7.447   2.415  0.5966 -0.6210 -0.8157
13419SOL     OW51185   9.838   5.949   2.695 -0.1091  0.6248 -0.5352
13419SOL    HW151186   9.775   5.883   2.736 -0.7404  0.9508 -0.9713
13419SOL    HW251187   9.887   5.998   2.767  1.3711 -1.2657 -0.2043
13420SOL     OW51188   1.601   4.350   4.304 -0.1067  0.0467 -0.3298
13420SOL    HW151189   1.675   4.412   4.279 -0.0784  0.4596  0.7642
13420SOL    HW251190   1.513   4.395   4.290 -0.0849  0.3395  0.5020
13421SOL     OW51191   4.653   4.392   5.584 -0.2524 -0.1319  0.0085
13421SOL    HW151192   4.583   4.464   5.583 -0.9682 -0.8069  0.4649
13421SOL    HW251193   4.608   4.302   5.581  0.6792 -0.5610 -2.8687
13422SOL     OW51194   6.969   1.187   2.949  0.6447  0.8367  0.0220
13422SOL    HW151195   6.947   1.257   3.018  2.4369  0.1415  1.3395
13422SOL    HW251196   6.902   1.113   2.955  1.0393  0.5681  1.3497
13423SOL     OW51197   1.648   7.713   2.419  0.2468  0.3863  0.1209
13423SOL    HW151198   1.620   7.617   2.423 -1.8105  0.9795  0.7489
13423SOL    HW251199   1.711   7.727   2.343  0.6097 -1.4657  0.0674
13424SOL     OW51200   0.469   1.033   2.200 -0.5283  0.1729  0.1349
13424SOL    HW151201   0.544   0.969   2.182  0.3562  1.0334  0.7499
13424SOL    HW251202   0.417   1.002   2.279 -0.5840 -0.2095 -0.0494
13425SOL     OW51203   9.099   7.841   1.659 -0.4455  0.2753  0.0399
13425SOL    HW151204   9.194   7.842   1.628  0.2121 -2.2797  1.8190
13425SOL    HW251205   9.044   7.784   1.599  0.0636 -1.6539  1.3399
13426SOL     OW51206   2.945   4.710   4.189 -0.2408 -0.0047 -0.2160
13426SOL    HW151207   2.974   4.718   4.285  1.7507 -2.0677 -0.5887
13426SOL    HW251208   2.920   4.615   4.170 -2.3653  0.7497 -1.2971
13427SOL     OW51209   0.269   6.987   4.224 -0.8927 -0.2426  0.1211
13427SOL    HW151210   0.185   6.947   4.189 -0.1940  0.1775 -2.0923
13427SOL    HW251211   0.296   7.064   4.166  1.1142 -0.4837  0.6965
13428SOL     OW51212   3.869   3.273   4.485  0.1579 -0.5178  0.5360
13428SOL    HW151213   3.899   3.178   4.491  1.2735 -0.1555  0.6881
13428SOL    HW251214   3.907   3.325   4.561  1.8379  0.6718 -1.0953
13429SOL     OW51215   3.786   0.199   3.541 -0.2588  0.0569  0.1010
13429SOL    HW151216   3.776   0.100   3.550  0.1369  0.0606  0.6021
13429SOL    HW251217   3.716   0.234   3.478 -0.0975 -0.6050 -0.4575
13430SOL     OW51218   9.859   8.864   0.266  0.4430  1.1259  0.4095
13430SOL    HW151219   9.870   8.768   0.290  1.0337  0.9710 -0.4516
13430SOL    HW251220   9.945   8.913   0.284  1.6487  0.5798 -3.2938
13431SOL     OW51221   4.552   7.298   1.856  0.7701 -0.2786  0.0804
13431SOL    HW151222   4.538   7.291   1.955 -0.7239 -1.0389 -0.1675
13431SOL    HW251223   4.609   7.221   1.826  1.3003  0.0023  0.3652
13432SOL     OW51224   4.004   3.293   1.510  0.1429  0.1296  0.0053
13432SOL    HW151225   3.975   3.199   1.524  0.5986 -0.0636 -0.3182
13432SOL    HW251226   4.087   3.294   1.453 -0.3343  0.7657 -0.6863
13433SOL     OW51227   8.695   6.337   1.277 -0.3173 -0.0119  0.2667
13433SOL    HW151228   8.750   6.417   1.255  1.2090 -1.4667 -1.3182
13433SOL    HW251229   8.694   6.324   1.376 -1.1707  2.3407  0.6142
13434SOL     OW51230   2.800   3.482   4.694 -0.6278  0.0021 -0.1967
13434SOL    HW151231   2.800   3.545   4.772  0.8092 -0.1823 -0.0450
13434SOL    HW251232   2.851   3.399   4.718 -2.6169 -1.3101 -0.3397
13435SOL     OW51233   3.126   2.344   3.240  0.3487  0.7315 -0.1588
13435SOL    HW151234   3.088   2.284   3.310  2.1703  0.9295  1.0499
13435SOL    HW251235   3.054   2.399   3.199 -1.0962 -1.0936 -0.1239
13436SOL     OW51236   8.974   9.089   4.572 -0.4464  0.3765  0.2445
13436SOL    HW151237   9.053   9.029   4.574  0.4633  1.5957  1.6642
13436SOL    HW251238   8.957   9.119   4.478  0.4077 -0.3762 -0.1518
13437SOL     OW51239   3.975   0.155   3.731  0.8259 -0.1106  0.2417
13437SOL    HW151240   3.903   0.190   3.671  0.4761 -1.5468 -0.2087
13437SOL    HW251241   4.057   0.134   3.678  0.4786 -1.4923  0.2215
13438SOL     OW51242   3.553   7.260   2.479 -0.2886 -0.2127  0.0672
13438SOL    HW151243   3.491   7.292   2.408  0.0030  0.1017 -0.0437
13438SOL    HW251244   3.638   7.312   2.476 -0.4761  0.1709  0.9881
13439SOL     OW51245   3.136   1.877   3.008  0.3474  0.4578 -0.6236
13439SOL    HW151246   3.153   1.786   3.046  0.7822  0.5912 -0.4955
13439SOL    HW251247   3.186   1.888   2.922  1.1511  0.9472 -0.1099
13440SOL     OW51248   6.109   8.392   4.072  0.0850 -0.2513  0.1286
13440SOL    HW151249   6.122   8.452   4.151  0.2886 -0.6803  0.4221
13440SOL    HW251250   6.027   8.335   4.087 -0.8735  0.8735 -0.7258
13441SOL     OW51251   3.040   2.866   1.147 -0.2575  0.4593 -0.2251
13441SOL    HW151252   3.059   2.941   1.083 -0.0993  0.2438 -0.4290
13441SOL    HW251253   2.977   2.801   1.105  0.3995 -0.0512 -0.4324
13442SOL     OW51254   1.787   2.349   5.313  0.0896 -0.2398  0.6033
13442SOL    HW151255   1.852   2.364   5.238  0.3232  0.2926  0.9093
13442SOL    HW251256   1.774   2.251   5.327  0.8261 -0.3465  0.5434
13443SOL     OW51257   5.212   1.554   1.848  0.6162 -0.2001 -0.3654
13443SOL    HW151258   5.219   1.454   1.843  0.0442 -0.2773  0.2243
13443SOL    HW251259   5.280   1.590   1.912 -0.3249 -0.3822  0.7581
13444SOL     OW51260   9.862   3.722   1.993  0.1462 -0.5244  0.1536
13444SOL    HW151261   9.847   3.818   1.970 -0.8006 -0.6656  0.1635
13444SOL    HW251262   9.829   3.704   2.086 -2.0784 -1.4503 -0.7947
13445SOL     OW51263   0.375   8.680   3.208 -0.1833 -0.0018 -0.1096
13445SOL    HW151264   0.393   8.774   3.239  0.7655 -0.1082 -0.3223
13445SOL    HW251265   0.350   8.623   3.286 -0.9683  0.4805 -0.0091
13446SOL     OW51266   5.088   9.833   1.106  0.2331  0.2615 -0.1138
13446SOL    HW151267   5.091   9.912   1.044 -1.8932  1.9624  1.8609
13446SOL    HW251268   5.106   9.750   1.054 -0.9018  1.6868 -2.9327
13447SOL     OW51269   8.048   5.451   0.552  0.0194  0.0357  0.0083
13447SOL    HW151270   8.045   5.487   0.459 -0.3396 -0.7766 -0.2999
13447SOL    HW251271   7.956   5.447   0.590 -0.0366 -1.3035 -0.2569
13448SOL     OW51272   3.901   0.250   5.156 -0.1236  0.4198 -0.5411
13448SOL    HW151273   3.970   0.253   5.229 -0.8656  0.7338  0.1534
13448SOL    HW251274   3.928   0.312   5.082 -1.0517  2.7286  0.9860
13449SOL     OW51275   8.037   9.170   3.492 -0.3539  0.3454 -0.6881
13449SOL    HW151276   7.960   9.194   3.550 -0.0839  0.8123 -0.5216
13449SOL    HW251277   8.074   9.252   3.449 -0.4380  0.0290 -1.3833
13450SOL     OW51278   8.307   9.254   5.140  0.5571 -0.1668 -0.2032
13450SOL    HW151279   8.211   9.273   5.120 -0.3721 -3.5883  0.6511
13450SOL    HW251280   8.313   9.189   5.216  3.6164  1.0411  0.6861
13451SOL     OW51281   3.335   1.597   1.561  0.1239 -0.2015  0.1361
13451SOL    HW151282   3.395   1.566   1.488 -1.7990 -1.8080 -0.8008
13451SOL    HW251283   3.391   1.629   1.638  2.1997 -3.1577 -0.0478
13452SOL     OW51284   7.302   3.726   5.112 -0.0312 -0.0574 -0.2648
13452SOL    HW151285   7.242   3.804   5.133 -1.5737 -0.6048 -2.4448
13452SOL    HW251286   7.249   3.655   5.066  2.1189 -0.9838 -1.3809
13453SOL     OW51287   4.569   2.130   1.220  0.6604 -0.1069  0.3633
13453SOL    HW151288   4.551   2.086   1.308  0.2424 -0.2866  0.1883
13453SOL    HW251289   4.665   2.159   1.217  0.3954  0.8863  1.3053
13454SOL     OW51290   2.797   0.254   2.738  0.1101  0.8749  0.0510
13454SOL    HW151291   2.897   0.257   2.731  0.2385 -0.3324  1.2053
13454SOL    HW251292   2.757   0.316   2.669  1.6720  2.5305  0.5804
13455SOL     OW51293   2.658   1.720   3.827  0.1848  0.7075 -0.5032
13455SOL    HW151294   2.729   1.651   3.841 -0.1305  0.9728  2.6091
13455SOL    HW251295   2.701   1.808   3.807  0.7080  0.7449  0.7958
13456SOL     OW51296   9.574   2.982   5.098  0.1916  0.1214 -0.3661
13456SOL    HW151297   9.533   2.923   5.167 -0.2819 -0.1936 -0.9129
13456SOL    HW251298   9.671   2.962   5.090  0.5538  1.0854  1.1640
13457SOL     OW51299   4.857   0.495   1.784 -0.6591 -0.0339 -0.1177
13457SOL    HW151300   4.953   0.471   1.800 -0.4537  1.4591  1.0041
13457SOL    HW251301   4.814   0.423   1.729  0.7817 -1.3069  0.3605
13458SOL     OW51302   9.075   4.785   2.343  0.3938  0.2211  0.3600
13458SOL    HW151303   9.055   4.821   2.252  2.4720  1.4759  0.3774
13458SOL    HW251304   9.171   4.757   2.348 -1.2941 -6.6330 -0.0754
13459SOL     OW51305   6.386   0.556   3.871 -0.3058 -0.4775 -0.5835
13459SOL    HW151306   6.429   0.599   3.950 -1.4559 -1.7530  0.7618
13459SOL    HW251307   6.370   0.625   3.800 -0.8244  1.0232  0.9779
13460SOL     OW51308   9.742   5.276   0.809  0.1206 -0.1887 -0.2872
13460SOL    HW151309   9.781   5.360   0.847 -3.8174  1.4921  0.2222
13460SOL    HW251310   9.750   5.202   0.876  3.2393 -0.1834 -0.5784
13461SOL     OW51311   9.423   0.753   4.237 -0.0173 -0.5777 -0.6836
13461SOL    HW151312   9.403   0.690   4.311  0.7737  0.1497  0.1597
13461SOL    HW251313   9.521   0.751   4.217  0.1670  1.1280  0.0334
13462SOL     OW51314   2.823   5.883   0.420 -0.4470  0.1607 -0.1047
13462SOL    HW151315   2.755   5.829   0.371 -0.8745  0.7715 -0.1975
13462SOL    HW251316   2.858   5.955   0.360 -0.6928  0.6727  0.3611
13463SOL     OW51317   9.307   6.871   5.172 -0.1298  0.3157  0.1076
13463SOL    HW151318   9.307   6.966   5.204 -0.2227  0.4697 -0.3379
13463SOL    HW251319   9.247   6.863   5.092 -0.0318 -0.0932  0.0739
13464SOL     OW51320   5.899   7.573   2.827  0.0838 -0.6077  0.1606
13464SOL    HW151321   5.968   7.529   2.885  0.4439 -1.2985 -0.7731
13464SOL    HW251322   5.935   7.582   2.734 -0.2812  0.9721  0.1545
13465SOL     OW51323   4.767   4.283   0.942  0.2445  0.4077  0.4599
13465SOL    HW151324   4.679   4.326   0.958 -0.4491 -0.6349 -0.4539
13465SOL    HW251325   4.754   4.184   0.930  1.5700  0.2031  0.6467
13466SOL     OW51326   9.203   9.069   0.562 -0.2749 -0.0530 -0.2761
13466SOL    HW151327   9.139   8.993   0.572 -1.0783  0.5741 -0.5646
13466SOL    HW251328   9.151   9.154   0.550  0.6085  0.5469  0.1208
13467SOL     OW51329   2.847   5.026   0.792 -0.8096  0.2443 -0.1379
13467SOL    HW151330   2.934   5.018   0.841  0.3306  0.7183 -2.0531
13467SOL    HW251331   2.820   4.937   0.756 -0.5994  0.2944 -0.4191
13468SOL     OW51332   8.975   3.033   5.092 -0.1250 -0.5502  0.5004
13468SOL    HW151333   9.066   3.071   5.108 -0.0475  0.1198 -1.4472
13468SOL    HW251334   8.984   2.940   5.056 -0.2161 -0.4101  0.1206
13469SOL     OW51335   0.144   6.823   1.722  0.3067 -0.8486 -0.2401
13469SOL    HW151336   0.149   6.750   1.790  1.0481 -0.5153  0.0767
13469SOL    HW251337   0.187   6.792   1.637 -0.9551 -1.3979 -0.6853
13470SOL     OW51338   9.390   1.468   3.284  0.4405  0.3033  0.1290
13470SOL    HW151339   9.392   1.436   3.189  2.2993 -1.2502  0.6693
13470SOL    HW251340   9.301   1.510   3.302 -1.0742 -2.0909 -1.4228
13471SOL     OW51341   8.503   2.478   5.420 -0.4306 -0.5751  0.3450
13471SOL    HW151342   8.522   2.482   5.322  0.2402 -0.0455  0.4927
13471SOL    HW251343   8.432   2.544   5.443 -1.8457 -1.9119 -0.0564
13472SOL     OW51344   9.659   2.515   4.981 -0.2161 -0.0279 -0.0053
13472SOL    HW151345   9.731   2.555   5.038 -0.1616  0.1963 -0.2361
13472SOL    HW251346   9.610   2.587   4.932 -1.0434 -0.1174  0.6748
13473SOL     OW51347   8.891   6.301   0.756  0.1678 -0.5308  0.0236
13473SOL    HW151348   8.975   6.248   0.769 -1.0373 -2.1518  1.3637
13473SOL    HW251349   8.871   6.351   0.841  1.5680  2.5498 -1.3709
13474SOL     OW51350   8.247   2.602   2.161 -0.2023  0.5328 -0.4404
13474SOL    HW151351   8.269   2.682   2.107 -0.6665 -0.0343 -1.4751
13474SOL    HW251352   8.153   2.573   2.143 -0.6221  0.7995  1.2510
13475SOL     OW51353   8.128   9.396   2.401 -0.0240  1.3287 -0.0616
13475SOL    HW151354   8.197   9.458   2.437  2.5752 -2.8487  2.6739
13475SOL    HW251355   8.160   9.356   2.315  0.2923  0.5589  0.4080
13476SOL     OW51356   1.321   9.619   2.363 -0.4208  0.4716  0.8957
13476SOL    HW151357   1.300   9.541   2.305  0.4986  0.4867  0.5417
13476SOL    HW251358   1.236   9.653   2.404 -0.9153 -0.2800  0.5172
13477SOL     OW51359   7.598   9.307   2.928  0.3480  0.2153 -0.1782
13477SOL    HW151360   7.696   9.307   2.948  0.5330  1.4793 -1.0465
13477SOL    HW251361   7.549   9.349   3.004  0.9498  4.0244 -1.7955
13478SOL     OW51362   8.317   3.237   2.675  0.6435  0.0468 -0.1780
13478SOL    HW151363   8.259   3.277   2.746 -0.1070 -0.2536 -0.6121
13478SOL    HW251364   8.301   3.138   2.670  1.2389 -0.0469 -0.2624
13479SOL     OW51365   7.395   5.543   4.108 -0.1341  0.5596  0.8087
13479SOL    HW151366   7.441   5.615   4.056 -1.7289  0.7079 -0.4317
13479SOL    HW251367   7.306   5.576   4.139 -0.8964 -0.8696  0.2103
13480SOL     OW51368   8.569   1.710   2.943 -0.1138  0.2836  0.0997
13480SOL    HW151369   8.643   1.673   2.887 -0.3770 -3.2032  1.9437
13480SOL    HW251370   8.490   1.729   2.885  0.5251 -0.7030 -1.1160
13481SOL     OW51371   6.729   1.352   2.175  0.5589  0.4294  0.3462
13481SOL    HW151372   6.753   1.313   2.087 -0.3027 -0.0251  0.3086
13481SOL    HW251373   6.807   1.344   2.238  0.8807 -0.0115 -0.1086
13482SOL     OW51374   3.971   0.762   5.145  0.0295 -0.5807 -0.4061
13482SOL    HW151375   4.006   0.688   5.202 -2.5611 -0.6910  1.1523
13482SOL    HW251376   3.953   0.727   5.053  3.1372 -0.6973 -1.0157
13483SOL     OW51377   2.317   9.966   5.018 -0.1209 -0.1605  0.0240
13483SOL    HW151378   2.264   9.915   4.950 -0.8836 -1.6065  1.6767
13483SOL    HW251379   2.341  10.055   4.980  0.8917 -1.5473 -2.7742
13484SOL     OW51380   8.091   5.643   4.337  1.2456  0.3765 -0.2141
13484SOL    HW151381   8.041   5.714   4.386 -0.8757 -0.5769 -0.9717
13484SOL    HW251382   8.111   5.674   4.244  0.0946 -0.1118 -0.6272
13485SOL     OW51383   2.098   7.123   3.170 -0.4525  0.1360  0.0329
13485SOL    HW151384   2.026   7.168   3.223  0.5802  2.8547 -0.7746
13485SOL    HW251385   2.186   7.163   3.193  0.5954 -1.9224 -0.3011
13486SOL     OW51386   1.521   1.003   2.216 -1.1042  0.1264  0.1267
13486SOL    HW151387   1.487   0.974   2.127  0.3506  0.4528 -0.5442
13486SOL    HW251388   1.564   0.925   2.262 -0.6546  0.2809 -0.0302
13487SOL     OW51389   0.926   0.014   4.230 -0.2447 -0.0290  0.4638
13487SOL    HW151390   0.955   0.064   4.148 -2.2641 -0.2468 -0.3939
13487SOL    HW251391   0.997   0.022   4.300  1.0111  1.0892 -0.9017
13488SOL     OW51392   1.959   8.387   1.568 -0.2365 -0.3627 -0.2187
13488SOL    HW151393   1.872   8.368   1.522  0.8842 -1.6144 -1.8409
13488SOL    HW251394   1.950   8.363   1.665 -1.7329 -0.3929 -0.3441
13489SOL     OW51395   3.521   4.638   2.084  0.4758 -0.3653 -0.7470
13489SOL    HW151396   3.452   4.701   2.120  1.2350  0.0396  0.0286
13489SOL    HW251397   3.610   4.683   2.084  1.2822 -1.8723  1.0968
13490SOL     OW51398   3.103   1.881   5.052 -0.2487  0.4395  0.5601
13490SOL    HW151399   3.140   1.960   5.004  0.0549  0.3858  0.7110
13490SOL    HW251400   3.049   1.912   5.130 -0.1949  0.4998  0.5736
13491SOL     OW51401   8.463   4.176   1.867 -0.8103 -0.2417  1.1854
13491SOL    HW151402   8.442   4.101   1.929 -1.5395 -1.5976 -0.6468
13491SOL    HW251403   8.397   4.176   1.791  0.7035  0.6739 -0.1631
13492SOL     OW51404   2.762   7.527   0.224  0.0005 -0.3940  0.0252
13492SOL    HW151405   2.861   7.508   0.222 -0.0577 -0.6610 -0.3801
13492SOL    HW251406   2.723   7.511   0.133 -0.3487  0.0933  0.0865
13493SOL     OW51407   4.907   1.799   5.462 -0.3449 -0.0238  0.8871
13493SOL    HW151408   4.964   1.746   5.525  1.2725  0.9494  0.2833
13493SOL    HW251409   4.966   1.843   5.393 -1.9181  0.3335 -0.2492
13494SOL     OW51410   6.523   9.789   3.283  0.1281 -0.0237 -0.3599
13494SOL    HW151411   6.490   9.883   3.284 -0.3471 -0.1956  0.7189
13494SOL    HW251412   6.527   9.754   3.377 -1.1674 -1.5954 -0.8717
13495SOL     OW51413   5.264   1.504   3.003 -0.1994  0.1309 -0.0225
13495SOL    HW151414   5.361   1.495   2.980 -0.5124  0.5180 -1.5381
13495SOL    HW251415   5.224   1.413   3.013  0.4068 -0.0302  1.0114
13496SOL     OW51416   9.876   4.625   4.740 -0.2555  0.3207  0.4980
13496SOL    HW151417   9.795   4.582   4.778 -0.5008 -0.4872 -0.8948
13496SOL    HW251418   9.857   4.720   4.718  0.4857  1.4137  4.2303
13497SOL     OW51419   4.386   8.935   5.395  0.4520  0.0026 -0.6634
13497SOL    HW151420   4.296   8.960   5.430  0.0649  0.7740 -2.1696
13497SOL    HW251421   4.450   8.928   5.472 -0.9495 -0.8809  0.4489
13498SOL     OW51422   1.595   5.116   0.314 -0.1770  0.2221 -0.6663
13498SOL    HW151423   1.650   5.189   0.355  1.2011 -0.9119 -0.4531
13498SOL    HW251424   1.561   5.055   0.386 -0.4559  0.0663 -0.9297
13499SOL     OW51425   1.294   8.242   4.715 -0.1076 -0.1885 -0.4130
13499SOL    HW151426   1.247   8.318   4.669 -1.1655 -0.0522  0.8678
13499SOL    HW251427   1.365   8.278   4.774 -0.5482 -0.1880  0.1233
13500SOL     OW51428   8.506   5.339   3.148  0.4473 -0.2112 -0.0658
13500SOL    HW151429   8.456   5.268   3.097  0.4748 -0.1382 -0.1936
13500SOL    HW251430   8.455   5.425   3.144  1.6884  0.4512 -2.0836
13501SOL     OW51431   4.255   3.837   2.044  0.3430 -0.0488 -0.2108
13501SOL    HW151432   4.249   3.878   2.135  2.2313 -1.1010  0.4004
13501SOL    HW251433   4.181   3.771   2.032 -1.0995  1.5378 -0.2010
13502SOL     OW51434   3.962   8.425   2.351  0.0711  0.5513  0.5998
13502SOL    HW151435   3.954   8.334   2.391  0.9207  0.3256  0.2663
13502SOL    HW251436   4.009   8.485   2.415  3.0780 -0.2822 -0.7495
13503SOL     OW51437   2.146   3.944   3.399 -0.3163  0.1088  0.3737
13503SOL    HW151438   2.125   3.906   3.489 -2.7289 -0.4860 -0.4087
13503SOL    HW251439   2.130   3.874   3.329  1.1034  0.7074 -0.5871
13504SOL     OW51440   1.653   9.817   0.985  0.0518 -0.4718 -0.2728
13504SOL    HW151441   1.616   9.909   0.999  1.5934 -0.1096  1.5796
13504SOL    HW251442   1.704   9.814   0.899  1.7243  1.0019  0.6332
13505SOL     OW51443   2.550   2.995   3.904  0.2957  0.4871 -0.3213
13505SOL    HW151444   2.618   2.923   3.917 -0.3341 -0.1084 -0.2951
13505SOL    HW251445   2.562   3.065   3.976  2.0399  1.3252 -1.3972
13506SOL     OW51446   2.137   4.303   4.138  0.4268  0.4572  0.1279
13506SOL    HW151447   2.100   4.210   4.135 -1.1317  1.0834 -0.2316
13506SOL    HW251448   2.237   4.299   4.139  0.3582 -1.2590  1.4596
13507SOL     OW51449   8.288   8.132   3.416 -0.3228  0.6440  0.4056
13507SOL    HW151450   8.379   8.118   3.378  1.3182 -0.0155  4.3788
13507SOL    HW251451   8.283   8.222   3.458 -0.4091 -0.5245  2.9998
13508SOL     OW51452   0.564   2.445   1.566  0.2212  0.4131  0.0952
13508SOL    HW151453   0.518   2.387   1.633  1.0981  0.6562  0.9169
13508SOL    HW251454   0.498   2.474   1.497 -0.9798  1.1580  1.5260
13509SOL     OW51455   9.905   1.470   1.443 -0.3453  0.2419 -0.0563
13509SOL    HW151456   9.919   1.406   1.519  1.1569  0.5519 -0.0608
13509SOL    HW251457   9.837   1.432   1.381 -0.7811 -0.5332  0.8677
13510SOL     OW51458   7.735   9.170   4.698 -0.4862  0.0385  0.2261
13510SOL    HW151459   7.732   9.100   4.627 -1.5163  2.6419 -2.3913
13510SOL    HW251460   7.821   9.221   4.692  0.6283 -1.4466  2.6516
13511SOL     OW51461   4.842   7.608   2.501  0.4899 -0.2041  0.0043
13511SOL    HW151462   4.920   7.606   2.438  0.4749 -1.6535  0.0287
13511SOL    HW251463   4.814   7.515   2.523  1.7009  0.2174  3.6419
13512SOL     OW51464   2.936   5.600   1.112 -0.4801  0.2397  0.5941
13512SOL    HW151465   2.900   5.589   1.020 -2.2163 -1.5107  1.4314
13512SOL    HW251466   2.990   5.520   1.137 -0.6049  0.3754  1.3363
13513SOL     OW51467   4.035   8.475   1.879 -0.1540 -0.4679 -0.2848
13513SOL    HW151468   4.051   8.568   1.845 -3.8338  0.1857 -0.4185
13513SOL    HW251469   4.041   8.475   1.979  0.5592 -0.2552 -0.3235
13514SOL     OW51470   8.638   9.834   0.972  0.4539  0.2557  0.3073
13514SOL    HW151471   8.708   9.830   0.900 -1.5465  1.3861 -1.7670
13514SOL    HW251472   8.555   9.789   0.941 -0.9520  2.0954  1.3095
13515SOL     OW51473   4.114   6.044   2.161 -0.1048 -0.1565  0.2220
13515SOL    HW151474   4.146   5.953   2.188 -0.8966  0.2626  2.6609
13515SOL    HW251475   4.036   6.070   2.218  0.5699  2.3502  0.0428
13516SOL     OW51476   0.607   8.510   3.351 -0.1720  0.4401  0.0647
13516SOL    HW151477   0.598   8.572   3.429  0.2368  0.2609  0.2498
13516SOL    HW251478   0.602   8.416   3.382 -0.2646  0.3686 -0.1595
13517SOL     OW51479   9.685   6.677   3.720  0.4456 -0.3886 -0.5142
13517SOL    HW151480   9.635   6.735   3.655 -0.8221 -1.4208 -0.4882
13517SOL    HW251481   9.686   6.721   3.810  1.4499  0.6392 -1.0128
13518SOL     OW51482   8.696   7.037   3.566 -0.7070  0.4101  0.2207
13518SOL    HW151483   8.682   6.953   3.619  0.1626 -0.8284 -1.4825
13518SOL    HW251484   8.672   7.116   3.623 -0.3663 -0.9128  2.2690
13519SOL     OW51485   7.633   9.279   2.240 -0.0393  0.5197 -0.2587
13519SOL    HW151486   7.553   9.224   2.263  0.8147 -1.0104 -0.8592
13519SOL    HW251487   7.654   9.341   2.316 -1.0374  0.0526  0.4115
13520SOL     OW51488   8.343   2.820   0.735 -0.2658 -0.1259  0.4098
13520SOL    HW151489   8.287   2.892   0.693 -0.9221 -0.4103  0.7822
13520SOL    HW251490   8.386   2.855   0.818  0.6978  0.3117 -0.2652
13521SOL     OW51491   1.174   5.961   0.983 -0.1297  0.8455  0.1182
13521SOL    HW151492   1.237   5.940   1.058  0.8363  1.3128 -0.5595
13521SOL    HW251493   1.098   5.896   0.985 -0.8082  1.6431  2.2947
13522SOL     OW51494   2.707   7.320   3.740 -0.2687 -0.1963  0.3992
13522SOL    HW151495   2.755   7.373   3.669 -0.7530 -0.9851 -0.5281
13522SOL    HW251496   2.762   7.320   3.824  1.3553 -1.0449 -0.6336
13523SOL     OW51497   9.317   7.606   1.134  0.5304  0.4958  0.2287
13523SOL    HW151498   9.318   7.552   1.218  0.5525  0.5118  0.2385
13523SOL    HW251499   9.333   7.546   1.056 -1.4555  0.1826  0.0578
13524SOL     OW51500   9.995   3.153   2.165  0.0293  0.6373  0.2807
13524SOL    HW151501  10.048   3.102   2.233  1.3253  0.3569 -0.9083
13524SOL    HW251502  10.058   3.206   2.108 -1.0086  0.6293 -0.8809
13525SOL     OW51503   9.377   8.709   1.975 -0.0561 -0.2597 -0.1168
13525SOL    HW151504   9.302   8.714   2.040  0.1133  2.1448 -0.0479
13525SOL    HW251505   9.420   8.619   1.980 -0.7018 -0.4671  2.3486
13526SOL     OW51506   2.342   5.728   1.841 -0.3878 -0.1748 -0.1504
13526SOL    HW151507   2.372   5.637   1.870 -1.3327 -0.5682 -0.3819
13526SOL    HW251508   2.419   5.778   1.802  0.4930 -0.2874  1.4335
13527SOL     OW51509   3.270   2.660   2.243 -0.1171 -0.2073 -0.0421
13527SOL    HW151510   3.329   2.582   2.264  2.1150  1.2739 -0.6747
13527SOL    HW251511   3.198   2.631   2.181  0.6900 -1.7680 -0.2805
13528SOL     OW51512   0.698   6.235   3.661 -0.3222 -0.4557  0.1090
13528SOL    HW151513   0.720   6.144   3.628 -2.1513 -1.2820  1.1082
13528SOL    HW251514   0.710   6.239   3.760  0.5491  0.6410 -0.0227
13529SOL     OW51515   0.297   2.323   4.961 -0.6040 -0.2590 -0.4169
13529SOL    HW151516   0.379   2.265   4.955 -0.6517 -0.4353  0.5511
13529SOL    HW251517   0.216   2.266   4.967 -0.6955 -0.0837 -0.0081
13530SOL     OW51518   6.490   9.302   4.322  0.3607 -0.2842 -0.4007
13530SOL    HW151519   6.572   9.355   4.345 -0.0112  0.9800 -1.9373
13530SOL    HW251520   6.424   9.310   4.396  0.2366  1.5594 -0.6984
13531SOL     OW51521   1.013   4.307   2.224  0.3038 -0.0801 -0.2509
13531SOL    HW151522   0.998   4.362   2.142  2.1887  0.1600 -0.4588
13531SOL    HW251523   1.108   4.318   2.255  0.1477 -1.6486  0.8609
13532SOL     OW51524   7.037   1.027   1.416  0.3592  0.3283  0.2888
13532SOL    HW151525   7.006   1.034   1.321 -0.7320 -0.8807  0.5373
13532SOL    HW251526   7.093   0.944   1.426 -0.3597 -0.0919  0.9097
13533SOL     OW51527   2.918   9.813   3.963 -0.5373  0.1415 -0.7212
13533SOL    HW151528   3.011   9.790   3.990 -1.8778 -1.0042  3.1610
13533SOL    HW251529   2.882   9.884   4.023 -2.2940  0.3828 -2.0078
13534SOL     OW51530   2.148   4.407   0.700  0.8483 -0.2462  0.2265
13534SOL    HW151531   2.102   4.457   0.774 -1.2750  1.8374 -2.3650
13534SOL    HW251532   2.098   4.322   0.681  0.7193 -0.2232  0.4692
13535SOL     OW51533   2.580   8.751   5.094  0.2950 -0.9625  0.3890
13535SOL    HW151534   2.667   8.788   5.061  0.7305 -0.6783  1.8131
13535SOL    HW251535   2.522   8.826   5.126  0.3042 -1.3069  1.2310
13536SOL     OW51536   9.337   3.072   0.826  0.3472 -0.0795  0.0507
13536SOL    HW151537   9.378   3.056   0.915 -1.9052  0.4121  1.2150
13536SOL    HW251538   9.364   2.999   0.763  1.9356 -0.4322  1.1285
13537SOL     OW51539   5.242   5.874   1.396  0.0175 -0.4812  0.7511
13537SOL    HW151540   5.210   5.966   1.373 -3.2119 -1.4328  1.1459
13537SOL    HW251541   5.244   5.863   1.495  0.7390 -0.7092  0.7087
13538SOL     OW51542   8.962   7.666   3.898  0.0920  0.3193  0.5574
13538SOL    HW151543   8.871   7.708   3.904 -0.6521 -1.2788  0.8263
13538SOL    HW251544   8.995   7.673   3.804 -1.2794 -0.9858 -0.0552
13539SOL     OW51545   4.520   4.755   5.136  0.6117  0.9788 -0.3047
13539SOL    HW151546   4.583   4.736   5.211 -0.2135  1.6258  0.5629
13539SOL    HW251547   4.426   4.740   5.167  0.4207 -2.5761 -2.3582
13540SOL     OW51548   3.645   4.583   3.457  0.2379  0.6528  0.1535
13540SOL    HW151549   3.629   4.682   3.454 -0.4581  0.5449  0.1965
13540SOL    HW251550   3.691   4.555   3.373  0.6708  1.0543  0.2556
13541SOL     OW51551   0.768   4.676   1.660 -0.0862  0.1997 -0.3745
13541SOL    HW151552   0.723   4.593   1.693  0.7745  0.1375  0.6755
13541SOL    HW251553   0.839   4.652   1.594 -1.3291  0.2741 -1.7731
13542SOL     OW51554   1.499   1.282   2.143  0.0310 -0.3875 -0.2920
13542SOL    HW151555   1.540   1.350   2.204 -2.2964  0.4598  0.3632
13542SOL    HW251556   1.505   1.191   2.185  1.5105 -0.3309 -0.3592
13543SOL     OW51557   2.133   5.406   0.229  0.4700  0.5805  0.3890
13543SOL    HW151558   2.210   5.379   0.171  0.3674  0.3918  0.3418
13543SOL    HW251559   2.051   5.355   0.202  0.0804  1.5421 -0.2375
13544SOL     OW51560   3.363   5.853   3.307 -0.5185  0.1898  0.1058
13544SOL    HW151561   3.390   5.776   3.365  1.3031  1.1757  0.5913
13544SOL    HW251562   3.390   5.938   3.350 -0.0307  0.9889 -1.7361
13545SOL     OW51563   2.207   3.205   1.603  0.0222  0.1125 -0.8262
13545SOL    HW151564   2.133   3.152   1.645  0.1821 -1.2109 -2.1818
13545SOL    HW251565   2.198   3.201   1.503  2.7729 -1.2881 -1.0466
13546SOL     OW51566   4.831   3.225   3.139 -0.4572 -0.1890  0.5325
13546SOL    HW151567   4.891   3.231   3.059 -1.6658 -0.8283 -0.4457
13546SOL    HW251568   4.736   3.228   3.109 -0.9134  0.7141  2.0617
13547SOL     OW51569   1.419   5.032   1.637 -0.1347  0.4567  0.2926
13547SOL    HW151570   1.376   5.018   1.727 -0.0789  0.4203  0.3132
13547SOL    HW251571   1.352   5.074   1.575  0.9876  4.1461  1.4767
13548SOL     OW51572   8.410   8.367   2.422  1.1806 -0.2731 -0.5206
13548SOL    HW151573   8.389   8.463   2.438  0.9281 -0.6590  1.6198
13548SOL    HW251574   8.404   8.347   2.324 -0.2789  1.5312 -0.8224
13549SOL     OW51575   1.933   8.461   2.370  0.2402  0.2312  0.4717
13549SOL    HW151576   1.933   8.464   2.470 -0.5585 -1.3022  0.5209
13549SOL    HW251577   1.959   8.370   2.339 -0.2802  0.4802 -0.7277
13550SOL     OW51578   2.912   8.705   1.417  0.3284 -0.0648  0.1184
13550SOL    HW151579   2.832   8.734   1.365 -0.7081 -0.6314  1.3528
13550SOL    HW251580   2.912   8.606   1.428  0.9553 -0.0320  0.5103
13551SOL     OW51581   1.198   0.340   4.713 -0.1636 -0.0021 -0.0492
13551SOL    HW151582   1.207   0.414   4.647 -0.8806 -0.4816 -0.6857
13551SOL    HW251583   1.241   0.368   4.799 -1.5648  1.6669  0.1443
13552SOL     OW51584   3.796   2.194   4.806  1.0319  0.1833 -0.0585
13552SOL    HW151585   3.822   2.128   4.876 -0.0816 -1.0143 -0.7576
13552SOL    HW251586   3.809   2.154   4.715  0.1757  0.8454 -0.4813
13553SOL     OW51587   1.243   0.047   5.469  0.0736  0.1990  0.4461
13553SOL    HW151588   1.222  -0.035   5.416  0.9297  0.7940 -0.8402
13553SOL    HW251589   1.326   0.033   5.523  0.6022  0.4417 -0.2960
13554SOL     OW51590   6.417   9.302   2.915  0.3869 -0.3686  0.3658
13554SOL    HW151591   6.451   9.267   2.828  2.5868  0.5744  0.8230
13554SOL    HW251592   6.449   9.244   2.989  2.3272  1.3480  0.9317
13555SOL     OW51593   3.259   1.875   2.483  0.2582 -0.5338 -0.9829
13555SOL    HW151594   3.278   1.777   2.481 -0.6331 -0.7199 -0.4417
13555SOL    HW251595   3.207   1.901   2.401 -1.3676 -0.9038 -0.0766
13556SOL     OW51596   3.566   2.217   4.646  0.2728  0.4356  0.3566
13556SOL    HW151597   3.631   2.207   4.571  0.1597  0.0974  0.3020
13556SOL    HW251598   3.614   2.247   4.728  0.7328 -1.2540  0.7134
13557SOL     OW51599   1.398   2.641   1.541 -0.0547  0.1635  0.5858
13557SOL    HW151600   1.446   2.722   1.507 -2.8831  1.6757  0.0900
13557SOL    HW251601   1.432   2.618   1.632  1.2861  1.4381  0.4372
13558SOL     OW51602   4.493   6.309   2.245 -0.1883  0.5904 -0.2227
13558SOL    HW151603   4.585   6.317   2.285 -0.4924  2.0019  0.2432
13558SOL    HW251604   4.498   6.321   2.146  0.2619 -0.3986 -0.3193
13559SOL     OW51605   0.809   6.232   4.485 -0.4835 -0.0804 -0.1447
13559SOL    HW151606   0.869   6.306   4.454 -1.0917  0.7284  0.5756
13559SOL    HW251607   0.852   6.144   4.466  0.1138  0.4483 -1.2976
13560SOL     OW51608   4.044   9.689   1.634 -0.2063 -0.3932 -0.1411
13560SOL    HW151609   4.045   9.788   1.623 -0.9348 -0.3757 -0.0244
13560SOL    HW251610   3.952   9.654   1.619  0.1466 -1.1111 -0.6855
13561SOL     OW51611   4.021   3.663   3.033 -0.0835  0.3360 -0.2456
13561SOL    HW151612   3.942   3.614   2.995 -0.2087  0.8551 -0.6806
13561SOL    HW251613   4.004   3.685   3.129 -0.1561 -0.1935 -0.1360
13562SOL     OW51614   8.483   4.246   3.943  0.0145 -0.3475  0.2729
13562SOL    HW151615   8.546   4.270   4.017 -1.1054  1.5723  0.6359
13562SOL    HW251616   8.430   4.165   3.970  0.5472 -0.4687  1.0008
13563SOL     OW51617   8.431   9.651   0.881 -0.5431 -0.4403  0.2884
13563SOL    HW151618   8.362   9.621   0.814  0.6902  0.2214 -1.3095
13563SOL    HW251619   8.406   9.616   0.971 -1.7823 -2.0934 -0.6528
13564SOL     OW51620   2.705   5.637   3.671  0.5530 -0.1867 -0.3906
13564SOL    HW151621   2.619   5.660   3.716  0.0864 -1.5331 -0.5756
13564SOL    HW251622   2.753   5.721   3.644  0.3115  0.6213  1.6191
13565SOL     OW51623   2.880   9.264   4.786 -0.5615 -0.0479 -0.4352
13565SOL    HW151624   2.783   9.287   4.796 -0.3790  0.7995 -0.6271
13565SOL    HW251625   2.899   9.244   4.690 -0.7799 -1.2860 -0.2265
13566SOL     OW51626   2.111   3.409   4.167  0.8288  0.7859  0.3572
13566SOL    HW151627   2.023   3.363   4.161  1.0748  0.3444  0.0703
13566SOL    HW251628   2.183   3.349   4.132  1.3224  0.9260  1.1019
13567SOL     OW51629   0.166   0.295   3.569 -0.1745  0.2620  0.1110
13567SOL    HW151630   0.081   0.243   3.564  0.1690 -0.3239  0.3723
13567SOL    HW251631   0.147   0.392   3.549 -1.0243  0.2724  0.9569
13568SOL     OW51632   7.357   4.970   4.228  0.0151  0.0513  0.5710
13568SOL    HW151633   7.351   5.036   4.303 -1.4714  0.4626  0.1097
13568SOL    HW251634   7.430   4.905   4.246 -1.1309 -0.6027  2.9950
13569SOL     OW51635   7.863   0.728   4.389  0.0791 -0.1340 -0.4111
13569SOL    HW151636   7.825   0.779   4.312 -1.4757  0.3590  0.6611
13569SOL    HW251637   7.856   0.783   4.472  1.9762 -0.5555  0.0693
13570SOL     OW51638   3.673   7.333   3.159  0.1959  0.9704 -0.2708
13570SOL    HW151639   3.699   7.260   3.222  1.0011  0.3421 -1.3285
13570SOL    HW251640   3.575   7.328   3.141  0.0800  0.7405  0.3929
13571SOL     OW51641   2.329   1.972   3.102 -0.4182 -0.3309 -0.3027
13571SOL    HW151642   2.334   1.894   3.163 -0.0028 -0.1313 -0.0787
13571SOL    HW251643   2.387   2.046   3.137 -1.3143  0.3128 -0.1683
13572SOL     OW51644   5.012   8.373   2.666 -0.4305 -0.0532 -0.0435
13572SOL    HW151645   4.929   8.390   2.718 -0.3272 -1.5095  0.6095
13572SOL    HW251646   5.092   8.396   2.722 -0.3635  0.5582 -0.3806
13573SOL     OW51647   2.954   6.808   5.531 -0.1131  0.7027  0.4351
13573SOL    HW151648   3.014   6.862   5.590  1.8574 -0.5559 -0.3819
13573SOL    HW251649   3.009   6.757   5.465 -2.1000 -0.4395 -0.3760
13574SOL     OW51650   8.352   9.216   4.108 -0.4635  0.1668  0.1152
13574SOL    HW151651   8.275   9.240   4.049 -0.7553 -0.5717  0.1859
13574SOL    HW251652   8.331   9.130   4.156  0.6425 -0.3521 -0.3146
13575SOL     OW51653   9.419   0.533   3.630 -0.7030  0.6579 -0.0666
13575SOL    HW151654   9.334   0.585   3.638  0.4441  2.5491  0.0101
13575SOL    HW251655   9.456   0.516   3.722 -0.7135  0.2960 -0.1289
13576SOL     OW51656   2.241   0.915   1.799 -0.3845 -0.8210  0.0641
13576SOL    HW151657   2.288   1.002   1.787  0.4026 -1.1723  0.5674
13576SOL    HW251658   2.146   0.924   1.767  0.0969 -0.1949 -1.2234
13577SOL     OW51659   4.431   9.914   4.887 -0.1960  0.0511  0.0379
13577SOL    HW151660   4.412   9.840   4.822  2.1554 -0.8424  0.3303
13577SOL    HW251661   4.515   9.894   4.937 -1.7424  0.8966  3.1382
13578SOL     OW51662   0.338   7.964   4.997  0.1003  0.5847  0.1564
13578SOL    HW151663   0.361   8.052   4.956  1.0957  1.1829  1.9218
13578SOL    HW251664   0.399   7.893   4.961 -0.4797  0.6748 -1.0119
13579SOL     OW51665   0.507   0.577   0.871 -0.1097 -0.1466 -0.0436
13579SOL    HW151666   0.601   0.546   0.883 -0.2333  0.0234  1.5136
13579SOL    HW251667   0.445   0.513   0.918 -0.7933 -0.3312 -1.1663
13580SOL     OW51668   1.365   1.235   0.176  0.3516 -0.1076 -0.4755
13580SOL    HW151669   1.326   1.326   0.186  1.2581  0.3249 -0.7495
13580SOL    HW251670   1.412   1.228   0.088  0.6613 -0.6930 -0.2709
13581SOL     OW51671   0.284   6.290   2.821 -0.4534  0.2480 -0.2881
13581SOL    HW151672   0.363   6.234   2.844 -1.0274 -0.2597  0.4730
13581SOL    HW251673   0.226   6.242   2.755 -0.9376 -0.0475  0.3530
13582SOL     OW51674   1.306   1.503   3.912 -0.1583 -0.6486  0.9379
13582SOL    HW151675   1.379   1.493   3.980  0.2120 -2.1394  0.3478
13582SOL    HW251676   1.249   1.421   3.912 -1.3572  0.1753  0.8305
13583SOL     OW51677   4.605   9.827   4.072 -0.4127  0.0186 -0.5381
13583SOL    HW151678   4.615   9.727   4.066  2.2180  0.1272  1.0946
13583SOL    HW251679   4.579   9.852   4.166  1.9629  1.0208 -0.0991
13584SOL     OW51680   0.509   9.727   3.445 -0.3046 -0.0605 -0.2013
13584SOL    HW151681   0.482   9.813   3.488 -0.5884 -0.1806 -0.1368
13584SOL    HW251682   0.439   9.699   3.379 -0.0866 -0.1059 -0.4137
13585SOL     OW51683   4.916   2.241   1.475  0.1773  0.1266  0.5770
13585SOL    HW151684   4.853   2.171   1.509 -0.8673 -0.2633 -2.0097
13585SOL    HW251685   5.006   2.200   1.461 -0.4541 -0.7943 -1.0261
13586SOL     OW51686   0.535   2.078   2.734 -0.7209 -0.4474  0.5843
13586SOL    HW151687   0.456   2.084   2.795 -1.7216  0.2121 -0.7521
13586SOL    HW251688   0.513   2.020   2.656 -0.9146  2.0806 -1.2948
13587SOL     OW51689   1.620   9.628   1.177  0.4585 -0.6481 -0.2631
13587SOL    HW151690   1.647   9.673   1.262 -1.3613  0.6071 -0.3129
13587SOL    HW251691   1.618   9.695   1.103 -0.1514 -1.2539 -0.8050
13588SOL     OW51692   1.947   5.931   3.859 -0.3128  0.1487  0.0407
13588SOL    HW151693   1.924   6.018   3.816  0.2693  0.3693  0.1625
13588SOL    HW251694   2.019   5.886   3.806 -0.2762 -0.0332  0.2446
13589SOL     OW51695   8.126   6.466   1.334 -0.6253  0.3501 -0.0152
13589SOL    HW151696   8.133   6.427   1.242  1.8012 -0.6493  0.5709
13589SOL    HW251697   8.218   6.477   1.372 -1.6438  0.4306  2.4452
13590SOL     OW51698   5.179   9.907   4.716  0.2153 -0.1078 -0.0924
13590SOL    HW151699   5.257   9.968   4.706  1.2669 -1.3908  0.1466
13590SOL    HW251700   5.094   9.960   4.716  1.1305  1.3649  0.5237
13591SOL     OW51701   1.794   8.872   1.469  0.5722 -0.6954 -0.9680
13591SOL    HW151702   1.708   8.872   1.419  0.6096 -0.9409 -1.0324
13591SOL    HW251703   1.821   8.778   1.491 -1.1468 -0.4813  2.4423
13592SOL     OW51704   4.521   9.609   2.842 -0.4834 -0.2765 -0.3179
13592SOL    HW151705   4.552   9.640   2.753 -0.3312 -1.1328 -0.5700
13592SOL    HW251706   4.583   9.538   2.876 -0.4260  0.1724  0.5569
13593SOL     OW51707   1.794   7.882   3.324  0.0634  0.2214 -0.0919
13593SOL    HW151708   1.737   7.803   3.301 -0.3393 -0.1701  2.1863
13593SOL    HW251709   1.788   7.949   3.249 -0.5569 -1.3401 -1.4848
13594SOL     OW51710   3.448   4.511   5.208  0.4053  0.3723 -0.6906
13594SOL    HW151711   3.480   4.573   5.280  5.4023  0.5752 -2.8482
13594SOL    HW251712   3.389   4.561   5.145 -0.6336  1.2534  0.9285
13595SOL     OW51713   8.391   9.963   2.892 -0.3038  0.0872  0.8362
13595SOL    HW151714   8.417   9.999   2.982 -0.0683  1.2847  0.3031
13595SOL    HW251715   8.297   9.990   2.871  0.4268  1.8597 -0.2818
13596SOL     OW51716   2.801   2.676   5.258 -0.1775 -0.0449  0.1788
13596SOL    HW151717   2.763   2.585   5.239 -1.4443  0.2744  1.1075
13596SOL    HW251718   2.790   2.697   5.355 -1.9630  2.0110 -0.4372
13597SOL     OW51719   8.359   1.915   0.675 -0.0390  0.0993 -0.0157
13597SOL    HW151720   8.448   1.907   0.721 -0.1393 -0.2628  0.1168
13597SOL    HW251721   8.325   2.008   0.687  1.8188  1.2033 -2.8388
13598SOL     OW51722   2.528   9.095   3.417  0.2158 -0.3676  0.7034
13598SOL    HW151723   2.590   9.081   3.494  0.4110 -1.6440  0.3388
13598SOL    HW251724   2.539   9.019   3.353 -0.5089  0.2836 -0.1921
13599SOL     OW51725   7.909   5.796   1.395 -0.0617  0.0974  0.3189
13599SOL    HW151726   7.941   5.826   1.306 -2.3116  1.5242 -0.0446
13599SOL    HW251727   7.903   5.696   1.396 -0.1766  0.0822 -1.1697
13600SOL     OW51728   4.517   7.370   2.158  0.0241 -0.4162 -0.1955
13600SOL    HW151729   4.549   7.276   2.171  1.0994 -0.3215 -1.9719
13600SOL    HW251730   4.587   7.433   2.191 -1.1954 -0.2013  2.1113
13601SOL     OW51731   1.503   6.033   0.690  0.4884  0.4406  0.3526
13601SOL    HW151732   1.538   5.955   0.638  0.4606 -0.2560  1.3750
13601SOL    HW251733   1.403   6.027   0.695  0.4899  0.5242  0.4666
13602SOL     OW51734   4.476   0.692   0.252 -0.0970  0.0696  0.4883
13602SOL    HW151735   4.539   0.615   0.265 -0.8863 -0.2309  2.6367
13602SOL    HW251736   4.424   0.708   0.336 -1.9782  1.1317 -0.8314
13603SOL     OW51737   4.362   0.152   3.952 -0.2600 -0.3811  0.5935
13603SOL    HW151738   4.337   0.060   3.921  1.3288 -0.5031 -0.3421
13603SOL    HW251739   4.458   0.153   3.980 -1.0247  0.2897  3.4066
13604SOL     OW51740   8.471   9.234   3.509 -0.0594 -0.3097 -0.0046
13604SOL    HW151741   8.501   9.312   3.562 -0.3813 -0.6008  0.6079
13604SOL    HW251742   8.380   9.205   3.540 -0.4491 -0.1972 -1.0149
13605SOL     OW51743   8.887   9.915   1.598 -0.2423  0.2675 -0.5622
13605SOL    HW151744   8.937   9.928   1.684 -0.3903 -2.0313 -0.1097
13605SOL    HW251745   8.912   9.988   1.534  2.4486  0.0978  0.2360
13606SOL     OW51746   4.840   2.365   0.953  0.0768  0.1652 -0.3760
13606SOL    HW151747   4.805   2.451   0.915 -0.2982  0.4176  0.5204
13606SOL    HW251748   4.811   2.289   0.895  0.2109  0.6261 -1.0471
13607SOL     OW51749   9.884   1.208   2.238  0.4828  0.4021 -0.7538
13607SOL    HW151750   9.905   1.228   2.333  1.3993  0.1162 -0.8944
13607SOL    HW251751   9.923   1.278   2.179  2.5095 -0.9942 -1.1381
13608SOL     OW51752   0.109   5.350   2.378 -0.0379 -0.0167  0.0254
13608SOL    HW151753   0.127   5.378   2.473 -1.1905 -1.4910  0.6995
13608SOL    HW251754   0.195   5.346   2.328  0.7751 -0.8442  1.4693
13609SOL     OW51755   9.973   9.953   0.083  0.4744 -0.8677 -0.0629
13609SOL    HW151756   9.996   9.975  -0.012 -0.0425  0.0618  0.0264
13609SOL    HW251757   9.928  10.031   0.126 -2.3143 -2.4139 -0.0430
13610SOL     OW51758   5.290   1.590   3.663 -0.4571 -0.2545 -0.0477
13610SOL    HW151759   5.348   1.510   3.647  0.4436  0.8385 -2.3929
13610SOL    HW251760   5.201   1.576   3.619 -0.9265 -0.6812  1.0227
13611SOL     OW51761   3.869   9.358   3.553 -0.2158 -0.7125  0.0177
13611SOL    HW151762   3.810   9.358   3.472 -0.2263  0.5056  0.0162
13611SOL    HW251763   3.845   9.435   3.611  0.8886 -0.6341  0.3794
13612SOL     OW51764   1.530   1.819   4.412  0.4410  0.5096 -0.7770
13612SOL    HW151765   1.474   1.858   4.339  2.6988  5.4433 -0.0618
13612SOL    HW251766   1.626   1.830   4.390  1.1640 -1.1016  1.3991
13613SOL     OW51767   9.821   9.993   2.963 -0.3915 -0.8415  0.4941
13613SOL    HW151768   9.781  10.056   2.897 -0.7908 -1.7743 -0.1586
13613SOL    HW251769   9.850  10.044   3.044  0.6678  0.3968 -0.6417
13614SOL     OW51770   9.140   7.543   0.548 -0.4231 -0.0523  0.1907
13614SOL    HW151771   9.054   7.559   0.498 -1.1359  0.3857  1.5253
13614SOL    HW251772   9.215   7.586   0.498 -1.3094  1.4578  0.0983
13615SOL     OW51773   1.400   5.750   0.893 -0.1222 -0.2857 -0.5359
13615SOL    HW151774   1.361   5.815   0.958  0.9608  0.7577 -0.9174
13615SOL    HW251775   1.404   5.659   0.935  2.0905  0.7065  1.4611
13616SOL     OW51776   8.819   5.990   2.325  0.2928 -0.2430 -0.5295
13616SOL    HW151777   8.822   6.007   2.424 -1.0440 -1.7438 -0.2106
13616SOL    HW251778   8.728   6.011   2.291  0.3093 -1.1957 -1.1634
13617SOL     OW51779   5.733   3.733   0.388 -0.0846  0.7169  0.1298
13617SOL    HW151780   5.805   3.781   0.338 -0.7269  0.9615 -0.5707
13617SOL    HW251781   5.644   3.773   0.366 -0.3238  1.1788  1.8985
13618SOL     OW51782   2.175   3.228   3.527 -0.1142  0.3655  0.2279
13618SOL    HW151783   2.095   3.263   3.576 -0.6925 -2.8692  1.6874
13618SOL    HW251784   2.208   3.299   3.464 -3.2310  2.2810  0.6032
13619SOL     OW51785   9.445   7.878   4.733 -0.1749 -0.4482 -0.4767
13619SOL    HW151786   9.520   7.815   4.752 -0.5353 -1.3395 -1.8713
13619SOL    HW251787   9.481   7.962   4.692  0.1884 -0.2582  0.2257
13620SOL     OW51788   3.995   9.230   0.874  0.1128 -0.2245 -0.0316
13620SOL    HW151789   3.993   9.244   0.973  0.2659 -0.1224 -0.0423
13620SOL    HW251790   4.070   9.168   0.851  1.3784  1.3576 -0.2764
13621SOL     OW51791   5.775   9.971   3.414 -0.7814  0.2596 -0.3992
13621SOL    HW151792   5.686  10.017   3.417 -0.7128  0.4557 -1.2670
13621SOL    HW251793   5.844  10.027   3.460 -0.5128  1.4569 -2.1927
13622SOL     OW51794   2.017   1.351   4.292 -0.1907 -0.2360 -0.2421
13622SOL    HW151795   1.951   1.417   4.256  0.4815  0.2634 -0.5734
13622SOL    HW251796   2.108   1.371   4.255  0.6499  0.6860  2.1765
13623SOL     OW51797   0.869   1.231   1.407  0.7217  0.2977  0.3899
13623SOL    HW151798   0.774   1.211   1.386  0.2825  2.3009  0.4198
13623SOL    HW251799   0.875   1.273   1.498  1.8131 -1.2516  1.0743
13624SOL     OW51800   1.241   1.377   2.892 -0.8716  0.0134  0.2844
13624SOL    HW151801   1.289   1.463   2.906  2.3222 -1.8038  0.9375
13624SOL    HW251802   1.270   1.310   2.961 -1.2273 -2.4203 -1.8171
13625SOL     OW51803   5.046   1.519   2.371 -0.9049  0.0877 -0.2597
13625SOL    HW151804   4.971   1.472   2.418 -0.5880  0.1667  0.3365
13625SOL    HW251805   5.066   1.605   2.419  0.1232 -0.3391  0.0826
13626SOL     OW51806   8.354   5.100   0.665 -0.5839  0.5443  0.1290
13626SOL    HW151807   8.382   5.079   0.759 -1.0433 -2.6621 -0.3799
13626SOL    HW251808   8.434   5.092   0.604 -0.8488 -0.1835 -0.1309
13627SOL     OW51809   8.445   4.972   3.621  0.4197 -0.3134  0.0482
13627SOL    HW151810   8.362   4.998   3.572 -0.4252 -0.2868  1.4497
13627SOL    HW251811   8.494   4.902   3.570 -2.0397 -2.5372  0.5926
13628SOL     OW51812   1.224   8.602   5.453 -0.0095 -0.0764 -0.3685
13628SOL    HW151813   1.251   8.660   5.530  1.5545  1.3877 -1.9914
13628SOL    HW251814   1.157   8.650   5.397  0.2628 -0.3937 -0.9616
13629SOL     OW51815   1.249   2.771   2.687 -0.1968 -1.0638  0.7102
13629SOL    HW151816   1.268   2.853   2.741  0.5059 -1.5585  1.2111
13629SOL    HW251817   1.165   2.728   2.721 -1.1561  0.0214 -0.2335
13630SOL     OW51818   0.733   0.244   2.977  0.6520 -0.2002  0.2268
13630SOL    HW151819   0.833   0.249   2.972  0.6482 -1.4829 -2.0587
13630SOL    HW251820   0.696   0.226   2.886 -1.5228 -1.9312  1.3855
13631SOL     OW51821   3.205   8.937   2.917  0.1158 -0.4239  0.0504
13631SOL    HW151822   3.107   8.953   2.917 -0.0639 -1.2773 -2.6110
13631SOL    HW251823   3.230   8.879   2.995 -1.7147 -1.4652 -0.1271
13632SOL     OW51824   0.210   3.894   5.161 -0.0162  0.3244  0.6638
13632SOL    HW151825   0.234   3.881   5.065 -0.7454 -1.6683  0.7331
13632SOL    HW251826   0.279   3.952   5.205  2.0660 -1.3679 -0.2816
13633SOL     OW51827   5.410   0.852   2.181  0.1107  0.2808  0.0288
13633SOL    HW151828   5.403   0.752   2.186 -1.9711  0.4063  0.1756
13633SOL    HW251829   5.463   0.886   2.258 -2.5837 -0.4261  2.2387
13634SOL     OW51830   3.198   1.231   4.123  0.3102  0.3212 -0.2140
13634SOL    HW151831   3.116   1.218   4.179  0.8808 -0.9305  0.3618
13634SOL    HW251832   3.179   1.205   4.029 -0.3264  1.3202 -0.3672
13635SOL     OW51833   8.037   3.892   5.015 -0.2560  0.3772  0.2477
13635SOL    HW151834   8.099   3.930   5.084 -0.7256  1.0468  0.3003
13635SOL    HW251835   7.999   3.806   5.048  1.6112 -0.6923 -0.2954
13636SOL     OW51836   8.239   7.030   4.659 -0.3352 -0.3102  0.5376
13636SOL    HW151837   8.298   7.108   4.678  2.0465 -1.9812  0.1964
13636SOL    HW251838   8.203   7.037   4.566  1.7648 -0.7627 -0.3396
13637SOL     OW51839   3.270   1.142   0.308  0.1704 -0.3966 -0.7366
13637SOL    HW151840   3.275   1.054   0.261  1.3396 -0.8826  0.2672
13637SOL    HW251841   3.342   1.203   0.274  0.8108 -0.6352  0.1695
13638SOL     OW51842   2.965   1.801   2.420 -0.1840 -0.1804 -0.5432
13638SOL    HW151843   3.001   1.718   2.377 -1.5237 -1.3590  0.5429
13638SOL    HW251844   2.955   1.785   2.518 -1.2208  0.9956 -0.4510
13639SOL     OW51845   2.261   9.083   1.450  0.1979  0.2353  0.1030
13639SOL    HW151846   2.279   9.144   1.372  2.1588 -0.6369 -0.1603
13639SOL    HW251847   2.189   9.018   1.426 -1.5006  2.0588  0.1818
13640SOL     OW51848   9.294   9.582   0.234  0.0575  0.4491 -0.0786
13640SOL    HW151849   9.369   9.538   0.185 -0.7155 -1.0254  0.0365
13640SOL    HW251850   9.222   9.515   0.252 -0.8579  1.6168  0.6751
13641SOL     OW51851   5.315   9.295   2.403  0.5004 -0.2785  0.6358
13641SOL    HW151852   5.273   9.296   2.312  2.8322 -0.3618 -0.4863
13641SOL    HW251853   5.317   9.388   2.439  0.5609 -0.0790  0.1283
13642SOL     OW51854   9.292   2.514   4.088 -0.2065 -0.2034  0.6836
13642SOL    HW151855   9.220   2.561   4.139 -0.1275 -0.6754  1.2273
13642SOL    HW251856   9.368   2.493   4.149 -0.2935 -1.1513  0.4624
13643SOL     OW51857   0.505   5.657   1.405 -0.1122  0.3810  0.0727
13643SOL    HW151858   0.571   5.733   1.412  0.5079 -0.0781 -0.7451
13643SOL    HW251859   0.516   5.597   1.484  0.6300  0.1768 -0.1770
13644SOL     OW51860   8.929   8.256   0.254 -0.2654  0.2587 -0.1556
13644SOL    HW151861   8.841   8.210   0.258 -0.0359 -0.3250 -1.5242
13644SOL    HW251862   8.990   8.206   0.193  0.3156  1.8342 -0.8890
13645SOL     OW51863   2.408   3.305   0.597 -0.3016  0.3340 -1.1280
13645SOL    HW151864   2.360   3.299   0.685 -2.4157  1.2847 -2.1801
13645SOL    HW251865   2.404   3.217   0.551 -2.1263  0.7027 -1.7283
13646SOL     OW51866   1.971   9.554   4.669 -0.5448 -0.1416 -0.0658
13646SOL    HW151867   2.070   9.541   4.659 -0.8083 -2.0393 -0.3536
13646SOL    HW251868   1.953   9.608   4.751  0.6668 -0.8803  0.7032
13647SOL     OW51869   4.512   3.934   1.974  0.1284 -0.4137 -0.1142
13647SOL    HW151870   4.513   3.993   1.893  0.5144  1.6987  1.3977
13647SOL    HW251871   4.418   3.905   1.992 -0.0687 -0.2478 -0.8640
13648SOL     OW51872   0.599   6.448   1.910 -0.0513  0.0821  0.1941
13648SOL    HW151873   0.596   6.518   1.982 -0.9734 -1.3631  1.5933
13648SOL    HW251874   0.564   6.486   1.825  2.2207  2.2025  0.1375
13649SOL     OW51875   8.197   4.287   2.003 -0.1794  0.1910 -0.1625
13649SOL    HW151876   8.116   4.294   1.945  0.6958  0.3226 -1.4067
13649SOL    HW251877   8.250   4.207   1.975  1.2406  1.3468 -0.8302
13650SOL     OW51878   3.106   5.391   3.467  0.1406  0.3227  0.1444
13650SOL    HW151879   3.017   5.408   3.426 -0.5398 -1.4859  0.8367
13650SOL    HW251880   3.101   5.409   3.565  0.1020 -1.2683  0.4479
13651SOL     OW51881   3.292   0.057   5.217 -0.0150  0.3520 -0.1635
13651SOL    HW151882   3.293  -0.026   5.273  0.9947  1.1849  1.0708
13651SOL    HW251883   3.207   0.060   5.164 -0.8774 -0.5699  1.1434
13652SOL     OW51884   8.174   6.669   1.576 -0.2212  0.4465  0.3429
13652SOL    HW151885   8.115   6.698   1.501  0.1725  1.7638  0.5313
13652SOL    HW251886   8.159   6.572   1.595 -1.0773  0.3627 -0.7395
13653SOL     OW51887   4.291   8.766   3.947 -0.0594  0.3939 -0.3720
13653SOL    HW151888   4.274   8.842   4.009  0.9619  0.7867 -0.5643
13653SOL    HW251889   4.237   8.778   3.864 -1.0481  0.1225  0.2191
13654SOL     OW51890   0.960   4.131   0.325  0.3779 -0.1479  0.4466
13654SOL    HW151891   0.981   4.034   0.310  0.7160 -0.7087  4.0921
13654SOL    HW251892   0.861   4.144   0.323  0.1634 -1.1507  2.7696
13655SOL     OW51893   0.343   5.820   0.861 -0.2375 -0.3471  0.5429
13655SOL    HW151894   0.352   5.899   0.801 -0.5088 -0.4341  0.3864
13655SOL    HW251895   0.356   5.736   0.807 -0.4910 -0.4258  0.6066
13656SOL     OW51896   0.513   1.735   5.603  0.3635  0.5445 -0.1170
13656SOL    HW151897   0.447   1.681   5.551  1.1672  0.1613 -0.7470
13656SOL    HW251898   0.496   1.832   5.588 -0.1129  0.4476 -0.2061
13657SOL     OW51899   4.965   5.609   0.603  0.2041 -0.0169 -0.3728
13657SOL    HW151900   4.909   5.529   0.627  0.1746 -0.0960 -0.7010
13657SOL    HW251901   4.918   5.662   0.533  1.0143 -0.6551 -1.4179
13658SOL     OW51902   8.082   9.619   3.147 -0.7146  0.1513  0.1271
13658SOL    HW151903   8.106   9.571   3.232 -0.8678 -0.5468 -0.2194
13658SOL    HW251904   7.983   9.619   3.136 -0.7542  1.2113  0.5063
13659SOL     OW51905   8.518   2.445   0.252  0.8356 -0.8520  0.9657
13659SOL    HW151906   8.424   2.477   0.234 -0.3738 -2.6678  3.7063
13659SOL    HW251907   8.567   2.436   0.165 -1.7686 -0.6116 -0.5891
13660SOL     OW51908   0.195   8.258   5.446  0.0076 -0.1916  0.4312
13660SOL    HW151909   0.219   8.182   5.386 -0.4955  1.1224 -1.4768
13660SOL    HW251910   0.146   8.328   5.394  0.1646  1.2905  2.2176
13661SOL     OW51911   1.239   6.351   4.393 -0.1400  0.3179 -0.1753
13661SOL    HW151912   1.318   6.411   4.406  0.8832 -0.2694 -3.1894
13661SOL    HW251913   1.231   6.327   4.296 -0.7261 -4.1453  0.8506
13662SOL     OW51914   5.582   9.307   1.462  0.5685 -0.1998 -0.3540
13662SOL    HW151915   5.544   9.300   1.554 -0.6624 -0.5326 -0.8674
13662SOL    HW251916   5.636   9.390   1.454  1.1371 -0.4529  0.8334
13663SOL     OW51917   8.666   5.617   4.079 -0.4224 -0.2167  0.5238
13663SOL    HW151918   8.660   5.588   4.174  1.2152 -2.2829  0.0101
13663SOL    HW251919   8.594   5.572   4.026 -0.8719  0.3758  0.6162
13664SOL     OW51920   0.684   7.325   0.394 -0.0800  0.6283 -0.3176
13664SOL    HW151921   0.614   7.377   0.344 -0.9335  0.5056  0.7283
13664SOL    HW251922   0.734   7.387   0.453  0.0623  0.5507 -0.3580
13665SOL     OW51923   3.617   3.669   2.777  0.0212 -0.5397 -0.0612
13665SOL    HW151924   3.637   3.758   2.818  2.7095 -0.7903 -0.7739
13665SOL    HW251925   3.616   3.599   2.849  0.0323 -0.2808  0.1915
13666SOL     OW51926   2.030   3.379   3.212  0.9972  0.1164 -0.4747
13666SOL    HW151927   2.103   3.439   3.244  0.8483 -0.2741  0.6365
13666SOL    HW251928   1.949   3.392   3.270  0.6586 -0.4770 -0.8089
13667SOL     OW51929   5.994   0.209   3.979 -0.1231  0.4120 -0.8648
13667SOL    HW151930   5.904   0.250   3.988  0.2312  1.0986 -0.3554
13667SOL    HW251931   6.064   0.280   3.982  0.5159 -0.2399  0.3166
13668SOL     OW51932   3.894   4.596   2.132  0.3554  0.3667 -0.0980
13668SOL    HW151933   3.850   4.669   2.080  0.8416  0.4013 -0.4562
13668SOL    HW251934   3.892   4.511   2.079  0.9976  0.4421 -0.2471
13669SOL     OW51935   2.808   3.378   1.774  0.1566 -0.3615  0.5297
13669SOL    HW151936   2.742   3.344   1.841 -1.5152 -1.2345 -1.5163
13669SOL    HW251937   2.852   3.460   1.810 -0.2824 -1.1433  2.9309
13670SOL     OW51938   2.883   0.005   3.756 -0.4073  0.2105 -0.2348
13670SOL    HW151939   2.884  -0.076   3.697 -2.0203 -0.8711  1.1667
13670SOL    HW251940   2.874  -0.023   3.851  2.2667  1.9375  0.5864
13671SOL     OW51941   0.262   6.521   1.864  0.2474  0.0644 -0.7911
13671SOL    HW151942   0.331   6.517   1.792  1.4480  0.1184  0.3337
13671SOL    HW251943   0.171   6.521   1.823  0.8981 -0.6356 -2.2704
13672SOL     OW51944   3.129   5.437   2.769 -0.5453 -0.1922 -0.0140
13672SOL    HW151945   3.136   5.528   2.810 -1.3303 -0.9562  1.9272
13672SOL    HW251946   3.033   5.420   2.744 -0.1847 -0.0096 -1.5408
13673SOL     OW51947   8.538   4.850   4.795  0.0831 -0.0723  0.4466
13673SOL    HW151948   8.567   4.846   4.891 -2.3443 -2.1857  1.1715
13673SOL    HW251949   8.619   4.853   4.736  1.7178 -1.8607  2.4756
13674SOL     OW51950   9.046   9.404   3.522 -0.2030  0.0233 -0.5430
13674SOL    HW151951   9.065   9.308   3.499  0.8157  0.3958 -1.2833
13674SOL    HW251952   8.963   9.433   3.476 -0.5324 -0.5102 -0.2964
13675SOL     OW51953   2.161   5.254   3.294 -0.1480  0.5943 -0.3580
13675SOL    HW151954   2.189   5.351   3.290 -0.2704  0.6260 -0.4503
13675SOL    HW251955   2.074   5.246   3.342 -0.9481  0.7155 -1.7489
13676SOL     OW51956   1.349   0.877   3.662 -0.6427  0.4088 -0.1602
13676SOL    HW151957   1.428   0.934   3.688  0.5170 -1.0867 -0.3154
13676SOL    HW251958   1.310   0.912   3.577  0.5476  0.5173 -0.6752
13677SOL     OW51959   5.386   8.034   4.240 -0.2025  0.6440 -0.6427
13677SOL    HW151960   5.419   8.091   4.315  0.4561  1.0747 -1.2638
13677SOL    HW251961   5.289   8.014   4.254  0.2806 -0.5703  1.1523
13678SOL     OW51962   3.352   2.163   0.341 -0.0651  0.5252  0.0993
13678SOL    HW151963   3.316   2.079   0.383 -0.8516  0.9990  0.3772
13678SOL    HW251964   3.423   2.139   0.275 -0.6151 -0.3992 -0.1689
13679SOL     OW51965   1.991   0.619   3.591 -0.3969 -0.2472 -0.3569
13679SOL    HW151966   2.027   0.568   3.669  1.4363  1.3028 -0.1439
13679SOL    HW251967   2.010   0.569   3.506 -1.5682 -1.4913  0.1141
13680SOL     OW51968   0.190   2.876   3.279  0.1004  0.2860 -0.0343
13680SOL    HW151969   0.181   2.938   3.201  1.6557 -0.2078 -0.6341
13680SOL    HW251970   0.223   2.787   3.247 -0.3532 -0.2733  1.0427
13681SOL     OW51971   0.178   1.503   0.768  0.2939  0.1349  0.0354
13681SOL    HW151972   0.251   1.504   0.700  0.8381  1.1116  0.6315
13681SOL    HW251973   0.121   1.585   0.758 -0.6986 -0.5950 -0.3992
13682SOL     OW51974   7.849   6.708   0.347  0.1576 -0.3095  0.0462
13682SOL    HW151975   7.947   6.728   0.347 -0.1500  1.3432  0.5445
13682SOL    HW251976   7.804   6.761   0.275 -0.4777 -0.3854  0.3798
13683SOL     OW51977   4.493   3.737   4.927 -0.2212  0.8587 -0.2217
13683SOL    HW151978   4.556   3.805   4.889  0.5192 -0.0105 -0.5697
13683SOL    HW251979   4.502   3.734   5.026  0.1716  0.8572 -0.2581
13684SOL     OW51980   5.037   7.917   2.433  0.9688 -0.1947 -0.5315
13684SOL    HW151981   4.974   7.933   2.357  0.2083 -1.7128 -0.2266
13684SOL    HW251982   5.082   7.829   2.421  0.3704 -0.7271  1.1193
13685SOL     OW51983   1.684   3.078   1.185 -0.4603 -0.4757  0.8926
13685SOL    HW151984   1.664   3.173   1.160 -0.0305 -0.5863  0.1271
13685SOL    HW251985   1.770   3.075   1.236  0.7524 -0.7198 -1.1157
13686SOL     OW51986   7.894   8.685   1.684  0.2254  0.3910 -0.7605
13686SOL    HW151987   7.846   8.750   1.625  1.0576  1.3382 -0.4001
13686SOL    HW251988   7.957   8.734   1.743  0.5513 -0.7130 -0.1829
13687SOL     OW51989   3.044   1.207   0.744  0.2842 -0.0212 -0.4847
13687SOL    HW151990   3.128   1.239   0.701  0.0927  1.8690  0.4889
13687SOL    HW251991   3.046   1.228   0.842 -0.3708 -1.9946 -0.0144
13688SOL     OW51992   7.621   8.967   0.873  0.0940 -0.2196 -0.3025
13688SOL    HW151993   7.587   9.028   0.944 -0.4240 -0.5735 -0.2436
13688SOL    HW251994   7.644   8.878   0.913  1.1695  0.0365 -0.3277
13689SOL     OW51995   2.431   1.659   3.688 -0.0121  0.4189 -0.3311
13689SOL    HW151996   2.355   1.718   3.715 -0.1797 -0.6544  1.7047
13689SOL    HW251997   2.516   1.694   3.728  0.0427 -0.1476  0.0556
13690SOL     OW51998   3.375   0.179   1.004 -0.0302 -0.0764  0.2216
13690SOL    HW151999   3.303   0.224   1.055 -0.6156 -0.0651 -0.6008
13690SOL    HW252000   3.462   0.189   1.052 -0.2877  1.2781  0.4105
13691SOL     OW52001   7.971   9.106   1.571  0.0695 -0.1649 -0.1689
13691SOL    HW152002   7.876   9.117   1.544 -0.3876  0.1058  1.4819
13691SOL    HW252003   8.011   9.196   1.591 -0.7046 -0.5606  3.5538
13692SOL     OW52004   8.368   6.598   2.702  0.5361 -0.2709  0.1037
13692SOL    HW152005   8.306   6.527   2.670 -0.8308  1.2429 -0.6955
13692SOL    HW252006   8.357   6.611   2.801  0.9317 -1.2879  0.2825
13693SOL     OW52007   7.850   0.782   1.908  0.2843  0.3474  0.4184
13693SOL    HW152008   7.829   0.689   1.936  1.2566 -0.4490 -1.3516
13693SOL    HW252009   7.768   0.838   1.911 -0.4325 -0.7311  0.9431
13694SOL     OW52010   2.447   4.349   4.038 -0.0703  0.3156 -0.0942
13694SOL    HW152011   2.460   4.424   4.103  0.6595 -0.5398  0.7606
13694SOL    HW252012   2.367   4.368   3.981  1.8786  3.2415 -1.9853
13695SOL     OW52013   1.454   7.666   5.068  0.4207  0.1957  0.0732
13695SOL    HW152014   1.527   7.647   5.003  0.1199 -2.3836  0.4680
13695SOL    HW252015   1.492   7.674   5.160  0.4265  0.6764  0.0325
13696SOL     OW52016   1.472   7.305   3.354 -0.7039  0.1187 -0.0951
13696SOL    HW152017   1.397   7.361   3.320  0.2209  0.9889 -0.7605
13696SOL    HW252018   1.510   7.347   3.436  0.2615  0.7106 -0.8322
13697SOL     OW52019   1.178   4.214   3.643 -0.1661 -0.1769  0.1334
13697SOL    HW152020   1.193   4.207   3.544 -0.2013  1.2818  0.0169
13697SOL    HW252021   1.173   4.122   3.682 -0.6238 -0.7776 -1.2903
13698SOL     OW52022   3.662   3.891   3.820  0.3796 -0.7533  0.2756
13698SOL    HW152023   3.608   3.933   3.747  1.4007 -0.6288 -0.4284
13698SOL    HW252024   3.676   3.956   3.894  0.2332 -0.5346  0.1095
13699SOL     OW52025   9.981   8.822   0.672 -0.1473  0.2583 -0.2278
13699SOL    HW152026   9.885   8.819   0.644 -0.1662 -1.4076 -0.0629
13699SOL    HW252027   9.987   8.861   0.764 -0.5783  1.1257 -0.5608
13700SOL     OW52028   4.071   7.636   3.832  0.0827  0.1691  0.9274
13700SOL    HW152029   4.142   7.571   3.861 -1.3399 -1.0742  1.7358
13700SOL    HW252030   4.009   7.653   3.908 -1.4740 -0.1091 -0.2408
13701SOL     OW52031   2.971   3.544   2.155  0.4845 -0.1815 -0.1216
13701SOL    HW152032   2.897   3.519   2.092  1.0805 -0.9590 -0.5309
13701SOL    HW252033   3.000   3.463   2.205 -0.2569  0.5205  1.4526
13702SOL     OW52034   8.832   8.395   2.535  0.0082 -0.0265 -0.1071
13702SOL    HW152035   8.735   8.374   2.553  0.7030 -2.1599  1.3742
13702SOL    HW252036   8.853   8.486   2.569 -1.1225 -0.1521  0.9777
13703SOL     OW52037   0.920   7.719   5.435 -0.1594 -0.0075  0.5705
13703SOL    HW152038   0.942   7.623   5.418  0.1476 -0.0849  1.3630
13703SOL    HW252039   0.995   7.777   5.404  0.1489 -0.1067  1.1267
13704SOL     OW52040   6.781   0.934   2.611 -0.0051 -0.5744 -0.3187
13704SOL    HW152041   6.684   0.949   2.597 -0.2419 -1.7790 -0.0607
13704SOL    HW252042   6.825   1.020   2.637 -0.7900  0.2138 -1.5398
13705SOL     OW52043   7.514   8.982   2.739 -0.0703  0.1994  0.7691
13705SOL    HW152044   7.586   9.013   2.676  1.2577  0.3927  2.3546
13705SOL    HW252045   7.455   9.059   2.763 -0.0584  0.3110  0.4468
13706SOL     OW52046   0.914   2.145   0.909  0.6217  0.0266  0.0625
13706SOL    HW152047   0.990   2.134   0.845  1.4896  2.3351  0.6631
13706SOL    HW252048   0.945   2.194   0.990 -1.2917  0.1667  0.7366
13707SOL     OW52049   2.377   2.273   5.104  0.6453 -0.0660 -0.3295
13707SOL    HW152050   2.360   2.175   5.120 -2.3890  0.2661 -1.2248
13707SOL    HW252051   2.341   2.325   5.181  0.1206  0.4909 -0.9460
13708SOL     OW52052   3.898   3.498   0.746  0.3565 -0.3062 -0.2457
13708SOL    HW152053   3.997   3.495   0.731  0.3366 -0.5567 -0.3198
13708SOL    HW252054   3.851   3.456   0.668  0.1317  1.1012 -0.8858
13709SOL     OW52055   4.097   4.548   4.243  0.4061  0.1508 -0.1626
13709SOL    HW152056   4.113   4.627   4.302  0.2790 -0.3272  0.5231
13709SOL    HW252057   4.183   4.519   4.202  0.5104  0.4457 -0.1556
13710SOL     OW52058   9.555   6.002   3.218 -0.1662  0.8389  0.0540
13710SOL    HW152059   9.549   5.914   3.170  0.1644  1.8598 -1.9204
13710SOL    HW252060   9.464   6.041   3.227 -0.2597  0.5206  0.5185
13711SOL     OW52061   2.025   1.202   1.436  0.2844 -0.0117  0.5222
13711SOL    HW152062   1.966   1.122   1.448  2.3814 -2.0579 -2.1172
13711SOL    HW252063   1.985   1.263   1.367  1.2370 -1.4176 -1.2987
13712SOL     OW52064   9.610   4.561   5.376  0.2429 -0.1456 -0.1750
13712SOL    HW152065   9.517   4.542   5.346  0.5594 -1.0345 -0.6076
13712SOL    HW252066   9.622   4.660   5.386 -0.6647 -0.0106 -0.3760
13713SOL     OW52067   0.421   7.627   3.539  0.2626  0.5278  0.0556
13713SOL    HW152068   0.352   7.696   3.517  0.7633  1.3608  1.0738
13713SOL    HW252069   0.456   7.643   3.631 -1.0236 -2.2662  1.0795
13714SOL     OW52070   3.030   2.201   3.455  0.0738 -0.1570 -0.5304
13714SOL    HW152071   3.098   2.135   3.488 -0.4948 -0.6675 -0.3669
13714SOL    HW252072   2.989   2.248   3.533  0.5717  0.4785 -0.6561
13715SOL     OW52073   0.730   3.504   0.297  0.2462 -0.2738  0.5122
13715SOL    HW152074   0.726   3.406   0.282 -0.2154 -0.4725  1.8038
13715SOL    HW252075   0.653   3.532   0.355  0.2589  0.8773 -0.0041
13716SOL     OW52076   8.636   6.610   0.082  0.2256 -0.0633  0.3649
13716SOL    HW152077   8.635   6.685   0.016  1.4537 -0.3795 -0.0259
13716SOL    HW252078   8.721   6.612   0.134  0.2823 -1.1870  0.3398
13717SOL     OW52079   1.912   9.571   1.793  0.9539  0.4689 -0.4222
13717SOL    HW152080   1.957   9.524   1.870  2.0644 -2.0194 -2.4981
13717SOL    HW252081   1.974   9.639   1.755  0.9367  0.7162 -0.0161
13718SOL     OW52082   3.007   7.914   2.078 -0.8017  0.2553  0.8434
13718SOL    HW152083   3.090   7.893   2.027 -2.1305 -1.1850 -0.8147
13718SOL    HW252084   2.957   7.987   2.031 -1.4799 -0.3045  0.6877
13719SOL     OW52085   3.249   5.028   5.294  0.2326  0.1578  0.1169
13719SOL    HW152086   3.331   4.970   5.286 -1.0109 -1.8126  1.1156
13719SOL    HW252087   3.227   5.067   5.205  0.7032 -1.5036 -0.7546
13720SOL     OW52088   4.470   3.108   0.604  0.0934  1.0056 -0.3065
13720SOL    HW152089   4.522   3.183   0.645 -0.9670  2.1246 -0.9557
13720SOL    HW252090   4.432   3.050   0.676 -0.6491  2.1922  0.2775
13721SOL     OW52091   0.859   5.206   0.325 -0.3817 -0.1644  0.0554
13721SOL    HW152092   0.764   5.229   0.305 -1.0714 -3.0740 -0.1233
13721SOL    HW252093   0.866   5.170   0.418  0.4243 -0.6672 -0.1975
13722SOL     OW52094   2.742   3.831   5.345  0.0548 -0.1409 -0.4754
13722SOL    HW152095   2.793   3.752   5.310 -1.0469 -0.5853 -1.1012
13722SOL    HW252096   2.750   3.907   5.280 -0.9046 -0.5396 -1.0700
13723SOL     OW52097   1.955   1.645   2.786 -0.6780 -0.1950 -0.0962
13723SOL    HW152098   1.989   1.701   2.862 -2.5560 -0.0892  0.6776
13723SOL    HW252099   2.010   1.562   2.779  0.8620  0.7950  0.0210
13724SOL     OW52100   2.844   5.241   0.951  0.3627  0.4790  0.0203
13724SOL    HW152101   2.821   5.153   0.909  0.3218  1.3280 -1.7898
13724SOL    HW252102   2.762   5.297   0.957  0.5871  0.7915  0.1799
13725SOL     OW52103   1.597   7.612   0.193 -0.0992  0.0703 -0.0781
13725SOL    HW152104   1.529   7.612   0.120  0.5128 -2.3353 -0.6911
13725SOL    HW252105   1.557   7.574   0.276 -0.3412  1.3679  0.4071
13726SOL     OW52106   1.619   8.350   2.111  0.1756 -0.1762 -0.2828
13726SOL    HW152107   1.666   8.424   2.064 -0.6328  0.2706 -0.3969
13726SOL    HW252108   1.635   8.356   2.209  0.0976  0.1584 -0.2919
13727SOL     OW52109   3.806   8.091   0.268  0.2817 -0.1592 -0.7371
13727SOL    HW152110   3.837   8.176   0.310  0.1689 -0.4322 -0.1011
13727SOL    HW252111   3.847   8.082   0.177  0.1929  0.6364 -0.8653
13728SOL     OW52112   7.475   9.831   4.711 -0.0043 -0.1371 -0.5253
13728SOL    HW152113   7.473   9.845   4.810 -0.6036  1.8727 -0.7926
13728SOL    HW252114   7.440   9.740   4.690  0.8897 -0.8899  1.1578
13729SOL     OW52115   1.125   9.762   1.194 -0.0306  0.1774 -0.3105
13729SOL    HW152116   1.033   9.732   1.168 -0.4886 -0.0364  1.4857
13729SOL    HW252117   1.127   9.862   1.201 -0.5058  0.1061  0.9796
13730SOL     OW52118   0.268   0.288   5.480 -0.1693  0.3600 -0.2115
13730SOL    HW152119   0.337   0.226   5.442 -0.2177 -0.3446  0.8236
13730SOL    HW252120   0.197   0.235   5.527  0.0826  1.2175  1.1756
13731SOL     OW52121   8.366   6.998   1.233 -0.3542  0.1537  0.3830
13731SOL    HW152122   8.329   6.957   1.316 -1.4952  0.8539  0.2290
13731SOL    HW252123   8.400   6.925   1.173  2.5431 -0.2324  2.3915
13732SOL     OW52124   4.259   7.861   2.706  0.5197  0.5815  0.0531
13732SOL    HW152125   4.207   7.923   2.765 -2.0773 -1.0908 -0.3684
13732SOL    HW252126   4.283   7.779   2.758 -1.0327 -0.5216 -0.9433
13733SOL     OW52127   2.464   5.361   4.870 -0.0689  0.6373  0.3524
13733SOL    HW152128   2.549   5.375   4.819  1.2510  1.3449  2.6715
13733SOL    HW252129   2.405   5.442   4.859 -1.8656 -1.1112 -3.7764
13734SOL     OW52130   2.103   9.051   3.151 -0.1271  0.8322  0.4242
13734SOL    HW152131   2.174   9.008   3.096 -0.0609  1.3719  0.0778
13734SOL    HW252132   2.029   8.986   3.167  0.3871  0.3042  0.6891
13735SOL     OW52133   3.182   3.168   1.752 -0.2764 -0.1161  1.0581
13735SOL    HW152134   3.222   3.077   1.762  0.0272  0.0324  1.1864
13735SOL    HW252135   3.091   3.160   1.712 -0.0094 -0.4291  0.5182
13736SOL     OW52136   0.620   6.156   0.654  0.3541  0.7423 -0.3443
13736SOL    HW152137   0.638   6.218   0.730  2.2053 -0.1940 -0.0103
13736SOL    HW252138   0.643   6.201   0.568  0.7433  0.8571 -0.1781
13737SOL     OW52139   3.342   6.609   4.773  0.0455  0.1276 -0.0894
13737SOL    HW152140   3.382   6.576   4.687 -0.8237 -0.1633 -0.3922
13737SOL    HW252141   3.348   6.536   4.842 -0.5658 -0.1656 -0.3364
13738SOL     OW52142   9.550   1.091   0.282  0.1802  0.3112 -0.3046
13738SOL    HW152143   9.547   1.191   0.277  1.2283  0.4167  0.7811
13738SOL    HW252144   9.584   1.064   0.372 -0.4302 -1.0358 -0.4714
13739SOL     OW52145   8.895   3.098   4.669  0.0323 -0.4557  0.2210
13739SOL    HW152146   8.828   3.071   4.739 -0.9077  0.5168 -0.2793
13739SOL    HW252147   8.867   3.186   4.629  1.1962 -0.4304 -0.5494
13740SOL     OW52148   7.504   9.332   3.968 -0.2785 -0.0578  0.1147
13740SOL    HW152149   7.528   9.416   4.017 -1.0584  0.0788  0.2662
13740SOL    HW252150   7.408   9.336   3.940 -0.4273 -1.0701  0.4760
13741SOL     OW52151   7.835   7.341   3.670  0.0987 -0.1448  0.7213
13741SOL    HW152152   7.931   7.315   3.673  0.0451 -0.9943 -2.6011
13741SOL    HW252153   7.827   7.438   3.648  0.1813 -0.3093 -0.0287
13742SOL     OW52154   2.803   6.434   4.206  0.2688  0.3765  0.1472
13742SOL    HW152155   2.818   6.521   4.253  0.6666  0.5164 -0.2251
13742SOL    HW252156   2.891   6.398   4.174  0.1229 -0.2463  0.4422
13743SOL     OW52157   4.536   3.448   4.929  0.2122  0.1829 -0.0297
13743SOL    HW152158   4.593   3.529   4.916 -0.7339  0.8059 -0.4147
13743SOL    HW252159   4.533   3.424   5.026  0.5931  0.5361  0.0716
13744SOL     OW52160   9.946   5.604   0.575 -0.2825 -0.3313 -0.0901
13744SOL    HW152161   9.865   5.612   0.517 -0.5431 -0.9357  0.1826
13744SOL    HW252162  10.024   5.647   0.530 -0.9272  0.9447 -0.0209
13745SOL     OW52163   3.598   3.330   1.493  0.0650 -0.6569 -0.4692
13745SOL    HW152164   3.572   3.249   1.441 -0.0014 -1.0322  0.1317
13745SOL    HW252165   3.549   3.410   1.459  0.3822 -0.8110 -1.2794
13746SOL     OW52166   9.552   6.995   1.848  0.2917  0.2750  0.2102
13746SOL    HW152167   9.471   6.949   1.810  0.7461 -0.8132  0.5313
13746SOL    HW252168   9.629   6.982   1.786  0.3919  0.7343  0.2372
13747SOL     OW52169   2.873   7.304   0.820  0.2564 -0.1012  0.2349
13747SOL    HW152170   2.865   7.257   0.908 -0.3543  1.0082  0.7856
13747SOL    HW252171   2.803   7.375   0.814 -0.3156 -0.8023 -1.5565
13748SOL     OW52172   9.385   9.736   2.759  0.2995 -0.1463 -0.0645
13748SOL    HW152173   9.433   9.724   2.672  0.0233  0.1206 -0.2551
13748SOL    HW252174   9.383   9.648   2.808  0.4015 -0.3132 -0.3544
13749SOL     OW52175   9.555   1.121   1.332  0.5975  0.9657  0.1440
13749SOL    HW152176   9.476   1.082   1.285  1.4387 -0.8430  0.1858
13749SOL    HW252177   9.592   1.053   1.396  1.5702  2.1628  0.8704
13750SOL     OW52178   2.049   8.324   0.108  0.4641  0.2082 -0.6418
13750SOL    HW152179   2.094   8.378   0.037  1.5757  1.1848  0.7769
13750SOL    HW252180   1.953   8.311   0.084  0.3338  2.2750 -1.3281
13751SOL     OW52181   8.020   9.294   5.225  0.1156  0.1839  0.0715
13751SOL    HW152182   7.976   9.358   5.161  2.8209  0.9115 -1.1348
13751SOL    HW252183   8.039   9.341   5.311  1.9789  1.0125 -0.7668
13752SOL     OW52184   1.572   3.549   0.771 -0.2785 -0.3528  0.1760
13752SOL    HW152185   1.557   3.555   0.673 -0.6773  1.8095  0.3536
13752SOL    HW252186   1.483   3.550   0.818  0.0044  1.7681  0.6985
13753SOL     OW52187   0.110   5.249   5.244 -0.5275 -0.1058  0.4671
13753SOL    HW152188   0.064   5.202   5.168  0.0982  0.0643 -0.0221
13753SOL    HW252189   0.199   5.207   5.259  0.2189  1.1844 -0.2482
13754SOL     OW52190   8.741   9.036   2.691  0.3036 -0.4497 -0.0798
13754SOL    HW152191   8.816   9.060   2.753  0.1244 -0.2423  0.0550
13754SOL    HW252192   8.715   8.941   2.706  0.4889 -0.4987 -0.0722
13755SOL     OW52193   9.344   5.016   4.019  0.2173 -0.3150  0.1470
13755SOL    HW152194   9.330   5.114   4.003  0.4742 -0.3360 -0.1929
13755SOL    HW252195   9.399   4.977   3.945 -0.4535 -0.8528 -0.0743
13756SOL     OW52196   2.011   8.549   4.402 -0.1693  0.7291  0.2693
13756SOL    HW152197   1.981   8.597   4.485 -0.0636  1.1967  0.0398
13756SOL    HW252198   1.934   8.499   4.362  0.0241 -0.3428  1.2201
13757SOL     OW52199   7.774   0.434   2.460  0.0658  0.4691  0.4407
13757SOL    HW152200   7.694   0.410   2.515 -0.0402 -1.7180 -0.6119
13757SOL    HW252201   7.847   0.465   2.521 -1.1414  1.3066  1.5151
13758SOL     OW52202   8.315   4.018   3.992  0.0166  0.0648  1.1971
13758SOL    HW152203   8.220   4.008   3.965  0.5131  0.4620 -0.7898
13758SOL    HW252204   8.344   3.939   4.046 -1.1637 -0.5010  1.0024
13759SOL     OW52205   1.052   2.859   1.568 -0.4636  0.7648  0.0663
13759SOL    HW152206   1.146   2.875   1.537 -0.5780  1.2407 -0.0409
13759SOL    HW252207   1.041   2.763   1.593 -0.1049  0.5887 -0.4567
13760SOL     OW52208   4.343   6.059   0.839 -0.2038 -0.2411 -0.2625
13760SOL    HW152209   4.272   6.014   0.785  0.5159 -2.1715  0.3762
13760SOL    HW252210   4.431   6.016   0.822 -0.1156 -1.5523  3.1415
13761SOL     OW52211   0.415   0.912   1.769  0.8731  0.4255 -0.0461
13761SOL    HW152212   0.481   0.918   1.694  1.4494  1.0811  0.5047
13761SOL    HW252213   0.465   0.911   1.856  0.2474 -0.9685  0.3095
13762SOL     OW52214   8.855   5.297   2.696 -0.1442  0.2517  0.1814
13762SOL    HW152215   8.857   5.306   2.597 -0.0850  1.6675  0.3008
13762SOL    HW252216   8.769   5.336   2.731  1.4003  3.0976  0.9768
13763SOL     OW52217   3.110   1.067   2.507  0.8107  0.1408  0.2123
13763SOL    HW152218   3.090   0.978   2.468 -0.4115  0.7261 -0.5165
13763SOL    HW252219   3.103   1.062   2.607 -0.9096 -0.1868  0.0863
13764SOL     OW52220   1.373   1.837   2.810  0.3630  0.0380  0.6690
13764SOL    HW152221   1.288   1.785   2.816 -0.4066  1.0357 -1.3646
13764SOL    HW252222   1.448   1.775   2.786 -0.4609 -0.2296 -1.2439
13765SOL     OW52223   4.286   0.732   0.076 -0.0650 -0.0357 -0.0443
13765SOL    HW152224   4.362   0.695   0.129 -0.0213 -0.1230 -0.1688
13765SOL    HW252225   4.252   0.815   0.120  0.6531  0.4798 -0.4492
13766SOL     OW52226   4.975   2.081   0.177 -0.0197  0.7108  0.1550
13766SOL    HW152227   4.883   2.045   0.194  0.2852  0.0705  0.4593
13766SOL    HW252228   5.030   2.012   0.130  0.8475  0.4490  1.5469
13767SOL     OW52229   1.654   4.981   3.700  0.0304 -0.3923  0.1141
13767SOL    HW152230   1.640   5.039   3.620 -0.9209  0.8277  1.1520
13767SOL    HW252231   1.640   4.885   3.674 -2.6108  0.1785 -0.6567
13768SOL     OW52232   5.949   1.127   3.023 -0.0360  0.3051 -0.0814
13768SOL    HW152233   6.006   1.142   3.104 -0.5513 -0.5829  0.4500
13768SOL    HW252234   5.968   1.037   2.985 -1.9519 -0.5111  0.8204
13769SOL     OW52235   9.415   1.788   2.692  0.3546  1.0625 -0.1116
13769SOL    HW152236   9.390   1.784   2.596 -1.2689  0.1938  0.3346
13769SOL    HW252237   9.412   1.883   2.724  0.4453  1.2944 -0.7950
13770SOL     OW52238   3.338   5.348   5.322  0.4128  1.0879  0.7543
13770SOL    HW152239   3.241   5.362   5.340  0.4670 -0.4680  2.3948
13770SOL    HW252240   3.381   5.309   5.403  2.1242  0.4035 -0.4712
13771SOL     OW52241   3.837   3.239   3.735 -0.2276  0.4761 -0.5181
13771SOL    HW152242   3.810   3.265   3.827  0.9714 -0.6759  0.1680
13771SOL    HW252243   3.881   3.317   3.690 -0.3579  0.8847  0.0551
13772SOL     OW52244   3.481   2.478   2.285 -0.1449 -0.1231 -0.3155
13772SOL    HW152245   3.558   2.413   2.286 -1.2574 -1.4907  1.7587
13772SOL    HW252246   3.445   2.486   2.378 -2.7821  0.1651 -1.3446
13773SOL     OW52247   3.558   7.691   1.693  0.0567  0.0406  0.1752
13773SOL    HW152248   3.484   7.746   1.732  0.2449  0.5222 -0.1602
13773SOL    HW252249   3.645   7.715   1.737  0.3948  1.1098 -1.0559
13774SOL     OW52250   0.608   4.471   2.909 -0.8973  0.1531 -0.0740
13774SOL    HW152251   0.630   4.511   2.998  0.8401 -0.2482 -0.3122
13774SOL    HW252252   0.634   4.535   2.837 -0.1079 -0.5135 -0.3816
13775SOL     OW52253   8.574   9.979   2.690  0.1989 -0.2610 -0.1576
13775SOL    HW152254   8.508   9.972   2.764  1.2787 -0.5805  0.7870
13775SOL    HW252255   8.653   9.920   2.710  1.0328  0.5549 -0.9931
13776SOL     OW52256   3.046   5.994   1.882  0.4226  0.4116  0.0580
13776SOL    HW152257   3.124   5.937   1.906 -2.2317 -3.3351  0.2859
13776SOL    HW252258   3.025   5.982   1.785 -0.1400  1.0560  0.0960
13777SOL     OW52259   0.346   8.027   3.270 -0.1038 -0.1068  0.3657
13777SOL    HW152260   0.417   8.017   3.200 -0.4974 -1.0746  0.1053
13777SOL    HW252261   0.287   8.104   3.246  0.1245 -0.0612 -0.0530
13778SOL     OW52262   7.967   9.679   2.500 -0.3287 -0.2079  0.5226
13778SOL    HW152263   7.963   9.717   2.407 -1.1242 -0.3648  0.4890
13778SOL    HW252264   7.984   9.581   2.495  0.2110 -0.1193  0.5654
13779SOL     OW52265   9.221   9.400   2.437  0.1169  0.3802  0.8428
13779SOL    HW152266   9.142   9.423   2.380 -1.7048 -0.5451  2.9329
13779SOL    HW252267   9.230   9.466   2.511 -1.0298 -1.6128  2.8412
13780SOL     OW52268   8.322   0.963   5.349  0.0873 -0.3716  0.1200
13780SOL    HW152269   8.350   0.984   5.443 -1.8911  0.7126  0.4834
13780SOL    HW252270   8.258   0.887   5.349  0.7503 -0.9304 -0.4337
13781SOL     OW52271   1.525   1.982   4.171  0.0835  0.4183  0.0407
13781SOL    HW152272   1.443   2.035   4.150 -0.0579  0.0189 -0.4330
13781SOL    HW252273   1.591   2.040   4.218 -0.8452  0.4883  1.2800
13782SOL     OW52274   4.749   1.712   0.325 -0.1646  0.4918 -0.2783
13782SOL    HW152275   4.803   1.637   0.285 -0.8812 -0.4062  0.4021
13782SOL    HW252276   4.656   1.709   0.287 -0.0107  1.4479 -0.7365
13783SOL     OW52277   2.628   0.536   2.713  0.0903  0.3678 -0.0643
13783SOL    HW152278   2.605   0.470   2.641  0.8603  1.5775 -1.4447
13783SOL    HW252279   2.717   0.577   2.693  0.1648  0.9560  1.4245
13784SOL     OW52280   9.693   7.124   1.200 -0.0313  0.3157 -0.1606
13784SOL    HW152281   9.670   7.185   1.124  1.7700  0.4990 -0.5868
13784SOL    HW252282   9.680   7.173   1.287  0.6575  1.0596 -0.4698
13785SOL     OW52283   7.631   9.207   0.370  0.2840 -0.2495 -0.1020
13785SOL    HW152284   7.728   9.183   0.362  0.2839 -0.8491  1.4285
13785SOL    HW252285   7.595   9.168   0.455 -1.8354 -1.8783 -1.6944
13786SOL     OW52286   4.580   2.918   3.601  0.0928  0.3288 -0.8884
13786SOL    HW152287   4.625   2.988   3.656 -0.2500  0.7308 -1.1188
13786SOL    HW252288   4.512   2.870   3.657 -1.1998  1.6302 -1.3188
13787SOL     OW52289   2.621   5.248   3.674  0.2248  0.2600 -0.3436
13787SOL    HW152290   2.693   5.230   3.741  0.9808 -0.5111 -1.3294
13787SOL    HW252291   2.610   5.168   3.615 -1.5977  0.2958 -0.0804
13788SOL     OW52292   8.886   5.407   0.182 -0.5222  0.6552 -0.4616
13788SOL    HW152293   8.855   5.360   0.100  1.3039 -1.3870 -0.0149
13788SOL    HW252294   8.915   5.340   0.251  0.7755  2.3737  0.7274
13789SOL     OW52295   3.066   0.575   2.542 -0.1418 -0.7936  0.6829
13789SOL    HW152296   3.046   0.487   2.498 -0.1710 -0.9594  1.0243
13789SOL    HW252297   2.993   0.597   2.606  0.2706 -0.9170  1.2007
13790SOL     OW52298   2.397   4.992   1.790 -0.1341  0.2349 -0.0626
13790SOL    HW152299   2.414   4.905   1.744  2.5873  0.6110  0.1239
13790SOL    HW252300   2.401   4.978   1.889 -2.6027  0.0635  0.0468
13791SOL     OW52301   6.135   7.714   1.953  0.3721  0.9859 -0.3009
13791SOL    HW152302   6.056   7.767   1.921 -1.1527 -0.2275  1.3623
13791SOL    HW252303   6.164   7.750   2.042 -0.2773 -0.5658  0.5442
13792SOL     OW52304   3.916   1.100   4.082  0.2377 -0.0794 -0.1088
13792SOL    HW152305   3.977   1.178   4.095 -0.2073 -0.1628  2.8388
13792SOL    HW252306   3.947   1.046   4.004  0.4075  3.1405 -2.3853
13793SOL     OW52307   7.331   0.197   2.991 -0.2981  0.3690  0.2950
13793SOL    HW152308   7.259   0.162   3.051  1.3814  0.0588  2.1843
13793SOL    HW252309   7.295   0.272   2.936 -2.3581 -0.5097  0.4054
13794SOL     OW52310   5.889   7.758   2.301 -0.2204 -0.0681  0.3309
13794SOL    HW152311   5.954   7.819   2.256  0.2415  0.0142  1.1113
13794SOL    HW252312   5.913   7.663   2.282  0.3131 -0.0449  0.8730
13795SOL     OW52313   3.131   8.650   2.873 -0.1843  0.0325  0.2884
13795SOL    HW152314   3.178   8.735   2.897  1.8484 -0.4929 -1.6769
13795SOL    HW252315   3.131   8.588   2.951  0.5294  0.8745  0.9633
13796SOL     OW52316   3.041   6.489   3.746 -0.4321  0.3396 -0.3113
13796SOL    HW152317   2.979   6.560   3.780 -0.3675 -0.7137  2.0968
13796SOL    HW252318   3.105   6.463   3.819  2.6302  1.1562 -2.6291
13797SOL     OW52319   0.911   1.812   0.399 -0.2902 -0.5060 -0.1248
13797SOL    HW152320   0.894   1.876   0.473  0.8552  1.0704 -1.1851
13797SOL    HW252321   0.824   1.787   0.356 -0.8581 -0.6366  1.0993
13798SOL     OW52322   2.060   7.015   0.096  0.2749 -0.3270 -0.1900
13798SOL    HW152323   2.019   7.014   0.004 -0.5800  0.0350  0.1807
13798SOL    HW252324   2.005   6.958   0.157 -0.4869  1.2697  0.6524
13799SOL     OW52325   5.212   8.385   5.330 -0.4556 -0.9316  0.2820
13799SOL    HW152326   5.206   8.308   5.393  0.9072 -2.4445 -1.3883
13799SOL    HW252327   5.280   8.365   5.259 -2.3838  0.4312 -2.0339
13800SOL     OW52328   9.675   0.585   3.144 -0.0665 -0.0286  0.1829
13800SOL    HW152329   9.689   0.599   3.242  1.0081  0.3067 -0.0163
13800SOL    HW252330   9.649   0.672   3.102 -0.6281 -0.1942  0.1831
13801SOL     OW52331   4.058   2.073   1.977 -0.1003 -0.5321  0.2111
13801SOL    HW152332   3.973   2.110   2.013 -0.5236 -1.3387  0.0557
13801SOL    HW252333   4.094   2.135   1.907  0.7942  1.0944  2.0562
13802SOL     OW52334   0.137   4.714   4.782  0.2666  0.0110 -0.2519
13802SOL    HW152335   0.048   4.675   4.762 -0.2997  2.1877 -2.1854
13802SOL    HW252336   0.126   4.795   4.840  1.3397 -1.8837  2.7809
13803SOL     OW52337   5.052   1.954   1.875  0.5674  0.9593  1.0430
13803SOL    HW152338   5.136   1.992   1.914  2.2888 -0.7264 -0.9119
13803SOL    HW252339   5.036   1.862   1.911  1.1173  0.1582 -0.6841
13804SOL     OW52340   2.509   5.441   2.146  0.4923 -0.2281 -0.4516
13804SOL    HW152341   2.427   5.390   2.172  1.2672 -2.8048 -2.7222
13804SOL    HW252342   2.562   5.462   2.228 -0.5504 -1.9225  0.7116
13805SOL     OW52343   2.761   2.800   3.925  0.2914 -0.2627  0.0015
13805SOL    HW152344   2.817   2.868   3.973  0.0396  0.7395 -1.0734
13805SOL    HW252345   2.820   2.730   3.886  0.6531 -0.1017  0.2571
13806SOL     OW52346   1.641   2.620   2.697  0.1611  0.3360 -0.0145
13806SOL    HW152347   1.593   2.672   2.768 -1.1404  1.2506 -1.5183
13806SOL    HW252348   1.661   2.681   2.620  0.4248 -0.9323 -0.9614
13807SOL     OW52349   6.839   9.457   3.386  0.5796 -0.0984  0.7331
13807SOL    HW152350   6.894   9.536   3.414 -1.2174  0.2996  3.3656
13807SOL    HW252351   6.879   9.416   3.305  3.5356  1.4418  1.3331
13808SOL     OW52352   2.753   8.561   4.671  0.0700  0.5473 -0.5286
13808SOL    HW152353   2.786   8.467   4.676 -0.9814  0.1934 -0.0507
13808SOL    HW252354   2.830   8.624   4.669  0.7748 -0.3133 -0.5413
13809SOL     OW52355   4.276   5.490   0.607 -0.5916 -0.5931  0.4911
13809SOL    HW152356   4.370   5.523   0.614 -0.5222 -1.0232  1.8278
13809SOL    HW252357   4.273   5.411   0.546 -0.1163 -0.4773  0.3120
13810SOL     OW52358   0.890   8.836   2.756 -0.5041  0.3089  0.5272
13810SOL    HW152359   0.824   8.807   2.686 -2.6351  0.1953  2.5139
13810SOL    HW252360   0.966   8.772   2.759 -0.1971  0.5212 -1.9282
13811SOL     OW52361   0.442   9.460   1.942 -0.3698 -0.1393  0.0788
13811SOL    HW152362   0.462   9.367   1.973  1.0098  0.0117 -0.3619
13811SOL    HW252363   0.429   9.461   1.843  1.5383  0.4629 -0.1702
13812SOL     OW52364   9.003   2.042   4.732 -0.1711 -0.2806 -0.1708
13812SOL    HW152365   8.908   2.047   4.761  0.0429 -0.6823  0.5978
13812SOL    HW252366   9.008   1.995   4.643 -0.6893 -0.2705 -0.2052
13813SOL     OW52367   8.727   7.125   0.792 -0.0656 -0.1726 -0.6873
13813SOL    HW152368   8.692   7.032   0.783 -1.5042  0.2783  0.1401
13813SOL    HW252369   8.807   7.124   0.852 -2.6476 -0.3275  2.9234
13814SOL     OW52370   9.233   3.140   5.438 -0.2730 -0.0939 -0.0742
13814SOL    HW152371   9.245   3.042   5.424  1.2256  0.3096 -1.7716
13814SOL    HW252372   9.316   3.189   5.408 -1.0932  1.7071  0.5094
13815SOL     OW52373   9.856   7.241   1.524 -0.3965  0.8899 -0.5521
13815SOL    HW152374   9.940   7.292   1.506 -0.2798  1.7411  2.1168
13815SOL    HW252375   9.878   7.162   1.583 -1.2139  0.1226 -1.2611
13816SOL     OW52376   2.729   0.038   2.850 -0.1520  0.5085 -0.2093
13816SOL    HW152377   2.758   0.119   2.799  0.8239  1.1073  1.2575
13816SOL    HW252378   2.630   0.027   2.843 -0.4211  2.4051  0.3725
13817SOL     OW52379   3.224   2.153   3.049  0.1997  0.6824 -0.5699
13817SOL    HW152380   3.175   2.066   3.037 -0.7064  1.2936 -1.3630
13817SOL    HW252381   3.308   2.137   3.100  0.5592 -0.8404 -1.6032
13818SOL     OW52382   0.060   0.690   3.151 -0.3145 -0.5290 -0.0223
13818SOL    HW152383   0.026   0.659   3.063 -0.3281  0.9301 -0.5467
13818SOL    HW252384   0.024   0.781   3.171  1.0435 -0.1274  0.6946
13819SOL     OW52385   2.137   3.334   0.210  0.0334 -0.2788  0.2047
13819SOL    HW152386   2.129   3.368   0.304  0.4373  0.9138 -0.1781
13819SOL    HW252387   2.102   3.402   0.147  0.7134 -0.6396 -0.5753
13820SOL     OW52388   4.276   2.854   1.574 -0.1293  0.6571 -0.0209
13820SOL    HW152389   4.283   2.934   1.634 -2.3217  0.0013  1.1472
13820SOL    HW252390   4.362   2.802   1.577  0.4807  1.6959  1.0015
13821SOL     OW52391   0.835   7.584   1.278  0.2202 -0.0942  0.0487
13821SOL    HW152392   0.921   7.534   1.286  1.4092  1.7906 -0.5222
13821SOL    HW252393   0.833   7.634   1.191 -1.6230 -0.4108 -0.1133
13822SOL     OW52394   0.092   8.056   0.911 -0.6248  0.0988 -0.0646
13822SOL    HW152395   0.140   7.979   0.953 -0.3217  0.6946  0.6893
13822SOL    HW252396   0.114   8.060   0.814  1.7018  0.9740  0.4450
13823SOL     OW52397   2.931   3.467   2.699 -0.2468  0.5233  1.0244
13823SOL    HW152398   3.008   3.485   2.638 -0.7363  0.8775  0.5029
13823SOL    HW252399   2.959   3.403   2.771 -0.3180 -1.9376 -1.0525
13824SOL     OW52400   8.399   5.146   4.250  0.4908  0.3408  0.3980
13824SOL    HW152401   8.358   5.080   4.188 -1.4249  0.5302  1.4080
13824SOL    HW252402   8.482   5.108   4.290  0.1584 -0.9016 -0.0825
13825SOL     OW52403   8.689   5.938   3.042 -0.3595 -0.0089 -0.4096
13825SOL    HW152404   8.610   5.926   3.102 -1.1309 -0.7155 -1.5559
13825SOL    HW252405   8.659   5.943   2.947  1.0156 -1.0452 -0.9208
13826SOL     OW52406   3.981   9.309   0.598  0.4287  0.0878 -0.6195
13826SOL    HW152407   4.005   9.278   0.690  1.6989  0.1842 -0.8989
13826SOL    HW252408   3.883   9.300   0.583  0.5875 -2.5884 -0.2354
13827SOL     OW52409   8.081   4.528   0.222  0.6093 -0.4979  0.6883
13827SOL    HW152410   8.147   4.492   0.288  0.6379  0.3381  1.1196
13827SOL    HW252411   7.988   4.505   0.252  0.6266 -0.2081  0.9656
13828SOL     OW52412   3.361   7.705   0.049  0.6648  0.7287  0.2871
13828SOL    HW152413   3.394   7.721   0.143 -2.5179  1.8018  1.2828
13828SOL    HW252414   3.342   7.607   0.037  1.2587  0.5591  0.7146
13829SOL     OW52415   3.603   0.568   2.542 -0.2331 -0.0421 -0.2186
13829SOL    HW152416   3.635   0.583   2.449  1.1547 -0.3885  0.1930
13829SOL    HW252417   3.648   0.632   2.604 -0.5031 -0.3861  0.3430
13830SOL     OW52418   6.679   7.443   3.749  0.1185  0.3552  0.4618
13830SOL    HW152419   6.655   7.396   3.664 -0.4914 -0.7709  1.2440
13830SOL    HW252420   6.758   7.502   3.733 -0.1660  0.3822 -0.9562
13831SOL     OW52421   4.257   8.987   4.150  0.0271 -0.6579  0.1584
13831SOL    HW152422   4.311   8.939   4.220  0.3479  0.0762  0.4211
13831SOL    HW252423   4.160   8.977   4.169  0.1139 -0.5398  0.6580
13832SOL     OW52424   2.254   9.185   4.528  0.3510  0.2358  0.5236
13832SOL    HW152425   2.160   9.193   4.561 -0.3266  0.4193 -1.3624
13832SOL    HW252426   2.299   9.109   4.574 -1.2033 -0.7909  0.4139
13833SOL     OW52427   7.984   9.964   4.698  0.1226 -0.3756 -0.0713
13833SOL    HW152428   7.988   9.963   4.798 -0.9231  0.5621 -0.0107
13833SOL    HW252429   7.972  10.058   4.666  0.2057 -0.6994 -1.0697
13834SOL     OW52430   4.738   1.836   1.060  0.5115 -0.7216  0.5604
13834SOL    HW152431   4.714   1.856   1.155  2.6170 -0.7281  1.1162
13834SOL    HW252432   4.702   1.907   1.001  3.1559  1.8447  1.8990
13835SOL     OW52433   8.183   2.408   1.563 -0.5046 -0.3632 -0.1002
13835SOL    HW152434   8.191   2.474   1.639  0.2583 -0.5853  0.0188
13835SOL    HW252435   8.204   2.317   1.597 -0.3336 -0.4873 -0.5438
13836SOL     OW52436   9.553   2.135   3.385  0.6341 -0.4699 -0.1563
13836SOL    HW152437   9.469   2.117   3.436  0.5365 -2.1902 -0.9088
13836SOL    HW252438   9.630   2.089   3.428  0.8983 -0.2708 -0.4118
13837SOL     OW52439   3.592   1.596   5.578 -0.4528  0.3773  0.1216
13837SOL    HW152440   3.666   1.663   5.587  1.2764 -1.3056 -1.2031
13837SOL    HW252441   3.604   1.523   5.645 -1.4134  0.5284  0.4693
13838SOL     OW52442   1.060   1.962   3.763 -0.1001  0.5270  0.6382
13838SOL    HW152443   1.055   1.864   3.779  1.0593  0.5134  0.9574
13838SOL    HW252444   1.138   1.982   3.703 -0.7289  1.1853  0.0293
13839SOL     OW52445   0.550   9.123   3.391  0.1553  0.0515 -0.4680
13839SOL    HW152446   0.561   9.186   3.314  0.3407  0.9929  0.3226
13839SOL    HW252447   0.638   9.081   3.413  0.9873  2.8815  1.8492
13840SOL     OW52448   9.115   4.871   2.042  0.0380 -0.6048  0.0055
13840SOL    HW152449   9.188   4.902   2.103 -2.5527  1.0736  2.3679
13840SOL    HW252450   9.108   4.932   1.964 -0.6946  0.9368  1.2562
13841SOL     OW52451   0.377   5.096   0.412 -0.3629 -0.0840 -0.0202
13841SOL    HW152452   0.281   5.072   0.403 -0.3401  0.2146 -1.1091
13841SOL    HW252453   0.432   5.042   0.348  0.0429  0.6432 -0.2944
13842SOL     OW52454   2.383   7.756   0.135  0.2447  0.0982 -0.1962
13842SOL    HW152455   2.465   7.733   0.082 -1.1490 -2.2302 -1.4257
13842SOL    HW252456   2.338   7.836   0.095  0.2675 -0.4617 -1.3336
13843SOL     OW52457   2.886   4.379   3.268 -0.4040  0.3418  0.8246
13843SOL    HW152458   2.870   4.465   3.317 -1.1462  0.7276 -0.0786
13843SOL    HW252459   2.905   4.306   3.334 -1.1285  0.9121  1.6783
13844SOL     OW52460   9.082   2.684   0.867 -0.1584  0.1172  0.2555
13844SOL    HW152461   9.102   2.758   0.803  1.6966 -0.0888  0.5772
13844SOL    HW252462   9.116   2.598   0.831  3.6646  0.4534  2.8080
13845SOL     OW52463   2.465   7.291   0.029  0.2037 -0.1562 -0.0960
13845SOL    HW152464   2.462   7.199  -0.011 -0.0356  0.3458 -1.2791
13845SOL    HW252465   2.393   7.300   0.098  0.6427 -1.0627  0.4767
13846SOL     OW52466   9.767   0.256   1.876 -0.0336  0.2040 -0.8590
13846SOL    HW152467   9.865   0.264   1.860  0.3440 -0.7539  0.9297
13846SOL    HW252468   9.741   0.159   1.883 -0.8327  0.4885  0.2877
13847SOL     OW52469   2.007   0.718   2.964 -0.5229  0.3032  0.0367
13847SOL    HW152470   1.932   0.767   2.921  1.3293  2.3125 -0.9967
13847SOL    HW252471   2.065   0.782   3.014  2.1531 -0.7202 -1.6206
13848SOL     OW52472   8.465   6.802   1.066 -0.1000  0.0759 -0.0345
13848SOL    HW152473   8.386   6.769   1.015  1.0477 -1.7158 -0.7094
13848SOL    HW252474   8.545   6.805   1.005  0.8487 -0.2164  1.1784
13849SOL     OW52475   0.631   7.493   1.462  0.0694  1.0472  0.4267
13849SOL    HW152476   0.685   7.533   1.389  1.8417  1.5992  1.9984
13849SOL    HW252477   0.686   7.427   1.514 -1.2626  0.3740  1.0328
13850SOL     OW52478   1.649   4.085   1.343  0.5205 -0.2948  0.5928
13850SOL    HW152479   1.683   4.069   1.435 -0.2879  0.4418  1.0232
13850SOL    HW252480   1.571   4.027   1.325 -0.5117  0.9128  1.0684
13851SOL     OW52481   1.639   7.446   1.928 -0.1975 -0.0783 -0.1622
13851SOL    HW152482   1.580   7.398   1.863 -0.2981 -1.7072  1.0766
13851SOL    HW252483   1.625   7.407   2.019  1.5486  0.6735  0.4395
13852SOL     OW52484   8.206   1.696   5.384 -0.3613 -0.2224 -0.2836
13852SOL    HW152485   8.279   1.708   5.452 -0.1587 -1.4537 -0.2663
13852SOL    HW252486   8.121   1.670   5.431 -0.1583 -1.3213 -0.5199
13853SOL     OW52487   0.729   6.860   3.002  0.2554 -0.4162 -0.3421
13853SOL    HW152488   0.800   6.804   2.959 -0.8360 -0.4204 -2.2178
13853SOL    HW252489   0.656   6.877   2.936 -0.0380  2.1899  0.5795
13854SOL     OW52490   1.717   3.970   4.564  0.3544  0.0501 -0.1205
13854SOL    HW152491   1.683   3.901   4.628  0.1549  0.0705 -0.2029
13854SOL    HW252492   1.815   3.983   4.578  0.1298  0.7458  0.8150
13855SOL     OW52493   0.914   5.533   1.560 -0.1571 -0.5114 -0.3343
13855SOL    HW152494   0.926   5.442   1.600  0.1719 -0.1842  0.3198
13855SOL    HW252495   0.892   5.524   1.462  1.1283 -1.2554 -0.5640
13856SOL     OW52496   5.902   7.874   3.655  0.3455  0.9444  0.3714
13856SOL    HW152497   5.907   7.896   3.752  0.1408 -0.2906  0.6677
13856SOL    HW252498   5.980   7.818   3.628 -0.4059 -0.0171  0.1717
13857SOL     OW52499   7.202   0.615   2.876 -0.1828 -0.8672  0.0964
13857SOL    HW152500   7.294   0.656   2.877 -0.2764 -0.6577  0.2655
13857SOL    HW252501   7.135   0.685   2.850 -0.3642 -0.8698  0.5483
13858SOL     OW52502   2.586   5.745   0.315 -0.3452  0.4020  0.5047
13858SOL    HW152503   2.566   5.654   0.279 -0.3193  1.0288 -1.1479
13858SOL    HW252504   2.500   5.790   0.341 -0.1656 -1.0113  3.6591
13859SOL     OW52505   9.916   7.605   0.596 -0.1442  0.5719  0.5341
13859SOL    HW152506   9.895   7.684   0.654  0.4728  1.0181  0.1539
13859SOL    HW252507   9.943   7.637   0.505 -1.2843 -0.1301 -0.0581
13860SOL     OW52508   1.796   0.331   1.819  0.2789  0.2896  0.3410
13860SOL    HW152509   1.879   0.367   1.862  0.3514  0.8880 -0.2926
13860SOL    HW252510   1.796   0.356   1.722  0.7583 -2.1718 -0.3105
13861SOL     OW52511   0.141   5.718   0.268  0.0301 -0.1487  0.1131
13861SOL    HW152512   0.047   5.690   0.247 -0.2831  0.5324  0.6020
13861SOL    HW252513   0.148   5.739   0.366  0.5542  0.3552 -0.0318
13862SOL     OW52514   9.726   0.228   0.848 -0.1708 -0.4791  0.2615
13862SOL    HW152515   9.699   0.311   0.798  1.6688  0.5843  0.9790
13862SOL    HW252516   9.814   0.244   0.894 -0.3318 -2.4765  1.3068
13863SOL     OW52517   3.659   8.697   1.505 -0.1118  0.2739 -0.6128
13863SOL    HW152518   3.738   8.635   1.511  1.1106  1.9049  0.4915
13863SOL    HW252519   3.689   8.787   1.475 -1.1178  1.6412  2.2667
13864SOL     OW52520   2.431   6.692   0.541 -0.0715  0.1670 -0.1936
13864SOL    HW152521   2.389   6.648   0.621  2.2812 -3.3147 -0.7668
13864SOL    HW252522   2.374   6.675   0.461  0.1851 -0.8342 -0.1780
13865SOL     OW52523   0.736   9.834   2.674 -0.0194 -0.1407  0.1688
13865SOL    HW152524   0.742   9.786   2.762 -0.4217  0.2722  0.4265
13865SOL    HW252525   0.709   9.770   2.603  1.1610 -0.6610  0.1858
13866SOL     OW52526   3.018   9.836   4.242  0.0274 -0.3815  0.2060
13866SOL    HW152527   3.040   9.777   4.165  1.3743 -0.3016  0.5105
13866SOL    HW252528   2.924   9.819   4.272 -0.9493  0.4492 -2.2025
13867SOL     OW52529   6.654   4.778   0.422 -0.4200  0.3134  0.2618
13867SOL    HW152530   6.631   4.821   0.510 -0.6548  0.7306 -0.0015
13867SOL    HW252531   6.674   4.849   0.355  0.2091 -0.0186  0.0997
13868SOL     OW52532   2.217   5.004   3.427 -0.8883 -0.2536 -0.1620
13868SOL    HW152533   2.198   5.030   3.521  1.7278  0.0623  0.3322
13868SOL    HW252534   2.213   5.084   3.368 -1.5264 -0.2779 -0.1540
13869SOL     OW52535   6.743   8.289   2.533  0.2211  0.0762 -0.6522
13869SOL    HW152536   6.720   8.198   2.566 -1.6028  0.2644 -1.3539
13869SOL    HW252537   6.781   8.343   2.607 -0.7386 -0.5543  0.3168
13870SOL     OW52538   5.134   0.736   3.795  0.1812  0.3651  0.0458
13870SOL    HW152539   5.173   0.678   3.723  0.7068  0.2208  0.4494
13870SOL    HW252540   5.063   0.684   3.844  0.6142  0.0745  0.3725
13871SOL     OW52541   4.030   4.431   2.563 -0.4059  0.4319  0.2070
13871SOL    HW152542   3.975   4.481   2.495  2.8695  1.2917 -1.9661
13871SOL    HW252543   4.047   4.490   2.642  0.5191  1.5639 -0.8087
13872SOL     OW52544   7.556   8.019   3.995 -0.2709  0.1567  0.3268
13872SOL    HW152545   7.505   7.997   4.079 -0.0448 -1.5988  0.0112
13872SOL    HW252546   7.514   7.973   3.917  0.4211  0.5640 -0.2905
13873SOL     OW52547   0.087   2.087   5.031 -0.1200 -0.6252 -0.2956
13873SOL    HW152548  -0.003   2.131   5.024 -1.0731 -2.6211 -0.8929
13873SOL    HW252549   0.077   1.989   5.015  2.4160 -0.6419 -1.8858
13874SOL     OW52550   8.929   2.805   1.291 -0.2556  0.5201 -0.2503
13874SOL    HW152551   8.931   2.705   1.290 -0.2529  0.5162  0.2706
13874SOL    HW252552   8.882   2.837   1.373  0.2654  0.9572 -0.1186
13875SOL     OW52553   6.196   3.798   0.183 -0.0660 -0.1330  0.0391
13875SOL    HW152554   6.287   3.832   0.205  0.7932  0.0320 -3.4126
13875SOL    HW252555   6.166   3.837   0.096 -1.3819 -3.9027 -1.3186
13876SOL     OW52556   3.351   0.385   4.004  0.3196 -0.2810 -0.1661
13876SOL    HW152557   3.416   0.384   4.080  1.0723  0.9240 -0.7813
13876SOL    HW252558   3.392   0.341   3.925  0.3937  0.5017 -0.5639
13877SOL     OW52559   8.154   5.733   1.647  0.5530  0.1204 -0.1705
13877SOL    HW152560   8.155   5.725   1.547  3.0577 -0.9792 -0.1054
13877SOL    HW252561   8.139   5.828   1.673  0.0204  0.4369 -1.5934
13878SOL     OW52562   5.177   1.405   2.693 -0.3551  0.1933  0.1498
13878SOL    HW152563   5.225   1.377   2.776 -1.0633  0.5868  0.6925
13878SOL    HW252564   5.171   1.327   2.631 -0.6061 -0.3428  0.8422
13879SOL     OW52565   7.694   0.077   5.377 -0.2235 -0.1634 -0.3016
13879SOL    HW152566   7.770   0.015   5.399  1.1162  1.0780 -1.2849
13879SOL    HW252567   7.669   0.129   5.459  1.2802  0.7620 -0.4045
13880SOL     OW52568   9.089   4.268   0.143 -0.3022  0.4522 -0.1528
13880SOL    HW152569   9.030   4.345   0.116 -0.4229  1.5343  2.9812
13880SOL    HW252570   9.184   4.296   0.138 -0.3177  0.5964  0.2976
13881SOL     OW52571   5.105   9.862   3.017  0.1449 -0.2133  0.0213
13881SOL    HW152572   5.174   9.790   3.007  2.0313  1.4864  0.3995
13881SOL    HW252573   5.064   9.882   2.928  0.9427 -0.4929 -0.4157
13882SOL     OW52574   9.613   6.839   0.304 -0.3013  0.3505 -0.4558
13882SOL    HW152575   9.683   6.814   0.237 -0.1015  1.3488 -0.6336
13882SOL    HW252576   9.650   6.908   0.366 -0.4757 -0.5993  0.7051
13883SOL     OW52577   7.626   8.570   3.036 -0.3796  0.1412 -0.1964
13883SOL    HW152578   7.635   8.545   3.133 -1.0253 -0.8769 -0.3996
13883SOL    HW252579   7.687   8.514   2.981 -2.1432 -1.3616 -0.6977
13884SOL     OW52580   9.477   4.926   2.863  0.4603  0.4697 -0.2597
13884SOL    HW152581   9.379   4.931   2.882  0.5603 -0.0227  0.3864
13884SOL    HW252582   9.513   5.019   2.851  0.7712  0.9933  3.9476
13885SOL     OW52583   8.734   1.465   3.834 -0.0377  0.6194 -0.3465
13885SOL    HW152584   8.823   1.434   3.868 -0.7473  0.5349  1.4690
13885SOL    HW252585   8.692   1.526   3.901 -0.4552  2.3164 -2.0996
13886SOL     OW52586   1.753   0.271   2.094  0.5279 -0.4595 -0.0937
13886SOL    HW152587   1.717   0.296   2.003  0.0522  0.0462  0.2290
13886SOL    HW252588   1.678   0.238   2.151  0.4052  1.4627  0.8859
13887SOL     OW52589   0.478   8.778   2.225  0.0245 -0.3740  0.2438
13887SOL    HW152590   0.421   8.858   2.207  0.6756 -0.1197 -0.7794
13887SOL    HW252591   0.466   8.749   2.319 -0.8815  0.4029  0.3787
13888SOL     OW52592   0.193   6.422   3.161  0.3288  0.0826 -0.0343
13888SOL    HW152593   0.140   6.465   3.234  0.3251 -0.4338  0.2692
13888SOL    HW252594   0.291   6.427   3.182  0.3190 -0.2057  0.0848
13889SOL     OW52595   4.956   8.145   5.014 -0.0060  0.0591  0.3964
13889SOL    HW152596   4.927   8.151   5.109  0.9543  0.2036  0.6891
13889SOL    HW252597   5.024   8.071   5.005  0.1537  0.2673 -0.1090
13890SOL     OW52598   7.892   0.305   1.069  0.1261  0.4291  0.0804
13890SOL    HW152599   7.822   0.308   1.141 -1.2201 -0.5029 -1.1631
13890SOL    HW252600   7.977   0.269   1.107 -0.7442 -0.6091  1.0710
13891SOL     OW52601   7.085   9.468   1.579  0.4965  0.2073  0.2553
13891SOL    HW152602   7.023   9.499   1.507 -0.0296  0.6897  0.9075
13891SOL    HW252603   7.179   9.480   1.549  0.2851 -1.6168 -1.2070
13892SOL     OW52604   5.874   0.364   4.999  0.1439 -0.3929  0.7397
13892SOL    HW152605   5.932   0.303   4.945 -0.7579 -2.3712  1.9865
13892SOL    HW252606   5.923   0.394   5.081  1.2460  2.0390 -0.7430
13893SOL     OW52607   9.301   1.291   1.326  0.0916 -0.3297 -0.1100
13893SOL    HW152608   9.370   1.357   1.294  0.1166 -0.2149  0.1705
13893SOL    HW252609   9.333   1.250   1.412 -0.7804  0.6959  0.7188
13894SOL     OW52610   7.192   2.082   2.640 -0.2899  0.1701  0.1425
13894SOL    HW152611   7.208   2.085   2.542 -0.2813  1.3111  0.1653
13894SOL    HW252612   7.279   2.092   2.689  0.2995 -4.7646  0.3041
13895SOL     OW52613   1.090   2.677   2.415  0.0490 -0.2711  0.0310
13895SOL    HW152614   1.093   2.718   2.323 -0.8243 -2.3905 -0.9633
13895SOL    HW252615   1.183   2.657   2.445  0.3021 -0.2875 -0.7345
13896SOL     OW52616   8.784   7.507   4.780 -0.5056 -0.1200 -0.0758
13896SOL    HW152617   8.807   7.570   4.854 -0.0556  1.9070 -1.9009
13896SOL    HW252618   8.865   7.490   4.724 -1.4951  0.5896 -1.7528
13897SOL     OW52619   0.885   3.355   2.425  0.0477  0.1814  0.4287
13897SOL    HW152620   0.837   3.430   2.470 -1.6531 -1.5546  1.5800
13897SOL    HW252621   0.968   3.332   2.478  1.1465  1.9266 -0.5159
13898SOL     OW52622   0.686   3.842   2.006 -0.5793  0.3755 -0.3102
13898SOL    HW152623   0.760   3.786   2.045 -1.3558 -0.4960 -0.0674
13898SOL    HW252624   0.601   3.790   2.008 -1.1705  1.3216 -0.7335
13899SOL     OW52625   2.042   2.184   3.431  0.2693 -0.5161  0.6830
13899SOL    HW152626   2.051   2.197   3.530  2.7297 -0.1937  0.4586
13899SOL    HW252627   2.029   2.087   3.411  0.8258 -0.7181  1.2773
13900SOL     OW52628   4.567   3.785   2.744  0.3173  0.0229  0.5635
13900SOL    HW152629   4.527   3.775   2.835  1.2520  2.0421  1.2405
13900SOL    HW252630   4.502   3.832   2.684  0.9111  1.6728  1.1577
13901SOL     OW52631   3.178   3.507   5.574 -0.8221  0.1886 -0.0377
13901SOL    HW152632   3.086   3.471   5.584 -1.4751  1.4167 -1.4438
13901SOL    HW252633   3.206   3.503   5.478  0.5125  0.0268  0.3394
13902SOL     OW52634   3.632   6.203   5.118 -0.2012 -0.0571  0.0078
13902SOL    HW152635   3.552   6.248   5.156 -0.7151 -0.9798  0.0280
13902SOL    HW252636   3.627   6.204   5.018 -0.4081 -0.4183  0.0146
13903SOL     OW52637   8.453   8.485   3.186  0.2803 -0.1400 -0.0120
13903SOL    HW152638   8.378   8.551   3.189  2.2693  2.2932 -1.0361
13903SOL    HW252639   8.431   8.412   3.122 -0.6251  1.3426 -1.4464
13904SOL     OW52640   4.242   7.136   2.387  0.8838 -0.6958  0.0399
13904SOL    HW152641   4.270   7.042   2.405  3.0230  0.0454  0.8038
13904SOL    HW252642   4.294   7.198   2.447  0.3460  1.0499 -1.2616
13905SOL     OW52643   4.682   1.794   4.216  0.6621  0.1349  0.1917
13905SOL    HW152644   4.699   1.801   4.314  0.7880  0.8080  0.1258
13905SOL    HW252645   4.739   1.862   4.167  3.1473 -2.4472 -0.6343
13906SOL     OW52646   5.133   1.504   3.317  0.3656 -0.3634  0.3930
13906SOL    HW152647   5.109   1.525   3.412 -1.5215  0.8161 -0.3178
13906SOL    HW252648   5.210   1.562   3.289  1.3930 -1.2166  1.4072
13907SOL     OW52649   1.664   4.866   5.159 -0.4904  0.1472  0.0836
13907SOL    HW152650   1.596   4.812   5.208 -1.6413  2.0071  0.5983
13907SOL    HW252651   1.653   4.963   5.182  1.5092  0.6240 -0.8232
13908SOL     OW52652   0.983   9.416   0.920  0.4329  0.0617  0.2180
13908SOL    HW152653   0.941   9.502   0.889  0.0908 -0.5165 -0.9332
13908SOL    HW252654   1.018   9.428   1.013 -1.2683  0.9014  0.7692
13909SOL     OW52655   5.120   2.874   3.404 -0.3614 -0.0607  0.7745
13909SOL    HW152656   5.124   2.905   3.499 -1.2326  1.8140  0.2274
13909SOL    HW252657   5.049   2.925   3.355  0.7528 -0.2831 -1.1389
13910SOL     OW52658   3.329   3.148   0.640 -0.1222 -0.2522  0.0064
13910SOL    HW152659   3.370   3.202   0.567  0.2062  1.0245  1.0988
13910SOL    HW252660   3.230   3.145   0.628  0.0973 -1.8270 -1.6405
13911SOL     OW52661   3.763   2.115   2.510 -0.2806 -0.3591 -0.4357
13911SOL    HW152662   3.684   2.171   2.536  0.4479  0.0512  0.9636
13911SOL    HW252663   3.840   2.173   2.486 -0.3618 -0.7624 -1.7266
13912SOL     OW52664   1.187   6.840   2.118 -0.0083 -0.2634  0.2856
13912SOL    HW152665   1.167   6.933   2.085  0.3523 -0.0430  0.6730
13912SOL    HW252666   1.106   6.803   2.163 -0.5385 -0.6204 -0.9767
13913SOL     OW52667   9.712   8.852   0.030 -0.1255 -0.3739 -0.4689
13913SOL    HW152668   9.701   8.944  -0.009 -2.1844  0.3529  1.7156
13913SOL    HW252669   9.785   8.853   0.098 -0.2518 -0.3194 -0.3350
13914SOL     OW52670   8.311   6.646   5.383  0.3055  0.0739 -0.5732
13914SOL    HW152671   8.315   6.744   5.403  0.6730  0.1770 -1.1396
13914SOL    HW252672   8.230   6.626   5.329  0.3132  0.0919 -0.5930
13915SOL     OW52673   5.198   8.988   3.906 -0.5930 -0.6130 -0.1851
13915SOL    HW152674   5.258   9.063   3.934 -0.7676  0.6108 -2.9310
13915SOL    HW252675   5.107   9.002   3.947 -0.4675  0.4002 -0.2365
13916SOL     OW52676   2.664   6.778   5.121 -0.2043 -0.1865  0.7395
13916SOL    HW152677   2.631   6.839   5.192  0.2699  0.6249  0.2824
13916SOL    HW252678   2.609   6.790   5.038  0.4539  0.2949  0.3612
13917SOL     OW52679   8.277   3.985   0.808 -0.4345 -1.0033 -0.0254
13917SOL    HW152680   8.273   4.023   0.716  0.9115  0.4585  0.4897
13917SOL    HW252681   8.372   3.980   0.838 -0.9721  0.7740  2.1605
13918SOL     OW52682   2.732   9.761   5.297  0.6250  0.2851 -0.1213
13918SOL    HW152683   2.731   9.797   5.391  0.4073 -3.7952  1.5718
13918SOL    HW252684   2.640   9.768   5.258 -0.2140 -1.4159  1.4491
13919SOL     OW52685   2.356   4.503   0.495 -0.0200 -0.2988  0.4713
13919SOL    HW152686   2.277   4.475   0.549  0.9088  0.5090  2.2907
13919SOL    HW252687   2.440   4.474   0.542  0.7663 -1.8829 -1.8434
13920SOL     OW52688   1.267   4.833   1.066 -0.2724  0.3423 -0.0401
13920SOL    HW152689   1.238   4.851   0.972  0.6626 -0.5665 -0.5091
13920SOL    HW252690   1.203   4.770   1.109 -2.5434  3.2550  1.0222
13921SOL     OW52691   1.549   2.877   0.928 -0.0880  0.2054  0.1113
13921SOL    HW152692   1.610   2.855   0.852  1.0676 -0.8162  1.3045
13921SOL    HW252693   1.597   2.934   0.994 -0.9413  0.7060  0.3060
13922SOL     OW52694   7.339   9.540   1.480  0.7961 -0.5188 -0.1398
13922SOL    HW152695   7.376   9.631   1.500 -0.4193 -0.1099  0.3236
13922SOL    HW252696   7.408   9.485   1.434  1.7898  0.3974  0.2342
13923SOL     OW52697   7.297   0.615   2.435 -0.2904  0.2842 -0.1628
13923SOL    HW152698   7.322   0.551   2.508 -1.2503  0.2131  0.1052
13923SOL    HW252699   7.302   0.568   2.347  3.0435  0.9615 -0.3874
13924SOL     OW52700   9.677   1.769   1.393  0.1374  0.5094 -0.0776
13924SOL    HW152701   9.600   1.776   1.330 -0.4548 -0.4770  0.5234
13924SOL    HW252702   9.703   1.674   1.403  2.5760  0.9861 -1.6110
13925SOL     OW52703   8.111   8.262   1.893 -0.0044 -0.5654 -0.4566
13925SOL    HW152704   8.208   8.244   1.877  0.3090 -1.6003  2.3303
13925SOL    HW252705   8.061   8.176   1.892 -0.7513 -0.1297 -0.8940
13926SOL     OW52706   0.155   8.027   4.216 -0.3142 -0.6750 -0.0242
13926SOL    HW152707   0.163   8.002   4.120 -0.4419 -1.4104  0.1474
13926SOL    HW252708   0.062   8.011   4.247  0.0569 -1.7512  0.5676
13927SOL     OW52709   3.579   3.925   1.889 -0.3065 -0.2791 -0.2262
13927SOL    HW152710   3.647   3.902   1.820 -0.0364 -0.3292  0.0577
13927SOL    HW252711   3.621   3.983   1.960 -0.0355 -1.9605  1.0095
13928SOL     OW52712   7.948   8.869   4.648 -0.0613 -0.5082  0.0977
13928SOL    HW152713   7.881   8.816   4.700 -1.8905  1.0260 -0.6191
13928SOL    HW252714   8.032   8.816   4.637 -0.9305 -2.2340  1.5367
13929SOL     OW52715   3.191   1.216   3.851  0.6135 -0.0784  0.1305
13929SOL    HW152716   3.141   1.138   3.815  1.0181 -0.1177 -0.3640
13929SOL    HW252717   3.181   1.293   3.787 -1.0011  0.7358  1.3385
13930SOL     OW52718   9.122   2.269   5.479 -0.5459  0.8618 -0.1162
13930SOL    HW152719   9.131   2.271   5.379 -0.7022  0.3779 -0.1437
13930SOL    HW252720   9.109   2.362   5.514 -0.2830  1.0541 -0.5271
13931SOL     OW52721   2.705   1.317   2.152  0.4215  0.2879 -0.5171
13931SOL    HW152722   2.759   1.370   2.087  0.9260  0.4917  0.0567
13931SOL    HW252723   2.680   1.376   2.229  2.2196 -0.6686  0.8342
13932SOL     OW52724   6.605   0.384   0.768  0.3166 -0.5231 -0.0608
13932SOL    HW152725   6.692   0.419   0.734  0.2882 -0.2166  0.1909
13932SOL    HW252726   6.562   0.451   0.827 -1.2367  0.3318 -2.0897
13933SOL     OW52727   2.879   8.395   4.391 -0.3574 -0.1681 -0.0619
13933SOL    HW152728   2.934   8.314   4.413 -0.3117 -0.0546  0.2425
13933SOL    HW252729   2.864   8.448   4.474 -0.6767 -0.0437 -0.2002
13934SOL     OW52730   1.613   4.354   1.505 -0.2986  0.3814  0.3157
13934SOL    HW152731   1.550   4.289   1.548 -1.6331 -0.7396 -3.1951
13934SOL    HW252732   1.564   4.437   1.480 -0.0412  0.1474 -0.9937
13935SOL     OW52733   6.037   9.913   2.624  0.2509 -0.5591 -0.4552
13935SOL    HW152734   6.025   9.954   2.714 -0.9624 -1.0455 -0.3762
13935SOL    HW252735   6.130   9.930   2.591  0.9017 -0.9016  1.1459
13936SOL     OW52736   3.010   2.421   4.420 -0.2428  0.0909  0.2639
13936SOL    HW152737   2.937   2.443   4.484 -2.1750 -1.2971 -1.3744
13936SOL    HW252738   3.019   2.494   4.353 -1.6452 -0.7062 -0.8201
13937SOL     OW52739   1.796   1.859   4.346 -0.0946 -0.0197 -0.4511
13937SOL    HW152740   1.839   1.851   4.256 -0.1316  0.8407 -0.5523
13937SOL    HW252741   1.834   1.938   4.394 -1.2588  0.5025 -0.3740
13938SOL     OW52742   6.190   0.529   3.202 -0.1213 -0.1609 -0.2827
13938SOL    HW152743   6.169   0.470   3.124  0.2159 -0.2011 -0.3468
13938SOL    HW252744   6.287   0.556   3.198  0.0001 -0.4908  0.3372
13939SOL     OW52745   8.931   0.401   1.127 -0.1257  0.0507  0.1266
13939SOL    HW152746   8.844   0.397   1.176  0.0743  0.4680  0.5211
13939SOL    HW252747   8.933   0.485   1.072  0.4836  0.5962  0.9802
13940SOL     OW52748   8.722   6.578   0.521  0.4586  0.3124  0.1728
13940SOL    HW152749   8.816   6.611   0.532  0.2852  1.5233 -1.9424
13940SOL    HW252750   8.663   6.652   0.490 -0.7217 -1.0311 -0.8749
13941SOL     OW52751   5.077   3.354   0.367 -0.6766  0.3573 -0.0307
13941SOL    HW152752   5.030   3.303   0.295  0.7256 -0.1154 -0.6338
13941SOL    HW252753   5.100   3.292   0.443  1.6074 -0.1062 -1.0483
13942SOL     OW52754   1.860   0.805   1.504  0.4782  0.3399  0.0187
13942SOL    HW152755   1.942   0.750   1.519  1.2489  1.0906 -1.3176
13942SOL    HW252756   1.796   0.755   1.447  0.1269 -0.1191  0.8010
13943SOL     OW52757   0.162   1.512   2.996  0.4075  0.3474 -0.5032
13943SOL    HW152758   0.185   1.469   2.909 -1.4228  1.6431 -1.6671
13943SOL    HW252759   0.096   1.585   2.980 -2.4179 -1.4509  2.3448
13944SOL     OW52760   3.879   1.494   4.740  0.1597  0.3683 -0.4043
13944SOL    HW152761   3.942   1.428   4.780  1.1229  1.0020 -0.8647
13944SOL    HW252762   3.786   1.456   4.740  0.3101 -0.0381  1.4717
13945SOL     OW52763   0.526   2.450   1.069 -0.0960  0.0004 -0.5509
13945SOL    HW152764   0.440   2.428   1.114 -0.6966 -0.4679 -1.9091
13945SOL    HW252765   0.567   2.367   1.032 -0.5640  0.6138 -2.5150
13946SOL     OW52766   2.787   7.363   1.808  0.3366 -0.4144 -0.0536
13946SOL    HW152767   2.788   7.432   1.736 -0.0803 -0.4027 -0.0537
13946SOL    HW252768   2.716   7.387   1.875  1.0749 -0.1427  0.6398
13947SOL     OW52769   0.211   5.443   3.227 -0.4975  0.4240  0.4276
13947SOL    HW152770   0.273   5.366   3.218 -0.9846  0.1105 -0.2586
13947SOL    HW252771   0.252   5.512   3.287  0.4967  0.2208 -0.0192
13948SOL     OW52772   5.064   8.924   1.385 -0.0677 -0.2104 -0.0049
13948SOL    HW152773   5.102   8.970   1.465 -1.5962  0.0623  0.5999
13948SOL    HW252774   5.083   8.977   1.303  0.0486  0.3989  0.4112
13949SOL     OW52775   8.049   6.158   0.821  0.2476  0.2514  0.3023
13949SOL    HW152776   8.036   6.125   0.914  1.0238  0.2831  0.4245
13949SOL    HW252777   8.140   6.198   0.812  0.2674  0.0329 -0.5345
13950SOL     OW52778   6.063   9.235   1.945  0.0483 -0.4739  0.2437
13950SOL    HW152779   6.020   9.212   1.857  0.3648 -1.1079  0.2500
13950SOL    HW252780   6.142   9.294   1.929 -0.3560  0.0517  0.1684
13951SOL     OW52781   1.878   0.993   0.073  0.1429  0.1533 -0.1171
13951SOL    HW152782   1.798   0.996   0.132  0.4321 -1.0633  0.3654
13951SOL    HW252783   1.908   1.086   0.052 -0.4273  0.6074  1.0195
13952SOL     OW52784   5.107   2.359   3.368  0.4686  0.4707  0.1462
13952SOL    HW152785   5.101   2.299   3.448 -0.7987 -0.5172 -0.6611
13952SOL    HW252786   5.032   2.425   3.371 -1.1235 -1.1865 -1.4810
13953SOL     OW52787   9.154   6.908   4.598  0.6385  0.5679 -0.5192
13953SOL    HW152788   9.250   6.932   4.588  0.3749  2.9583  2.1129
13953SOL    HW252789   9.100   6.990   4.616 -1.4511 -1.0818  1.1265
13954SOL     OW52790   1.686   9.378   2.671 -0.2312 -0.2786 -0.3082
13954SOL    HW152791   1.640   9.462   2.642  0.2141  0.5008  1.1730
13954SOL    HW252792   1.781   9.398   2.693 -0.8287 -0.5446  2.7634
13955SOL     OW52793   4.455   0.685   1.781 -0.4146  0.2136 -0.0988
13955SOL    HW152794   4.390   0.678   1.705  0.0676  2.9202 -0.7928
13955SOL    HW252795   4.410   0.654   1.865 -1.7162 -0.5155 -1.0330
13956SOL     OW52796   0.019   3.063   1.317 -0.4376 -0.2355  0.6384
13956SOL    HW152797  -0.045   3.009   1.371 -0.9867 -0.1225  0.1062
13956SOL    HW252798  -0.007   3.160   1.320  0.7845  0.0697  1.9287
13957SOL     OW52799   3.781   2.140   4.501 -0.2341  0.1137  0.4884
13957SOL    HW152800   3.737   2.050   4.502  0.6201 -0.2987  1.6640
13957SOL    HW252801   3.877   2.131   4.526  0.1159  1.2296 -0.3863
13958SOL     OW52802   9.630   7.658   4.746 -0.0469 -0.0154 -0.1351
13958SOL    HW152803   9.657   7.572   4.788  1.5376 -0.4861 -2.0298
13958SOL    HW252804   9.656   7.658   4.650 -0.4538  2.4004 -0.2867
13959SOL     OW52805   9.913   0.457   5.491 -0.6884  0.1815  0.1189
13959SOL    HW152806   9.971   0.496   5.562  0.3888  0.1936 -0.7538
13959SOL    HW252807   9.817   0.477   5.511 -0.4667 -0.5565  2.0142
13960SOL     OW52808   8.413   2.387   2.444  0.1634 -0.0939 -0.5372
13960SOL    HW152809   8.404   2.367   2.541  1.4774  0.3102 -0.3168
13960SOL    HW252810   8.494   2.445   2.429 -1.2412  1.6217 -1.6321
13961SOL     OW52811   2.103   3.792   3.170  0.1647 -0.1342  0.0732
13961SOL    HW152812   2.118   3.779   3.072 -0.3514 -1.1535  0.1221
13961SOL    HW252813   2.145   3.717   3.221 -0.5012 -0.1837  0.5605
13962SOL     OW52814   6.603   0.948   4.545 -0.0747 -0.0052  0.4464
13962SOL    HW152815   6.658   1.032   4.540  0.8551 -0.6476 -0.1751
13962SOL    HW252816   6.634   0.893   4.623  0.2522 -0.4223  0.0263
13963SOL     OW52817   3.619   2.507   1.414  0.2858  0.0668  0.1829
13963SOL    HW152818   3.585   2.600   1.423 -1.4227 -0.6299  1.1729
13963SOL    HW252819   3.579   2.464   1.332  1.7862  0.4846 -0.7915
13964SOL     OW52820   7.342   7.789   2.795  0.7882 -0.1065  0.1801
13964SOL    HW152821   7.287   7.873   2.795  1.4000  0.3139  1.6502
13964SOL    HW252822   7.281   7.710   2.806  0.6345  0.5596  5.6011
13965SOL     OW52823   3.224   8.306   2.580 -0.8995  0.3106 -0.6794
13965SOL    HW152824   3.291   8.256   2.524  0.3241 -0.4660  1.4324
13965SOL    HW252825   3.263   8.394   2.607 -1.0479  0.2126 -0.1397
13966SOL     OW52826   8.694   9.305   2.862  0.1313  0.0394 -0.1459
13966SOL    HW152827   8.780   9.280   2.906 -0.7521 -0.4293  1.3320
13966SOL    HW252828   8.704   9.295   2.763  1.4307 -1.1163  0.0781
13967SOL     OW52829   2.837   6.770   0.307 -0.6607 -0.0815  0.1203
13967SOL    HW152830   2.757   6.764   0.366 -0.0508  0.6555  1.0312
13967SOL    HW252831   2.863   6.866   0.297  1.3286 -0.4711  1.4721
13968SOL     OW52832   7.034   0.739   1.575 -0.1049 -0.7332 -0.7298
13968SOL    HW152833   7.060   0.794   1.655  3.3082 -0.4202 -1.9487
13968SOL    HW252834   6.938   0.756   1.552  0.2312  3.0246  0.3072
13969SOL     OW52835   8.999   0.529   5.513 -0.0170 -0.1828 -0.1571
13969SOL    HW152836   8.976   0.626   5.524  0.7300  0.0256 -0.4328
13969SOL    HW252837   9.087   0.520   5.466 -0.9688 -1.0039 -1.8580
13970SOL     OW52838   4.120   1.231   0.098  0.3732  0.1757  0.9708
13970SOL    HW152839   4.059   1.229   0.019 -0.2547 -0.0916  1.4607
13970SOL    HW252840   4.214   1.243   0.067  0.4127 -2.2240  0.0051
13971SOL     OW52841   3.967   5.461   2.667 -0.3479 -0.3579 -0.2072
13971SOL    HW152842   3.879   5.441   2.623 -1.0932  1.3390  0.4860
13971SOL    HW252843   3.952   5.495   2.759  0.9788  1.2540 -0.5708
13972SOL     OW52844   9.610   2.848   0.695  0.1565 -0.5155 -0.1028
13972SOL    HW152845   9.682   2.911   0.725  0.5161 -0.3961 -1.2059
13972SOL    HW252846   9.650   2.760   0.671 -0.2403 -0.8808  0.5598
13973SOL     OW52847   9.183   8.874   4.513  0.0686  0.1363  0.4390
13973SOL    HW152848   9.248   8.949   4.526  2.1392 -1.7440  1.1930
13973SOL    HW252849   9.179   8.818   4.596  0.2982 -1.9295 -0.8990
13974SOL     OW52850   0.652   6.957   4.446  0.0421 -0.5724  0.1833
13974SOL    HW152851   0.656   6.972   4.347  1.4364 -0.7417  0.2081
13974SOL    HW252852   0.634   6.861   4.465  0.2446 -0.6265  0.0974
13975SOL     OW52853   3.374   1.494   2.047 -0.3294 -0.0363 -0.6561
13975SOL    HW152854   3.451   1.431   2.037  0.1327  0.1453  1.4050
13975SOL    HW252855   3.407   1.588   2.035 -0.3593 -0.0035 -0.4893
13976SOL     OW52856   8.134   9.915   2.432 -0.4454  0.1605  0.1587
13976SOL    HW152857   8.223   9.955   2.456 -0.3397 -1.1980  2.1453
13976SOL    HW252858   8.147   9.844   2.364  0.0196 -0.0690  0.4796
13977SOL     OW52859   4.496   2.692   1.024 -0.4389  0.3941  0.2774
13977SOL    HW152860   4.561   2.638   1.078 -0.0263 -0.5737 -1.1495
13977SOL    HW252861   4.492   2.655   0.931 -0.9297  2.1970 -0.4373
13978SOL     OW52862   1.319   8.528   4.846 -0.2515 -0.0035  0.3733
13978SOL    HW152863   1.251   8.503   4.777 -0.0197  1.3953 -0.3896
13978SOL    HW252864   1.335   8.451   4.907 -0.8303 -1.1009 -0.8371
13979SOL     OW52865   1.156   3.379   4.082 -0.0331  0.3732 -0.0905
13979SOL    HW152866   1.179   3.285   4.054 -0.0230 -0.3189  2.1217
13979SOL    HW252867   1.088   3.376   4.154  1.1185  2.0082  1.0948
13980SOL     OW52868   5.117   3.687   2.169  0.5439  0.1731 -1.1627
13980SOL    HW152869   5.081   3.595   2.153 -0.7509  0.3189  0.7847
13980SOL    HW252870   5.161   3.690   2.259 -0.0984  1.6673 -0.8979
13981SOL     OW52871   0.910   6.901   4.557 -1.0941  0.5494 -0.3333
13981SOL    HW152872   0.933   6.818   4.507  0.4067  0.7945 -0.0839
13981SOL    HW252873   0.828   6.943   4.517 -1.0695 -0.3243 -1.3114
13982SOL     OW52874   2.887   6.690   1.596  0.2227 -0.1217 -0.1967
13982SOL    HW152875   2.838   6.615   1.550 -0.0683  0.3763 -0.7042
13982SOL    HW252876   2.931   6.655   1.679 -1.0128 -0.5728  0.2770
13983SOL     OW52877   0.854   4.077   1.934  0.1660 -0.1019 -0.4601
13983SOL    HW152878   0.813   3.986   1.934  0.5710 -0.2892  0.2044
13983SOL    HW252879   0.797   4.140   1.987  0.9796 -0.4867  0.9122
13984SOL     OW52880   4.510   7.961   1.991 -0.3657  0.5718 -0.2715
13984SOL    HW152881   4.493   7.924   2.083  1.6929 -0.8071 -0.4221
13984SOL    HW252882   4.566   8.043   1.998  0.8103 -0.2202 -0.3674
13985SOL     OW52883   7.910   4.816   0.123 -0.8953  0.4366 -0.0963
13985SOL    HW152884   7.866   4.728   0.106  1.0643 -0.5095 -0.4030
13985SOL    HW252885   7.881   4.851   0.212 -1.6773 -0.5251  0.0313
13986SOL     OW52886   1.873   8.777   4.594 -0.4056 -0.4145 -0.5034
13986SOL    HW152887   1.841   8.863   4.634 -0.3976 -0.9420  0.6568
13986SOL    HW252888   1.855   8.702   4.657  0.6455 -1.1036 -1.0055
13987SOL     OW52889   0.879   4.322   4.528  0.2017  0.0957 -0.8315
13987SOL    HW152890   0.881   4.298   4.431 -2.0194  1.0287 -1.1468
13987SOL    HW252891   0.809   4.392   4.543  1.2934  0.7634  1.2754
13988SOL     OW52892   9.179   3.326   4.432 -0.4085 -0.0765  0.1096
13988SOL    HW152893   9.112   3.252   4.423 -0.3050  0.1758 -3.1344
13988SOL    HW252894   9.144   3.408   4.388  1.0944  0.7195  0.3614
13989SOL     OW52895   4.850   0.260   2.181  0.2376  0.7856  0.0821
13989SOL    HW152896   4.772   0.285   2.124  0.6169  1.2545 -0.2378
13989SOL    HW252897   4.877   0.166   2.163 -0.9432  0.2603  0.9886
13990SOL     OW52898   1.171   6.326   5.528  0.3914  0.2353  0.3873
13990SOL    HW152899   1.245   6.318   5.462  0.8574  4.0219  0.3486
13990SOL    HW252900   1.085   6.342   5.480  0.1855 -0.3162  0.5723
13991SOL     OW52901   1.920   8.185   1.797  0.1497 -0.2132  0.0673
13991SOL    HW152902   1.876   8.122   1.734 -1.1086  0.8448 -0.1336
13991SOL    HW252903   1.884   8.169   1.890  3.0110 -2.7198  0.8311
13992SOL     OW52904   5.642   0.998   4.018 -0.0468  0.1187 -0.0595
13992SOL    HW152905   5.675   0.909   4.048  1.5999  0.8317  0.2838
13992SOL    HW252906   5.614   1.052   4.098  0.9012  0.6625 -0.0852
13993SOL     OW52907   1.368   6.122   1.210  0.5226  0.0846 -0.6318
13993SOL    HW152908   1.452   6.140   1.159 -0.8014 -1.4230 -3.4751
13993SOL    HW252909   1.315   6.207   1.217  2.0844  0.9517  0.8409
13994SOL     OW52910   3.448   4.543   0.496 -0.1893 -0.3091  0.0139
13994SOL    HW152911   3.492   4.587   0.574 -0.5985 -1.6038  1.0006
13994SOL    HW252912   3.510   4.544   0.418  0.3490  0.7176  0.4429
13995SOL     OW52913   8.571   4.175   3.687 -0.3107 -0.1031 -0.1778
13995SOL    HW152914   8.658   4.222   3.671  0.2509 -0.9127  0.4407
13995SOL    HW252915   8.530   4.209   3.771  0.2630 -0.9455  0.4509
13996SOL     OW52916   6.550   1.391   3.081  0.0812 -0.2952  0.2196
13996SOL    HW152917   6.613   1.461   3.048 -0.1506  0.1419  0.7022
13996SOL    HW252918   6.456   1.420   3.065 -0.0159 -0.4788  0.4499
13997SOL     OW52919   0.832   0.715   4.728 -0.6204  0.3449 -0.0081
13997SOL    HW152920   0.777   0.646   4.774 -0.4170  0.5921  0.6138
13997SOL    HW252921   0.807   0.806   4.763  0.0459  0.4711  0.1434
13998SOL     OW52922   2.121   3.191   2.332  0.4248 -0.3286 -0.0142
13998SOL    HW152923   2.214   3.192   2.297  0.4148 -0.5338 -0.0466
13998SOL    HW252924   2.118   3.146   2.421  0.6486  1.2861  0.8262
13999SOL     OW52925   8.554   6.197   5.035  0.3151  0.1553  0.3082
13999SOL    HW152926   8.555   6.157   5.126 -1.0661 -0.9637 -0.1454
13999SOL    HW252927   8.462   6.231   5.014  1.0680  2.1331  0.0490
14000SOL     OW52928   1.143   2.860   1.215 -0.3050 -0.2760  0.1732
14000SOL    HW152929   1.225   2.915   1.231 -0.6472 -0.0150  1.0794
14000SOL    HW252930   1.064   2.908   1.252 -0.6377 -1.2787  0.7879
14001SOL     OW52931   1.295   3.944   5.404  0.5417  0.2272  0.2318
14001SOL    HW152932   1.359   4.013   5.371 -0.9917  0.9121 -1.4024
14001SOL    HW252933   1.329   3.852   5.380  0.3819  0.6304 -1.6454
14002SOL     OW52934   3.789   2.129   3.643 -0.2224 -0.0460  0.2911
14002SOL    HW152935   3.875   2.146   3.691 -0.9289  0.3348  1.4302
14002SOL    HW252936   3.770   2.204   3.579  0.0827  0.0614  0.3259
14003SOL     OW52937   0.471   1.170   2.603  0.6248 -0.7850  0.2190
14003SOL    HW152938   0.546   1.111   2.575  0.5135 -0.8706  0.1040
14003SOL    HW252939   0.482   1.194   2.700  0.0706 -1.8951  0.5698
14004SOL     OW52940   0.402   7.632   5.565  0.0882 -0.3722  0.1957
14004SOL    HW152941   0.482   7.571   5.560  1.5156  1.4867 -0.2718
14004SOL    HW252942   0.414   7.695   5.642 -0.6740  0.2494 -0.1922
14005SOL     OW52943   3.285   3.401   3.552 -0.0340  0.6844  0.0867
14005SOL    HW152944   3.363   3.398   3.613  0.5880  1.9111 -0.6249
14005SOL    HW252945   3.279   3.315   3.501  1.9122  1.2307 -1.1311
14006SOL     OW52946   4.675   4.216   1.873  0.2470  0.2550  0.0282
14006SOL    HW152947   4.729   4.184   1.796 -0.7584 -0.3847 -0.4280
14006SOL    HW252948   4.578   4.215   1.848 -0.1878 -1.0829  1.6788
14007SOL     OW52949   1.752   2.752   1.320 -0.9627  0.2128  0.3579
14007SOL    HW152950   1.749   2.843   1.363 -3.9183  0.2290  0.2617
14007SOL    HW252951   1.730   2.683   1.389  0.1484 -0.3289  0.1708
14008SOL     OW52952   2.839   2.913   0.597 -0.1949  0.0486  0.4215
14008SOL    HW152953   2.783   2.859   0.535 -1.4885  2.4372 -0.5400
14008SOL    HW252954   2.780   2.976   0.649  1.0695 -0.6397  2.7676
14009SOL     OW52955   9.544   8.887   2.197 -0.1018  0.5666 -0.0371
14009SOL    HW152956   9.560   8.815   2.129 -1.4199 -1.0966  1.3917
14009SOL    HW252957   9.464   8.941   2.171  0.3728  0.9920 -0.6458
14010SOL     OW52958   5.548   0.706   1.674 -0.0230 -0.3941  0.4988
14010SOL    HW152959   5.638   0.685   1.711 -0.0018 -1.9153 -0.3884
14010SOL    HW252960   5.477   0.677   1.738  0.1050  0.5576  1.0759
14011SOL     OW52961   6.411   1.755   2.729 -0.4899  0.9381  0.5263
14011SOL    HW152962   6.401   1.836   2.670 -1.8852  0.4911  0.1187
14011SOL    HW252963   6.473   1.690   2.686  0.1482  1.5176  0.5589
14012SOL     OW52964   4.729   0.912   1.284  0.2450  0.4965  0.4824
14012SOL    HW152965   4.731   0.978   1.359  0.0076  0.6738  0.3342
14012SOL    HW252966   4.819   0.911   1.239  0.5300  0.0440  1.0630
14013SOL     OW52967   1.180   4.267   1.187 -0.3945  0.7747 -0.4998
14013SOL    HW152968   1.241   4.256   1.266 -1.1546  0.3700  0.0336
14013SOL    HW252969   1.119   4.188   1.181 -0.7975  1.1324 -1.0956
14014SOL     OW52970   8.755   4.978   1.995 -0.0882  0.2910 -0.4228
14014SOL    HW152971   8.736   4.880   1.988 -1.1946  0.4373  0.4626
14014SOL    HW252972   8.800   4.998   2.082 -2.8870  1.0088  0.9143
14015SOL     OW52973   7.800   0.325   2.920 -0.3080  0.2107  0.4421
14015SOL    HW152974   7.832   0.414   2.888  0.8855 -0.2125  0.4284
14015SOL    HW252975   7.714   0.337   2.970 -2.0366  0.9044 -2.6234
14016SOL     OW52976   9.823   6.166   2.467  0.6567 -0.4139  0.2040
14016SOL    HW152977   9.812   6.118   2.554 -1.0663 -0.7210 -0.1805
14016SOL    HW252978   9.905   6.132   2.421  0.4019 -1.7582  0.7242
14017SOL     OW52979   0.900   1.991   1.616 -0.2204  0.1879  0.4009
14017SOL    HW152980   0.939   1.900   1.629  2.4860  1.3854  0.8934
14017SOL    HW252981   0.917   2.047   1.698  0.4280  1.9253 -0.8867
14018SOL     OW52982   0.161   8.744   1.612  0.6008  0.6052  0.3123
14018SOL    HW152983   0.255   8.767   1.638  1.0521 -0.3394 -0.4330
14018SOL    HW252984   0.097   8.802   1.662  1.5683  0.9755  1.1315
14019SOL     OW52985   7.726   0.787   0.489  0.2911 -0.3980 -0.1853
14019SOL    HW152986   7.668   0.864   0.516  0.8127 -0.5394  1.3689
14019SOL    HW252987   7.817   0.820   0.463  1.0345 -0.6104  2.0425
14020SOL     OW52988   0.748   3.882   3.237  0.2921 -0.1278 -0.3684
14020SOL    HW152989   0.731   3.864   3.334 -2.7412 -0.6783 -0.9834
14020SOL    HW252990   0.748   3.980   3.221 -1.6110 -0.0959 -0.2172
14021SOL     OW52991   2.515   0.115   1.621 -0.2678  0.0092  0.1884
14021SOL    HW152992   2.576   0.156   1.689  1.4635  1.1859 -1.9899
14021SOL    HW252993   2.436   0.174   1.607  0.6531  1.0725 -0.6493
14022SOL     OW52994   8.485   2.351   3.602 -0.4808  0.4566 -0.0015
14022SOL    HW152995   8.436   2.332   3.687 -1.0378  1.3979 -0.1059
14022SOL    HW252996   8.439   2.304   3.527 -0.8622  0.8385 -0.0071
14023SOL     OW52997   1.340   2.081   4.918  0.3443  0.4426  0.4532
14023SOL    HW152998   1.416   2.146   4.917  0.7971 -0.0678  0.9024
14023SOL    HW252999   1.369   1.996   4.873  0.3311 -0.0654  1.3898
14024SOL     OW53000   8.286   9.994   0.532 -0.9354 -0.0868  0.3098
14024SOL    HW153001   8.355   9.937   0.486  0.2442  1.8385 -0.3467
14024SOL    HW253002   8.211   9.936   0.563  1.4390 -2.4043  1.9573
14025SOL     OW53003   5.149   1.901   0.064  0.5379 -0.0059 -0.5516
14025SOL    HW153004   5.241   1.938   0.076 -0.2861  1.7201  0.5275
14025SOL    HW253005   5.155   1.812   0.019  2.6992  0.3252 -0.9710
14026SOL     OW53006   1.694   2.549   1.487 -0.5113 -0.1493 -0.5732
14026SOL    HW153007   1.735   2.564   1.577 -0.7545  0.7787 -0.6114
14026SOL    HW253008   1.614   2.490   1.496  0.0729 -0.9130 -0.3252
14027SOL     OW53009   9.772   6.047   0.616 -0.6897 -0.1828 -0.2302
14027SOL    HW153010   9.742   6.137   0.648 -0.3646  0.2807 -1.1986
14027SOL    HW253011   9.703   6.008   0.556 -1.1391 -0.8898  0.7412
14028SOL     OW53012   8.711   2.099   1.363  0.3843  0.1392 -0.1948
14028SOL    HW153013   8.690   2.189   1.325  1.6707  0.1274 -0.9482
14028SOL    HW253014   8.686   2.029   1.296 -0.7023 -0.0867  0.4282
14029SOL     OW53015   0.255   4.364   1.134 -0.2089 -0.1927  0.0543
14029SOL    HW153016   0.291   4.285   1.084 -0.2902  1.3236 -2.4680
14029SOL    HW253017   0.317   4.387   1.209  0.9755 -1.2557 -0.5783
14030SOL     OW53018   0.389   4.182   1.328  0.3767  0.4870  0.0226
14030SOL    HW153019   0.458   4.123   1.287 -2.0103 -2.7946  0.4714
14030SOL    HW253020   0.396   4.177   1.428  1.0836  2.1757  0.0791
14031SOL     OW53021   8.418   6.034   0.662 -0.0562  0.0174  0.1428
14031SOL    HW153022   8.505   5.990   0.639 -0.0158 -0.4277  1.1126
14031SOL    HW253023   8.429   6.133   0.660  0.0454 -0.0206 -1.3406
14032SOL     OW53024   8.736   7.251   0.176 -0.1706  0.0429 -0.0863
14032SOL    HW153025   8.733   7.195   0.259  0.4117 -0.1351 -0.1809
14032SOL    HW253026   8.700   7.342   0.196  2.7227  0.9742  1.1375
14033SOL     OW53027   7.110   7.735   4.419 -0.2058  0.0188 -0.0912
14033SOL    HW153028   7.058   7.745   4.505 -0.4365 -1.2869 -0.0789
14033SOL    HW253029   7.049   7.705   4.347  0.6821 -2.3439  0.1131
14034SOL     OW53030   0.230   8.050   0.291 -0.5092  0.2197  0.1877
14034SOL    HW153031   0.168   8.128   0.291  0.2206  0.8126 -1.1556
14034SOL    HW253032   0.323   8.082   0.307 -0.5252 -0.6760  2.2933
14035SOL     OW53033   2.883   1.945   1.752 -0.1534  0.1141  0.0315
14035SOL    HW153034   2.950   2.019   1.763 -0.3380  0.1799  0.7313
14035SOL    HW253035   2.791   1.980   1.771 -0.3830 -0.0127 -0.7905
14036SOL     OW53036   5.537   1.388   2.963  0.2422  0.2999 -0.0341
14036SOL    HW153037   5.548   1.406   2.865 -1.4635  5.6108  0.5730
14036SOL    HW253038   5.625   1.394   3.009  0.6989  0.2615 -0.9013
14037SOL     OW53039   9.908   0.828   1.856  0.6820 -0.4451  0.0748
14037SOL    HW153040   9.983   0.764   1.845 -0.0719 -1.5795  1.3645
14037SOL    HW253041   9.870   0.820   1.948  1.0876  2.4295  0.5502
14038SOL     OW53042   4.178   8.672   3.397  0.0103 -0.1332 -0.3064
14038SOL    HW153043   4.220   8.583   3.417 -0.1089 -0.4558 -1.4897
14038SOL    HW253044   4.249   8.740   3.383  0.1024  0.2406  1.7917
14039SOL     OW53045   4.660   4.548   4.675 -0.0540  0.5163 -0.1805
14039SOL    HW153046   4.631   4.529   4.582  2.1219  0.5974 -0.9070
14039SOL    HW253047   4.661   4.647   4.691 -2.1350  0.4432  0.5197
14040SOL     OW53048   0.493   5.266   0.796 -0.3799  0.1453  0.2995
14040SOL    HW153049   0.495   5.339   0.864  0.0500  0.4958 -0.0887
14040SOL    HW253050   0.569   5.278   0.732 -1.3191  0.3551 -0.7951
14041SOL     OW53051   8.426   9.391   2.933 -0.0713  0.1119  0.3832
14041SOL    HW153052   8.515   9.380   2.890  0.1508 -1.4507  1.2159
14041SOL    HW253053   8.419   9.483   2.972  0.6007  0.7413 -0.9598
14042SOL     OW53054   8.445   3.561   2.876 -0.1103 -0.1898 -0.1488
14042SOL    HW153055   8.349   3.539   2.897 -0.3164  1.7979  1.0762
14042SOL    HW253056   8.504   3.488   2.910 -1.0798 -0.7303  0.3900
14043SOL     OW53057   6.763   9.847   2.838  0.0858  0.3649  0.1163
14043SOL    HW153058   6.826   9.783   2.882  0.4452  1.7249  1.6570
14043SOL    HW253059   6.670   9.811   2.842  0.3718 -0.3431  0.4178
14044SOL     OW53060   0.969   9.353   0.091 -0.3225 -0.0701  0.4984
14044SOL    HW153061   0.877   9.371   0.057 -0.4925 -1.7633  0.0297
14044SOL    HW253062   0.968   9.354   0.191 -0.8268 -0.0303  0.4938
14045SOL     OW53063   8.298   8.258   1.521 -0.0231 -0.2044  0.1760
14045SOL    HW153064   8.208   8.299   1.502  0.2008 -0.7317 -2.1089
14045SOL    HW253065   8.329   8.208   1.441  1.2712 -2.0030  1.7799
14046SOL     OW53066   5.990   0.883   0.750  0.6006 -0.0739 -0.5973
14046SOL    HW153067   6.047   0.965   0.759 -0.6544  0.6020  1.7672
14046SOL    HW253068   5.946   0.864   0.838 -0.8845 -2.0090 -1.7255
14047SOL     OW53069   4.644   0.277   4.290 -0.1410  0.3106 -0.5916
14047SOL    HW153070   4.715   0.325   4.340 -0.8210  1.5860 -0.8321
14047SOL    HW253071   4.579   0.237   4.355 -1.4746  2.6547 -0.4458
14048SOL     OW53072   3.274   7.035   4.085 -0.6654 -0.3285  0.3101
14048SOL    HW153073   3.247   7.093   4.162  1.1549  0.4163  0.4098
14048SOL    HW253074   3.287   6.941   4.117 -0.5196 -0.1497  0.7792
14049SOL     OW53075   8.117   6.593   0.708  1.3499  0.5326 -0.0483
14049SOL    HW153076   8.073   6.673   0.667 -0.0719  0.7198  1.7592
14049SOL    HW253077   8.126   6.521   0.640  0.6221  1.4250 -1.1195
14050SOL     OW53078   7.116   1.538   2.662 -0.6058 -0.3828 -0.0989
14050SOL    HW153079   7.052   1.470   2.697  0.6890 -1.5761  0.0062
14050SOL    HW253080   7.196   1.542   2.722  0.1184 -0.0295 -1.0858
14051SOL     OW53081   2.784   0.354   3.855  0.5473 -0.1034  0.1035
14051SOL    HW153082   2.727   0.300   3.791 -1.4113  0.1971  1.5441
14051SOL    HW253083   2.837   0.292   3.913  3.2115 -0.3786 -2.5053
14052SOL     OW53084   4.198   4.575   3.575 -0.2730 -0.0696 -0.1000
14052SOL    HW153085   4.258   4.594   3.653 -1.4057 -1.3216  1.1032
14052SOL    HW253086   4.244   4.515   3.510  0.1726 -0.1403  0.2841
14053SOL     OW53087   2.416   8.858   5.406 -0.1541  0.1199 -0.3167
14053SOL    HW153088   2.383   8.872   5.313 -2.4723  2.4320  0.7923
14053SOL    HW253089   2.506   8.900   5.417 -0.7457  1.5814 -0.9889
14054SOL     OW53090   1.343   8.882   0.836  0.2369 -0.1670 -0.2078
14054SOL    HW153091   1.351   8.944   0.914  3.5202  0.8124 -1.2533
14054SOL    HW253092   1.288   8.925   0.764  0.2203  0.4056  0.1524
14055SOL     OW53093   8.690   5.737   5.472 -0.0654 -0.6398 -0.9592
14055SOL    HW153094   8.634   5.681   5.533 -0.0070  0.5072  0.1790
14055SOL    HW253095   8.787   5.715   5.486  0.0292  0.4935  0.2879
14056SOL     OW53096   0.073   9.552   2.802 -0.3186 -0.4136 -0.2249
14056SOL    HW153097   0.090   9.552   2.900 -1.2097 -1.0127 -0.0657
14056SOL    HW253098   0.078   9.645   2.767  2.1739 -0.4291  0.0026
14057SOL     OW53099   9.927   4.722   2.228 -0.5870 -0.2414 -0.0640
14057SOL    HW153100   9.895   4.679   2.143 -1.0981 -1.8940  0.9539
14057SOL    HW253101  10.023   4.749   2.216 -0.4173 -1.1785 -0.8985
14058SOL     OW53102   2.630   7.722   0.640 -0.1295 -0.0200  0.1399
14058SOL    HW153103   2.588   7.682   0.559 -3.2468 -0.3175  1.8427
14058SOL    HW253104   2.658   7.648   0.702 -1.4599  0.3060  1.1329
14059SOL     OW53105   5.985   1.387   1.666  0.7848  0.0594 -0.0644
14059SOL    HW153106   5.930   1.438   1.600  4.7060  3.0851 -1.1853
14059SOL    HW253107   5.972   1.289   1.650 -2.2836  0.6949 -1.9017
14060SOL     OW53108   8.587   1.317   3.112  0.4359  0.0122 -0.8387
14060SOL    HW153109   8.654   1.261   3.160 -0.0217 -0.1168 -0.3434
14060SOL    HW253110   8.631   1.365   3.036  1.3939  1.0223  0.3301
14061SOL     OW53111   1.340   6.327   3.699 -0.1729 -0.0710  0.0762
14061SOL    HW153112   1.263   6.348   3.638 -0.0936  0.2554  0.0885
14061SOL    HW253113   1.376   6.412   3.738  1.5267 -0.0068 -1.5336
14062SOL     OW53114   1.103   8.361   5.187  0.6159 -0.4511  0.2674
14062SOL    HW153115   1.061   8.439   5.140  1.1673  0.7427  1.7392
14062SOL    HW253116   1.082   8.277   5.136 -0.8066  0.5178 -0.7930
14063SOL     OW53117   4.039   0.711   1.661 -0.2970 -0.4683  0.1291
14063SOL    HW153118   3.992   0.625   1.678  1.2210 -1.6507 -1.3921
14063SOL    HW253119   4.000   0.755   1.580 -0.3089 -0.3119  0.2197
14064SOL     OW53120   8.764   3.872   1.205 -0.3565  0.2607  0.1361
14064SOL    HW153121   8.666   3.893   1.207 -0.5623 -0.6982  0.3535
14064SOL    HW253122   8.797   3.860   1.298 -0.4481 -1.2730 -0.0216
14065SOL     OW53123   1.736   2.865   1.839  0.6852  0.3234 -0.2556
14065SOL    HW153124   1.659   2.846   1.899  0.2851 -0.8401 -1.1264
14065SOL    HW253125   1.803   2.922   1.888  0.0531 -0.0295  1.0435
14066SOL     OW53126   9.708   6.111   4.705 -0.1495 -0.0914 -0.3314
14066SOL    HW153127   9.610   6.113   4.722  0.1861 -0.2616  1.7938
14066SOL    HW253128   9.744   6.020   4.722  0.4248  0.0322 -0.8383
14067SOL     OW53129   7.662   9.925   3.133  0.3713  0.0246  0.1808
14067SOL    HW153130   7.632   9.852   3.071 -0.0998  0.2428  0.1469
14067SOL    HW253131   7.745   9.968   3.096  0.7762 -0.6312  0.3107
14068SOL     OW53132   1.089   4.680   1.213 -0.3467  0.0113  0.2367
14068SOL    HW153133   1.091   4.583   1.240 -0.5971  0.0603  0.4310
14068SOL    HW253134   1.012   4.695   1.150  1.0116 -0.3757 -1.5478
14069SOL     OW53135   2.648   1.499   2.356  0.4820  0.8783  0.4819
14069SOL    HW153136   2.648   1.599   2.357  1.3347  0.8861 -0.3005
14069SOL    HW253137   2.620   1.465   2.446 -0.9528  1.8145  0.4053
14070SOL     OW53138   1.506   5.398   2.992  0.6929 -0.1150 -0.5360
14070SOL    HW153139   1.450   5.436   3.066 -0.6421  0.2680 -1.7123
14070SOL    HW253140   1.603   5.408   3.014  0.3123  1.2356  0.5394
14071SOL     OW53141   9.345   2.651   1.200  0.4689 -0.0287 -0.2451
14071SOL    HW153142   9.400   2.680   1.121 -0.8630  1.6843 -0.5727
14071SOL    HW253143   9.258   2.700   1.200 -0.1734 -1.1132  1.4837
14072SOL     OW53144   3.906   1.067   1.581  0.3108  0.5290  0.7333
14072SOL    HW153145   3.927   1.118   1.664  0.5479  0.2989  0.8172
14072SOL    HW253146   3.916   1.127   1.501  0.8827  0.5398  0.8086
14073SOL     OW53147   2.101   2.971   1.422  0.3328 -0.1385  0.0195
14073SOL    HW153148   2.141   3.010   1.339 -1.4079 -1.9706 -1.7526
14073SOL    HW253149   2.002   2.966   1.411  0.1988 -1.5096  1.7458
14074SOL     OW53150   3.799   7.286   4.222 -0.8224  0.2588 -0.4368
14074SOL    HW153151   3.805   7.336   4.308 -1.2453  1.7981 -1.2897
14074SOL    HW253152   3.710   7.240   4.217  0.0396 -1.6325  0.8862
14075SOL     OW53153   9.304   4.104   4.421 -0.2168  0.1266  0.0464
14075SOL    HW153154   9.271   4.161   4.495  0.5836 -0.8188  1.1449
14075SOL    HW253155   9.321   4.160   4.340 -0.7924  1.2045  0.6721
14076SOL     OW53156   3.569   5.936   5.127 -0.0223 -0.0845 -0.6175
14076SOL    HW153157   3.600   6.031   5.131 -1.1578  0.2402  1.0720
14076SOL    HW253158   3.508   5.925   5.048  1.1371  0.2581 -1.5751
14077SOL     OW53159   8.249   8.666   2.688  0.0427  0.2260 -0.3872
14077SOL    HW153160   8.262   8.765   2.691  1.1788  0.0353  1.5361
14077SOL    HW253161   8.164   8.642   2.735  0.5850  0.1443  0.5466
14078SOL     OW53162   4.924   0.594   4.462  0.0871 -0.1386 -0.4121
14078SOL    HW153163   4.875   0.550   4.538  0.1915  0.8810  0.2496
14078SOL    HW253164   4.869   0.588   4.379 -0.1905 -0.9340 -0.1745
14079SOL     OW53165   9.067   1.048   0.924  0.4039 -0.0685 -0.5044
14079SOL    HW153166   9.100   1.132   0.967  1.3571  0.0411 -1.4427
14079SOL    HW253167   9.123   0.971   0.955  0.0264 -0.2487 -0.2577
14080SOL     OW53168   2.329   0.100   5.433 -0.2986  0.2913 -0.0199
14080SOL    HW153169   2.255   0.055   5.384 -0.3948  1.2053 -0.7278
14080SOL    HW253170   2.351   0.187   5.388  1.2638 -0.0146  0.1110
14081SOL     OW53171   5.567   0.344   3.800 -0.2169 -0.0903  0.3146
14081SOL    HW153172   5.516   0.424   3.833 -0.2436 -0.4336  1.1116
14081SOL    HW253173   5.663   0.352   3.826 -0.7801 -1.7804  3.1475
14082SOL     OW53174   9.476   3.779   2.472 -0.6434  0.1753 -0.2575
14082SOL    HW153175   9.562   3.751   2.515 -0.7260  0.1755 -0.0926
14082SOL    HW253176   9.422   3.699   2.450 -0.8598  0.2055  0.1711
14083SOL     OW53177   9.698   2.068   2.079 -0.2075 -0.2133 -0.5266
14083SOL    HW153178   9.795   2.093   2.078 -0.2174 -0.0164  1.9624
14083SOL    HW253179   9.685   1.987   2.022  1.6505 -1.0129  0.1392
14084SOL     OW53180   2.248   8.075   3.796  0.3764  0.1315 -0.6681
14084SOL    HW153181   2.214   8.041   3.883  0.0059 -2.5413 -1.8120
14084SOL    HW253182   2.175   8.072   3.727  0.9865  1.0665 -1.3705
14085SOL     OW53183   1.417   0.037   1.387  0.2498  0.1112  0.4508
14085SOL    HW153184   1.492  -0.026   1.407 -0.3062 -0.2302  1.4555
14085SOL    HW253185   1.334   0.007   1.434 -0.5166  0.5065 -0.6218
14086SOL     OW53186   2.929   5.822   2.435 -0.2894  0.2137 -0.0580
14086SOL    HW153187   2.862   5.868   2.377 -0.4356 -0.7007 -0.6304
14086SOL    HW253188   2.888   5.802   2.524 -0.6613 -0.0095 -0.2761
14087SOL     OW53189   9.974   1.146   1.907 -0.3658  0.2362 -0.1340
14087SOL    HW153190   9.880   1.155   1.939 -0.2398 -2.1785  1.0085
14087SOL    HW253191  10.000   1.049   1.905  1.7336  0.7858 -1.5038
14088SOL     OW53192   2.331   8.865   3.918 -0.0906  0.1230  0.4496
14088SOL    HW153193   2.419   8.846   3.876  0.4899  0.8170  1.3194
14088SOL    HW253194   2.285   8.779   3.941 -0.5260 -0.2593 -1.8010
14089SOL     OW53195   1.389   1.158   0.594  0.3093 -0.3146 -0.3074
14089SOL    HW153196   1.330   1.238   0.585  0.6268 -0.0753 -0.2961
14089SOL    HW253197   1.464   1.179   0.657  1.0716 -0.2033 -1.2186
14090SOL     OW53198   5.698   8.426   1.812  0.4593 -0.0515 -0.3099
14090SOL    HW153199   5.698   8.370   1.895  1.8504  0.7410  0.2537
14090SOL    HW253200   5.750   8.380   1.740  1.1644  0.2587 -0.0099
14091SOL     OW53201   6.068   1.892   2.577 -0.2015 -0.8219 -0.5091
14091SOL    HW153202   6.000   1.966   2.579 -1.6216 -2.0491 -2.2556
14091SOL    HW253203   6.101   1.880   2.483  0.5150 -1.9623 -0.1163
14092SOL     OW53204   1.193   0.900   2.155 -0.9684 -0.2537  0.0094
14092SOL    HW153205   1.263   0.859   2.097 -1.4984 -0.3329 -0.5851
14092SOL    HW253206   1.186   0.998   2.134 -0.3117 -0.0241  0.8108
14093SOL     OW53207   7.976   0.579   3.077  0.4241  0.4135  0.4481
14093SOL    HW153208   7.903   0.647   3.075  0.1032  0.0495 -0.3107
14093SOL    HW253209   7.945   0.496   3.122  0.0459 -0.1022 -0.7438
14094SOL     OW53210   7.560   8.071   2.775  0.2984  0.0858  0.2184
14094SOL    HW153211   7.550   8.164   2.811 -1.1443  0.2615 -0.5893
14094SOL    HW253212   7.584   8.075   2.678  0.6217 -0.3980  0.2721
14095SOL     OW53213   6.690   1.905   2.713 -0.4648 -0.4457 -0.1725
14095SOL    HW153214   6.668   1.939   2.805 -0.4018  1.2902 -0.7913
14095SOL    HW253215   6.706   1.806   2.718 -1.5552 -0.5646  1.4934
14096SOL     OW53216   2.605   3.363   0.356  0.3270  0.5825 -0.2022
14096SOL    HW153217   2.549   3.353   0.274  0.6784  0.7795 -0.4709
14096SOL    HW253218   2.563   3.314   0.432 -0.0748  0.5184 -0.4655
14097SOL     OW53219   8.615   5.872   1.093 -0.1923 -0.2074 -0.1786
14097SOL    HW153220   8.672   5.791   1.076 -0.2543 -0.2290 -0.2866
14097SOL    HW253221   8.667   5.954   1.071 -0.3105 -0.2391 -0.5838
14098SOL     OW53222   0.380   1.666   2.317 -0.6109  0.1675 -0.6108
14098SOL    HW153223   0.400   1.651   2.414  0.7937 -0.6925 -1.0048
14098SOL    HW253224   0.298   1.614   2.291 -1.2203  0.7223  0.1985
14099SOL     OW53225   8.889   1.200   4.865 -0.0004  0.3362 -0.6147
14099SOL    HW153226   8.880   1.107   4.900 -3.7701  0.6152 -0.6650
14099SOL    HW253227   8.896   1.264   4.942  0.1284  0.2182 -0.5290
14100SOL     OW53228   1.640   8.545   0.070  0.0000 -0.0774 -0.1773
14100SOL    HW153229   1.573   8.553   0.143  0.2593 -0.1589  0.0715
14100SOL    HW253230   1.633   8.625   0.010  0.5449  0.5461  0.5752
14101SOL     OW53231   9.672   3.495   0.069 -0.0446 -0.6161 -0.1980
14101SOL    HW153232   9.604   3.422   0.061 -2.1731  1.1010  1.5219
14101SOL    HW253233   9.628   3.583   0.053  1.8870  0.5039  0.4938
14102SOL     OW53234   1.388   4.119   1.057  0.4960  0.2167 -0.5344
14102SOL    HW153235   1.336   4.067   0.989  1.4210 -0.5090 -0.6961
14102SOL    HW253236   1.344   4.208   1.072  0.6011  0.6131 -2.4955
14103SOL     OW53237   3.169   2.623   5.393  0.3484  0.0533  0.3983
14103SOL    HW153238   3.208   2.651   5.481  0.5284 -0.0981  0.3661
14103SOL    HW253239   3.133   2.704   5.346 -0.2866  0.0551  0.8749
14104SOL     OW53240   4.349   5.773   2.121  0.4500 -0.3532  0.8298
14104SOL    HW153241   4.265   5.744   2.167 -1.1165  1.1355 -1.0535
14104SOL    HW253242   4.400   5.693   2.090 -1.3579 -1.1987  0.0428
14105SOL     OW53243   3.559   2.757   1.503 -0.0290 -0.2910  0.0547
14105SOL    HW153244   3.573   2.755   1.602 -2.4367  1.6405  0.4783
14105SOL    HW253245   3.461   2.760   1.483  0.4274 -0.9920 -2.4028
14106SOL     OW53246   4.030   4.787   1.888  0.0470 -0.8322  0.2407
14106SOL    HW153247   4.109   4.735   1.922  0.7129 -0.9665 -1.4771
14106SOL    HW253248   4.044   4.809   1.792 -1.3125  0.5125  0.3436
14107SOL     OW53249   8.890   7.797   3.407  0.3716 -0.0460  0.3101
14107SOL    HW153250   8.974   7.805   3.353  0.1618  1.1544  0.1537
14107SOL    HW253251   8.820   7.752   3.352  0.7213 -0.5094  0.2337
14108SOL     OW53252   1.384   4.681   3.446  0.1684 -0.2859  0.0500
14108SOL    HW153253   1.452   4.609   3.436  0.1634 -0.5241  1.6331
14108SOL    HW253254   1.315   4.672   3.374  1.4848 -0.3906 -1.2010
14109SOL     OW53255   9.603   0.091   1.099 -0.2005 -0.1684  0.0774
14109SOL    HW153256   9.521   0.038   1.081  0.4077 -1.4293  0.9174
14109SOL    HW253257   9.621   0.153   1.022 -0.7955 -1.3552 -1.0365
14110SOL     OW53258   8.346   6.218   1.489 -0.0159 -0.2165 -0.6841
14110SOL    HW153259   8.299   6.129   1.491 -1.3553  0.4786 -0.6354
14110SOL    HW253260   8.338   6.258   1.398 -0.5017  0.4246 -0.3623
14111SOL     OW53261   7.876   9.455   5.630 -0.5060 -0.0126 -0.0298
14111SOL    HW153262   7.963   9.414   5.603 -0.3660  0.4727 -0.3304
14111SOL    HW253263   7.883   9.490   5.723 -0.8210 -1.2128  0.4524
14112SOL     OW53264   1.025   9.519   2.091  1.1225 -0.3587 -0.6936
14112SOL    HW153265   1.050   9.616   2.090  1.5495 -0.4639 -0.4017
14112SOL    HW253266   1.079   9.471   2.160 -0.5513 -0.4261  0.5977
14113SOL     OW53267   5.065   0.843   2.836  0.4222  0.0837  0.1886
14113SOL    HW153268   5.111   0.790   2.766 -1.3412 -0.5103 -0.5394
14113SOL    HW253269   4.967   0.822   2.835  0.5387 -0.9070  3.6668
14114SOL     OW53270   4.493   9.924   2.112  0.2185 -0.2481 -0.3143
14114SOL    HW153271   4.421   9.884   2.056  0.4865 -0.1718 -0.7195
14114SOL    HW253272   4.471  10.020   2.131  0.8618  0.1649 -1.5753
14115SOL     OW53273   4.425   2.449   5.628  0.4488 -0.1462  0.3104
14115SOL    HW153274   4.359   2.376   5.643 -0.1381  0.6803  1.9558
14115SOL    HW253275   4.377   2.537   5.630  1.0247  0.2520 -2.4075
14116SOL     OW53276   9.548   9.788   0.857 -0.5530  0.1186 -0.6139
14116SOL    HW153277   9.585   9.697   0.876 -1.8541  0.0406  1.6913
14116SOL    HW253278   9.529   9.835   0.943  0.8532  2.9122 -1.7423
14117SOL     OW53279   2.817   9.483   0.454  0.4551 -0.3269  0.5248
14117SOL    HW153280   2.780   9.397   0.488  2.2305 -0.3230  2.5869
14117SOL    HW253281   2.784   9.559   0.510  0.7619  0.0548  0.1955
14118SOL     OW53282   4.744   0.506   3.341  0.4053 -0.5866 -0.1658
14118SOL    HW153283   4.837   0.471   3.349 -0.2444 -2.3438 -0.2426
14118SOL    HW253284   4.733   0.550   3.252  1.3717  0.3348  0.1486
14119SOL     OW53285   1.797   8.344   5.617 -0.1925  0.3693  0.7241
14119SOL    HW153286   1.732   8.271   5.595  0.0028  0.2554  0.5272
14119SOL    HW253287   1.747   8.427   5.640 -0.3984  0.4445  0.0035
14120SOL     OW53288   0.056   4.208   2.858  0.2778  0.2268 -0.2645
14120SOL    HW153289   0.122   4.280   2.836  1.6618 -0.6066  1.0868
14120SOL    HW253290  -0.035   4.237   2.829  0.8301  2.4691  0.1383
14121SOL     OW53291   3.230   8.604   2.628 -0.2002  0.4492 -0.1574
14121SOL    HW153292   3.156   8.617   2.695  0.5772 -0.5902  0.9262
14121SOL    HW253293   3.314   8.646   2.664  0.4087 -0.7948 -0.1300
14122SOL     OW53294   2.088   0.068   2.750  0.3326  0.1156 -0.4711
14122SOL    HW153295   2.124   0.031   2.835 -0.0542  0.1541 -0.2920
14122SOL    HW253296   2.100   0.001   2.677  3.4241  1.2189 -1.0614
14123SOL     OW53297   4.636   9.370   1.659  0.4076 -0.4535  0.1558
14123SOL    HW153298   4.588   9.442   1.709  0.8297 -0.7291  0.9689
14123SOL    HW253299   4.594   9.281   1.679  1.4192 -0.7289  1.0887
14124SOL     OW53300   0.967   0.724   2.091 -0.1766  0.3300 -0.1186
14124SOL    HW153301   0.990   0.781   2.170 -0.2158  0.9080 -0.5208
14124SOL    HW253302   0.981   0.776   2.007 -3.1934  0.8021 -0.3826
14125SOL     OW53303   9.104   1.745   0.476 -0.0499 -0.3380 -0.1637
14125SOL    HW153304   9.163   1.667   0.456  1.1059  0.5978 -0.4433
14125SOL    HW253305   9.142   1.828   0.433 -1.4683  0.3037 -0.2050
14126SOL     OW53306   8.475   1.507   1.687 -0.6987 -0.1103  0.0272
14126SOL    HW153307   8.383   1.513   1.650 -0.5809 -0.1949 -0.2817
14126SOL    HW253308   8.541   1.503   1.611 -0.3468  1.3801  0.2485
14127SOL     OW53309   0.528   9.699   2.846  0.1906 -0.2601 -0.2841
14127SOL    HW153310   0.616   9.679   2.890  1.2430  1.8906 -1.3451
14127SOL    HW253311   0.459   9.719   2.917  0.7081 -1.3259  0.5288
14128SOL     OW53312   3.061   0.815   2.398  0.6018  0.3296  0.3772
14128SOL    HW153313   3.118   0.796   2.318 -2.4478 -1.8331 -1.4214
14128SOL    HW253314   3.068   0.740   2.463 -0.0883  0.1123  0.2037
14129SOL     OW53315   1.356   1.201   3.089  0.3589  0.8722 -0.5549
14129SOL    HW153316   1.324   1.109   3.067  0.3387  0.4567  1.1957
14129SOL    HW253317   1.454   1.207   3.070  0.6904 -0.0002  0.8649
14130SOL     OW53318   4.694   4.210   0.280 -0.0865  0.2057 -0.1110
14130SOL    HW153319   4.684   4.160   0.366  0.7115 -2.2876 -1.4168
14130SOL    HW253320   4.665   4.152   0.204  0.0576  2.0504 -1.6238
14131SOL     OW53321   1.831   3.439   1.296  0.3586  0.2296  0.4278
14131SOL    HW153322   1.746   3.492   1.295  0.6762  0.7348  0.4107
14131SOL    HW253323   1.909   3.500   1.288  0.6918 -0.3040 -0.4947
14132SOL     OW53324   9.544   5.747   3.084 -0.4005 -0.2653  0.1698
14132SOL    HW153325   9.556   5.652   3.058 -0.1218 -0.1683 -0.0544
14132SOL    HW253326   9.466   5.786   3.034  0.7474  0.2068 -1.2760
14133SOL     OW53327   5.065   1.765   1.685 -0.2350  0.0245  0.3351
14133SOL    HW153328   5.129   1.700   1.728  1.4155  1.7040  0.4609
14133SOL    HW253329   5.057   1.846   1.742 -0.4078  0.9704 -1.0257
14134SOL     OW53330   6.810   0.015   4.912  0.2821  0.3591  0.3327
14134SOL    HW153331   6.897   0.057   4.936  0.6196 -0.7762  1.1558
14134SOL    HW253332   6.736   0.062   4.960  0.5161  0.8403  0.2239
14135SOL     OW53333   1.230   8.579   1.144 -0.6090 -0.7376 -0.6184
14135SOL    HW153334   1.255   8.501   1.202  0.1414 -0.0350  0.0296
14135SOL    HW253335   1.151   8.626   1.184 -1.7134 -1.7681 -1.5702
14136SOL     OW53336   8.646   8.977   1.336 -0.4138  0.3276 -0.0935
14136SOL    HW153337   8.627   8.993   1.433  1.7327 -0.7632  0.5551
14136SOL    HW253338   8.678   8.883   1.323 -0.1507  0.6283 -1.7765
14137SOL     OW53339   4.100   8.797   3.710 -0.2004 -0.0422 -0.1394
14137SOL    HW153340   4.134   8.739   3.636 -0.4824 -1.2135  0.6388
14137SOL    HW253341   4.067   8.883   3.672  1.6235  0.2338 -1.1477
14138SOL     OW53342   1.085   6.218   1.034 -0.3029 -0.0438 -0.2114
14138SOL    HW153343   1.127   6.286   0.975 -2.0484  1.3333  0.1095
14138SOL    HW253344   1.129   6.129   1.019  2.4363  1.2467 -0.1692
14139SOL     OW53345   4.383   1.120   0.376  0.2306 -0.2052 -0.1152
14139SOL    HW153346   4.435   1.075   0.304  0.2518  2.4755 -1.8543
14139SOL    HW253347   4.431   1.203   0.405 -1.6603  0.7983  0.2564
14140SOL     OW53348   2.855   8.192   4.068 -0.6273  0.2507 -0.4439
14140SOL    HW153349   2.857   8.291   4.078 -0.8243  0.1156  1.0126
14140SOL    HW253350   2.949   8.158   4.055 -0.4026  0.4872  0.5237
14141SOL     OW53351   6.950   1.933   2.429 -0.6009  0.1457 -0.1438
14141SOL    HW153352   6.856   1.966   2.436 -0.7163 -0.7206  3.0918
14141SOL    HW253353   6.953   1.835   2.451  1.3599  0.6554  2.0502
14142SOL     OW53354   5.371   3.163   1.385  0.2539 -0.5225 -0.6126
14142SOL    HW153355   5.366   3.064   1.391  2.3943 -0.5506  1.6888
14142SOL    HW253356   5.443   3.190   1.321  1.1258 -0.5165  0.3421
14143SOL     OW53357   9.686   4.244   2.010  0.1236 -0.6418  0.2637
14143SOL    HW153358   9.635   4.169   1.970 -0.8895 -0.0004  0.3237
14143SOL    HW253359   9.632   4.328   2.005  0.7658 -0.1517  1.2205
14144SOL     OW53360   2.845   5.041   5.037  0.1653  0.1495 -0.9081
14144SOL    HW153361   2.840   5.138   5.013  0.3092  0.3527 -0.0987
14144SOL    HW253362   2.814   4.986   4.958 -1.2051  0.8962 -0.9073
14145SOL     OW53363   9.962   1.711   0.034 -0.1171 -0.1839 -0.2349
14145SOL    HW153364   9.863   1.719   0.026  0.0586  1.8794 -0.4793
14145SOL    HW253365  10.002   1.699  -0.057  0.0431  1.2648 -0.3588
14146SOL     OW53366   8.786   9.178   1.488  0.8063  0.7319 -0.4363
14146SOL    HW153367   8.717   9.190   1.417  0.7171  1.2791 -0.2656
14146SOL    HW253368   8.811   9.268   1.525 -0.2482  0.3533  1.2625
14147SOL     OW53369   9.848   9.064   2.520  0.3800 -0.2507  0.1867
14147SOL    HW153370   9.937   9.109   2.525  0.0294  0.3755  1.0071
14147SOL    HW253371   9.837   9.004   2.599  0.6751 -1.4873 -0.6912
14148SOL     OW53372   3.112   4.110   1.340  0.0254  0.3486  0.4197
14148SOL    HW153373   3.045   4.046   1.304  0.0238  0.7648 -0.3092
14148SOL    HW253374   3.136   4.083   1.434  1.2422 -1.6769 -0.4284
14149SOL     OW53375   0.428   7.048   5.270  0.2777 -0.1583 -0.4323
14149SOL    HW153376   0.455   7.113   5.341 -1.5991 -0.4844  0.6276
14149SOL    HW253377   0.431   6.955   5.307 -1.3982 -0.2706 -0.5363
14150SOL     OW53378   0.740   5.131   3.800 -0.1263  0.4908 -0.2592
14150SOL    HW153379   0.685   5.168   3.725  0.2894  0.5294 -0.5420
14150SOL    HW253380   0.761   5.204   3.865 -1.3648  0.2455  0.4330
14151SOL     OW53381   1.280   0.503   0.653 -0.2793  0.1772 -0.4738
14151SOL    HW153382   1.227   0.586   0.639 -0.7282 -0.0933 -0.3872
14151SOL    HW253383   1.368   0.512   0.607 -0.5070  0.5195 -0.8519
14152SOL     OW53384   5.091   8.950   3.581  0.4855 -0.5084  0.3220
14152SOL    HW153385   5.137   9.011   3.516  0.7907 -1.1802 -0.0938
14152SOL    HW253386   5.159   8.902   3.636  0.2569 -0.7498  0.3965
14153SOL     OW53387   1.225   6.139   0.124 -0.1526  0.0334  0.1959
14153SOL    HW153388   1.213   6.193   0.040  0.3834  1.6356  1.1281
14153SOL    HW253389   1.145   6.150   0.182  1.1539  2.1899  1.6734
14154SOL     OW53390   8.532   1.907   3.451 -0.1076 -0.2444 -0.2133
14154SOL    HW153391   8.620   1.955   3.444  0.1871 -0.6385  0.7623
14154SOL    HW253392   8.532   1.829   3.389  0.4519 -0.5743  0.1959
14155SOL     OW53393   9.579   6.288   3.462  0.2215 -0.1475 -0.3424
14155SOL    HW153394   9.597   6.202   3.508  0.2973 -0.2819 -0.6186
14155SOL    HW253395   9.627   6.290   3.374  0.0963  0.1117 -0.4082
14156SOL     OW53396   4.217   0.099   4.184  0.3088 -0.2469 -0.6476
14156SOL    HW153397   4.251   0.156   4.258 -0.0841 -1.2834  0.3651
14156SOL    HW253398   4.274   0.110   4.103  0.6604  1.0108 -0.2313
14157SOL     OW53399   0.281   3.343   1.443 -0.0726 -0.6954  0.7260
14157SOL    HW153400   0.311   3.265   1.498 -0.4468 -0.7937  0.7914
14157SOL    HW253401   0.287   3.319   1.346  1.4252 -0.2187  0.6910
14158SOL     OW53402   8.153   0.957   4.352 -0.6102  0.1214 -0.1166
14158SOL    HW153403   8.112   0.918   4.270 -1.4023  1.3745 -0.3284
14158SOL    HW253404   8.250   0.974   4.336 -0.2797 -1.6167 -0.0624
14159SOL     OW53405   2.946   5.612   3.841 -0.3999  0.4446  0.5528
14159SOL    HW153406   2.989   5.701   3.856  0.0944  0.3752 -0.4320
14159SOL    HW253407   2.861   5.624   3.789 -0.3597  0.3470  0.4643
14160SOL     OW53408   8.072   3.458   4.372  0.3313 -0.5400  0.5985
14160SOL    HW153409   8.041   3.545   4.408  0.3387 -0.0992 -0.4408
14160SOL    HW253410   8.041   3.384   4.432 -1.3443  0.0136  0.4348
14161SOL     OW53411   6.636   9.575   3.961  0.4047  0.1656  0.2925
14161SOL    HW153412   6.669   9.602   3.870 -1.1151  2.0575  0.2644
14161SOL    HW253413   6.544   9.537   3.953 -0.4588  2.0008  1.2184
14162SOL     OW53414   6.956   0.295   1.100 -0.0230  0.4100 -0.2277
14162SOL    HW153415   6.860   0.323   1.106 -0.1042  0.1169 -0.1510
14162SOL    HW253416   7.014   0.366   1.141 -0.2576  0.2924  0.3124
14163SOL     OW53417   0.548   2.707   2.394 -0.6883  0.5438  0.3582
14163SOL    HW153418   0.461   2.727   2.440 -1.4800 -0.0643 -0.8488
14163SOL    HW253419   0.612   2.782   2.411 -0.4125 -0.3927  3.7435
14164SOL     OW53420   1.272   6.576   0.044  0.1620  0.9780  0.4137
14164SOL    HW153421   1.227   6.511  -0.018  0.2714 -0.0384  1.3793
14164SOL    HW253422   1.370   6.579   0.023  0.5140 -0.7586  1.7268
14165SOL     OW53423   3.033   2.604   2.734 -0.0007 -0.1197  0.2304
14165SOL    HW153424   3.085   2.520   2.722 -1.4186 -0.5940 -2.8675
14165SOL    HW253425   3.049   2.665   2.656 -0.5662  1.6598  1.4590
14166SOL     OW53426   0.604   1.866   3.443 -0.0549  0.2333  0.7725
14166SOL    HW153427   0.677   1.923   3.480  0.5494  0.6177 -0.9309
14166SOL    HW253428   0.578   1.901   3.353 -2.5523  0.2761  1.4767
14167SOL     OW53429   1.807   0.262   4.307  1.2348 -0.3033 -0.2020
14167SOL    HW153430   1.720   0.226   4.274  1.7433 -2.1202  0.3667
14167SOL    HW253431   1.800   0.361   4.320 -0.6685 -0.4038 -0.3801
14168SOL     OW53432   4.935   1.089   2.305 -0.1307 -0.6935 -0.5384
14168SOL    HW153433   5.007   1.025   2.280  1.6110 -0.2457  3.1383
14168SOL    HW253434   4.968   1.182   2.295  0.0077 -0.4929  1.6455
14169SOL     OW53435   4.008   5.348   4.355 -0.3031 -0.4594 -0.0549
14169SOL    HW153436   4.033   5.254   4.333  1.5701  0.1755 -0.6849
14169SOL    HW253437   4.026   5.366   4.451 -1.3536 -0.9465  0.2447
14170SOL     OW53438   0.236   4.906   3.941 -0.2876 -0.5088  0.1995
14170SOL    HW153439   0.316   4.883   3.996  1.9729  1.1681 -2.2911
14170SOL    HW253440   0.209   5.000   3.959 -1.7746 -1.0874  1.0778
14171SOL     OW53441   7.647   1.288   2.750 -0.0864  0.4275 -0.1948
14171SOL    HW153442   7.597   1.213   2.707  1.1439  0.0707 -1.0438
14171SOL    HW253443   7.630   1.287   2.848 -1.0114 -0.2450 -0.3498
14172SOL     OW53444   5.058   0.595   3.576  0.0553 -0.1487 -0.1313
14172SOL    HW153445   5.023   0.528   3.510  0.4293 -0.0540 -0.4279
14172SOL    HW253446   5.045   0.687   3.540 -0.7626 -0.0441  0.4244
14173SOL     OW53447   1.504   3.580   1.658 -0.1170 -0.0603 -0.5399
14173SOL    HW153448   1.604   3.576   1.653 -0.1001  0.5494 -0.6508
14173SOL    HW253449   1.470   3.650   1.596 -0.7142 -1.3355 -1.6650
14174SOL     OW53450   0.343   6.131   3.406 -0.4213  0.1551 -0.1266
14174SOL    HW153451   0.355   6.034   3.423  1.8030  0.3109 -0.6669
14174SOL    HW253452   0.253   6.160   3.440 -0.0787 -1.5358  2.3521
14175SOL     OW53453   8.843   7.272   5.575  0.5797  0.1080  0.1516
14175SOL    HW153454   8.813   7.207   5.505 -0.2776  1.0349 -0.3480
14175SOL    HW253455   8.783   7.267   5.654  1.8373 -1.2917  1.0594
14176SOL     OW53456   4.931   9.346   2.648  0.2495  0.3293 -0.0730
14176SOL    HW153457   4.874   9.273   2.687 -0.9150  1.0055 -0.4948
14176SOL    HW253458   4.969   9.401   2.723  2.1641 -1.4540  0.3090
14177SOL     OW53459   9.285   7.464   1.670  0.2969 -0.1361  0.0690
14177SOL    HW153460   9.211   7.524   1.700 -0.7756 -1.3434 -0.1140
14177SOL    HW253461   9.365   7.478   1.729  0.9634  3.2522 -1.5026
14178SOL     OW53462   0.750   5.769   3.590  0.4994 -0.1460 -0.2469
14178SOL    HW153463   0.684   5.793   3.662 -1.0801 -0.1791 -1.6394
14178SOL    HW253464   0.830   5.727   3.631 -0.0618  0.4825  1.5598
14179SOL     OW53465   1.865   3.235   1.535 -0.0929  0.3413 -0.1640
14179SOL    HW153466   1.845   3.221   1.632  0.3047 -1.3336 -0.3133
14179SOL    HW253467   1.942   3.298   1.526  0.2794  0.0078  0.6197
14180SOL     OW53468   7.735   5.083   4.572  0.2425 -0.3157 -0.0595
14180SOL    HW153469   7.686   5.068   4.486  1.2843 -1.0572 -0.5353
14180SOL    HW253470   7.728   5.179   4.599  0.6876  0.1208 -1.4511
14181SOL     OW53471   2.533   4.182   3.467  0.1681 -0.0659 -0.1964
14181SOL    HW153472   2.506   4.265   3.418  1.4031  0.4433 -0.0276
14181SOL    HW253473   2.521   4.102   3.408 -1.6978  0.1418 -0.1181
14182SOL     OW53474   4.003   2.598   3.205 -0.1868  0.4309 -0.0596
14182SOL    HW153475   3.913   2.558   3.190  0.6638 -0.8860 -1.6794
14182SOL    HW253476   4.036   2.640   3.120  1.4606 -0.5960  0.0501
14183SOL     OW53477   1.041   1.150   2.382  0.7996 -0.0292  0.0910
14183SOL    HW153478   1.041   1.238   2.334  2.0360 -0.8733 -1.4897
14183SOL    HW253479   1.134   1.114   2.386  0.2237 -1.5385  0.2347
14184SOL     OW53480   5.244   8.184   2.152  0.0146  0.2071  0.3595
14184SOL    HW153481   5.312   8.256   2.140 -0.4415  0.6939  0.6929
14184SOL    HW253482   5.258   8.139   2.240 -0.2438  0.4617  0.5291
14185SOL     OW53483   1.962   3.289   2.948  0.6569  0.5750  0.4436
14185SOL    HW153484   1.878   3.329   2.909 -0.9869 -1.0109  2.3146
14185SOL    HW253485   1.985   3.337   3.033  1.5234  0.8368  0.0660
14186SOL     OW53486   8.081   5.193   1.619 -0.1071  0.3444  0.0538
14186SOL    HW153487   8.059   5.144   1.703  1.0155  0.8605  0.6571
14186SOL    HW253488   8.165   5.245   1.632  0.4311 -0.0926 -1.6092
14187SOL     OW53489   8.595   5.737   3.247  0.6178 -0.1943 -0.3544
14187SOL    HW153490   8.528   5.694   3.306  1.2325 -2.9282 -1.5420
14187SOL    HW253491   8.686   5.727   3.287  0.7189  0.3968 -0.4323
14188SOL     OW53492   0.316   2.746   2.501  0.0274 -0.6483 -0.4889
14188SOL    HW153493   0.311   2.666   2.561  0.2873 -0.1659  0.1900
14188SOL    HW253494   0.278   2.826   2.549  2.9825  0.4159  0.1786
14189SOL     OW53495   8.396   0.889   0.258  0.0022 -0.4121 -0.1317
14189SOL    HW153496   8.350   0.813   0.304 -0.2947  0.1758  0.5419
14189SOL    HW253497   8.488   0.901   0.296  0.6308 -1.4192 -1.2986
14190SOL     OW53498   5.772   1.436   3.055 -0.6927  0.0151  0.5651
14190SOL    HW153499   5.819   1.392   3.132  2.4883  0.0234 -1.2530
14190SOL    HW253500   5.765   1.535   3.073 -2.2939 -0.3317  1.9436
14191SOL     OW53501   1.788   9.004   4.167 -0.3777 -0.1691 -0.7328
14191SOL    HW153502   1.736   9.033   4.247  0.8340 -1.3842  0.5501
14191SOL    HW253503   1.733   9.014   4.085 -1.2303  2.2590  0.0931
14192SOL     OW53504   3.997   4.509   4.992 -0.1712  0.4304  0.4025
14192SOL    HW153505   3.946   4.424   4.981 -0.9324  1.0514 -0.9399
14192SOL    HW253506   4.095   4.491   4.980 -0.2361 -0.4218  1.1081
14193SOL     OW53507   2.444   3.704   2.241  0.1917 -0.2851 -0.1869
14193SOL    HW153508   2.419   3.796   2.271 -1.5205 -0.7898 -0.0051
14193SOL    HW253509   2.370   3.641   2.263  1.1662 -1.6322 -0.7154
14194SOL     OW53510   8.544   5.125   1.903  0.1999 -0.4136 -0.4264
14194SOL    HW153511   8.619   5.082   1.954  1.3987  1.6796 -0.3772
14194SOL    HW253512   8.581   5.185   1.832 -1.4142  0.9144 -0.1851
14195SOL     OW53513   5.648   7.817   3.596  0.7379 -0.8581  0.4301
14195SOL    HW153514   5.745   7.833   3.615  0.6665  2.3324 -1.4510
14195SOL    HW253515   5.639   7.764   3.512  0.8281 -2.7111  1.5539
14196SOL     OW53516   2.554   6.539   1.883  0.0130 -0.2421 -0.6596
14196SOL    HW153517   2.598   6.449   1.885  0.0853 -0.1980 -0.0291
14196SOL    HW253518   2.565   6.583   1.972 -0.1403  0.3361 -0.9248
14197SOL     OW53519   0.200   9.185   0.045  1.1001  0.7073  0.3612
14197SOL    HW153520   0.196   9.104   0.103  4.3329  0.7385  0.7147
14197SOL    HW253521   0.257   9.255   0.089 -1.0241  2.9074 -0.2812
14198SOL     OW53522   5.006   1.920   5.228 -0.7993 -0.4669  0.5391
14198SOL    HW153523   4.973   1.962   5.144 -0.9024 -0.4812  0.5733
14198SOL    HW253524   5.037   1.991   5.291  1.2826 -0.5474 -0.3507
14199SOL     OW53525   8.694   7.989   5.096  0.0730  0.2407 -0.8820
14199SOL    HW153526   8.780   7.972   5.046  1.0999  1.3659  0.4459
14199SOL    HW253527   8.715   8.033   5.183 -1.8393 -0.0130 -0.2790
14200SOL     OW53528   4.456   0.461   2.406  0.5549 -0.3625 -0.1607
14200SOL    HW153529   4.388   0.394   2.376 -0.5783  1.3482 -1.5266
14200SOL    HW253530   4.446   0.476   2.504 -1.6769  0.5105 -0.4819
14201SOL     OW53531   0.020   0.193   2.133  0.1434 -0.1357  0.1483
14201SOL    HW153532   0.120   0.200   2.125  0.2609 -1.0104  0.7898
14201SOL    HW253533  -0.004   0.163   2.225 -0.8115  1.8935  0.5860
14202SOL     OW53534   0.756   0.806   0.886  0.1136 -0.1660  1.0870
14202SOL    HW153535   0.835   0.849   0.928  0.3040  1.1442 -0.5695
14202SOL    HW253536   0.763   0.706   0.895  1.8137 -0.0450  1.2009
14203SOL     OW53537   6.175   0.312   4.362 -0.5236 -0.2726  0.5739
14203SOL    HW153538   6.139   0.387   4.307 -0.4726 -1.8469 -1.6547
14203SOL    HW253539   6.238   0.348   4.431 -0.0542  1.6632 -0.8401
14204SOL     OW53540   2.637   8.094   5.538 -0.0570  0.1817  0.2821
14204SOL    HW153541   2.683   8.183   5.534 -0.3925  0.3145 -0.8733
14204SOL    HW253542   2.676   8.034   5.467  0.2310 -0.6247  1.1135
14205SOL     OW53543   4.043   4.429   0.003 -0.1304 -0.1732  0.8145
14205SOL    HW153544   3.970   4.484  -0.038  0.8367  0.6642  0.1904
14205SOL    HW253545   4.053   4.344  -0.048 -0.4103 -0.1221  0.6678
14206SOL     OW53546   0.400   9.461   2.308 -0.0288  0.8751  0.1166
14206SOL    HW153547   0.402   9.552   2.268  0.0624  0.9597  0.3088
14206SOL    HW253548   0.336   9.461   2.386  0.0440  0.8018  0.1764
14207SOL     OW53549   1.843   6.784   1.728 -0.4524  0.2342 -0.3848
14207SOL    HW153550   1.874   6.755   1.637  0.8558 -1.2452  0.5012
14207SOL    HW253551   1.854   6.708   1.792 -2.6817  0.8096  0.7314
14208SOL     OW53552   2.845   0.392   2.966 -0.4789  0.3634  0.6281
14208SOL    HW153553   2.803   0.341   2.891 -0.1791 -2.2248  2.1578
14208SOL    HW253554   2.905   0.331   3.019 -1.5143  1.8121  3.6182
14209SOL     OW53555   4.778   2.043   5.584 -0.0517  0.2106 -0.0697
14209SOL    HW153556   4.726   2.015   5.664 -0.6654 -0.8913 -0.8565
14209SOL    HW253557   4.836   1.968   5.553 -0.6251  0.2805 -1.3185
14210SOL     OW53558   1.543   2.251   4.975  0.6550  0.4576  0.4677
14210SOL    HW153559   1.568   2.188   5.049  2.0369  0.3743 -0.0561
14210SOL    HW253560   1.554   2.345   5.008  0.8607  0.4241  0.4934
14211SOL     OW53561   3.748   7.810   1.860 -0.0186 -0.4719 -0.1617
14211SOL    HW153562   3.829   7.868   1.863  0.0029 -0.5230  0.2358
14211SOL    HW253563   3.666   7.867   1.866  0.0107 -0.5171  0.6891
14212SOL     OW53564   6.080   0.287   3.335 -0.1487  0.0778 -0.3428
14212SOL    HW153565   6.059   0.317   3.428 -0.2125 -0.8344 -0.0533
14212SOL    HW253566   6.126   0.360   3.286  0.7198  0.2575  0.7103
14213SOL     OW53567   9.511   3.905   4.462  0.0735  0.4462 -0.4854
14213SOL    HW153568   9.445   3.979   4.450  0.8901  0.8356 -2.5638
14213SOL    HW253569   9.479   3.824   4.412 -0.3979 -0.3794  1.1040
14214SOL     OW53570   0.051   8.291   0.243  0.0313  0.2564 -0.7746
14214SOL    HW153571   0.109   8.344   0.181  0.6089  0.1301 -0.3548
14214SOL    HW253572   0.013   8.352   0.313  1.9923 -0.1065  0.6780
14215SOL     OW53573   2.869   1.420   0.882 -0.0723 -0.0163  0.2915
14215SOL    HW153574   2.902   1.351   0.947 -0.3869 -0.5128 -0.0708
14215SOL    HW253575   2.832   1.498   0.933 -0.4239 -0.4542  0.7114
14216SOL     OW53576   1.618   6.438   1.294  0.4677 -0.0949  0.1783
14216SOL    HW153577   1.616   6.377   1.215  1.9411 -0.0814  0.1226
14216SOL    HW253578   1.698   6.418   1.350 -0.3767  0.1240  1.4949
14217SOL     OW53579   4.562   9.644   2.548  0.0122 -0.1182 -0.3690
14217SOL    HW153580   4.581   9.730   2.595 -0.4210 -0.0730 -0.2770
14217SOL    HW253581   4.505   9.662   2.468  1.6034 -0.0568 -1.5239
14218SOL     OW53582   1.689   1.969   0.204  0.1601  0.3975 -0.3450
14218SOL    HW153583   1.760   2.039   0.205 -1.2950  1.9101  0.5662
14218SOL    HW253584   1.641   1.973   0.116  0.7148 -0.1224 -0.6730
14219SOL     OW53585   0.886   0.619   2.789  0.4770 -0.0489 -0.3446
14219SOL    HW153586   0.936   0.676   2.725  0.6112 -0.1092 -0.2939
14219SOL    HW253587   0.817   0.566   2.740  1.4293 -1.0453 -0.6302
14220SOL     OW53588   6.499   8.488   3.021 -0.0426  0.6454 -0.2336
14220SOL    HW153589   6.461   8.408   3.067  1.0482  0.2073 -0.0846
14220SOL    HW253590   6.592   8.504   3.053  0.1621  1.2817 -1.1308
14221SOL     OW53591   7.215   0.302   5.425  0.4642 -0.0174  1.0963
14221SOL    HW153592   7.288   0.241   5.456 -1.2221 -2.0562  1.1344
14221SOL    HW253593   7.148   0.315   5.498 -1.7631 -2.1545 -0.4658
14222SOL     OW53594   9.939   3.084   0.470  0.9981 -0.3432 -0.0422
14222SOL    HW153595   9.912   3.048   0.559 -2.9046  0.7639 -0.6654
14222SOL    HW253596   9.948   3.183   0.476 -0.3022 -0.1568 -1.1068
14223SOL     OW53597   5.663   4.094   5.511  0.0176  0.1965  0.2330
14223SOL    HW153598   5.629   4.001   5.495 -1.3959  1.0921 -2.1630
14223SOL    HW253599   5.763   4.092   5.516  0.1274 -1.2073 -1.8103
14224SOL     OW53600   9.704   0.725   3.407 -0.0998  0.5377 -0.5355
14224SOL    HW153601   9.709   0.823   3.387  0.7159  0.5072 -0.5024
14224SOL    HW253602   9.626   0.707   3.467 -0.7820  1.0419 -1.2668
14225SOL     OW53603   6.714   0.358   1.198 -0.2247  0.3147 -0.1398
14225SOL    HW153604   6.688   0.455   1.202 -0.2544  0.4128 -2.3111
14225SOL    HW253605   6.633   0.303   1.180 -0.2133 -0.1457  1.1381
14226SOL     OW53606   2.816   8.956   4.050 -0.5023 -0.1093  0.3080
14226SOL    HW153607   2.909   8.919   4.052 -0.6513 -0.6281 -1.2130
14226SOL    HW253608   2.760   8.907   4.116 -0.5176 -2.2081 -1.1847
14227SOL     OW53609   4.779   7.611   1.763 -0.1189  0.5539 -0.6286
14227SOL    HW153610   4.821   7.520   1.755  0.2213  0.5833  0.7035
14227SOL    HW253611   4.836   7.679   1.717  0.7309  0.4155  0.2026
14228SOL     OW53612   9.411   5.507   0.087  0.6101 -0.4537 -0.2485
14228SOL    HW153613   9.341   5.560   0.134 -0.0667  1.2470 -3.0291
14228SOL    HW253614   9.368   5.442   0.024  1.5037 -1.7157  0.4131
14229SOL     OW53615   9.036   4.204   4.325  0.0360  0.6233 -0.3920
14229SOL    HW153616   9.121   4.251   4.301 -0.3767  1.7854  0.4120
14229SOL    HW253617   8.977   4.265   4.377 -1.3480 -0.1410 -1.0273
14230SOL     OW53618   1.578   3.618   1.311  0.0538 -0.6468 -0.0778
14230SOL    HW153619   1.565   3.587   1.217  1.3825  0.8395 -0.7763
14230SOL    HW253620   1.489   3.628   1.356 -0.7263  0.9331 -1.9442
14231SOL     OW53621   0.753   9.492   2.693  0.6170 -0.0510  0.3170
14231SOL    HW153622   0.730   9.399   2.664  0.2108  0.5414 -1.2957
14231SOL    HW253623   0.731   9.556   2.620 -1.4870  1.6255  2.3612
14232SOL     OW53624   9.046   2.957   3.786  0.0722  0.3297  0.3585
14232SOL    HW153625   9.106   3.035   3.805 -0.9178  1.2134 -0.0497
14232SOL    HW253626   8.964   2.963   3.843 -0.0985 -0.3098  0.1873
14233SOL     OW53627   8.794   2.093   1.992 -0.4463 -0.0346 -0.0591
14233SOL    HW153628   8.778   2.151   1.912  0.1768  0.2124 -0.0071
14233SOL    HW253629   8.733   2.120   2.066  1.0939  1.7588  0.5811
14234SOL     OW53630   4.966   1.555   2.875  0.2095  0.0303  0.1499
14234SOL    HW153631   5.036   1.487   2.853  0.9391  0.4777  1.0355
14234SOL    HW253632   5.007   1.630   2.926 -0.5162  1.3594 -1.1942
14235SOL     OW53633   2.217   1.944   0.320  0.0945  0.5560  0.3945
14235SOL    HW153634   2.261   1.942   0.230 -0.4758 -0.4162  0.1252
14235SOL    HW253635   2.224   1.854   0.363  0.6965  1.1192  1.4961
14236SOL     OW53636   3.856   1.973   4.964 -0.1994  0.2241  0.1751
14236SOL    HW153637   3.867   1.898   4.899 -0.3517 -0.5369  1.0293
14236SOL    HW253638   3.796   1.945   5.039 -1.2774  1.6054 -0.1325
14237SOL     OW53639   4.969   9.727   1.343  0.6512 -0.0740  0.0931
14237SOL    HW153640   4.872   9.744   1.361  0.4331 -0.6652 -0.4876
14237SOL    HW253641   4.993   9.760   1.251  0.4690 -1.8677 -0.6264
14238SOL     OW53642   1.388   5.207   5.088  0.1685  0.2249 -0.3370
14238SOL    HW153643   1.334   5.182   5.168  0.9229 -0.8291 -0.1488
14238SOL    HW253644   1.441   5.289   5.108  0.6468 -0.2544  0.3744
14239SOL     OW53645   3.165   1.702   3.403  0.1203 -0.1186  0.0876
14239SOL    HW153646   3.253   1.742   3.376  0.4098 -1.8890 -1.6438
14239SOL    HW253647   3.111   1.682   3.322 -0.9090 -1.2453  1.0344
14240SOL     OW53648   2.003   4.059   4.134  0.2874  0.1738 -0.1848
14240SOL    HW153649   2.055   4.020   4.210  0.4333 -1.8570 -1.3020
14240SOL    HW253650   1.913   4.088   4.166  1.1144  1.2638  1.1976
14241SOL     OW53651   7.982   4.108   0.207 -0.0120  0.1370  0.7197
14241SOL    HW153652   7.888   4.143   0.209  0.4559  1.4327  0.5359
14241SOL    HW253653   7.981   4.009   0.220 -1.4116  0.1282  0.6197
14242SOL     OW53654   3.306   2.332   1.489 -0.1265  0.3243 -0.0863
14242SOL    HW153655   3.288   2.246   1.441  2.8647  0.7607 -2.1274
14242SOL    HW253656   3.281   2.409   1.430 -0.3372  0.8774  0.7152
14243SOL     OW53657   8.513   3.785   3.024  0.0449 -0.3877 -0.4048
14243SOL    HW153658   8.462   3.716   2.971 -1.5672 -0.6230  1.3927
14243SOL    HW253659   8.479   3.876   3.000 -2.3635 -0.6207  1.8617
14244SOL     OW53660   0.172   6.399   0.593 -0.4715 -0.1200 -0.3814
14244SOL    HW153661   0.110   6.321   0.595 -1.4543  0.6752  2.0916
14244SOL    HW253662   0.247   6.384   0.658  0.4317  0.1240 -1.3567
14245SOL     OW53663   8.598   0.168   3.679 -0.1241  0.4696  0.5745
14245SOL    HW153664   8.688   0.139   3.712  0.9912  1.1422 -1.7496
14245SOL    HW253665   8.603   0.263   3.648 -1.0789 -0.1106 -1.4666
14246SOL     OW53666   0.529   8.092   1.148  0.1273  0.0474  0.1358
14246SOL    HW153667   0.604   8.026   1.157 -1.5072 -1.7261  1.1833
14246SOL    HW253668   0.545   8.168   1.211  1.9448  0.5965 -0.9525
14247SOL     OW53669   7.762   9.816   1.638  0.5362  0.0793  0.5533
14247SOL    HW153670   7.671   9.784   1.667  0.1052  1.2780  0.5573
14247SOL    HW253671   7.812   9.740   1.597 -0.7150 -0.4521 -0.0315
14248SOL     OW53672   9.571   4.169   2.806 -0.2750 -0.1258 -0.1883
14248SOL    HW153673   9.557   4.075   2.774  0.7137 -0.5666  0.6457
14248SOL    HW253674   9.494   4.196   2.864  0.0081 -0.8520  0.5371
14249SOL     OW53675   2.577   7.563   0.425 -0.1520  0.0255  0.2633
14249SOL    HW153676   2.504   7.624   0.395  0.3038  0.5518  0.2233
14249SOL    HW253677   2.642   7.551   0.350  0.0465 -0.0797  0.4559
14250SOL     OW53678   9.290   7.206   5.005 -0.1763  0.0019 -0.2178
14250SOL    HW153679   9.286   7.225   5.103  0.4494  0.2962 -0.2465
14250SOL    HW253680   9.350   7.128   4.988  2.0531  1.7425 -0.5929
14251SOL     OW53681   7.911   3.557   3.025  0.0560  0.2389 -0.6238
14251SOL    HW153682   7.871   3.479   3.073 -1.9171  0.8246 -1.2475
14251SOL    HW253683   7.993   3.588   3.073 -1.2182  0.0855  1.7090
14252SOL     OW53684   2.145   4.926   4.220 -1.0920 -0.4492  0.0124
14252SOL    HW153685   2.079   4.943   4.293 -1.4868  0.0853 -0.4537
14252SOL    HW253686   2.128   4.991   4.145 -0.6279 -0.9190 -0.5025
14253SOL     OW53687   0.387   3.248   5.525  0.0069  0.0426 -0.6142
14253SOL    HW153688   0.294   3.283   5.535  0.0440 -0.1347  0.3514
14253SOL    HW253689   0.442   3.277   5.603  0.1866 -1.6838 -0.0776
14254SOL     OW53690   8.695   7.147   0.440  0.4456 -0.3868  0.0612
14254SOL    HW153691   8.751   7.077   0.396 -0.5564 -0.4701 -1.1470
14254SOL    HW253692   8.749   7.196   0.508  0.9516 -2.8329  1.4761
14255SOL     OW53693   9.951   2.437   4.183 -0.2968 -0.7708  0.2125
14255SOL    HW153694  10.028   2.440   4.118 -0.5134  2.4649  0.0321
14255SOL    HW253695   9.865   2.436   4.132 -0.4253 -0.9835  0.4354
14256SOL     OW53696   1.233   0.253   1.255 -0.7949 -0.4603  0.2722
14256SOL    HW153697   1.299   0.320   1.220 -2.8182  1.3195 -0.2715
14256SOL    HW253698   1.232   0.258   1.355  1.1822 -1.8151  0.3957
14257SOL     OW53699   7.876   1.960   1.005 -0.1381 -0.3322 -0.2967
14257SOL    HW153700   7.852   2.049   1.046  0.5542 -0.0735 -0.4442
14257SOL    HW253701   7.922   1.975   0.918  1.9394 -0.7635  0.6993
14258SOL     OW53702   4.471   6.528   2.431 -0.4875  0.9542  0.3213
14258SOL    HW153703   4.450   6.455   2.367  0.3328  1.3733 -0.4245
14258SOL    HW253704   4.385   6.564   2.468 -0.9246  0.0796  0.1862
14259SOL     OW53705   7.962   9.943   3.817 -0.3589  0.2710  0.0139
14259SOL    HW153706   7.968   9.958   3.916 -0.2391 -2.0685  0.3814
14259SOL    HW253707   7.866   9.928   3.791 -0.4060  1.0056 -0.2563
14260SOL     OW53708   9.044   9.931   5.025  0.1735  0.1340 -0.0521
14260SOL    HW153709   9.031   9.840   4.985 -2.0721  0.9124 -1.1285
14260SOL    HW253710   9.122   9.976   4.981 -0.7666  0.0259 -1.8743
14261SOL     OW53711   7.771   9.005   4.197  0.1728  0.2725  0.2881
14261SOL    HW153712   7.775   8.926   4.135  1.3864 -0.3795  1.1849
14261SOL    HW253713   7.682   9.050   4.188  0.2980  0.1388 -1.8787
14262SOL     OW53714   7.476   0.589   5.303  0.2680 -0.0039  0.4573
14262SOL    HW153715   7.435   0.644   5.376  0.0340 -0.6441  0.8133
14262SOL    HW253716   7.544   0.527   5.342 -1.0508 -1.5252  0.3530
14263SOL     OW53717   7.778   1.486   1.837  0.0591 -0.0980  0.0888
14263SOL    HW153718   7.753   1.578   1.808 -0.3919 -0.4584 -0.6510
14263SOL    HW253719   7.764   1.477   1.936  0.8537  0.8731  0.2907
14264SOL     OW53720   7.325   0.480   1.355  0.4429  0.2671  0.4626
14264SOL    HW153721   7.368   0.457   1.267  0.8642 -1.2944  1.0636
14264SOL    HW253722   7.394   0.513   1.419  0.0945  1.6617  0.1440
14265SOL     OW53723   0.037   6.939   4.111  0.1548 -0.2586  0.0812
14265SOL    HW153724  -0.004   6.979   4.030  1.0941 -0.0196 -0.2898
14265SOL    HW253725  -0.015   6.965   4.192  0.3912  1.1863 -0.2237
14266SOL     OW53726   9.097   3.664   0.225  0.0012  0.0569 -0.0684
14266SOL    HW153727   9.158   3.667   0.304  0.5707 -1.5095 -0.4205
14266SOL    HW253728   9.089   3.755   0.185 -2.0741  1.3702  3.0983
14267SOL     OW53729   1.853   7.875   4.000 -0.2816  0.1159  0.0300
14267SOL    HW153730   1.801   7.798   4.038 -0.7042  0.8619  0.9823
14267SOL    HW253731   1.816   7.899   3.910 -2.2073  1.2157  1.0705
14268SOL     OW53732   0.587   8.302   1.937  0.6577 -0.6339 -0.1873
14268SOL    HW153733   0.576   8.348   1.849  0.6038 -1.7870 -0.7781
14268SOL    HW253734   0.577   8.370   2.010 -0.2348  0.1733 -1.0302
14269SOL     OW53735   4.790   2.842   0.521 -0.1535  0.1175  0.0569
14269SOL    HW153736   4.869   2.830   0.460 -0.3770 -0.4622 -0.1176
14269SOL    HW253737   4.730   2.912   0.483  1.2344  1.9612  1.1689
14270SOL     OW53738   1.419   4.012   3.239  0.3325 -0.5494 -0.4618
14270SOL    HW153739   1.511   4.040   3.212 -0.0812  0.5348 -0.7475
14270SOL    HW253740   1.377   4.083   3.295 -0.9598 -0.2852 -1.7362
14271SOL     OW53741   9.638   6.784   3.959 -0.6452 -0.0086 -0.2918
14271SOL    HW153742   9.541   6.771   3.981 -0.7807  0.8162 -0.3541
14271SOL    HW253743   9.683   6.832   4.035 -0.5899  0.7837 -0.8165
14272SOL     OW53744   3.606   7.794   2.323  0.4482  0.1517  0.1764
14272SOL    HW153745   3.690   7.834   2.361  0.3015 -0.4033  1.0911
14272SOL    HW253746   3.628   7.708   2.278  0.2036 -0.5594  1.3990
14273SOL     OW53747   4.079   1.340   4.873 -0.0591  0.3192  0.2109
14273SOL    HW153748   4.002   1.325   4.935 -1.1063  0.5355 -1.0048
14273SOL    HW253749   4.126   1.254   4.856  0.3514  0.2936  1.4539
14274SOL     OW53750   8.952   3.349   3.905 -0.2161 -0.1761  0.3620
14274SOL    HW153751   8.860   3.316   3.926 -0.3632 -0.9181 -1.3419
14274SOL    HW253752   8.946   3.435   3.854  0.0427 -0.1597  0.3564
14275SOL     OW53753   8.884   8.691   4.082 -0.0668 -0.4033 -0.0482
14275SOL    HW153754   8.979   8.707   4.107  0.5110 -0.1450 -2.3301
14275SOL    HW253755   8.863   8.594   4.090 -0.0104 -0.2790  1.7506
14276SOL     OW53756   7.903   7.943   3.128 -0.0187  0.2993 -0.2017
14276SOL    HW153757   7.889   7.884   3.048 -0.9122  0.4316 -0.1454
14276SOL    HW253758   8.001   7.959   3.140  0.1968 -0.6898 -0.5689
14277SOL     OW53759   3.746   8.976   4.950 -0.3954 -0.4509  0.6910
14277SOL    HW153760   3.784   8.885   4.970 -2.2257 -1.4589 -0.2453
14277SOL    HW253761   3.812   9.028   4.896  1.2656 -0.6608  2.4384
14278SOL     OW53762   4.850   8.118   5.282 -0.3183  0.3059  0.3967
14278SOL    HW153763   4.793   8.187   5.328  1.9654  1.4396  1.6011
14278SOL    HW253764   4.824   8.027   5.315 -0.4571  0.9138  2.0405
14279SOL     OW53765   7.197   7.668   2.493  0.2253 -0.2687 -0.1257
14279SOL    HW153766   7.179   7.763   2.467  1.6209 -0.1552 -0.7038
14279SOL    HW253767   7.289   7.643   2.465 -0.7221 -2.3214 -1.4620
14280SOL     OW53768   6.628   0.940   1.487  0.1142  0.1649 -0.0206
14280SOL    HW153769   6.541   0.967   1.528  0.2018  0.8925 -0.2968
14280SOL    HW253770   6.616   0.923   1.390  0.1891 -0.1711  0.0296
14281SOL     OW53771   1.292   2.157   4.202 -0.3746 -0.2642  0.6564
14281SOL    HW153772   1.259   2.233   4.259 -1.4485  1.2501 -1.9020
14281SOL    HW253773   1.241   2.074   4.224 -1.0475  0.3959  1.6263
14282SOL     OW53774   1.359   9.456   1.456  0.1450  0.2905 -0.0439
14282SOL    HW153775   1.293   9.381   1.453 -0.9916  1.3358 -4.5563
14282SOL    HW253776   1.426   9.445   1.383 -0.0926  3.6630 -0.8441
14283SOL     OW53777   2.100   5.728   0.944 -0.1568  0.1216  0.3894
14283SOL    HW153778   2.040   5.794   0.988 -0.5700  1.8827 -2.6801
14283SOL    HW253779   2.196   5.756   0.957 -0.2753  0.6036  0.2267
14284SOL     OW53780   7.224   9.808   0.929  0.0777  0.2676  0.1829
14284SOL    HW153781   7.181   9.839   0.844  0.5499 -0.0273 -0.1698
14284SOL    HW253782   7.317   9.776   0.909  0.9519  2.0967  1.1274
14285SOL     OW53783   1.826   0.238   2.633 -0.4616 -0.6069  0.6653
14285SOL    HW153784   1.784   0.317   2.588 -1.0340 -1.4854 -0.3828
14285SOL    HW253785   1.754   0.174   2.660  0.1246 -1.7159 -0.3567
14286SOL     OW53786   3.457   6.503   3.744  0.3730  0.3917  0.1075
14286SOL    HW153787   3.500   6.577   3.693 -1.2544  1.6052  0.4847
14286SOL    HW253788   3.473   6.416   3.696 -0.8891  1.4607 -2.3653
14287SOL     OW53789   3.492   5.640   1.501  0.3737  0.0282  0.3278
14287SOL    HW153790   3.533   5.566   1.553  2.6682  1.0954  0.1167
14287SOL    HW253791   3.426   5.689   1.558  0.2198 -1.0071  1.0497
14288SOL     OW53792   1.123   3.479   0.268  0.0978 -0.5948 -0.3370
14288SOL    HW153793   1.073   3.483   0.181  0.9921  0.2497 -0.8221
14288SOL    HW253794   1.073   3.421   0.332 -2.3915  1.5430 -0.2356
14289SOL     OW53795   4.153   2.356   0.752  0.0235  0.0815  0.2450
14289SOL    HW153796   4.241   2.385   0.717 -0.3373  0.2575 -0.5234
14289SOL    HW253797   4.107   2.433   0.797  0.2759 -0.0209  0.6808
14290SOL     OW53798   4.617   1.105   4.743 -0.1147  0.2639  0.1366
14290SOL    HW153799   4.678   1.027   4.728  1.2315  1.1913  0.6941
14290SOL    HW253800   4.600   1.151   4.656 -1.5756 -1.1217 -0.3259
14291SOL     OW53801   9.752   0.258   3.401 -0.6973  0.0553 -0.2204
14291SOL    HW153802   9.657   0.285   3.414 -0.7479  0.1368 -0.7358
14291SOL    HW253803   9.767   0.237   3.304 -0.3974 -0.7420 -0.0007
14292SOL     OW53804   4.076   8.526   2.132  0.1023  0.0800  0.6095
14292SOL    HW153805   4.110   8.618   2.151 -0.7620  0.7367 -0.9790
14292SOL    HW253806   4.024   8.493   2.211  2.6026 -0.1198  2.2464
14293SOL     OW53807   1.315   4.392   3.008 -0.8800  0.2728  0.6254
14293SOL    HW153808   1.371   4.455   2.955 -1.5110  0.2011 -0.1448
14293SOL    HW253809   1.276   4.323   2.946 -0.2461 -0.8370  1.4438
14294SOL     OW53810   3.181   4.634   5.437 -0.2135 -0.0176 -0.2271
14294SOL    HW153811   3.141   4.716   5.478 -1.0138 -0.2331 -0.5701
14294SOL    HW253812   3.152   4.553   5.487  1.8423  0.0057  1.0878
14295SOL     OW53813   0.104   0.394   5.285  0.4093  0.0034 -0.2380
14295SOL    HW153814   0.155   0.384   5.371  0.4270  2.0950  0.0143
14295SOL    HW253815   0.007   0.408   5.305  0.2920 -0.2622 -0.6033
14296SOL     OW53816   2.177   7.399   1.978 -0.2981 -0.4612  0.1628
14296SOL    HW153817   2.218   7.400   2.069  0.4368  1.4341 -0.1601
14296SOL    HW253818   2.084   7.361   1.983  0.1490 -1.4001  1.5024
14297SOL     OW53819   9.029   6.515   2.639  0.3111 -0.1887  0.0536
14297SOL    HW153820   9.123   6.546   2.653  0.2939 -0.4982  0.8966
14297SOL    HW253821   8.969   6.564   2.702 -0.0025 -0.4529 -0.0436
14298SOL     OW53822   4.962   2.976   0.166  0.4732  0.0786  0.0992
14298SOL    HW153823   4.915   3.037   0.230  0.0347 -0.0502 -0.0985
14298SOL    HW253824   5.045   3.021   0.132 -1.0433  1.4915 -1.8202
14299SOL     OW53825   3.571   2.768   3.490  0.2645 -0.6634  0.4695
14299SOL    HW153826   3.602   2.685   3.443  1.5942  0.1641 -0.1326
14299SOL    HW253827   3.626   2.846   3.460 -1.5723  0.6253  0.3170
14300SOL     OW53828   0.905   9.308   1.478  0.3042 -0.1195 -0.2844
14300SOL    HW153829   0.913   9.391   1.533  2.4316 -1.4620  1.5670
14300SOL    HW253830   0.861   9.236   1.532  0.1300 -0.7300 -1.2267
14301SOL     OW53831   3.389   9.096   5.623 -0.2734  0.4408  0.3450
14301SOL    HW153832   3.477   9.127   5.659 -0.1455 -0.5795  0.9351
14301SOL    HW253833   3.374   9.135   5.532  0.2129  1.6280  0.7717
14302SOL     OW53834   4.442   6.624   2.013  0.1075 -0.2664  0.3623
14302SOL    HW153835   4.537   6.613   2.041  0.4478 -0.6916 -0.9262
14302SOL    HW253836   4.427   6.578   1.926 -0.8809  1.1113 -0.2299
14303SOL     OW53837   3.717   9.835   3.910  0.2817 -0.0668 -0.2860
14303SOL    HW153838   3.774   9.916   3.924 -1.9985  1.8334 -1.6429
14303SOL    HW253839   3.720   9.777   3.991  1.1176  1.8956  1.1185
14304SOL     OW53840   1.833   8.986   0.224 -0.4823 -0.0670  0.1542
14304SOL    HW153841   1.817   8.924   0.146 -0.7335  0.6526 -0.3673
14304SOL    HW253842   1.925   9.024   0.218 -0.2410 -0.5747  0.6081
14305SOL     OW53843   3.678   1.095   1.995  0.1786 -0.2323  0.3990
14305SOL    HW153844   3.775   1.078   2.014  0.1262 -0.4665  0.4570
14305SOL    HW253845   3.648   1.036   1.920  0.5800  1.2177 -0.9363
14306SOL     OW53846   9.095   3.418   3.253 -0.1385  0.0962 -0.0784
14306SOL    HW153847   9.153   3.349   3.209 -1.5839 -1.2731  0.1237
14306SOL    HW253848   9.000   3.387   3.250 -0.5414  1.1363  1.8482
14307SOL     OW53849   3.672   5.486   5.586 -0.3098  0.5691  0.1370
14307SOL    HW153850   3.700   5.539   5.665 -1.7617  1.7808 -0.1425
14307SOL    HW253851   3.593   5.529   5.542  0.1090 -0.3850 -1.6370
14308SOL     OW53852   7.771   9.409   1.900 -0.4292 -0.4787  0.6852
14308SOL    HW153853   7.684   9.437   1.943 -0.5223 -0.0168  0.2010
14308SOL    HW253854   7.753   9.338   1.833 -0.8294  1.5745 -1.4462
14309SOL     OW53855   0.555   5.544   4.963 -0.1040 -1.0655 -0.4861
14309SOL    HW153856   0.591   5.556   5.055  0.3803  1.3928 -0.9551
14309SOL    HW253857   0.631   5.530   4.899 -0.3308 -1.1204 -0.7425
14310SOL     OW53858   1.087   4.279   5.584 -0.3787 -0.1958 -0.6754
14310SOL    HW153859   1.010   4.341   5.596  0.2662  0.4497  0.1044
14310SOL    HW253860   1.099   4.224   5.666  0.5748  0.3560 -0.4417
14311SOL     OW53861   4.514   2.036   2.578 -0.0834 -0.0235  0.0290
14311SOL    HW153862   4.571   2.095   2.520 -1.2430  1.1466  0.0457
14311SOL    HW253863   4.553   2.033   2.670  0.3295  0.2150 -0.1344
14312SOL     OW53864   4.719   7.974   4.998 -0.7175  0.1181 -0.3547
14312SOL    HW153865   4.660   7.963   4.918 -1.7573  0.8954  0.3015
14312SOL    HW253866   4.771   8.059   4.990 -1.4714  0.6414  0.1973
14313SOL     OW53867   3.725   5.701   3.411 -0.3729  0.6848 -0.1424
14313SOL    HW153868   3.752   5.623   3.467  1.3803 -0.1167 -2.0396
14313SOL    HW253869   3.630   5.726   3.432  0.4371  0.8626  3.6131
14314SOL     OW53870   3.548   4.994   4.743 -0.1892 -0.3014 -0.3800
14314SOL    HW153871   3.637   5.041   4.742 -0.2941 -0.0782  0.4396
14314SOL    HW253872   3.482   5.045   4.688 -0.0978  0.1088 -0.1106
14315SOL     OW53873   2.087   0.987   2.181 -0.0285  0.5296 -0.4595
14315SOL    HW153874   2.119   0.923   2.111  0.2610  0.8687 -0.6376
14315SOL    HW253875   2.157   0.996   2.252  0.9607  2.4847 -1.6477
14316SOL     OW53876   2.184   3.708   2.927  0.4292  0.5296  0.9317
14316SOL    HW153877   2.282   3.689   2.938  0.2235 -0.1938  1.6140
14316SOL    HW253878   2.144   3.641   2.865  0.6998  1.8877 -0.7418
14317SOL     OW53879   8.399   5.010   0.921  0.1515  0.3671 -0.0111
14317SOL    HW153880   8.312   5.046   0.955  0.2622 -1.9894  3.0074
14317SOL    HW253881   8.473   5.073   0.943 -0.5761  1.7816 -1.4747
14318SOL     OW53882   3.359   3.490   4.274 -0.4178 -0.2764  0.2827
14318SOL    HW153883   3.302   3.542   4.210 -0.5099  0.6064  1.0757
14318SOL    HW253884   3.356   3.393   4.250 -1.7162 -0.1481 -0.0893
14319SOL     OW53885   1.437   0.430   1.190 -0.6188 -0.0309  0.0045
14319SOL    HW153886   1.490   0.430   1.105  2.2231 -0.3140  1.7036
14319SOL    HW253887   1.388   0.516   1.199 -0.1897  0.3868 -1.4667
14320SOL     OW53888   3.991   0.001   2.763 -0.4456 -0.6144  0.1748
14320SOL    HW153889   4.033  -0.020   2.675  0.3335 -1.9952  0.8501
14320SOL    HW253890   4.062   0.006   2.833 -0.9933  1.0223  0.6455
14321SOL     OW53891   8.376   0.863   2.986  0.1246  0.2077 -0.2914
14321SOL    HW153892   8.446   0.922   2.944 -0.1235  2.0940  1.8447
14321SOL    HW253893   8.410   0.829   3.074 -1.1673  0.1318  0.1865
14322SOL     OW53894   8.474   4.023   2.445  0.3604  0.2782  0.2950
14322SOL    HW153895   8.490   4.072   2.531 -1.0903  2.2321 -0.4988
14322SOL    HW253896   8.555   4.031   2.386  0.1864  1.7039  0.2179
14323SOL     OW53897   9.152   5.161   1.444  0.0824  0.4892  0.1188
14323SOL    HW153898   9.088   5.179   1.370  1.2048  0.4312 -0.8801
14323SOL    HW253899   9.228   5.226   1.439  0.8712 -0.4091  0.3742
14324SOL     OW53900   7.609   6.762   3.746 -0.3425  0.1126  0.3222
14324SOL    HW153901   7.638   6.763   3.841  0.1250  2.5602  0.1847
14324SOL    HW253902   7.682   6.798   3.688 -1.2083  0.1559 -0.7585
14325SOL     OW53903   8.490   7.289   4.491  0.2015 -0.0283  0.3974
14325SOL    HW153904   8.447   7.266   4.403  0.4608 -0.4323  0.3781
14325SOL    HW253905   8.576   7.338   4.475 -0.4214  1.1036  0.4381
14326SOL     OW53906   2.922   9.049   4.975  0.7045 -0.3254 -0.3014
14326SOL    HW153907   2.986   9.080   5.045 -1.9691  1.5854  1.3728
14326SOL    HW253908   2.919   9.116   4.901  1.5229 -1.0138 -0.9637
14327SOL     OW53909   3.183   8.823   0.324 -0.2999 -0.3029 -0.0946
14327SOL    HW153910   3.194   8.724   0.313  0.5414 -0.2828  0.4749
14327SOL    HW253911   3.130   8.841   0.407  0.9131 -0.2499  0.6877
14328SOL     OW53912   7.870   6.866   2.500 -0.4499 -0.4122 -0.7415
14328SOL    HW153913   7.946   6.804   2.482  0.0589 -0.1690  0.5121
14328SOL    HW253914   7.791   6.813   2.532  0.0757 -0.3932  0.6054
14329SOL     OW53915   2.082   0.362   4.994  0.5481  0.2903 -0.4605
14329SOL    HW153916   2.144   0.429   4.954  0.3363  1.0137  0.4114
14329SOL    HW253917   2.077   0.282   4.934  2.6857  0.0126 -0.3033
14330SOL     OW53918   2.010   7.670   5.103 -0.0051  0.4637 -0.3715
14330SOL    HW153919   2.109   7.660   5.096  0.0364  0.5685  0.0515
14330SOL    HW253920   1.986   7.704   5.194 -0.5485 -1.0547  0.0772
14331SOL     OW53921   0.908   4.009   0.820 -0.2203 -0.0787  0.5553
14331SOL    HW153922   0.814   4.043   0.829  0.1935  0.9760  1.0547
14331SOL    HW253923   0.961   4.073   0.766  0.7193  0.3890  1.9927
14332SOL     OW53924   8.474   4.879   1.139  0.3203  0.6081 -0.4466
14332SOL    HW153925   8.470   4.780   1.130 -0.3884  0.7102 -1.3330
14332SOL    HW253926   8.430   4.922   1.060 -1.7386  1.6077  1.1925
14333SOL     OW53927   2.261   5.547   4.857 -0.3293  0.2767 -0.0188
14333SOL    HW153928   2.265   5.578   4.762  1.2516 -1.3618 -0.5036
14333SOL    HW253929   2.174   5.576   4.897 -1.1082  0.8171 -2.0185
14334SOL     OW53930   3.019   5.846   5.368 -0.5952  0.0239 -0.2858
14334SOL    HW153931   3.065   5.920   5.418 -2.2306  0.6470  0.3316
14334SOL    HW253932   3.056   5.758   5.398 -0.1072  0.4964  0.5365
14335SOL     OW53933   1.024   2.601   3.274 -0.0000 -0.1742  0.5080
14335SOL    HW153934   0.930   2.633   3.273 -0.2765 -0.9672  0.2214
14335SOL    HW253935   1.075   2.645   3.347 -0.2294  1.3010 -0.2122
14336SOL     OW53936   1.286   8.370   3.527 -0.1035 -0.3636  0.1472
14336SOL    HW153937   1.241   8.449   3.485 -1.4236  0.6736  3.3660
14336SOL    HW253938   1.346   8.402   3.601  0.5562 -2.2598  0.4450
14337SOL     OW53939   1.516   9.865   2.789  0.1282 -0.2757  0.0279
14337SOL    HW153940   1.583   9.812   2.841  0.7225  1.1361  0.7430
14337SOL    HW253941   1.424   9.843   2.820  0.5029  0.9255  2.0591
14338SOL     OW53942   3.159   1.697   5.260  0.0106  0.4749 -0.1906
14338SOL    HW153943   3.084   1.719   5.198  0.6093 -0.1746 -1.1679
14338SOL    HW253944   3.167   1.768   5.330 -1.2915  0.7152 -0.2808
14339SOL     OW53945   3.074   7.624   4.054 -0.4684 -0.2431  0.3795
14339SOL    HW153946   3.143   7.565   4.011  0.2188 -0.7816  2.1881
14339SOL    HW253947   2.985   7.579   4.053  0.2149 -1.6997  2.4888
14340SOL     OW53948   9.981   3.165   4.725 -0.4206  0.0137  0.0629
14340SOL    HW153949  10.022   3.254   4.704 -3.1571  1.0520 -1.0363
14340SOL    HW253950   9.923   3.136   4.649 -1.5622 -1.5164  1.4830
14341SOL     OW53951   0.186   7.262   3.038 -0.1014  0.2556  0.3562
14341SOL    HW153952   0.148   7.169   3.038 -0.0744  0.2452  0.4318
14341SOL    HW253953   0.128   7.321   3.095 -1.3445  0.7722 -1.3804
14342SOL     OW53954   7.790   5.430   0.132  0.2127  0.0966 -0.0084
14342SOL    HW153955   7.702   5.383   0.120 -0.5720  1.5850 -0.1663
14342SOL    HW253956   7.799   5.502   0.063  1.7354 -0.3083 -0.2320
14343SOL     OW53957   5.022   6.429   1.449 -0.1815  0.1332 -0.2094
14343SOL    HW153958   4.968   6.513   1.444  0.0521  0.3616  0.9081
14343SOL    HW253959   4.974   6.363   1.507 -0.1920 -0.3794 -0.7967
14344SOL     OW53960   8.637   9.578   1.766  0.3801 -0.1303 -0.0339
14344SOL    HW153961   8.672   9.576   1.859 -1.2375  1.0235  0.6254
14344SOL    HW253962   8.577   9.500   1.751  0.8276 -0.4465 -0.1951
14345SOL     OW53963   9.001   5.619   0.686 -0.1336 -0.6040 -0.0676
14345SOL    HW153964   8.945   5.671   0.622 -1.0920 -1.8851 -0.2949
14345SOL    HW253965   9.068   5.565   0.636  0.8541  0.3891  0.1670
14346SOL     OW53966   6.235   1.223   1.361 -0.2107 -0.2766  0.3891
14346SOL    HW153967   6.175   1.281   1.416 -0.2163 -0.7439  0.8825
14346SOL    HW253968   6.323   1.269   1.348 -0.2144 -0.1563  0.7777
14347SOL     OW53969   8.864   1.304   4.598  0.6985 -0.5501  0.1558
14347SOL    HW153970   8.891   1.235   4.531 -0.5848 -0.7957 -0.1186
14347SOL    HW253971   8.879   1.269   4.690  1.9222 -0.4330  0.0106
14348SOL     OW53972   3.732   0.699   4.593  0.3720  0.2048  0.0604
14348SOL    HW153973   3.830   0.688   4.577  0.4735  0.3796  0.5477
14348SOL    HW253974   3.684   0.704   4.506  1.0581  2.5987 -0.2101
14349SOL     OW53975   8.439   5.782   2.366  0.1663 -0.0334  0.0244
14349SOL    HW153976   8.442   5.780   2.266 -0.0098 -2.0482  0.0327
14349SOL    HW253977   8.467   5.693   2.402  1.5009  1.0733  1.8164
14350SOL     OW53978   4.263   0.278   1.934 -0.1557  0.2215  0.3048
14350SOL    HW153979   4.194   0.319   1.875  1.0223  1.2339 -0.3916
14350SOL    HW253980   4.223   0.200   1.982 -1.1903 -0.5140 -1.6828
14351SOL     OW53981   4.207   8.331   5.634  0.4893 -0.0210  0.1615
14351SOL    HW153982   4.250   8.395   5.571  4.1378 -1.1498  1.3803
14351SOL    HW253983   4.197   8.242   5.590  0.0881  0.0250  0.1528
14352SOL     OW53984   9.616   9.246   5.281 -0.0503  0.2882  0.1174
14352SOL    HW153985   9.682   9.205   5.217  0.3966  2.8996 -1.1935
14352SOL    HW253986   9.657   9.328   5.322 -1.2339 -0.0248  1.9547
14353SOL     OW53987   8.306   3.656   0.629  0.2699 -0.5300 -0.3736
14353SOL    HW153988   8.233   3.697   0.683  1.3339  0.4373  0.3456
14353SOL    HW253989   8.352   3.586   0.683  1.9097  1.0499  0.3137
14354SOL     OW53990   2.435   7.813   3.451 -0.4835 -0.1136 -0.0361
14354SOL    HW153991   2.389   7.765   3.376  0.2150 -1.1461  0.1809
14354SOL    HW253992   2.391   7.901   3.466 -2.3039 -1.0091  0.0718
14355SOL     OW53993   4.569   9.111   2.844  0.1043 -0.2546 -0.2865
14355SOL    HW153994   4.474   9.081   2.854  0.4089 -0.4377  2.2670
14355SOL    HW253995   4.595   9.167   2.922  2.1194 -0.2180 -0.9511
14356SOL     OW53996   1.350   2.024   0.094  0.6454  0.5783 -0.2648
14356SOL    HW153997   1.344   2.107   0.039 -0.8148  0.7926  0.1945
14356SOL    HW253998   1.289   2.031   0.173  2.7197  0.2907  1.4244
14357SOL     OW53999   5.174   2.998   0.824 -0.6996  0.4795 -0.4187
14357SOL    HW154000   5.265   2.973   0.857 -0.7085 -0.3840 -1.0366
14357SOL    HW254001   5.135   2.922   0.772 -2.4170  0.2533  1.1598
14358SOL     OW54002   3.408   8.967   0.341  0.0654  0.4350  0.3732
14358SOL    HW154003   3.337   8.904   0.309  0.9637 -0.3830 -0.0244
14358SOL    HW254004   3.491   8.954   0.287  0.2587  1.9799  0.2745
14359SOL     OW54005   4.296   9.266   3.515  0.0758 -0.1394  0.2006
14359SOL    HW154006   4.371   9.238   3.455 -0.1298 -0.8451  0.2752
14359SOL    HW254007   4.312   9.231   3.607  0.7436  1.5200  0.7471
14360SOL     OW54008   3.812   5.075   4.706  0.3421 -0.1410 -0.4421
14360SOL    HW154009   3.820   5.068   4.607 -0.2058 -0.0744 -0.4906
14360SOL    HW254010   3.901   5.055   4.748  0.6513  0.1243 -0.9599
14361SOL     OW54011   9.901   7.766   1.774 -0.4490  0.1138  0.4123
14361SOL    HW154012   9.984   7.783   1.828 -1.6684  0.5556  2.1865
14361SOL    HW254013   9.820   7.788   1.829 -1.7457  0.1956 -1.4706
14362SOL     OW54014   9.805   8.247   2.786 -0.1994  0.1979  0.6803
14362SOL    HW154015   9.734   8.206   2.730 -0.3126 -0.4235  1.2771
14362SOL    HW254016   9.891   8.248   2.735 -0.3699 -0.0814  0.3863
14363SOL     OW54017   3.961   1.172   1.831 -0.8104 -0.2456 -0.4037
14363SOL    HW154018   4.004   1.083   1.849 -0.6313 -0.5984 -2.4570
14363SOL    HW254019   3.973   1.231   1.910 -0.8156 -2.0052  0.9469
14364SOL     OW54020   8.395   0.677   5.504  0.0436 -0.4571  0.7093
14364SOL    HW154021   8.433   0.613   5.437  0.1224  0.4887 -0.1665
14364SOL    HW254022   8.334   0.628   5.566  2.2622 -1.8797  1.8008
14365SOL     OW54023   0.822   2.230   2.433  0.2866 -0.2132  0.2361
14365SOL    HW154024   0.889   2.207   2.504 -0.0123  1.4312  1.0687
14365SOL    HW254025   0.862   2.295   2.369  0.4542 -1.4721 -0.9691
14366SOL     OW54026   1.903   4.424   3.503 -0.2627  0.0719  0.1615
14366SOL    HW154027   1.949   4.344   3.467 -1.8260 -1.9743  2.5118
14366SOL    HW254028   1.869   4.481   3.428 -0.3521 -2.1900 -1.5344
14367SOL     OW54029   1.533   2.391   4.436  0.2965 -0.0227 -0.6113
14367SOL    HW154030   1.484   2.399   4.349 -1.4158  1.1029  0.4262
14367SOL    HW254031   1.474   2.347   4.503  2.8884 -4.3214 -0.9534
14368SOL     OW54032   1.969   1.280   0.054 -0.0560 -0.2687  0.0634
14368SOL    HW154033   1.922   1.324   0.130 -0.7230 -1.2501  0.2398
14368SOL    HW254034   2.053   1.329   0.033 -0.6516  0.9305  0.4109
14369SOL     OW54035   1.909   8.495   3.255 -0.5860 -0.3314  0.2032
14369SOL    HW154036   1.889   8.433   3.330  0.4829 -1.3147 -0.3119
14369SOL    HW254037   2.007   8.512   3.250 -0.8314  1.2252  0.1857
14370SOL     OW54038   2.123   3.716   0.843  0.1230 -0.7206 -0.2660
14370SOL    HW154039   2.112   3.800   0.897  1.9172 -0.2431 -0.6141
14370SOL    HW254040   2.104   3.637   0.901  0.5060 -0.1545  0.6484
14371SOL     OW54041   3.135   2.438   0.824 -0.4891 -0.0389  0.1048
14371SOL    HW154042   3.113   2.528   0.785 -0.7681  0.2023  0.8229
14371SOL    HW254043   3.062   2.374   0.802 -1.5889  0.5846  1.8775
14372SOL     OW54044   9.189   3.715   1.351 -0.1054  0.1582 -0.1334
14372SOL    HW154045   9.178   3.617   1.366 -2.2507  0.2348 -1.0667
14372SOL    HW254046   9.201   3.761   1.439 -1.7990 -0.6311  0.5304
14373SOL     OW54047   8.763   3.475   5.381  0.5590  0.1770  0.2274
14373SOL    HW154048   8.691   3.424   5.333  0.8412 -0.9036  0.9379
14373SOL    HW254049   8.848   3.424   5.378  1.1064  1.0912  0.0742
14374SOL     OW54050   7.741   1.973   2.756  0.2780  0.0594 -0.4477
14374SOL    HW154051   7.641   1.979   2.750  0.2130  1.8406  1.7354
14374SOL    HW254052   7.768   1.877   2.755 -1.4447 -0.4568 -0.9973
14375SOL     OW54053   2.644   7.758   3.144 -0.6932 -0.0003  0.5982
14375SOL    HW154054   2.633   7.663   3.112 -1.9202  1.0246 -2.2302
14375SOL    HW254055   2.735   7.791   3.120 -0.6753 -0.0958  0.5360
14376SOL     OW54056   8.533   3.173   2.813  0.1727 -0.3536  0.2620
14376SOL    HW154057   8.489   3.086   2.838 -0.0858 -0.7837 -1.5691
14376SOL    HW254058   8.470   3.227   2.757  0.5144  0.8120  0.9971
14377SOL     OW54059   8.552   5.211   2.492  0.1581 -0.4360  0.4090
14377SOL    HW154060   8.530   5.193   2.396 -1.5003  1.2181  0.4594
14377SOL    HW254061   8.623   5.281   2.497 -1.1311  0.8693  0.4280
14378SOL     OW54062   0.162   0.404   4.062 -0.3092  0.2031 -0.1322
14378SOL    HW154063   0.158   0.310   4.028  2.1159 -0.0247  0.1440
14378SOL    HW254064   0.142   0.405   4.160  1.4894 -0.2808  0.2541
14379SOL     OW54065   2.928   9.721   0.284 -0.7226  0.1806 -0.3772
14379SOL    HW154066   2.906   9.636   0.331 -2.0862 -0.1035 -1.5260
14379SOL    HW254067   2.968   9.701   0.195  1.1538  0.7300  0.3167
14380SOL     OW54068   8.891   1.190   4.071  0.5917  0.5399  0.3071
14380SOL    HW154069   8.824   1.117   4.078 -0.2964  1.1045 -1.9092
14380SOL    HW254070   8.851   1.275   4.105  0.2630  0.8191 -0.7650
14381SOL     OW54071   9.489   7.491   5.396 -0.4074  0.0112  0.7759
14381SOL    HW154072   9.506   7.561   5.326 -0.9889  0.3930  1.0113
14381SOL    HW254073   9.571   7.480   5.453 -1.4939  3.1778  3.1016
14382SOL     OW54074   3.077   1.947   0.789 -0.0788 -0.5815 -0.3602
14382SOL    HW154075   3.086   1.883   0.712 -1.1662 -0.7960 -0.3197
14382SOL    HW254076   2.999   2.007   0.773  0.0284 -0.2631  0.3175
14383SOL     OW54077   9.667   7.327   1.007  0.3639  0.2538  0.3730
14383SOL    HW154078   9.723   7.380   1.071  1.4334  0.1326 -0.4464
14383SOL    HW254079   9.677   7.364   0.915  0.3953 -0.8089 -0.0558
14384SOL     OW54080   0.864   6.237   2.729 -0.4448 -0.8008 -0.2434
14384SOL    HW154081   0.879   6.325   2.685  0.2979 -0.1918  1.2277
14384SOL    HW254082   0.952   6.198   2.758 -0.9805 -0.8902  1.3021
  10.00000  10.00000   5.64267
